<event>
 7    1  0.4430431E-010  0.4778727E+02  0.7816164E-02  0.1312668E+00
        -11   -1    0    0    0    0  0.00000000000E+00  0.00000000000E+00  0.45593999997E+02  0.45594000000E+02  0.51100000000E-03 0.  1.
         11   -1    0    0    0    0 -0.00000000000E+00 -0.00000000000E+00 -0.45593999997E+02  0.45594000000E+02  0.51100000000E-03 0. -1.
    9900012    2    1    2    0    0  0.28444896264E+02  0.25741387989E+02  0.20295129757E+02  0.47787268774E+02  0.19999989649E+02 0.  0.
        -12    1    1    2    0    0 -0.28444896264E+02 -0.25741387989E+02 -0.20295129757E+02  0.43400731226E+02  0.00000000000E+00 0.  1.
         11    1    3    3    0    0  0.20284812119E+02  0.17247056322E+02  0.12338257247E+02  0.29345649535E+02  0.51100000000E-03 0. -1.
        -11    1    3    3    0    0  0.56388335166E+01  0.70725762023E+01  0.11000241258E+02  0.14241597016E+02  0.51100000000E-03 0.  1.
         12    1    3    3    0    0  0.25212506292E+01  0.14217554643E+01 -0.30433687483E+01  0.42000222230E+01  0.00000000000E+00 0. -1.
</event>
<event>
 7    1  0.4430431E-010  0.4778727E+02  0.7816164E-02  0.1312668E+00
        -11   -1    0    0    0    0  0.00000000000E+00  0.00000000000E+00  0.45593999997E+02  0.45594000000E+02  0.51100000000E-03 0.  1.
         11   -1    0    0    0    0 -0.00000000000E+00 -0.00000000000E+00 -0.45593999997E+02  0.45594000000E+02  0.51100000000E-03 0. -1.
    9900012    2    1    2    0    0 -0.99536662894E+01 -0.39176133276E+02 -0.15804386807E+02  0.47787268054E+02  0.19999986367E+02 0.  0.
        -12    1    1    2    0    0  0.99536662894E+01  0.39176133276E+02  0.15804386807E+02  0.43400731946E+02  0.00000000000E+00 0.  1.
         11    1    3    3    0    0 -0.40298650917E+01 -0.89286412950E+01 -0.10402563812E+02  0.14288939155E+02  0.51100000000E-03 0. -1.
        -11    1    3    3    0    0  0.16148193739E+01 -0.17454459017E+02 -0.62885682891E+01  0.18622885721E+02  0.51100000000E-03 0.  1.
        -12    1    3    3    0    0 -0.75386205715E+01 -0.12793032964E+02  0.88674529444E+00  0.14875443178E+02  0.00000000000E+00 0.  1.
</event>
<event>
 7    1  0.4430431E-010  0.4778727E+02  0.7816164E-02  0.1312668E+00
        -11   -1    0    0    0    0  0.00000000000E+00  0.00000000000E+00  0.45593999997E+02  0.45594000000E+02  0.51100000000E-03 0.  1.
         11   -1    0    0    0    0 -0.00000000000E+00 -0.00000000000E+00 -0.45593999997E+02  0.45594000000E+02  0.51100000000E-03 0. -1.
    9900012    2    1    2    0    0  0.27941655057E+02  0.14133276022E+02 -0.30052250835E+02  0.47787270067E+02  0.19999995543E+02 0.  0.
        -12    1    1    2    0    0 -0.27941655057E+02 -0.14133276022E+02  0.30052250835E+02  0.43400729933E+02  0.00000000000E+00 0.  1.
         11    1    3    3    0    0  0.11206643199E+02  0.62132117112E+01 -0.15714090846E+02  0.20276229998E+02  0.51100000000E-03 0. -1.
        -11    1    3    3    0    0  0.89833051023E+01 -0.14780505632E+00 -0.13598191174E+02  0.16298233658E+02  0.51100000000E-03 0.  1.
         12    1    3    3    0    0  0.77517067555E+01  0.80678693675E+01 -0.73996881492E+00  0.11212806411E+02  0.00000000000E+00 0. -1.
</event>
<event>
 7    1  0.4430431E-010  0.4778727E+02  0.7816164E-02  0.1312668E+00
        -11   -1    0    0    0    0  0.00000000000E+00  0.00000000000E+00  0.45593999997E+02  0.45594000000E+02  0.51100000000E-03 0.  1.
         11   -1    0    0    0    0 -0.00000000000E+00 -0.00000000000E+00 -0.45593999997E+02  0.45594000000E+02  0.51100000000E-03 0. -1.
    9900012    2    1    2    0    0  0.24868967606E+01  0.28649005542E+02 -0.32506504634E+02  0.47787273998E+02  0.20000013465E+02 0.  0.
        -12    1    1    2    0    0 -0.24868967606E+01 -0.28649005542E+02  0.32506504634E+02  0.43400726002E+02  0.00000000000E+00 0.  1.
         11    1    3    3    0    0  0.49009167951E+01  0.11315759262E+02 -0.21416977954E+02  0.24713404015E+02  0.51100000000E-03 0. -1.
        -11    1    3    3    0    0  0.22920575419E+01  0.10408391554E+02 -0.10028708097E+02  0.14634313406E+02  0.51100000000E-03 0.  1.
        -12    1    3    3    0    0 -0.47060775764E+01  0.69248547263E+01 -0.10608185830E+01  0.84395565761E+01  0.00000000000E+00 0.  1.
</event>
<event>
 7    1  0.4430431E-010  0.4778727E+02  0.7816164E-02  0.1312668E+00
        -11   -1    0    0    0    0  0.00000000000E+00  0.00000000000E+00  0.45593999997E+02  0.45594000000E+02  0.51100000000E-03 0.  1.
         11   -1    0    0    0    0 -0.00000000000E+00 -0.00000000000E+00 -0.45593999997E+02  0.45594000000E+02  0.51100000000E-03 0. -1.
    9900012    2    1    2    0    0  0.82981801142E+01  0.17235685576E+02 -0.38957599034E+02  0.47787272207E+02  0.20000005300E+02 0.  0.
        -12    1    1    2    0    0 -0.82981801142E+01 -0.17235685576E+02  0.38957599034E+02  0.43400727793E+02  0.00000000000E+00 0.  1.
         11    1    3    3    0    0  0.56185083974E+01  0.11094999291E+02 -0.10261956470E+02  0.16123721553E+02  0.51100000000E-03 0. -1.
        -11    1    3    3    0    0  0.41955875725E+01  0.87730865942E+01 -0.17051133864E+02  0.19629344609E+02  0.51100000000E-03 0.  1.
        -12    1    3    3    0    0 -0.15159158557E+01 -0.26324003085E+01 -0.11644508700E+02  0.12034206044E+02  0.00000000000E+00 0.  1.
</event>
<event>
 7    1  0.4430431E-010  0.4778727E+02  0.7816164E-02  0.1312668E+00
        -11   -1    0    0    0    0  0.00000000000E+00  0.00000000000E+00  0.45593999997E+02  0.45594000000E+02  0.51100000000E-03 0.  1.
         11   -1    0    0    0    0 -0.00000000000E+00 -0.00000000000E+00 -0.45593999997E+02  0.45594000000E+02  0.51100000000E-03 0. -1.
    9900012    2    1    2    0    0 -0.34149640148E+02 -0.16255947070E+02 -0.21287786514E+02  0.47787267379E+02  0.19999983289E+02 0.  0.
        -12    1    1    2    0    0  0.34149640148E+02  0.16255947070E+02  0.21287786514E+02  0.43400732621E+02  0.00000000000E+00 0.  1.
         11    1    3    3    0    0 -0.35607051577E+02 -0.14105420613E+02 -0.22221898325E+02  0.44279089626E+02  0.51100000000E-03 0. -1.
        -11    1    3    3    0    0  0.66886595386E+00 -0.21051694572E+01 -0.94980720287E-01  0.22109142241E+01  0.51100000000E-03 0.  1.
         12    1    3    3    0    0  0.78854547579E+00 -0.45356999393E-01  0.10290925314E+01  0.12972635287E+01  0.00000000000E+00 0. -1.
</event>
<event>
 7    1  0.4430431E-010  0.4778727E+02  0.7816164E-02  0.1312668E+00
        -11   -1    0    0    0    0  0.00000000000E+00  0.00000000000E+00  0.45593999997E+02  0.45594000000E+02  0.51100000000E-03 0. -1.
         11   -1    0    0    0    0 -0.00000000000E+00 -0.00000000000E+00 -0.45593999997E+02  0.45594000000E+02  0.51100000000E-03 0.  1.
    9900012    2    1    2    0    0 -0.15643316342E+02 -0.39869068476E+02  0.70261759302E+01  0.47787272868E+02  0.20000008317E+02 0.  0.
        -12    1    1    2    0    0  0.15643316342E+02  0.39869068476E+02 -0.70261759302E+01  0.43400727132E+02  0.00000000000E+00 0.  1.
         11    1    3    3    0    0 -0.65623251997E+01 -0.25747310695E+02 -0.72732917426E+00  0.26580389915E+02  0.51100000000E-03 0. -1.
        -11    1    3    3    0    0 -0.60086837405E+01 -0.15286523441E+02  0.68745566391E+01  0.17805662258E+02  0.51100000000E-03 0.  1.
         12    1    3    3    0    0 -0.30723074019E+01  0.11647656596E+01  0.87894846534E+00  0.34012206953E+01  0.00000000000E+00 0. -1.
</event>
<event>
 7    1  0.4430431E-010  0.4778727E+02  0.7816164E-02  0.1312668E+00
        -11   -1    0    0    0    0  0.00000000000E+00  0.00000000000E+00  0.45593999997E+02  0.45594000000E+02  0.51100000000E-03 0.  1.
         11   -1    0    0    0    0 -0.00000000000E+00 -0.00000000000E+00 -0.45593999997E+02  0.45594000000E+02  0.51100000000E-03 0. -1.
    9900012    2    1    2    0    0  0.18887110694E+02 -0.15351906613E+02 -0.35933544845E+02  0.47787266917E+02  0.19999981181E+02 0.  0.
        -12    1    1    2    0    0 -0.18887110694E+02  0.15351906613E+02  0.35933544845E+02  0.43400733083E+02  0.00000000000E+00 0.  1.
         11    1    3    3    0    0  0.83273808126E+01  0.66370603019E+00 -0.15847631969E+02  0.17914609016E+02  0.51100000000E-03 0. -1.
        -11    1    3    3    0    0  0.17912964940E+00  0.16179150488E+01 -0.18451432639E+01  0.24605467810E+01  0.51100000000E-03 0.  1.
        -12    1    3    3    0    0  0.10380600232E+02 -0.17633527692E+02 -0.18240769612E+02  0.27412111120E+02  0.00000000000E+00 0.  1.
</event>
<event>
 7    1  0.4430431E-010  0.4778727E+02  0.7816164E-02  0.1312668E+00
        -11   -1    0    0    0    0  0.00000000000E+00  0.00000000000E+00  0.45593999997E+02  0.45594000000E+02  0.51100000000E-03 0. -1.
         11   -1    0    0    0    0 -0.00000000000E+00 -0.00000000000E+00 -0.45593999997E+02  0.45594000000E+02  0.51100000000E-03 0.  1.
    9900012    2    1    2    0    0 -0.96524240625E+01  0.36179221222E+02  0.21943517227E+02  0.47787270895E+02  0.19999999319E+02 0.  0.
        -12    1    1    2    0    0  0.96524240625E+01 -0.36179221222E+02 -0.21943517227E+02  0.43400729105E+02  0.00000000000E+00 0.  1.
         11    1    3    3    0    0 -0.14032623348E+02  0.20820432967E+02  0.16327412533E+02  0.29949780420E+02  0.51100000000E-03 0. -1.
        -11    1    3    3    0    0  0.13504499450E+01  0.18026343463E+01 -0.98480510908E+00  0.24582609716E+01  0.51100000000E-03 0.  1.
         12    1    3    3    0    0  0.30297493401E+01  0.13556153909E+02  0.66009098034E+01  0.15379229503E+02  0.00000000000E+00 0. -1.
</event>
<event>
 7    1  0.4430431E-010  0.4778727E+02  0.7816164E-02  0.1312668E+00
        -11   -1    0    0    0    0  0.00000000000E+00  0.00000000000E+00  0.45593999997E+02  0.45594000000E+02  0.51100000000E-03 0. -1.
         11   -1    0    0    0    0 -0.00000000000E+00 -0.00000000000E+00 -0.45593999997E+02  0.45594000000E+02  0.51100000000E-03 0.  1.
    9900012    2    1    2    0    0  0.34274663551E+02 -0.61633829100E+01  0.25901424074E+02  0.47787267063E+02  0.19999981848E+02 0.  0.
        -12    1    1    2    0    0 -0.34274663551E+02  0.61633829100E+01 -0.25901424074E+02  0.43400732937E+02  0.00000000000E+00 0.  1.
         11    1    3    3    0    0  0.67382869978E+01  0.50319203241E+01  0.12143899027E+02  0.14771561111E+02  0.51100000000E-03 0. -1.
        -11    1    3    3    0    0  0.60855940495E+00 -0.24617090488E-01  0.10494860158E+01  0.12134132474E+01  0.51100000000E-03 0.  1.
        -12    1    3    3    0    0  0.26927817148E+02 -0.11170686144E+02  0.12708039030E+02  0.31802292705E+02  0.00000000000E+00 0.  1.
</event>
<event>
 7    1  0.4430431E-010  0.4778728E+02  0.7816164E-02  0.1312668E+00
        -11   -1    0    0    0    0  0.00000000000E+00  0.00000000000E+00  0.45593999997E+02  0.45594000000E+02  0.51100000000E-03 0.  1.
         11   -1    0    0    0    0 -0.00000000000E+00 -0.00000000000E+00 -0.45593999997E+02  0.45594000000E+02  0.51100000000E-03 0. -1.
    9900012    2    1    2    0    0  0.10228535707E+02  0.16399807200E+02 -0.38859308590E+02  0.47787280156E+02  0.20000041541E+02 0.  0.
        -12    1    1    2    0    0 -0.10228535707E+02 -0.16399807200E+02  0.38859308590E+02  0.43400719844E+02  0.00000000000E+00 0.  1.
         11    1    3    3    0    0  0.85600860929E+01  0.15136045556E+02 -0.18219879463E+02  0.25186086574E+02  0.51100000000E-03 0. -1.
        -11    1    3    3    0    0 -0.18530455534E+01  0.20721430812E+01 -0.15701351142E+01  0.31926289026E+01  0.51100000000E-03 0.  1.
        -12    1    3    3    0    0  0.35214951671E+01 -0.80838143700E+00 -0.19069294013E+02  0.19408564679E+02  0.00000000000E+00 0.  1.
</event>
<event>
 7    1  0.4430431E-010  0.4778729E+02  0.7816164E-02  0.1312668E+00
        -11   -1    0    0    0    0  0.00000000000E+00  0.00000000000E+00  0.45593999997E+02  0.45594000000E+02  0.51100000000E-03 0.  1.
         11   -1    0    0    0    0 -0.00000000000E+00 -0.00000000000E+00 -0.45593999997E+02  0.45594000000E+02  0.51100000000E-03 0. -1.
    9900012    2    1    2    0    0 -0.42307338634E+01  0.37580429986E+02 -0.21293988491E+02  0.47787288337E+02  0.20000078845E+02 0.  0.
        -12    1    1    2    0    0  0.42307338634E+01 -0.37580429986E+02  0.21293988491E+02  0.43400711663E+02  0.00000000000E+00 0.  1.
         11    1    3    3    0    0 -0.35427199928E+01  0.33467958959E+02 -0.15804018178E+02  0.37180937759E+02  0.51100000000E-03 0. -1.
        -11    1    3    3    0    0 -0.35722094148E+00  0.35628349699E+01  0.12825895667E+01  0.38034768412E+01  0.51100000000E-03 0.  1.
         12    1    3    3    0    0 -0.33079292908E+00  0.54963605729E+00 -0.67725598796E+01  0.68028737369E+01  0.00000000000E+00 0. -1.
</event>
<event>
 7    1  0.4430431E-010  0.4778727E+02  0.7816164E-02  0.1312668E+00
        -11   -1    0    0    0    0  0.00000000000E+00  0.00000000000E+00  0.45593999997E+02  0.45594000000E+02  0.51100000000E-03 0.  1.
         11   -1    0    0    0    0 -0.00000000000E+00 -0.00000000000E+00 -0.45593999997E+02  0.45594000000E+02  0.51100000000E-03 0. -1.
    9900012    2    1    2    0    0 -0.35228011509E+02  0.24275305714E+02 -0.73020620510E+01  0.47787269907E+02  0.19999994815E+02 0.  0.
        -12    1    1    2    0    0  0.35228011509E+02 -0.24275305714E+02  0.73020620510E+01  0.43400730093E+02  0.00000000000E+00 0.  1.
         11    1    3    3    0    0  0.12182337011E+01  0.27002046197E+00  0.35351455261E-01  0.12483005996E+01  0.51100000000E-03 0. -1.
        -11    1    3    3    0    0 -0.64934048315E+01  0.11980045989E+02 -0.32090111925E+01  0.13999412892E+02  0.51100000000E-03 0.  1.
         12    1    3    3    0    0 -0.29952840379E+02  0.12025239263E+02 -0.41284023138E+01  0.32539556416E+02  0.00000000000E+00 0. -1.
</event>
<event>
 7    1  0.4430431E-010  0.4778728E+02  0.7816164E-02  0.1312668E+00
        -11   -1    0    0    0    0  0.00000000000E+00  0.00000000000E+00  0.45593999997E+02  0.45594000000E+02  0.51100000000E-03 0.  1.
         11   -1    0    0    0    0 -0.00000000000E+00 -0.00000000000E+00 -0.45593999997E+02  0.45594000000E+02  0.51100000000E-03 0. -1.
    9900012    2    1    2    0    0  0.84141041246E+01 -0.64264036108E+01 -0.42089511237E+02  0.47787276875E+02  0.20000026585E+02 0.  0.
        -12    1    1    2    0    0 -0.84141041246E+01  0.64264036108E+01  0.42089511237E+02  0.43400723125E+02  0.00000000000E+00 0.  1.
         11    1    3    3    0    0  0.60407594385E+01 -0.89829417096E+01 -0.21291572713E+02  0.23885457610E+02  0.51100000000E-03 0. -1.
        -11    1    3    3    0    0 -0.28521107374E+01 -0.27832768670E+01 -0.10058845580E+02  0.10819498160E+02  0.51100000000E-03 0.  1.
        -12    1    3    3    0    0  0.52254554236E+01  0.53398149659E+01 -0.10739092944E+02  0.13082321106E+02  0.00000000000E+00 0.  1.
</event>
<event>
 7    1  0.4430431E-010  0.4778726E+02  0.7816164E-02  0.1312668E+00
        -11   -1    0    0    0    0  0.00000000000E+00  0.00000000000E+00  0.45593999997E+02  0.45594000000E+02  0.51100000000E-03 0. -1.
         11   -1    0    0    0    0 -0.00000000000E+00 -0.00000000000E+00 -0.45593999997E+02  0.45594000000E+02  0.51100000000E-03 0.  1.
    9900012    2    1    2    0    0 -0.11337068531E+02 -0.41777824834E+02  0.31157862039E+01  0.47787263896E+02  0.19999967405E+02 0.  0.
        -12    1    1    2    0    0  0.11337068531E+02  0.41777824834E+02 -0.31157862039E+01  0.43400736104E+02  0.00000000000E+00 0.  1.
         11    1    3    3    0    0 -0.71230145522E+01 -0.14543108599E+02  0.24407786370E+01  0.16376713487E+02  0.51100000000E-03 0. -1.
        -11    1    3    3    0    0 -0.79315530381E+01 -0.12741758317E+02 -0.43512214399E+01  0.15626742043E+02  0.51100000000E-03 0.  1.
        -12    1    3    3    0    0  0.37174990594E+01 -0.14492957918E+02  0.50262290068E+01  0.15783808365E+02  0.00000000000E+00 0.  1.
</event>
<event>
 7    1  0.4430431E-010  0.4778727E+02  0.7816164E-02  0.1312668E+00
        -11   -1    0    0    0    0  0.00000000000E+00  0.00000000000E+00  0.45593999997E+02  0.45594000000E+02  0.51100000000E-03 0.  1.
         11   -1    0    0    0    0 -0.00000000000E+00 -0.00000000000E+00 -0.45593999997E+02  0.45594000000E+02  0.51100000000E-03 0. -1.
    9900012    2    1    2    0    0 -0.38117501846E+02 -0.11868446169E+02 -0.17024080984E+02  0.47787270803E+02  0.19999998899E+02 0.  0.
        -12    1    1    2    0    0  0.38117501846E+02  0.11868446169E+02  0.17024080984E+02  0.43400729197E+02  0.00000000000E+00 0.  1.
         11    1    3    3    0    0 -0.14329601935E+02 -0.13074030068E+02 -0.76146485446E+01  0.20838681018E+02  0.51100000000E-03 0. -1.
        -11    1    3    3    0    0 -0.57442433841E+01 -0.18455447083E+01  0.64631018891E+00  0.60679555410E+01  0.51100000000E-03 0.  1.
        -12    1    3    3    0    0 -0.18043656527E+02  0.30511286066E+01 -0.10055742629E+02  0.20880634244E+02  0.00000000000E+00 0.  1.
</event>
<event>
 7    1  0.4430431E-010  0.4778727E+02  0.7816164E-02  0.1312668E+00
        -11   -1    0    0    0    0  0.00000000000E+00  0.00000000000E+00  0.45593999997E+02  0.45594000000E+02  0.51100000000E-03 0.  1.
         11   -1    0    0    0    0 -0.00000000000E+00 -0.00000000000E+00 -0.45593999997E+02  0.45594000000E+02  0.51100000000E-03 0. -1.
    9900012    2    1    2    0    0  0.19923944596E+02 -0.12889674521E+02 -0.36338904935E+02  0.47787270866E+02  0.19999999187E+02 0.  0.
        -12    1    1    2    0    0 -0.19923944596E+02  0.12889674521E+02  0.36338904935E+02  0.43400729134E+02  0.00000000000E+00 0.  1.
         11    1    3    3    0    0  0.35057159606E+01 -0.96001359579E+01 -0.88670726438E+01  0.13530618328E+02  0.51100000000E-03 0. -1.
        -11    1    3    3    0    0  0.20773082240E+01 -0.35207050171E+01 -0.13980029723E+02  0.14565431837E+02  0.51100000000E-03 0.  1.
        -12    1    3    3    0    0  0.14340920411E+02  0.23116645423E+00 -0.13491802568E+02  0.19691220701E+02  0.00000000000E+00 0.  1.
</event>
<event>
 7    1  0.4430431E-010  0.4778727E+02  0.7816164E-02  0.1312668E+00
        -11   -1    0    0    0    0  0.00000000000E+00  0.00000000000E+00  0.45593999997E+02  0.45594000000E+02  0.51100000000E-03 0.  1.
         11   -1    0    0    0    0 -0.00000000000E+00 -0.00000000000E+00 -0.45593999997E+02  0.45594000000E+02  0.51100000000E-03 0. -1.
    9900012    2    1    2    0    0 -0.16927676491E+02 -0.22663278364E+02 -0.32915844385E+02  0.47787271560E+02  0.20000002349E+02 0.  0.
        -12    1    1    2    0    0  0.16927676491E+02  0.22663278364E+02  0.32915844385E+02  0.43400728440E+02  0.00000000000E+00 0.  1.
         11    1    3    3    0    0 -0.12320973340E+02 -0.78310940083E+01 -0.11946724666E+02  0.18864163059E+02  0.51100000000E-03 0. -1.
        -11    1    3    3    0    0 -0.61730109560E+01 -0.20345407136E+01 -0.10341640055E+02  0.12214538037E+02  0.51100000000E-03 0.  1.
        -12    1    3    3    0    0  0.15663078046E+01 -0.12797643642E+02 -0.10627479664E+02  0.16708570464E+02  0.00000000000E+00 0.  1.
</event>
<event>
 7    1  0.4430431E-010  0.4778727E+02  0.7816164E-02  0.1312668E+00
        -11   -1    0    0    0    0  0.00000000000E+00  0.00000000000E+00  0.45593999997E+02  0.45594000000E+02  0.51100000000E-03 0.  1.
         11   -1    0    0    0    0 -0.00000000000E+00 -0.00000000000E+00 -0.45593999997E+02  0.45594000000E+02  0.51100000000E-03 0. -1.
    9900012    2    1    2    0    0  0.37992266328E+02 -0.14900144998E+02  0.14771471262E+02  0.47787274373E+02  0.20000015175E+02 0.  0.
        -12    1    1    2    0    0 -0.37992266328E+02  0.14900144998E+02 -0.14771471262E+02  0.43400725627E+02  0.00000000000E+00 0.  1.
         11    1    3    3    0    0  0.64342480336E+01  0.92002967021E+00  0.35761072897E+01  0.74185272097E+01  0.51100000000E-03 0. -1.
        -11    1    3    3    0    0  0.16110453851E+01  0.22564580608E+01  0.36513598425E+01  0.45847027355E+01  0.51100000000E-03 0.  1.
        -12    1    3    3    0    0  0.29946972910E+02 -0.18076632729E+02  0.75440041302E+01  0.35784044427E+02  0.00000000000E+00 0.  1.
</event>
<event>
 7    1  0.4430431E-010  0.4778726E+02  0.7816164E-02  0.1312668E+00
        -11   -1    0    0    0    0  0.00000000000E+00  0.00000000000E+00  0.45593999997E+02  0.45594000000E+02  0.51100000000E-03 0.  1.
         11   -1    0    0    0    0 -0.00000000000E+00 -0.00000000000E+00 -0.45593999997E+02  0.45594000000E+02  0.51100000000E-03 0. -1.
    9900012    2    1    2    0    0 -0.38437393149E+02  0.15727014075E+02 -0.12603656304E+02  0.47787259039E+02  0.19999945260E+02 0.  0.
        -12    1    1    2    0    0  0.38437393149E+02 -0.15727014075E+02  0.12603656304E+02  0.43400740961E+02  0.00000000000E+00 0.  1.
         11    1    3    3    0    0 -0.21175204327E+01  0.59711126262E+01 -0.35504150005E+01  0.72624738013E+01  0.51100000000E-03 0. -1.
        -11    1    3    3    0    0 -0.41811252199E+01  0.57496462726E+01 -0.18501469187E+01  0.73459706129E+01  0.51100000000E-03 0.  1.
         12    1    3    3    0    0 -0.32138747496E+02  0.40062551759E+01 -0.72030943848E+01  0.33178814624E+02  0.00000000000E+00 0. -1.
</event>
<event>
 7    1  0.4430431E-010  0.4778727E+02  0.7816164E-02  0.1312668E+00
        -11   -1    0    0    0    0  0.00000000000E+00  0.00000000000E+00  0.45593999997E+02  0.45594000000E+02  0.51100000000E-03 0.  1.
         11   -1    0    0    0    0 -0.00000000000E+00 -0.00000000000E+00 -0.45593999997E+02  0.45594000000E+02  0.51100000000E-03 0. -1.
    9900012    2    1    2    0    0 -0.30288333371E+02 -0.21389392543E+02 -0.22555138826E+02  0.47787267987E+02  0.19999986062E+02 0.  0.
        -12    1    1    2    0    0  0.30288333371E+02  0.21389392543E+02  0.22555138826E+02  0.43400732013E+02  0.00000000000E+00 0.  1.
         11    1    3    3    0    0 -0.10243956928E+02 -0.71902558508E+01  0.30992582443E+00  0.12519364481E+02  0.51100000000E-03 0. -1.
        -11    1    3    3    0    0  0.12626092091E+01 -0.16806856932E+01 -0.13183381059E+01  0.24813105482E+01  0.51100000000E-03 0.  1.
         12    1    3    3    0    0 -0.21306985652E+02 -0.12518450999E+02 -0.21546726545E+02  0.32786592958E+02  0.00000000000E+00 0. -1.
</event>
<event>
 7    1  0.4430431E-010  0.4778727E+02  0.7816164E-02  0.1312668E+00
        -11   -1    0    0    0    0  0.00000000000E+00  0.00000000000E+00  0.45593999997E+02  0.45594000000E+02  0.51100000000E-03 0.  1.
         11   -1    0    0    0    0 -0.00000000000E+00 -0.00000000000E+00 -0.45593999997E+02  0.45594000000E+02  0.51100000000E-03 0. -1.
    9900012    2    1    2    0    0 -0.42291562023E+02 -0.96777565407E+01  0.11782737636E+01  0.47787268220E+02  0.19999987121E+02 0.  0.
        -12    1    1    2    0    0  0.42291562023E+02  0.96777565407E+01 -0.11782737636E+01  0.43400731780E+02  0.00000000000E+00 0.  1.
         11    1    3    3    0    0 -0.12764544324E+02 -0.90381256574E+00 -0.28083364838E+01  0.13101039006E+02  0.51100000000E-03 0. -1.
        -11    1    3    3    0    0 -0.26571351202E+02 -0.79187708681E+01 -0.21623328736E+01  0.27810417481E+02  0.51100000000E-03 0.  1.
        -12    1    3    3    0    0 -0.29556664970E+01 -0.85517310679E+00  0.61489431210E+01  0.68758117331E+01  0.00000000000E+00 0.  1.
</event>
<event>
 7    1  0.4430431E-010  0.4778727E+02  0.7816164E-02  0.1312668E+00
        -11   -1    0    0    0    0  0.00000000000E+00  0.00000000000E+00  0.45593999997E+02  0.45594000000E+02  0.51100000000E-03 0. -1.
         11   -1    0    0    0    0 -0.00000000000E+00 -0.00000000000E+00 -0.45593999997E+02  0.45594000000E+02  0.51100000000E-03 0.  1.
    9900012    2    1    2    0    0 -0.56112631288E+01  0.42270042685E+02 -0.80858249638E+01  0.47787270193E+02  0.19999996116E+02 0.  0.
        -12    1    1    2    0    0  0.56112631288E+01 -0.42270042685E+02  0.80858249638E+01  0.43400729807E+02  0.00000000000E+00 0.  1.
         11    1    3    3    0    0 -0.34507961412E+01  0.83737503988E+01 -0.24162358603E+00  0.90601364211E+01  0.51100000000E-03 0. -1.
        -11    1    3    3    0    0  0.65555349136E+01  0.19866599459E+02 -0.12979675705E+01  0.20960475475E+02  0.51100000000E-03 0.  1.
        -12    1    3    3    0    0 -0.87160019011E+01  0.14029692827E+02 -0.65462338073E+01  0.17766658297E+02  0.00000000000E+00 0.  1.
</event>
<event>
 7    1  0.4430431E-010  0.4778727E+02  0.7816164E-02  0.1312668E+00
        -11   -1    0    0    0    0  0.00000000000E+00  0.00000000000E+00  0.45593999997E+02  0.45594000000E+02  0.51100000000E-03 0.  1.
         11   -1    0    0    0    0 -0.00000000000E+00 -0.00000000000E+00 -0.45593999997E+02  0.45594000000E+02  0.51100000000E-03 0. -1.
    9900012    2    1    2    0    0  0.21141227822E+02 -0.34144281910E+02 -0.16457222875E+02  0.47787266300E+02  0.19999978366E+02 0.  0.
        -12    1    1    2    0    0 -0.21141227822E+02  0.34144281910E+02  0.16457222875E+02  0.43400733700E+02  0.00000000000E+00 0.  1.
         11    1    3    3    0    0  0.91885417134E+01 -0.14173824713E+02 -0.12588665671E+02  0.21066587513E+02  0.51100000000E-03 0. -1.
        -11    1    3    3    0    0  0.57483279908E+00  0.15400847360E+01 -0.15781961175E+01  0.22788148208E+01  0.51100000000E-03 0.  1.
         12    1    3    3    0    0  0.11377853310E+02 -0.21510541934E+02 -0.22903610862E+01  0.24441863966E+02  0.00000000000E+00 0. -1.
</event>
<event>
 7    1  0.4430431E-010  0.4778727E+02  0.7816164E-02  0.1312668E+00
        -11   -1    0    0    0    0  0.00000000000E+00  0.00000000000E+00  0.45593999997E+02  0.45594000000E+02  0.51100000000E-03 0.  1.
         11   -1    0    0    0    0 -0.00000000000E+00 -0.00000000000E+00 -0.45593999997E+02  0.45594000000E+02  0.51100000000E-03 0. -1.
    9900012    2    1    2    0    0 -0.29567229677E+02 -0.31728092875E+02 -0.16523776059E+01  0.47787270743E+02  0.19999998624E+02 0.  0.
        -12    1    1    2    0    0  0.29567229677E+02  0.31728092875E+02  0.16523776059E+01  0.43400729257E+02  0.00000000000E+00 0.  1.
         11    1    3    3    0    0 -0.10742731403E+02 -0.50269495905E+01  0.26931976391E+00  0.11863769788E+02  0.51100000000E-03 0. -1.
        -11    1    3    3    0    0 -0.12743529528E+02 -0.70553836819E+01 -0.43829458522E+01  0.15211383840E+02  0.51100000000E-03 0.  1.
        -12    1    3    3    0    0 -0.60809687462E+01 -0.19645759603E+02  0.24612484824E+01  0.20712117114E+02  0.00000000000E+00 0.  1.
</event>
<event>
 7    1  0.4430431E-010  0.4778727E+02  0.7816164E-02  0.1312668E+00
        -11   -1    0    0    0    0  0.00000000000E+00  0.00000000000E+00  0.45593999997E+02  0.45594000000E+02  0.51100000000E-03 0. -1.
         11   -1    0    0    0    0 -0.00000000000E+00 -0.00000000000E+00 -0.45593999997E+02  0.45594000000E+02  0.51100000000E-03 0.  1.
    9900012    2    1    2    0    0  0.17680467796E+02  0.35886707961E+02 -0.16827610731E+02  0.47787271519E+02  0.20000002164E+02 0.  0.
        -12    1    1    2    0    0 -0.17680467796E+02 -0.35886707961E+02  0.16827610731E+02  0.43400728481E+02  0.00000000000E+00 0.  1.
         11    1    3    3    0    0  0.34048152203E+00  0.33987819048E+01  0.32697291039E+01  0.47285066117E+01  0.51100000000E-03 0. -1.
        -11    1    3    3    0    0  0.21478163095E+01  0.38443600589E+01 -0.66094708076E+01  0.79421233798E+01  0.51100000000E-03 0.  1.
         12    1    3    3    0    0  0.15192169964E+02  0.28643565998E+02 -0.13487869027E+02  0.35116641527E+02  0.00000000000E+00 0. -1.
</event>
<event>
 7    1  0.4430431E-010  0.4778727E+02  0.7816164E-02  0.1312668E+00
        -11   -1    0    0    0    0  0.00000000000E+00  0.00000000000E+00  0.45593999997E+02  0.45594000000E+02  0.51100000000E-03 0. -1.
         11   -1    0    0    0    0 -0.00000000000E+00 -0.00000000000E+00 -0.45593999997E+02  0.45594000000E+02  0.51100000000E-03 0.  1.
    9900012    2    1    2    0    0 -0.41357717960E+02 -0.21015648110E+01  0.12990223572E+02  0.47787270537E+02  0.19999997686E+02 0.  0.
        -12    1    1    2    0    0  0.41357717960E+02  0.21015648110E+01 -0.12990223572E+02  0.43400729463E+02  0.00000000000E+00 0.  1.
         11    1    3    3    0    0 -0.70819804751E+01 -0.23235889228E+01  0.17375374915E+01  0.76532705249E+01  0.51100000000E-03 0. -1.
        -11    1    3    3    0    0 -0.19305792240E+02 -0.72919400975E+01  0.13620262760E+01  0.20681903206E+02  0.51100000000E-03 0.  1.
         12    1    3    3    0    0 -0.14969945245E+02  0.75139642093E+01  0.98906598046E+01  0.19452096806E+02  0.00000000000E+00 0. -1.
</event>
<event>
 7    1  0.4430431E-010  0.4778727E+02  0.7816164E-02  0.1312668E+00
        -11   -1    0    0    0    0  0.00000000000E+00  0.00000000000E+00  0.45593999997E+02  0.45594000000E+02  0.51100000000E-03 0.  1.
         11   -1    0    0    0    0 -0.00000000000E+00 -0.00000000000E+00 -0.45593999997E+02  0.45594000000E+02  0.51100000000E-03 0. -1.
    9900012    2    1    2    0    0 -0.11900625225E+02  0.23191914287E+01 -0.41672766164E+02  0.47787274552E+02  0.20000015994E+02 0.  0.
        -12    1    1    2    0    0  0.11900625225E+02 -0.23191914287E+01  0.41672766164E+02  0.43400725448E+02  0.00000000000E+00 0.  1.
         11    1    3    3    0    0  0.10454284393E+01  0.13783709296E+01 -0.38292459476E+01  0.42018985982E+01  0.51100000000E-03 0. -1.
        -11    1    3    3    0    0 -0.34524359504E+01  0.50117243375E+01 -0.21935135395E+01  0.64690182204E+01  0.51100000000E-03 0.  1.
         12    1    3    3    0    0 -0.94936177135E+01 -0.40709038383E+01 -0.35650006677E+02  0.37116357734E+02  0.00000000000E+00 0. -1.
</event>
<event>
 7    1  0.4430431E-010  0.4778727E+02  0.7816164E-02  0.1312668E+00
        -11   -1    0    0    0    0  0.00000000000E+00  0.00000000000E+00  0.45593999997E+02  0.45594000000E+02  0.51100000000E-03 0.  1.
         11   -1    0    0    0    0 -0.00000000000E+00 -0.00000000000E+00 -0.45593999997E+02  0.45594000000E+02  0.51100000000E-03 0. -1.
    9900012    2    1    2    0    0  0.17247826678E+01 -0.43081454105E+02  0.49635428132E+01  0.47787270510E+02  0.19999997562E+02 0.  0.
        -12    1    1    2    0    0 -0.17247826678E+01  0.43081454105E+02 -0.49635428132E+01  0.43400729490E+02  0.00000000000E+00 0.  1.
         11    1    3    3    0    0  0.35546177495E+01 -0.24818617431E+02  0.79074493607E+01  0.26289291245E+02  0.51100000000E-03 0. -1.
        -11    1    3    3    0    0  0.38265497790E+01 -0.12296811330E+02 -0.37175392054E+00  0.12883798095E+02  0.51100000000E-03 0.  1.
         12    1    3    3    0    0 -0.56563848607E+01 -0.59660253435E+01 -0.25721526270E+01  0.86141811699E+01  0.00000000000E+00 0. -1.
</event>
<event>
 7    1  0.4430431E-010  0.4778727E+02  0.7816164E-02  0.1312668E+00
        -11   -1    0    0    0    0  0.00000000000E+00  0.00000000000E+00  0.45593999997E+02  0.45594000000E+02  0.51100000000E-03 0.  1.
         11   -1    0    0    0    0 -0.00000000000E+00 -0.00000000000E+00 -0.45593999997E+02  0.45594000000E+02  0.51100000000E-03 0. -1.
    9900012    2    1    2    0    0  0.19164999679E+02 -0.16221273675E+02 -0.35400512536E+02  0.47787271664E+02  0.20000002823E+02 0.  0.
        -12    1    1    2    0    0 -0.19164999679E+02  0.16221273675E+02  0.35400512536E+02  0.43400728336E+02  0.00000000000E+00 0.  1.
         11    1    3    3    0    0  0.50803642365E+01 -0.36087064718E+01 -0.11234113942E+02  0.12846718628E+02  0.51100000000E-03 0. -1.
        -11    1    3    3    0    0  0.36968056909E+01 -0.29161042081E+01 -0.19383327589E+02  0.19947015435E+02  0.51100000000E-03 0.  1.
        -12    1    3    3    0    0  0.10387829751E+02 -0.96964629950E+01 -0.47830710048E+01  0.14993537601E+02  0.00000000000E+00 0.  1.
</event>
<event>
 7    1  0.4430431E-010  0.4778727E+02  0.7816164E-02  0.1312668E+00
        -11   -1    0    0    0    0  0.00000000000E+00  0.00000000000E+00  0.45593999997E+02  0.45594000000E+02  0.51100000000E-03 0.  1.
         11   -1    0    0    0    0 -0.00000000000E+00 -0.00000000000E+00 -0.45593999997E+02  0.45594000000E+02  0.51100000000E-03 0. -1.
    9900012    2    1    2    0    0 -0.53763763300E+01  0.36297900624E+02 -0.23177152788E+02  0.47787269320E+02  0.19999992139E+02 0.  0.
        -12    1    1    2    0    0  0.53763763300E+01 -0.36297900624E+02  0.23177152788E+02  0.43400730680E+02  0.00000000000E+00 0.  1.
         11    1    3    3    0    0  0.65502750756E+00  0.72709528621E+01 -0.88407431417E+01  0.11465363322E+02  0.51100000000E-03 0. -1.
        -11    1    3    3    0    0  0.31043013589E+01  0.63821200839E+01 -0.87616559917E+01  0.11275405078E+02  0.51100000000E-03 0.  1.
        -12    1    3    3    0    0 -0.91357051965E+01  0.22644827678E+02 -0.55747536548E+01  0.25046500920E+02  0.00000000000E+00 0.  1.
</event>
<event>
 7    1  0.4430431E-010  0.4778728E+02  0.7816164E-02  0.1312668E+00
        -11   -1    0    0    0    0  0.00000000000E+00  0.00000000000E+00  0.45593999997E+02  0.45594000000E+02  0.51100000000E-03 0.  1.
         11   -1    0    0    0    0 -0.00000000000E+00 -0.00000000000E+00 -0.45593999997E+02  0.45594000000E+02  0.51100000000E-03 0. -1.
    9900012    2    1    2    0    0 -0.25283221183E+02  0.10567845514E+02 -0.33655635036E+02  0.47787281090E+02  0.20000045802E+02 0.  0.
        -12    1    1    2    0    0  0.25283221183E+02 -0.10567845514E+02  0.33655635036E+02  0.43400718910E+02  0.00000000000E+00 0.  1.
         11    1    3    3    0    0 -0.10560917829E+02  0.10598680290E+00 -0.22331753688E+02  0.24703267833E+02  0.51100000000E-03 0. -1.
        -11    1    3    3    0    0  0.42305096128E+00  0.78387253185E+00 -0.32689730675E+01  0.33881578238E+01  0.51100000000E-03 0.  1.
        -12    1    3    3    0    0 -0.15145354315E+02  0.96779861791E+01 -0.80549082805E+01  0.19695855433E+02  0.00000000000E+00 0.  1.
</event>
<event>
 7    1  0.4430431E-010  0.4778727E+02  0.7816164E-02  0.1312668E+00
        -11   -1    0    0    0    0  0.00000000000E+00  0.00000000000E+00  0.45593999997E+02  0.45594000000E+02  0.51100000000E-03 0.  1.
         11   -1    0    0    0    0 -0.00000000000E+00 -0.00000000000E+00 -0.45593999997E+02  0.45594000000E+02  0.51100000000E-03 0. -1.
    9900012    2    1    2    0    0  0.85740699841E+00 -0.37332159000E+02 -0.22117820900E+02  0.47787271391E+02  0.20000001581E+02 0.  0.
        -12    1    1    2    0    0 -0.85740699841E+00  0.37332159000E+02  0.22117820900E+02  0.43400728609E+02  0.00000000000E+00 0.  1.
         11    1    3    3    0    0 -0.32783768752E+01 -0.21322059456E+02 -0.19655440844E+02  0.29184145172E+02  0.51100000000E-03 0. -1.
        -11    1    3    3    0    0  0.40055500709E+01 -0.75144648899E+01 -0.48207610830E+01  0.97852619603E+01  0.51100000000E-03 0.  1.
         12    1    3    3    0    0  0.13023380277E+00 -0.84956346546E+01  0.23583810263E+01  0.88178642592E+01  0.00000000000E+00 0. -1.
</event>
<event>
 7    1  0.4430431E-010  0.4778727E+02  0.7816164E-02  0.1312668E+00
        -11   -1    0    0    0    0  0.00000000000E+00  0.00000000000E+00  0.45593999997E+02  0.45594000000E+02  0.51100000000E-03 0.  1.
         11   -1    0    0    0    0 -0.00000000000E+00 -0.00000000000E+00 -0.45593999997E+02  0.45594000000E+02  0.51100000000E-03 0. -1.
    9900012    2    1    2    0    0  0.29166770290E+02  0.27019725885E+02 -0.17402796878E+02  0.47787269416E+02  0.19999992576E+02 0.  0.
        -12    1    1    2    0    0 -0.29166770290E+02 -0.27019725885E+02  0.17402796878E+02  0.43400730584E+02  0.00000000000E+00 0.  1.
         11    1    3    3    0    0  0.11147095591E+02  0.18607793592E+02 -0.66246950589E+01  0.22680262507E+02  0.51100000000E-03 0. -1.
        -11    1    3    3    0    0  0.39470749841E+01  0.53016727376E+01 -0.80891085695E+01  0.10446090774E+02  0.51100000000E-03 0.  1.
         12    1    3    3    0    0  0.14072599715E+02  0.31102595552E+01 -0.26889932495E+01  0.14660916136E+02  0.00000000000E+00 0. -1.
</event>
<event>
 7    1  0.4430431E-010  0.4778727E+02  0.7816164E-02  0.1312668E+00
        -11   -1    0    0    0    0  0.00000000000E+00  0.00000000000E+00  0.45593999997E+02  0.45594000000E+02  0.51100000000E-03 0. -1.
         11   -1    0    0    0    0 -0.00000000000E+00 -0.00000000000E+00 -0.45593999997E+02  0.45594000000E+02  0.51100000000E-03 0.  1.
    9900012    2    1    2    0    0  0.27690587752E+02 -0.73965141745E+01  0.32590587833E+02  0.47787268586E+02  0.19999988792E+02 0.  0.
        -12    1    1    2    0    0 -0.27690587752E+02  0.73965141745E+01 -0.32590587833E+02  0.43400731414E+02  0.00000000000E+00 0.  1.
         11    1    3    3    0    0  0.74413052700E+01 -0.24526420335E+01  0.14646839758E+02  0.16610791439E+02  0.51100000000E-03 0. -1.
        -11    1    3    3    0    0  0.48257424941E+01 -0.53774430545E+01  0.13175979753E+02  0.15027013247E+02  0.51100000000E-03 0.  1.
        -12    1    3    3    0    0  0.15423539987E+02  0.43357091349E+00  0.47677683212E+01  0.16149463900E+02  0.00000000000E+00 0.  1.
</event>
<event>
 7    1  0.4430431E-010  0.4778727E+02  0.7816164E-02  0.1312668E+00
        -11   -1    0    0    0    0  0.00000000000E+00  0.00000000000E+00  0.45593999997E+02  0.45594000000E+02  0.51100000000E-03 0.  1.
         11   -1    0    0    0    0 -0.00000000000E+00 -0.00000000000E+00 -0.45593999997E+02  0.45594000000E+02  0.51100000000E-03 0. -1.
    9900012    2    1    2    0    0  0.41231675488E+02  0.12925364547E+02 -0.40628765640E+01  0.47787273298E+02  0.20000010277E+02 0.  0.
        -12    1    1    2    0    0 -0.41231675488E+02 -0.12925364547E+02  0.40628765640E+01  0.43400726702E+02  0.00000000000E+00 0.  1.
         11    1    3    3    0    0  0.87447883559E+01  0.56002411352E+01 -0.16814963127E+01  0.10519574814E+02  0.51100000000E-03 0. -1.
        -11    1    3    3    0    0 -0.35441921846E+00  0.18586960636E+00 -0.36146539551E+01  0.36367408444E+01  0.51100000000E-03 0.  1.
         12    1    3    3    0    0  0.32841306351E+02  0.71392538058E+01  0.12332737038E+01  0.33630957640E+02  0.00000000000E+00 0. -1.
</event>
<event>
 7    1  0.4430431E-010  0.4778727E+02  0.7816164E-02  0.1312668E+00
        -11   -1    0    0    0    0  0.00000000000E+00  0.00000000000E+00  0.45593999997E+02  0.45594000000E+02  0.51100000000E-03 0. -1.
         11   -1    0    0    0    0 -0.00000000000E+00 -0.00000000000E+00 -0.45593999997E+02  0.45594000000E+02  0.51100000000E-03 0.  1.
    9900012    2    1    2    0    0  0.33679250129E+02 -0.27233758687E+02 -0.27665557217E+01  0.47787270375E+02  0.19999996946E+02 0.  0.
        -12    1    1    2    0    0 -0.33679250129E+02  0.27233758687E+02  0.27665557217E+01  0.43400729625E+02  0.00000000000E+00 0.  1.
         11    1    3    3    0    0  0.12253028294E+02 -0.42630594666E+01  0.63084547462E+00  0.12988777643E+02  0.51100000000E-03 0.  1.
        -11    1    3    3    0    0  0.12570778606E+02 -0.10159482142E+02  0.52383267202E+01  0.16990574424E+02  0.51100000000E-03 0. -1.
        -12    1    3    3    0    0  0.88554432284E+01 -0.12811217079E+02 -0.86357279165E+01  0.17807918308E+02  0.00000000000E+00 0.  1.
</event>
<event>
 7    1  0.4430431E-010  0.4778727E+02  0.7816164E-02  0.1312668E+00
        -11   -1    0    0    0    0  0.00000000000E+00  0.00000000000E+00  0.45593999997E+02  0.45594000000E+02  0.51100000000E-03 0.  1.
         11   -1    0    0    0    0 -0.00000000000E+00 -0.00000000000E+00 -0.45593999997E+02  0.45594000000E+02  0.51100000000E-03 0. -1.
    9900012    2    1    2    0    0  0.40984368082E+02 -0.55343846792E+01 -0.13163413935E+02  0.47787270660E+02  0.19999998246E+02 0.  0.
        -12    1    1    2    0    0 -0.40984368082E+02  0.55343846792E+01  0.13163413935E+02  0.43400729340E+02  0.00000000000E+00 0.  1.
         11    1    3    3    0    0  0.17469466487E+02 -0.52243175553E+01 -0.93547520726E+00  0.18257898767E+02  0.51100000000E-03 0. -1.
        -11    1    3    3    0    0  0.16143619969E+01 -0.27759440959E+01  0.15212461299E+01  0.35533393209E+01  0.51100000000E-03 0.  1.
         12    1    3    3    0    0  0.21900539598E+02  0.24658769720E+01 -0.13749184858E+02  0.25976032572E+02  0.00000000000E+00 0. -1.
</event>
<event>
 7    1  0.4430431E-010  0.4778727E+02  0.7816164E-02  0.1312668E+00
        -11   -1    0    0    0    0  0.00000000000E+00  0.00000000000E+00  0.45593999997E+02  0.45594000000E+02  0.51100000000E-03 0.  1.
         11   -1    0    0    0    0 -0.00000000000E+00 -0.00000000000E+00 -0.45593999997E+02  0.45594000000E+02  0.51100000000E-03 0. -1.
    9900012    2    1    2    0    0  0.10725785195E+02  0.27583123117E+02 -0.31745108882E+02  0.47787273199E+02  0.20000009824E+02 0.  0.
        -12    1    1    2    0    0 -0.10725785195E+02 -0.27583123117E+02  0.31745108882E+02  0.43400726801E+02  0.00000000000E+00 0.  1.
         11    1    3    3    0    0  0.26929235133E+01  0.37362466407E+00  0.91914508463E-01  0.27202722247E+01  0.51100000000E-03 0. -1.
        -11    1    3    3    0    0  0.80179472196E+01  0.73239926824E+01 -0.58200834047E+01  0.12320783966E+02  0.51100000000E-03 0.  1.
         12    1    3    3    0    0  0.14914462042E-01  0.19885505771E+02 -0.26016939985E+02  0.32746217009E+02  0.00000000000E+00 0. -1.
</event>
<event>
 7    1  0.4430431E-010  0.4778727E+02  0.7816164E-02  0.1312668E+00
        -11   -1    0    0    0    0  0.00000000000E+00  0.00000000000E+00  0.45593999997E+02  0.45594000000E+02  0.51100000000E-03 0.  1.
         11   -1    0    0    0    0 -0.00000000000E+00 -0.00000000000E+00 -0.45593999997E+02  0.45594000000E+02  0.51100000000E-03 0. -1.
    9900012    2    1    2    0    0 -0.23339498500E+00 -0.36389089240E+02 -0.23651702142E+02  0.47787270707E+02  0.19999998464E+02 0.  0.
        -12    1    1    2    0    0  0.23339498500E+00  0.36389089240E+02  0.23651702142E+02  0.43400729293E+02  0.00000000000E+00 0.  1.
         11    1    3    3    0    0  0.22531601332E+01 -0.14826181646E+02 -0.76939556379E+01  0.16854950205E+02  0.51100000000E-03 0. -1.
        -11    1    3    3    0    0 -0.29913858986E+01 -0.19804924683E+02 -0.61456259815E+01  0.20951184937E+02  0.51100000000E-03 0.  1.
         12    1    3    3    0    0  0.50483078041E+00 -0.17579829104E+01 -0.98121205225E+01  0.99811355656E+01  0.00000000000E+00 0. -1.
</event>
<event>
 7    1  0.4430431E-010  0.4778727E+02  0.7816164E-02  0.1312668E+00
        -11   -1    0    0    0    0  0.00000000000E+00  0.00000000000E+00  0.45593999997E+02  0.45594000000E+02  0.51100000000E-03 0. -1.
         11   -1    0    0    0    0 -0.00000000000E+00 -0.00000000000E+00 -0.45593999997E+02  0.45594000000E+02  0.51100000000E-03 0.  1.
    9900012    2    1    2    0    0 -0.38611555634E+02 -0.17629578782E+02  0.90536843480E+01  0.47787268707E+02  0.19999989342E+02 0.  0.
        -12    1    1    2    0    0  0.38611555634E+02  0.17629578782E+02 -0.90536843480E+01  0.43400731293E+02  0.00000000000E+00 0.  1.
         11    1    3    3    0    0 -0.20163317168E+02 -0.16679829637E+02  0.65536100138E+01  0.26976394875E+02  0.51100000000E-03 0. -1.
        -11    1    3    3    0    0  0.66932860460E-01  0.50708618010E+00  0.21763592536E+01  0.22356556675E+01  0.51100000000E-03 0.  1.
        -12    1    3    3    0    0 -0.18515171326E+02 -0.14568353246E+01  0.32371508057E+00  0.18575218165E+02  0.00000000000E+00 0.  1.
</event>
<event>
 7    1  0.4430431E-010  0.4778727E+02  0.7816164E-02  0.1312668E+00
        -11   -1    0    0    0    0  0.00000000000E+00  0.00000000000E+00  0.45593999997E+02  0.45594000000E+02  0.51100000000E-03 0. -1.
         11   -1    0    0    0    0 -0.00000000000E+00 -0.00000000000E+00 -0.45593999997E+02  0.45594000000E+02  0.51100000000E-03 0.  1.
    9900012    2    1    2    0    0 -0.16069103601E+02 -0.36661419308E+02  0.16773421190E+02  0.47787269423E+02  0.19999992607E+02 0.  0.
        -12    1    1    2    0    0  0.16069103601E+02  0.36661419308E+02 -0.16773421190E+02  0.43400730577E+02  0.00000000000E+00 0.  1.
         11    1    3    3    0    0 -0.92200482772E+01 -0.24528757548E+02  0.13899163749E+02  0.29662366566E+02  0.51100000000E-03 0. -1.
        -11    1    3    3    0    0 -0.64741443969E+01 -0.88083616635E+01  0.68718736703E+01  0.12912181414E+02  0.51100000000E-03 0.  1.
        -12    1    3    3    0    0 -0.37491092654E+00 -0.33243000959E+01 -0.39976162289E+01  0.52127214432E+01  0.00000000000E+00 0.  1.
</event>
<event>
 7    1  0.4430431E-010  0.4778727E+02  0.7816164E-02  0.1312668E+00
        -11   -1    0    0    0    0  0.00000000000E+00  0.00000000000E+00  0.45593999997E+02  0.45594000000E+02  0.51100000000E-03 0.  1.
         11   -1    0    0    0    0 -0.00000000000E+00 -0.00000000000E+00 -0.45593999997E+02  0.45594000000E+02  0.51100000000E-03 0. -1.
    9900012    2    1    2    0    0  0.21999159626E+02 -0.19092639414E+02 -0.32173457291E+02  0.47787271227E+02  0.20000000830E+02 0.  0.
        -12    1    1    2    0    0 -0.21999159626E+02  0.19092639414E+02  0.32173457291E+02  0.43400728773E+02  0.00000000000E+00 0.  1.
         11    1    3    3    0    0  0.10196373381E+02 -0.71126222385E+01 -0.85830835944E+01  0.15107109236E+02  0.51100000000E-03 0. -1.
        -11    1    3    3    0    0  0.11862510332E+02 -0.92874592727E+01 -0.83926657831E+01  0.17245662943E+02  0.51100000000E-03 0.  1.
        -12    1    3    3    0    0 -0.59724087849E-01 -0.26925579028E+01 -0.15197707913E+02  0.15434499047E+02  0.00000000000E+00 0.  1.
</event>
<event>
 7    1  0.4430431E-010  0.4778727E+02  0.7816164E-02  0.1312668E+00
        -11   -1    0    0    0    0  0.00000000000E+00  0.00000000000E+00  0.45593999997E+02  0.45594000000E+02  0.51100000000E-03 0. -1.
         11   -1    0    0    0    0 -0.00000000000E+00 -0.00000000000E+00 -0.45593999997E+02  0.45594000000E+02  0.51100000000E-03 0.  1.
    9900012    2    1    2    0    0 -0.38192526358E+02  0.18728045389E+02  0.86147676694E+01  0.47787274479E+02  0.20000015661E+02 0.  0.
        -12    1    1    2    0    0  0.38192526358E+02 -0.18728045389E+02 -0.86147676694E+01  0.43400725521E+02  0.00000000000E+00 0.  1.
         11    1    3    3    0    0 -0.28179627410E+02  0.14476617879E+02  0.55020497027E+01  0.32154881704E+02  0.51100000000E-03 0. -1.
        -11    1    3    3    0    0 -0.47801953189E+01  0.76505329767E+01  0.11672320745E+01  0.90963373448E+01  0.51100000000E-03 0.  1.
         12    1    3    3    0    0 -0.52327036290E+01 -0.33991054662E+01  0.19454858922E+01  0.65360554309E+01  0.00000000000E+00 0. -1.
</event>
<event>
 7    1  0.4430431E-010  0.4778727E+02  0.7816164E-02  0.1312668E+00
        -11   -1    0    0    0    0  0.00000000000E+00  0.00000000000E+00  0.45593999997E+02  0.45594000000E+02  0.51100000000E-03 0.  1.
         11   -1    0    0    0    0 -0.00000000000E+00 -0.00000000000E+00 -0.45593999997E+02  0.45594000000E+02  0.51100000000E-03 0. -1.
    9900012    2    1    2    0    0  0.12022023979E+02 -0.20008766927E+02 -0.36588846679E+02  0.47787268257E+02  0.19999987290E+02 0.  0.
        -12    1    1    2    0    0 -0.12022023979E+02  0.20008766927E+02  0.36588846679E+02  0.43400731743E+02  0.00000000000E+00 0.  1.
         11    1    3    3    0    0 -0.35295664387E+01  0.10365913991E+01 -0.31688435421E+01  0.48552992317E+01  0.51100000000E-03 0.  1.
        -11    1    3    3    0    0  0.63684689888E+01 -0.58408044633E+01 -0.71259740690E+01  0.11200531270E+02  0.51100000000E-03 0. -1.
        -12    1    3    3    0    0  0.91831214291E+01 -0.15204553863E+02 -0.26294029068E+02  0.31731437755E+02  0.00000000000E+00 0.  1.
</event>
<event>
 7    1  0.4430431E-010  0.4778727E+02  0.7816164E-02  0.1312668E+00
        -11   -1    0    0    0    0  0.00000000000E+00  0.00000000000E+00  0.45593999997E+02  0.45594000000E+02  0.51100000000E-03 0.  1.
         11   -1    0    0    0    0 -0.00000000000E+00 -0.00000000000E+00 -0.45593999997E+02  0.45594000000E+02  0.51100000000E-03 0. -1.
    9900012    2    1    2    0    0  0.39745858790E+02 -0.15949636490E+02 -0.70355729152E+01  0.47787268654E+02  0.19999989102E+02 0.  0.
        -12    1    1    2    0    0 -0.39745858790E+02  0.15949636490E+02  0.70355729152E+01  0.43400731346E+02  0.00000000000E+00 0.  1.
         11    1    3    3    0    0  0.15120528894E+02 -0.69550981918E+01 -0.55936460015E+00  0.16652827805E+02  0.51100000000E-03 0. -1.
        -11    1    3    3    0    0  0.12072271690E+01 -0.67371325774E+01 -0.51196210672E+00  0.68635601741E+01  0.51100000000E-03 0.  1.
         12    1    3    3    0    0  0.23418102726E+02 -0.22574057208E+01 -0.59642462083E+01  0.24270880675E+02  0.00000000000E+00 0. -1.
</event>
<event>
 7    1  0.4430431E-010  0.4778727E+02  0.7816164E-02  0.1312668E+00
        -11   -1    0    0    0    0  0.00000000000E+00  0.00000000000E+00  0.45593999997E+02  0.45594000000E+02  0.51100000000E-03 0.  1.
         11   -1    0    0    0    0 -0.00000000000E+00 -0.00000000000E+00 -0.45593999997E+02  0.45594000000E+02  0.51100000000E-03 0. -1.
    9900012    2    1    2    0    0 -0.37336476503E+02 -0.48616511390E+01  0.21586462721E+02  0.47787268413E+02  0.19999988004E+02 0.  0.
        -12    1    1    2    0    0  0.37336476503E+02  0.48616511390E+01 -0.21586462721E+02  0.43400731587E+02  0.00000000000E+00 0.  1.
         11    1    3    3    0    0 -0.13857736702E+02 -0.92767730856E+01  0.82251593451E+01  0.18594317193E+02  0.51100000000E-03 0. -1.
        -11    1    3    3    0    0 -0.11651857457E+02 -0.22409116112E+01  0.91489974352E+01  0.14983044463E+02  0.51100000000E-03 0.  1.
         12    1    3    3    0    0 -0.11826882344E+02  0.66560335578E+01  0.42123059408E+01  0.14209906757E+02  0.00000000000E+00 0. -1.
</event>
<event>
 7    1  0.4430431E-010  0.4778727E+02  0.7816164E-02  0.1312668E+00
        -11   -1    0    0    0    0  0.00000000000E+00  0.00000000000E+00  0.45593999997E+02  0.45594000000E+02  0.51100000000E-03 0. -1.
         11   -1    0    0    0    0 -0.00000000000E+00 -0.00000000000E+00 -0.45593999997E+02  0.45594000000E+02  0.51100000000E-03 0.  1.
    9900012    2    1    2    0    0 -0.34121570318E+01 -0.34506458982E+02  0.26101431935E+02  0.47787271018E+02  0.19999999880E+02 0.  0.
        -12    1    1    2    0    0  0.34121570318E+01  0.34506458982E+02 -0.26101431935E+02  0.43400728982E+02  0.00000000000E+00 0.  1.
         11    1    3    3    0    0  0.19483789689E+01 -0.18024564810E+01 -0.13517887953E+01  0.29786512351E+01  0.51100000000E-03 0. -1.
        -11    1    3    3    0    0  0.36859280567E+01 -0.55724652774E+01  0.37413728388E+01  0.76574346806E+01  0.51100000000E-03 0.  1.
         12    1    3    3    0    0 -0.90464640574E+01 -0.27131537224E+02  0.23711847892E+02  0.37151185102E+02  0.00000000000E+00 0. -1.
</event>
<event>
 7    1  0.4430431E-010  0.4778727E+02  0.7816164E-02  0.1312668E+00
        -11   -1    0    0    0    0  0.00000000000E+00  0.00000000000E+00  0.45593999997E+02  0.45594000000E+02  0.51100000000E-03 0. -1.
         11   -1    0    0    0    0 -0.00000000000E+00 -0.00000000000E+00 -0.45593999997E+02  0.45594000000E+02  0.51100000000E-03 0.  1.
    9900012    2    1    2    0    0  0.35463886675E+02  0.20257249104E+02  0.14682636802E+02  0.47787271633E+02  0.20000002682E+02 0.  0.
        -12    1    1    2    0    0 -0.35463886675E+02 -0.20257249104E+02 -0.14682636802E+02  0.43400728367E+02  0.00000000000E+00 0.  1.
         11    1    3    3    0    0  0.60691965729E+00  0.18236675733E+01  0.44770971067E+01  0.48722185555E+01  0.51100000000E-03 0. -1.
        -11    1    3    3    0    0  0.12937024636E+02  0.39321481046E+00  0.64383135881E+00  0.12959002408E+02  0.51100000000E-03 0.  1.
         12    1    3    3    0    0  0.21919942381E+02  0.18040366720E+02  0.95617083368E+01  0.29956050669E+02  0.00000000000E+00 0. -1.
</event>
<event>
 7    1  0.4430431E-010  0.4778728E+02  0.7816164E-02  0.1312668E+00
        -11   -1    0    0    0    0  0.00000000000E+00  0.00000000000E+00  0.45593999997E+02  0.45594000000E+02  0.51100000000E-03 0.  1.
         11   -1    0    0    0    0 -0.00000000000E+00 -0.00000000000E+00 -0.45593999997E+02  0.45594000000E+02  0.51100000000E-03 0. -1.
    9900012    2    1    2    0    0 -0.29109328412E+02  0.15386467231E+02 -0.28275896961E+02  0.47787277386E+02  0.20000028914E+02 0.  0.
        -12    1    1    2    0    0  0.29109328412E+02 -0.15386467231E+02  0.28275896961E+02  0.43400722614E+02  0.00000000000E+00 0.  1.
         11    1    3    3    0    0 -0.99407955560E+01  0.12460469737E+00 -0.35816772473E+01  0.10567088283E+02  0.51100000000E-03 0. -1.
        -11    1    3    3    0    0 -0.17152807147E+02  0.11841329766E+02 -0.12291418986E+02  0.24197414420E+02  0.51100000000E-03 0.  1.
        -12    1    3    3    0    0 -0.20157257085E+01  0.34205327676E+01 -0.12402800728E+02  0.13022774683E+02  0.00000000000E+00 0.  1.
</event>
<event>
 7    1  0.4430431E-010  0.4778724E+02  0.7816164E-02  0.1312668E+00
        -11   -1    0    0    0    0  0.00000000000E+00  0.00000000000E+00  0.45593999997E+02  0.45594000000E+02  0.51100000000E-03 0.  1.
         11   -1    0    0    0    0 -0.00000000000E+00 -0.00000000000E+00 -0.45593999997E+02  0.45594000000E+02  0.51100000000E-03 0. -1.
    9900012    2    1    2    0    0  0.21944897520E+02  0.28363638683E+02  0.24444872150E+02  0.47787236171E+02  0.19999840998E+02 0.  0.
        -12    1    1    2    0    0 -0.21944897520E+02 -0.28363638683E+02 -0.24444872150E+02  0.43400763829E+02  0.00000000000E+00 0.  1.
         11    1    3    3    0    0  0.91967918770E+00  0.84083021792E+01  0.11062613421E+02  0.13925759272E+02  0.51100000000E-03 0. -1.
        -11    1    3    3    0    0 -0.10879905103E+01  0.26281479635E+00 -0.41553915635E+00  0.11939296542E+01  0.51100000000E-03 0.  1.
         12    1    3    3    0    0  0.22113208842E+02  0.19692521707E+02  0.13797797885E+02  0.32667547245E+02  0.00000000000E+00 0. -1.
</event>
<event>
 7    1  0.4430431E-010  0.4778728E+02  0.7816164E-02  0.1312668E+00
        -11   -1    0    0    0    0  0.00000000000E+00  0.00000000000E+00  0.45593999997E+02  0.45594000000E+02  0.51100000000E-03 0. -1.
         11   -1    0    0    0    0 -0.00000000000E+00 -0.00000000000E+00 -0.45593999997E+02  0.45594000000E+02  0.51100000000E-03 0.  1.
    9900012    2    1    2    0    0  0.37387190822E+02 -0.12130300461E+02  0.18403167665E+02  0.47787276424E+02  0.20000024528E+02 0.  0.
        -12    1    1    2    0    0 -0.37387190822E+02  0.12130300461E+02 -0.18403167665E+02  0.43400723576E+02  0.00000000000E+00 0.  1.
         11    1    3    3    0    0  0.12106922245E+02 -0.91252008182E+01  0.35854084321E+01  0.15578896306E+02  0.51100000000E-03 0. -1.
        -11    1    3    3    0    0  0.38640980139E+01 -0.54343216800E+00 -0.24330857580E+01  0.45985300422E+01  0.51100000000E-03 0.  1.
         12    1    3    3    0    0  0.21416170563E+02 -0.24616674751E+01  0.17250844991E+02  0.27609850076E+02  0.00000000000E+00 0. -1.
</event>
<event>
 7    1  0.4430431E-010  0.4778727E+02  0.7816164E-02  0.1312668E+00
        -11   -1    0    0    0    0  0.00000000000E+00  0.00000000000E+00  0.45593999997E+02  0.45594000000E+02  0.51100000000E-03 0.  1.
         11   -1    0    0    0    0 -0.00000000000E+00 -0.00000000000E+00 -0.45593999997E+02  0.45594000000E+02  0.51100000000E-03 0. -1.
    9900012    2    1    2    0    0 -0.16330671995E+01 -0.34776333947E+02 -0.25914531771E+02  0.47787271110E+02  0.20000000298E+02 0.  0.
        -12    1    1    2    0    0  0.16330671995E+01  0.34776333947E+02  0.25914531771E+02  0.43400728890E+02  0.00000000000E+00 0.  1.
         11    1    3    3    0    0 -0.28039070970E+01 -0.17588110231E+02 -0.11242132978E+02  0.21061554327E+02  0.51100000000E-03 0. -1.
        -11    1    3    3    0    0  0.28162165059E+01 -0.14607532998E+02 -0.17211031210E+02  0.22749300896E+02  0.51100000000E-03 0.  1.
        -12    1    3    3    0    0 -0.16453766083E+01 -0.25806907179E+01  0.25386324159E+01  0.39764158871E+01  0.00000000000E+00 0.  1.
</event>
<event>
 7    1  0.4430431E-010  0.4778728E+02  0.7816164E-02  0.1312668E+00
        -11   -1    0    0    0    0  0.00000000000E+00  0.00000000000E+00  0.45593999997E+02  0.45594000000E+02  0.51100000000E-03 0. -1.
         11   -1    0    0    0    0 -0.00000000000E+00 -0.00000000000E+00 -0.45593999997E+02  0.45594000000E+02  0.51100000000E-03 0.  1.
    9900012    2    1    2    0    0  0.23957489847E+02  0.31830827021E+02  0.17218013560E+02  0.47787275817E+02  0.20000021761E+02 0.  0.
        -12    1    1    2    0    0 -0.23957489847E+02 -0.31830827021E+02 -0.17218013560E+02  0.43400724183E+02  0.00000000000E+00 0.  1.
         11    1    3    3    0    0  0.11960655672E+02  0.91739275562E+01  0.48118026801E+01  0.15823137369E+02  0.51100000000E-03 0. -1.
        -11    1    3    3    0    0  0.60783473244E+01  0.69761334461E+01  0.12059364689E+02  0.15200033586E+02  0.51100000000E-03 0.  1.
         12    1    3    3    0    0  0.59184868515E+01  0.15680766019E+02  0.34684619061E+00  0.16764104862E+02  0.00000000000E+00 0. -1.
</event>
<event>
 7    1  0.4430431E-010  0.4778728E+02  0.7816164E-02  0.1312668E+00
        -11   -1    0    0    0    0  0.00000000000E+00  0.00000000000E+00  0.45593999997E+02  0.45594000000E+02  0.51100000000E-03 0.  1.
         11   -1    0    0    0    0 -0.00000000000E+00 -0.00000000000E+00 -0.45593999997E+02  0.45594000000E+02  0.51100000000E-03 0. -1.
    9900012    2    1    2    0    0  0.24275062063E+01  0.42965903653E+01 -0.43119246689E+02  0.47787275234E+02  0.20000019104E+02 0.  0.
        -12    1    1    2    0    0 -0.24275062063E+01 -0.42965903653E+01  0.43119246689E+02  0.43400724766E+02  0.00000000000E+00 0.  1.
         11    1    3    3    0    0 -0.10689276620E+01  0.48861885535E+01 -0.25361611354E+02  0.25850121385E+02  0.51100000000E-03 0. -1.
        -11    1    3    3    0    0  0.44485425815E+01  0.52946972187E+01 -0.98141964023E+01  0.12005906922E+02  0.51100000000E-03 0.  1.
        -12    1    3    3    0    0 -0.95210871327E+00 -0.58842954069E+01 -0.79434389331E+01  0.99312469268E+01  0.00000000000E+00 0.  1.
</event>
<event>
 7    1  0.4430431E-010  0.4778727E+02  0.7816164E-02  0.1312668E+00
        -11   -1    0    0    0    0  0.00000000000E+00  0.00000000000E+00  0.45593999997E+02  0.45594000000E+02  0.51100000000E-03 0.  1.
         11   -1    0    0    0    0 -0.00000000000E+00 -0.00000000000E+00 -0.45593999997E+02  0.45594000000E+02  0.51100000000E-03 0. -1.
    9900012    2    1    2    0    0  0.13308417064E+01 -0.15704141542E+02 -0.40438002693E+02  0.47787271170E+02  0.20000000571E+02 0.  0.
        -12    1    1    2    0    0 -0.13308417064E+01  0.15704141542E+02  0.40438002693E+02  0.43400728830E+02  0.00000000000E+00 0.  1.
         11    1    3    3    0    0 -0.79109639325E+00  0.11579105474E+01 -0.49844469466E+01  0.51779631095E+01  0.51100000000E-03 0.  1.
        -11    1    3    3    0    0 -0.57578809740E+01 -0.18058435408E+01 -0.54686292182E+01  0.81437196656E+01  0.51100000000E-03 0. -1.
         12    1    3    3    0    0  0.78798190737E+01 -0.15056208549E+02 -0.29984926528E+02  0.34465588395E+02  0.00000000000E+00 0. -1.
</event>
<event>
 7    1  0.4430431E-010  0.4778727E+02  0.7816164E-02  0.1312668E+00
        -11   -1    0    0    0    0  0.00000000000E+00  0.00000000000E+00  0.45593999997E+02  0.45594000000E+02  0.51100000000E-03 0.  1.
         11   -1    0    0    0    0 -0.00000000000E+00 -0.00000000000E+00 -0.45593999997E+02  0.45594000000E+02  0.51100000000E-03 0. -1.
    9900012    2    1    2    0    0 -0.23712647950E+02 -0.33325374031E+02 -0.14517345319E+02  0.47787267953E+02  0.19999985904E+02 0.  0.
        -12    1    1    2    0    0  0.23712647950E+02  0.33325374031E+02  0.14517345319E+02  0.43400732047E+02  0.00000000000E+00 0.  1.
         11    1    3    3    0    0 -0.31830614799E+01 -0.86021139173E+01  0.61063973774E+00  0.91924493679E+01  0.51100000000E-03 0.  1.
        -11    1    3    3    0    0 -0.18779656451E+02 -0.16176614399E+02 -0.16482584448E+02  0.29766322249E+02  0.51100000000E-03 0. -1.
         12    1    3    3    0    0 -0.17499300190E+01 -0.85466457147E+01  0.13545993918E+01  0.88284963361E+01  0.00000000000E+00 0. -1.
</event>
<event>
 7    1  0.4430431E-010  0.4778727E+02  0.7816164E-02  0.1312668E+00
        -11   -1    0    0    0    0  0.00000000000E+00  0.00000000000E+00  0.45593999997E+02  0.45594000000E+02  0.51100000000E-03 0.  1.
         11   -1    0    0    0    0 -0.00000000000E+00 -0.00000000000E+00 -0.45593999997E+02  0.45594000000E+02  0.51100000000E-03 0. -1.
    9900012    2    1    2    0    0  0.38728867045E+02  0.15456120151E+02  0.12033573616E+02  0.47787266288E+02  0.19999978316E+02 0.  0.
        -12    1    1    2    0    0 -0.38728867045E+02 -0.15456120151E+02 -0.12033573616E+02  0.43400733712E+02  0.00000000000E+00 0.  1.
         11    1    3    3    0    0  0.15594920927E+02  0.49800795647E+01  0.59130922235E+01  0.17405959068E+02  0.51100000000E-03 0. -1.
        -11    1    3    3    0    0  0.19990007414E+02  0.67965913174E+01 -0.17024308515E+01  0.21182358722E+02  0.51100000000E-03 0.  1.
        -12    1    3    3    0    0  0.31439387043E+01  0.36794492685E+01  0.78229122441E+01  0.91989484983E+01  0.00000000000E+00 0.  1.
</event>
<event>
 7    1  0.4430431E-010  0.4778727E+02  0.7816164E-02  0.1312668E+00
        -11   -1    0    0    0    0  0.00000000000E+00  0.00000000000E+00  0.45593999997E+02  0.45594000000E+02  0.51100000000E-03 0.  1.
         11   -1    0    0    0    0 -0.00000000000E+00 -0.00000000000E+00 -0.45593999997E+02  0.45594000000E+02  0.51100000000E-03 0. -1.
    9900012    2    1    2    0    0  0.10457252344E+02  0.14690734788E+02 -0.39477231013E+02  0.47787267476E+02  0.19999983728E+02 0.  0.
        -12    1    1    2    0    0 -0.10457252344E+02 -0.14690734788E+02  0.39477231013E+02  0.43400732524E+02  0.00000000000E+00 0.  1.
         11    1    3    3    0    0 -0.27470387948E+01  0.65150001828E+01 -0.24649381774E+02  0.25643390408E+02  0.51100000000E-03 0. -1.
        -11    1    3    3    0    0  0.34848662604E+01 -0.20866796670E+00 -0.43270364334E+01  0.55597733524E+01  0.51100000000E-03 0.  1.
         12    1    3    3    0    0  0.97194248782E+01  0.83844025723E+01 -0.10500812806E+02  0.16584103715E+02  0.00000000000E+00 0. -1.
</event>
<event>
 7    1  0.4430431E-010  0.4778727E+02  0.7816164E-02  0.1312668E+00
        -11   -1    0    0    0    0  0.00000000000E+00  0.00000000000E+00  0.45593999997E+02  0.45594000000E+02  0.51100000000E-03 0. -1.
         11   -1    0    0    0    0 -0.00000000000E+00 -0.00000000000E+00 -0.45593999997E+02  0.45594000000E+02  0.51100000000E-03 0.  1.
    9900012    2    1    2    0    0  0.20794144057E+02  0.16673903990E+02  0.34252122159E+02  0.47787269894E+02  0.19999994754E+02 0.  0.
        -12    1    1    2    0    0 -0.20794144057E+02 -0.16673903990E+02 -0.34252122159E+02  0.43400730106E+02  0.00000000000E+00 0.  1.
         11    1    3    3    0    0  0.29745415784E+01  0.11056973661E+02  0.10669060805E+02  0.15650348970E+02  0.51100000000E-03 0. -1.
        -11    1    3    3    0    0 -0.10625785511E+01  0.19129230995E+01  0.83504794759E+00  0.23421471555E+01  0.51100000000E-03 0.  1.
        -12    1    3    3    0    0  0.18882181030E+02  0.37040072297E+01  0.22748013406E+02  0.29794773769E+02  0.00000000000E+00 0.  1.
</event>
<event>
 7    1  0.4430431E-010  0.4778727E+02  0.7816164E-02  0.1312668E+00
        -11   -1    0    0    0    0  0.00000000000E+00  0.00000000000E+00  0.45593999997E+02  0.45594000000E+02  0.51100000000E-03 0.  1.
         11   -1    0    0    0    0 -0.00000000000E+00 -0.00000000000E+00 -0.45593999997E+02  0.45594000000E+02  0.51100000000E-03 0. -1.
    9900012    2    1    2    0    0 -0.21301886969E+02 -0.33022585558E+02 -0.18421771644E+02  0.47787271713E+02  0.20000003046E+02 0.  0.
        -12    1    1    2    0    0  0.21301886969E+02  0.33022585558E+02  0.18421771644E+02  0.43400728287E+02  0.00000000000E+00 0.  1.
         11    1    3    3    0    0  0.13450988648E+01  0.68675258307E+00 -0.15975012383E+01  0.21983927160E+01  0.51100000000E-03 0. -1.
        -11    1    3    3    0    0 -0.12148583644E+02 -0.81073961314E+01 -0.43757837755E+01  0.15246817389E+02  0.51100000000E-03 0.  1.
        -12    1    3    3    0    0 -0.10498402190E+02 -0.25601942009E+02 -0.12448486630E+02  0.30342061607E+02  0.00000000000E+00 0.  1.
</event>
<event>
 7    1  0.4430431E-010  0.4778729E+02  0.7816164E-02  0.1312668E+00
        -11   -1    0    0    0    0  0.00000000000E+00  0.00000000000E+00  0.45593999997E+02  0.45594000000E+02  0.51100000000E-03 0.  1.
         11   -1    0    0    0    0 -0.00000000000E+00 -0.00000000000E+00 -0.45593999997E+02  0.45594000000E+02  0.51100000000E-03 0. -1.
    9900012    2    1    2    0    0  0.16916338541E+01 -0.43363221499E+02 -0.62563797362E+00  0.47787285413E+02  0.20000065510E+02 0.  0.
        -12    1    1    2    0    0 -0.16916338541E+01  0.43363221499E+02  0.62563797362E+00  0.43400714587E+02  0.00000000000E+00 0.  1.
         11    1    3    3    0    0  0.90148876889E+01 -0.24021140483E+02 -0.47475203165E+01  0.26092572498E+02  0.51100000000E-03 0. -1.
        -11    1    3    3    0    0 -0.59955792752E+00 -0.77732635269E+01  0.26443131620E+01  0.82325869523E+01  0.51100000000E-03 0.  1.
         12    1    3    3    0    0 -0.67236959073E+01 -0.11568817488E+02  0.14775691808E+01  0.13462125962E+02  0.00000000000E+00 0. -1.
</event>
<event>
 7    1  0.4430431E-010  0.4778727E+02  0.7816164E-02  0.1312668E+00
        -11   -1    0    0    0    0  0.00000000000E+00  0.00000000000E+00  0.45593999997E+02  0.45594000000E+02  0.51100000000E-03 0. -1.
         11   -1    0    0    0    0 -0.00000000000E+00 -0.00000000000E+00 -0.45593999997E+02  0.45594000000E+02  0.51100000000E-03 0.  1.
    9900012    2    1    2    0    0 -0.15186598838E+02 -0.36684995930E+02  0.17527165123E+02  0.47787271574E+02  0.20000002413E+02 0.  0.
        -12    1    1    2    0    0  0.15186598838E+02  0.36684995930E+02 -0.17527165123E+02  0.43400728426E+02  0.00000000000E+00 0.  1.
         11    1    3    3    0    0  0.86471540486E+00 -0.83052257723E+00 -0.17939573393E+01  0.21577265070E+01  0.51100000000E-03 0. -1.
        -11    1    3    3    0    0  0.94973887630E+00 -0.59654365226E+01 -0.28418260225E+00  0.60472470472E+01  0.51100000000E-03 0.  1.
        -12    1    3    3    0    0 -0.17001053119E+02 -0.29889036831E+02  0.19605305065E+02  0.39582298019E+02  0.00000000000E+00 0.  1.
</event>
<event>
 7    1  0.4430431E-010  0.4778727E+02  0.7816164E-02  0.1312668E+00
        -11   -1    0    0    0    0  0.00000000000E+00  0.00000000000E+00  0.45593999997E+02  0.45594000000E+02  0.51100000000E-03 0.  1.
         11   -1    0    0    0    0 -0.00000000000E+00 -0.00000000000E+00 -0.45593999997E+02  0.45594000000E+02  0.51100000000E-03 0. -1.
    9900012    2    1    2    0    0 -0.88180244111E+01  0.35426910461E+02 -0.23469122389E+02  0.47787271377E+02  0.20000001516E+02 0.  0.
        -12    1    1    2    0    0  0.88180244111E+01 -0.35426910461E+02  0.23469122389E+02  0.43400728623E+02  0.00000000000E+00 0.  1.
         11    1    3    3    0    0  0.15283623912E+00  0.18261765405E+02 -0.62670340657E+01  0.19307800259E+02  0.51100000000E-03 0. -1.
        -11    1    3    3    0    0 -0.30077785255E+00 -0.70941451147E+00  0.11827107535E+01  0.14115740339E+01  0.51100000000E-03 0.  1.
         12    1    3    3    0    0 -0.86700827977E+01  0.17874559567E+02 -0.18384799076E+02  0.27067897084E+02  0.00000000000E+00 0. -1.
</event>
<event>
 7    1  0.4430431E-010  0.4778727E+02  0.7816164E-02  0.1312668E+00
        -11   -1    0    0    0    0  0.00000000000E+00  0.00000000000E+00  0.45593999997E+02  0.45594000000E+02  0.51100000000E-03 0.  1.
         11   -1    0    0    0    0 -0.00000000000E+00 -0.00000000000E+00 -0.45593999997E+02  0.45594000000E+02  0.51100000000E-03 0. -1.
    9900012    2    1    2    0    0  0.41998794623E+02 -0.97237302707E+01 -0.50173215674E+01  0.47787271943E+02  0.20000004096E+02 0.  0.
        -12    1    1    2    0    0 -0.41998794623E+02  0.97237302707E+01  0.50173215674E+01  0.43400728057E+02  0.00000000000E+00 0.  1.
         11    1    3    3    0    0 -0.36018835995E+00  0.15710049511E+01 -0.39706767466E+00  0.16599563881E+01  0.51100000000E-03 0.  1.
        -11    1    3    3    0    0  0.35288360119E+02 -0.55254204386E+01  0.38232773709E+00  0.35720369618E+02  0.51100000000E-03 0. -1.
         12    1    3    3    0    0  0.70706228645E+01 -0.57693147832E+01 -0.50025816298E+01  0.10406945936E+02  0.00000000000E+00 0. -1.
</event>
<event>
 7    1  0.4430431E-010  0.4778727E+02  0.7816164E-02  0.1312668E+00
        -11   -1    0    0    0    0  0.00000000000E+00  0.00000000000E+00  0.45593999997E+02  0.45594000000E+02  0.51100000000E-03 0. -1.
         11   -1    0    0    0    0 -0.00000000000E+00 -0.00000000000E+00 -0.45593999997E+02  0.45594000000E+02  0.51100000000E-03 0.  1.
    9900012    2    1    2    0    0 -0.36403674038E+02  0.24139677808E+01 -0.23506781863E+02  0.47787268238E+02  0.19999987206E+02 0.  0.
        -12    1    1    2    0    0  0.36403674038E+02 -0.24139677808E+01  0.23506781863E+02  0.43400731762E+02  0.00000000000E+00 0.  1.
         11    1    3    3    0    0 -0.12753980628E+02  0.76096482461E+01 -0.87525947977E+01  0.17238871316E+02  0.51100000000E-03 0. -1.
        -11    1    3    3    0    0 -0.10293046031E+02  0.33747176989E+01 -0.68808501254E+01  0.12832833469E+02  0.51100000000E-03 0.  1.
        -12    1    3    3    0    0 -0.13356647379E+02 -0.85703981642E+01 -0.78733369397E+01  0.17715563453E+02  0.00000000000E+00 0.  1.
</event>
<event>
 7    1  0.4430431E-010  0.4778728E+02  0.7816164E-02  0.1312668E+00
        -11   -1    0    0    0    0  0.00000000000E+00  0.00000000000E+00  0.45593999997E+02  0.45594000000E+02  0.51100000000E-03 0. -1.
         11   -1    0    0    0    0 -0.00000000000E+00 -0.00000000000E+00 -0.45593999997E+02  0.45594000000E+02  0.51100000000E-03 0.  1.
    9900012    2    1    2    0    0 -0.16803896433E+02 -0.20840883592E+02  0.34160049654E+02  0.47787281612E+02  0.20000048181E+02 0.  0.
        -12    1    1    2    0    0  0.16803896433E+02  0.20840883592E+02 -0.34160049654E+02  0.43400718388E+02  0.00000000000E+00 0.  1.
         11    1    3    3    0    0 -0.68708179601E+01 -0.12711477449E+02  0.99763059163E+01  0.17558942974E+02  0.51100000000E-03 0. -1.
        -11    1    3    3    0    0 -0.17414629650E+01 -0.59395145193E+01  0.20406468295E+01  0.65172667375E+01  0.51100000000E-03 0.  1.
        -12    1    3    3    0    0 -0.81916155075E+01 -0.21898916238E+01  0.22143096908E+02  0.23711071900E+02  0.00000000000E+00 0.  1.
</event>
<event>
 7    1  0.4430431E-010  0.4778727E+02  0.7816164E-02  0.1312668E+00
        -11   -1    0    0    0    0  0.00000000000E+00  0.00000000000E+00  0.45593999997E+02  0.45594000000E+02  0.51100000000E-03 0. -1.
         11   -1    0    0    0    0 -0.00000000000E+00 -0.00000000000E+00 -0.45593999997E+02  0.45594000000E+02  0.51100000000E-03 0.  1.
    9900012    2    1    2    0    0  0.43989573635E+01  0.40738990599E+02  0.14304087195E+02  0.47787273146E+02  0.20000009584E+02 0.  0.
        -12    1    1    2    0    0 -0.43989573635E+01 -0.40738990599E+02 -0.14304087195E+02  0.43400726854E+02  0.00000000000E+00 0.  1.
         11    1    3    3    0    0 -0.36139170892E+00  0.53806848627E+01  0.86713010606E+01  0.10211456111E+02  0.51100000000E-03 0. -1.
        -11    1    3    3    0    0  0.29366029137E+01  0.25201347772E+01 -0.10615011080E+01  0.40126675456E+01  0.51100000000E-03 0.  1.
        -12    1    3    3    0    0  0.18237461587E+01  0.32838170959E+02  0.66942872424E+01  0.33563149490E+02  0.00000000000E+00 0.  1.
</event>
<event>
 7    1  0.4430431E-010  0.4778727E+02  0.7816164E-02  0.1312668E+00
        -11   -1    0    0    0    0  0.00000000000E+00  0.00000000000E+00  0.45593999997E+02  0.45594000000E+02  0.51100000000E-03 0.  1.
         11   -1    0    0    0    0 -0.00000000000E+00 -0.00000000000E+00 -0.45593999997E+02  0.45594000000E+02  0.51100000000E-03 0. -1.
    9900012    2    1    2    0    0 -0.13735397057E+02  0.37016805451E+02 -0.18019939892E+02  0.47787271298E+02  0.20000001156E+02 0.  0.
        -12    1    1    2    0    0  0.13735397057E+02 -0.37016805451E+02  0.18019939892E+02  0.43400728702E+02  0.00000000000E+00 0.  1.
         11    1    3    3    0    0 -0.55229890858E+01  0.12183583973E+02 -0.42133242765E+01  0.14024807613E+02  0.51100000000E-03 0. -1.
        -11    1    3    3    0    0 -0.11960354446E+01  0.18421971286E+02 -0.19452854379E+01  0.18562964810E+02  0.51100000000E-03 0.  1.
         12    1    3    3    0    0 -0.70163725266E+01  0.64112501929E+01 -0.11861330178E+02  0.15199498875E+02  0.00000000000E+00 0. -1.
</event>
<event>
 7    1  0.4430431E-010  0.4778727E+02  0.7816164E-02  0.1312668E+00
        -11   -1    0    0    0    0  0.00000000000E+00  0.00000000000E+00  0.45593999997E+02  0.45594000000E+02  0.51100000000E-03 0.  1.
         11   -1    0    0    0    0 -0.00000000000E+00 -0.00000000000E+00 -0.45593999997E+02  0.45594000000E+02  0.51100000000E-03 0. -1.
    9900012    2    1    2    0    0 -0.11257367762E+02  0.40135118138E+02  0.12085823151E+02  0.47787272378E+02  0.20000006081E+02 0.  0.
        -12    1    1    2    0    0  0.11257367762E+02 -0.40135118138E+02 -0.12085823151E+02  0.43400727622E+02  0.00000000000E+00 0.  1.
         11    1    3    3    0    0 -0.61943694577E+00  0.15654639622E+02  0.47106029720E+01  0.16359744021E+02  0.51100000000E-03 0. -1.
        -11    1    3    3    0    0 -0.13516953867E+02  0.13666256135E+02  0.32170200082E+01  0.19489069156E+02  0.51100000000E-03 0.  1.
        -12    1    3    3    0    0  0.28790230502E+01  0.10814222381E+02  0.41582001703E+01  0.11938459201E+02  0.00000000000E+00 0.  1.
</event>
<event>
 7    1  0.4430431E-010  0.4778727E+02  0.7816164E-02  0.1312668E+00
        -11   -1    0    0    0    0  0.00000000000E+00  0.00000000000E+00  0.45593999997E+02  0.45594000000E+02  0.51100000000E-03 0.  1.
         11   -1    0    0    0    0 -0.00000000000E+00 -0.00000000000E+00 -0.45593999997E+02  0.45594000000E+02  0.51100000000E-03 0. -1.
    9900012    2    1    2    0    0  0.14525979540E+02 -0.18314060462E+02 -0.36567943021E+02  0.47787270179E+02  0.19999996056E+02 0.  0.
        -12    1    1    2    0    0 -0.14525979540E+02  0.18314060462E+02  0.36567943021E+02  0.43400729821E+02  0.00000000000E+00 0.  1.
         11    1    3    3    0    0  0.52924632787E+01 -0.59988040481E+01 -0.11275701043E+02  0.13825239666E+02  0.51100000000E-03 0. -1.
        -11    1    3    3    0    0  0.90109063031E+01 -0.88292325839E+00 -0.18666874049E+02  0.20746762950E+02  0.51100000000E-03 0.  1.
         12    1    3    3    0    0  0.22260995861E+00 -0.11432333155E+02 -0.66253679286E+01  0.13215267563E+02  0.00000000000E+00 0. -1.
</event>
<event>
 7    1  0.4430431E-010  0.4778728E+02  0.7816164E-02  0.1312668E+00
        -11   -1    0    0    0    0  0.00000000000E+00  0.00000000000E+00  0.45593999997E+02  0.45594000000E+02  0.51100000000E-03 0.  1.
         11   -1    0    0    0    0 -0.00000000000E+00 -0.00000000000E+00 -0.45593999997E+02  0.45594000000E+02  0.51100000000E-03 0. -1.
    9900012    2    1    2    0    0  0.42624066174E+02  0.44703857488E+01  0.68430351526E+01  0.47787280006E+02  0.20000040857E+02 0.  0.
        -12    1    1    2    0    0 -0.42624066174E+02 -0.44703857488E+01 -0.68430351526E+01  0.43400719994E+02  0.00000000000E+00 0.  1.
         11    1    3    3    0    0  0.27617929445E+02  0.84534942672E+01 -0.16258364930E+01  0.28928445114E+02  0.51100000000E-03 0. -1.
        -11    1    3    3    0    0  0.42029452327E+01  0.17556494910E+01  0.15892747424E+01  0.48241940500E+01  0.51100000000E-03 0.  1.
        -12    1    3    3    0    0  0.10803191496E+02 -0.57387580095E+01  0.68795969033E+01  0.14034640841E+02  0.00000000000E+00 0.  1.
</event>
<event>
 7    1  0.4430431E-010  0.4778727E+02  0.7816164E-02  0.1312668E+00
        -11   -1    0    0    0    0  0.00000000000E+00  0.00000000000E+00  0.45593999997E+02  0.45594000000E+02  0.51100000000E-03 0.  1.
         11   -1    0    0    0    0 -0.00000000000E+00 -0.00000000000E+00 -0.45593999997E+02  0.45594000000E+02  0.51100000000E-03 0. -1.
    9900012    2    1    2    0    0 -0.36160338177E+02  0.12374427523E+02 -0.20565178719E+02  0.47787273171E+02  0.20000009694E+02 0.  0.
        -12    1    1    2    0    0  0.36160338177E+02 -0.12374427523E+02  0.20565178719E+02  0.43400726829E+02  0.00000000000E+00 0.  1.
         11    1    3    3    0    0 -0.21583905836E+02  0.97517824559E+01 -0.16584869790E+02  0.28914013184E+02  0.51100000000E-03 0. -1.
        -11    1    3    3    0    0 -0.48835453620E+01  0.63406728270E+01 -0.95609032886E+00  0.80602268070E+01  0.51100000000E-03 0.  1.
         12    1    3    3    0    0 -0.96928869785E+01 -0.37180277597E+01 -0.30242186005E+01  0.10813033180E+02  0.00000000000E+00 0. -1.
</event>
<event>
 7    1  0.4430431E-010  0.4778727E+02  0.7816164E-02  0.1312668E+00
        -11   -1    0    0    0    0  0.00000000000E+00  0.00000000000E+00  0.45593999997E+02  0.45594000000E+02  0.51100000000E-03 0. -1.
         11   -1    0    0    0    0 -0.00000000000E+00 -0.00000000000E+00 -0.45593999997E+02  0.45594000000E+02  0.51100000000E-03 0.  1.
    9900012    2    1    2    0    0 -0.97492250068E+01 -0.13617940787E+01  0.42269628929E+02  0.47787269578E+02  0.19999993315E+02 0.  0.
        -12    1    1    2    0    0  0.97492250068E+01  0.13617940787E+01 -0.42269628929E+02  0.43400730422E+02  0.00000000000E+00 0.  1.
         11    1    3    3    0    0  0.61133587261E+00 -0.57964200216E+00 -0.21143010999E+00  0.86857317040E+00  0.51100000000E-03 0. -1.
        -11    1    3    3    0    0 -0.99693649184E+00  0.58196913404E+01  0.50369542730E+01  0.77610307483E+01  0.51100000000E-03 0.  1.
         12    1    3    3    0    0 -0.93636243876E+01 -0.66018434169E+01  0.37444104766E+02  0.39157665660E+02  0.00000000000E+00 0. -1.
</event>
<event>
 7    1  0.4430431E-010  0.4778727E+02  0.7816164E-02  0.1312668E+00
        -11   -1    0    0    0    0  0.00000000000E+00  0.00000000000E+00  0.45593999997E+02  0.45594000000E+02  0.51100000000E-03 0. -1.
         11   -1    0    0    0    0 -0.00000000000E+00 -0.00000000000E+00 -0.45593999997E+02  0.45594000000E+02  0.51100000000E-03 0.  1.
    9900012    2    1    2    0    0 -0.19941675193E+02  0.38115115754E+02  0.57611416688E+01  0.47787271759E+02  0.20000003260E+02 0.  0.
        -12    1    1    2    0    0  0.19941675193E+02 -0.38115115754E+02 -0.57611416688E+01  0.43400728241E+02  0.00000000000E+00 0.  1.
         11    1    3    3    0    0 -0.15389646522E+02  0.29261718944E+02  0.55235327016E+01  0.33520125736E+02  0.51100000000E-03 0. -1.
        -11    1    3    3    0    0 -0.43782197468E+01  0.40608566789E+01  0.47896389324E+01  0.76550641070E+01  0.51100000000E-03 0.  1.
        -12    1    3    3    0    0 -0.17380892405E+00  0.47925401320E+01 -0.45520299652E+01  0.66120819159E+01  0.00000000000E+00 0.  1.
</event>
<event>
 7    1  0.4430431E-010  0.4778727E+02  0.7816164E-02  0.1312668E+00
        -11   -1    0    0    0    0  0.00000000000E+00  0.00000000000E+00  0.45593999997E+02  0.45594000000E+02  0.51100000000E-03 0.  1.
         11   -1    0    0    0    0 -0.00000000000E+00 -0.00000000000E+00 -0.45593999997E+02  0.45594000000E+02  0.51100000000E-03 0. -1.
    9900012    2    1    2    0    0  0.18882127384E+02 -0.37647672745E+02 -0.10475741641E+02  0.47787272349E+02  0.20000005949E+02 0.  0.
        -12    1    1    2    0    0 -0.18882127384E+02  0.37647672745E+02  0.10475741641E+02  0.43400727651E+02  0.00000000000E+00 0.  1.
         11    1    3    3    0    0  0.89875178192E+01 -0.15002893955E+02 -0.19840104906E+01  0.17601096598E+02  0.51100000000E-03 0. -1.
        -11    1    3    3    0    0  0.92997444794E+01 -0.11908588432E+02  0.19049691294E+01  0.15229203310E+02  0.51100000000E-03 0.  1.
         12    1    3    3    0    0  0.59486508581E+00 -0.10736190359E+02 -0.10396700280E+02  0.14956972441E+02  0.00000000000E+00 0. -1.
</event>
<event>
 7    1  0.4430431E-010  0.4778727E+02  0.7816164E-02  0.1312668E+00
        -11   -1    0    0    0    0  0.00000000000E+00  0.00000000000E+00  0.45593999997E+02  0.45594000000E+02  0.51100000000E-03 0.  1.
         11   -1    0    0    0    0 -0.00000000000E+00 -0.00000000000E+00 -0.45593999997E+02  0.45594000000E+02  0.51100000000E-03 0. -1.
    9900012    2    1    2    0    0  0.30672445886E+02  0.30325369442E+02 -0.48162622612E+01  0.47787270161E+02  0.19999995972E+02 0.  0.
        -12    1    1    2    0    0 -0.30672445886E+02 -0.30325369442E+02  0.48162622612E+01  0.43400729839E+02  0.00000000000E+00 0.  1.
         11    1    3    3    0    0 -0.59984553475E+00  0.32195841135E+01  0.30725016234E+01  0.44906350349E+01  0.51100000000E-03 0. -1.
        -11    1    3    3    0    0  0.28583719286E+01  0.71538134535E+01 -0.28478935839E+01  0.82132718898E+01  0.51100000000E-03 0.  1.
         12    1    3    3    0    0  0.28413919492E+02  0.19951971875E+02 -0.50408703008E+01  0.35083363236E+02  0.00000000000E+00 0. -1.
</event>
<event>
 7    1  0.4430431E-010  0.4778727E+02  0.7816164E-02  0.1312668E+00
        -11   -1    0    0    0    0  0.00000000000E+00  0.00000000000E+00  0.45593999997E+02  0.45594000000E+02  0.51100000000E-03 0.  1.
         11   -1    0    0    0    0 -0.00000000000E+00 -0.00000000000E+00 -0.45593999997E+02  0.45594000000E+02  0.51100000000E-03 0. -1.
    9900012    2    1    2    0    0  0.24925377789E+02  0.63340340115E+00 -0.35523901148E+02  0.47787271774E+02  0.20000003326E+02 0.  0.
        -12    1    1    2    0    0 -0.24925377789E+02 -0.63340340115E+00  0.35523901148E+02  0.43400728226E+02  0.00000000000E+00 0.  1.
         11    1    3    3    0    0  0.14120427965E+02 -0.69779920777E+01 -0.14305155652E+02  0.21277131805E+02  0.51100000000E-03 0. -1.
        -11    1    3    3    0    0  0.47772385297E+01 -0.73690324750E+00 -0.33307126366E+01  0.58701517267E+01  0.51100000000E-03 0.  1.
        -12    1    3    3    0    0  0.60277112943E+01  0.83482987263E+01 -0.17888032859E+02  0.20639988242E+02  0.00000000000E+00 0.  1.
</event>
<event>
 7    1  0.4430431E-010  0.4778727E+02  0.7816164E-02  0.1312668E+00
        -11   -1    0    0    0    0  0.00000000000E+00  0.00000000000E+00  0.45593999997E+02  0.45594000000E+02  0.51100000000E-03 0.  1.
         11   -1    0    0    0    0 -0.00000000000E+00 -0.00000000000E+00 -0.45593999997E+02  0.45594000000E+02  0.51100000000E-03 0. -1.
    9900012    2    1    2    0    0  0.37606154887E+02  0.21130920923E+02 -0.47837775788E+01  0.47787271523E+02  0.20000002181E+02 0.  0.
        -12    1    1    2    0    0 -0.37606154887E+02 -0.21130920923E+02  0.47837775788E+01  0.43400728477E+02  0.00000000000E+00 0.  1.
         11    1    3    3    0    0  0.46242346511E+01  0.65473946187E+01  0.32218224940E+01  0.86389850587E+01  0.51100000000E-03 0. -1.
        -11    1    3    3    0    0  0.44166559980E+01  0.69877315314E+01  0.80386373530E+00  0.83055065665E+01  0.51100000000E-03 0.  1.
        -12    1    3    3    0    0  0.28565264238E+02  0.75957947727E+01 -0.88094638081E+01  0.30842779897E+02  0.00000000000E+00 0.  1.
</event>
<event>
 7    1  0.4430431E-010  0.4778727E+02  0.7816164E-02  0.1312668E+00
        -11   -1    0    0    0    0  0.00000000000E+00  0.00000000000E+00  0.45593999997E+02  0.45594000000E+02  0.51100000000E-03 0.  1.
         11   -1    0    0    0    0 -0.00000000000E+00 -0.00000000000E+00 -0.45593999997E+02  0.45594000000E+02  0.51100000000E-03 0. -1.
    9900012    2    1    2    0    0  0.34387636179E+02  0.25706480228E+02  0.63474656766E+01  0.47787274566E+02  0.20000016058E+02 0.  0.
        -12    1    1    2    0    0 -0.34387636179E+02 -0.25706480228E+02 -0.63474656766E+01  0.43400725434E+02  0.00000000000E+00 0.  1.
         11    1    3    3    0    0  0.22850408059E+02  0.58562600565E+01 -0.26325246366E+00  0.23590384321E+02  0.51100000000E-03 0. -1.
        -11    1    3    3    0    0  0.57852416034E+01  0.11881087616E+02  0.20904136160E+01  0.13379054253E+02  0.51100000000E-03 0.  1.
         12    1    3    3    0    0  0.57519865164E+01  0.79691325550E+01  0.45203045242E+01  0.10817835992E+02  0.00000000000E+00 0. -1.
</event>
<event>
 7    1  0.4430431E-010  0.4778727E+02  0.7816164E-02  0.1312668E+00
        -11   -1    0    0    0    0  0.00000000000E+00  0.00000000000E+00  0.45593999997E+02  0.45594000000E+02  0.51100000000E-03 0. -1.
         11   -1    0    0    0    0 -0.00000000000E+00 -0.00000000000E+00 -0.45593999997E+02  0.45594000000E+02  0.51100000000E-03 0.  1.
    9900012    2    1    2    0    0 -0.31046871771E+01  0.34813862403E+02  0.25728951651E+02  0.47787273613E+02  0.20000011710E+02 0.  0.
        -12    1    1    2    0    0  0.31046871771E+01 -0.34813862403E+02 -0.25728951651E+02  0.43400726387E+02  0.00000000000E+00 0.  1.
         11    1    3    3    0    0 -0.39954265261E+01  0.74142291981E+01  0.16556925688E+01  0.85834460370E+01  0.51100000000E-03 0. -1.
        -11    1    3    3    0    0 -0.32027192185E+01  0.88355668476E+01  0.12191234080E+01  0.94768620363E+01  0.51100000000E-03 0.  1.
         12    1    3    3    0    0  0.40934585675E+01  0.18564066357E+02  0.22854135675E+02  0.29726965539E+02  0.00000000000E+00 0. -1.
</event>
<event>
 7    1  0.4430431E-010  0.4778727E+02  0.7816164E-02  0.1312668E+00
        -11   -1    0    0    0    0  0.00000000000E+00  0.00000000000E+00  0.45593999997E+02  0.45594000000E+02  0.51100000000E-03 0. -1.
         11   -1    0    0    0    0 -0.00000000000E+00 -0.00000000000E+00 -0.45593999997E+02  0.45594000000E+02  0.51100000000E-03 0.  1.
    9900012    2    1    2    0    0  0.55109373291E+01 -0.43042755459E+02  0.75790785061E+00  0.47787266688E+02  0.19999980135E+02 0.  0.
        -12    1    1    2    0    0 -0.55109373291E+01  0.43042755459E+02 -0.75790785061E+00  0.43400733312E+02  0.00000000000E+00 0.  1.
         11    1    3    3    0    0  0.41210191363E+01 -0.13983253610E+02 -0.46170143619E+01  0.15291533675E+02  0.51100000000E-03 0.  1.
        -11    1    3    3    0    0  0.42809137235E+01 -0.21344981547E+01 -0.42309471722E+00  0.48022197036E+01  0.51100000000E-03 0. -1.
        -12    1    3    3    0    0 -0.28909955307E+01 -0.26925003694E+02  0.57980169297E+01  0.27693513309E+02  0.00000000000E+00 0.  1.
</event>
<event>
 7    1  0.4430431E-010  0.4778728E+02  0.7816164E-02  0.1312668E+00
        -11   -1    0    0    0    0  0.00000000000E+00  0.00000000000E+00  0.45593999997E+02  0.45594000000E+02  0.51100000000E-03 0. -1.
         11   -1    0    0    0    0 -0.00000000000E+00 -0.00000000000E+00 -0.45593999997E+02  0.45594000000E+02  0.51100000000E-03 0.  1.
    9900012    2    1    2    0    0 -0.23891718697E+02 -0.35782963653E+02  0.56910457315E+01  0.47787277522E+02  0.20000029533E+02 0.  0.
        -12    1    1    2    0    0  0.23891718697E+02  0.35782963653E+02 -0.56910457315E+01  0.43400722478E+02  0.00000000000E+00 0.  1.
         11    1    3    3    0    0 -0.10045291085E+02 -0.14732342805E+02 -0.11802881290E+01  0.17870167258E+02  0.51100000000E-03 0.  1.
        -11    1    3    3    0    0 -0.79522813928E+01 -0.20736598644E+02  0.20643903766E+01  0.22304865177E+02  0.51100000000E-03 0. -1.
         12    1    3    3    0    0 -0.58941462194E+01 -0.31402220405E+00  0.48069434839E+01  0.76122450866E+01  0.00000000000E+00 0. -1.
</event>
<event>
 7    1  0.4430431E-010  0.4778727E+02  0.7816164E-02  0.1312668E+00
        -11   -1    0    0    0    0  0.00000000000E+00  0.00000000000E+00  0.45593999997E+02  0.45594000000E+02  0.51100000000E-03 0.  1.
         11   -1    0    0    0    0 -0.00000000000E+00 -0.00000000000E+00 -0.45593999997E+02  0.45594000000E+02  0.51100000000E-03 0. -1.
    9900012    2    1    2    0    0 -0.39451158753E+02  0.68101365295E+00 -0.18076660204E+02  0.47787270159E+02  0.19999995964E+02 0.  0.
        -12    1    1    2    0    0  0.39451158753E+02 -0.68101365295E+00  0.18076660204E+02  0.43400729841E+02  0.00000000000E+00 0.  1.
         11    1    3    3    0    0 -0.51882911834E+01 -0.67415497638E+00 -0.44600585943E+00  0.52508829566E+01  0.51100000000E-03 0. -1.
        -11    1    3    3    0    0 -0.17487576563E+02  0.49141264800E+01 -0.17735735911E+02  0.25387404390E+02  0.51100000000E-03 0.  1.
        -12    1    3    3    0    0 -0.16775291007E+02 -0.35589578507E+01  0.10508156637E+00  0.17148982812E+02  0.00000000000E+00 0.  1.
</event>
<event>
 7    1  0.4430431E-010  0.4778727E+02  0.7816164E-02  0.1312668E+00
        -11   -1    0    0    0    0  0.00000000000E+00  0.00000000000E+00  0.45593999997E+02  0.45594000000E+02  0.51100000000E-03 0. -1.
         11   -1    0    0    0    0 -0.00000000000E+00 -0.00000000000E+00 -0.45593999997E+02  0.45594000000E+02  0.51100000000E-03 0.  1.
    9900012    2    1    2    0    0 -0.25468601691E+02 -0.34235438302E+02  0.79315119670E+01  0.47787265100E+02  0.19999972895E+02 0.  0.
        -12    1    1    2    0    0  0.25468601691E+02  0.34235438302E+02 -0.79315119670E+01  0.43400734900E+02  0.00000000000E+00 0.  1.
         11    1    3    3    0    0 -0.20170837834E+02 -0.15779990607E+02  0.86242683397E+01  0.27023116163E+02  0.51100000000E-03 0. -1.
        -11    1    3    3    0    0 -0.63497710927E+01 -0.17351476087E+02  0.97723599358E+00  0.18502656722E+02  0.51100000000E-03 0.  1.
        -12    1    3    3    0    0  0.10520072357E+01 -0.11039716076E+01 -0.16699923663E+01  0.22614922149E+01  0.00000000000E+00 0.  1.
</event>
<event>
 7    1  0.4430431E-010  0.4778727E+02  0.7816164E-02  0.1312668E+00
        -11   -1    0    0    0    0  0.00000000000E+00  0.00000000000E+00  0.45593999997E+02  0.45594000000E+02  0.51100000000E-03 0. -1.
         11   -1    0    0    0    0 -0.00000000000E+00 -0.00000000000E+00 -0.45593999997E+02  0.45594000000E+02  0.51100000000E-03 0.  1.
    9900012    2    1    2    0    0  0.18834732280E+02 -0.27920784783E+02  0.27373450567E+02  0.47787272369E+02  0.20000006041E+02 0.  0.
        -12    1    1    2    0    0 -0.18834732280E+02  0.27920784783E+02 -0.27373450567E+02  0.43400727631E+02  0.00000000000E+00 0.  1.
         11    1    3    3    0    0  0.10952641832E+02 -0.89256029039E+01  0.39015292995E+01  0.14657717470E+02  0.51100000000E-03 0. -1.
        -11    1    3    3    0    0  0.24858191514E+01 -0.21422964958E+01 -0.51489425413E+00  0.33217235712E+01  0.51100000000E-03 0.  1.
         12    1    3    3    0    0  0.53962712964E+01 -0.16852885383E+02  0.23986815521E+02  0.29807831328E+02  0.00000000000E+00 0. -1.
</event>
<event>
 7    1  0.4430431E-010  0.4778727E+02  0.7816164E-02  0.1312668E+00
        -11   -1    0    0    0    0  0.00000000000E+00  0.00000000000E+00  0.45593999997E+02  0.45594000000E+02  0.51100000000E-03 0. -1.
         11   -1    0    0    0    0 -0.00000000000E+00 -0.00000000000E+00 -0.45593999997E+02  0.45594000000E+02  0.51100000000E-03 0.  1.
    9900012    2    1    2    0    0  0.35252876108E+02  0.57307049086E+01  0.24658002281E+02  0.47787270408E+02  0.19999997098E+02 0.  0.
        -12    1    1    2    0    0 -0.35252876108E+02 -0.57307049086E+01 -0.24658002281E+02  0.43400729592E+02  0.00000000000E+00 0.  1.
         11    1    3    3    0    0  0.13202785930E+02 -0.38647136801E+01  0.17221865783E+01  0.13864180287E+02  0.51100000000E-03 0. -1.
        -11    1    3    3    0    0  0.18096940805E+01  0.68029857020E+00  0.52813446466E+01  0.56240910685E+01  0.51100000000E-03 0.  1.
         12    1    3    3    0    0  0.20240396097E+02  0.89151200186E+01  0.17654471056E+02  0.28298999053E+02  0.00000000000E+00 0. -1.
</event>
<event>
 7    1  0.4430431E-010  0.4778732E+02  0.7816164E-02  0.1312668E+00
        -11   -1    0    0    0    0  0.00000000000E+00  0.00000000000E+00  0.45593999997E+02  0.45594000000E+02  0.51100000000E-03 0.  1.
         11   -1    0    0    0    0 -0.00000000000E+00 -0.00000000000E+00 -0.45593999997E+02  0.45594000000E+02  0.51100000000E-03 0. -1.
    9900012    2    1    2    0    0  0.26804207728E+02  0.84961660827E+01 -0.33060072954E+02  0.47787322428E+02  0.20000234276E+02 0.  0.
        -12    1    1    2    0    0 -0.26804207728E+02 -0.84961660827E+01  0.33060072954E+02  0.43400677572E+02  0.00000000000E+00 0.  1.
         11    1    3    3    0    0  0.27230249953E+02  0.55845649434E+01 -0.23762474281E+02  0.36569510009E+02  0.51100000000E-03 0. -1.
        -11    1    3    3    0    0 -0.11630672007E+01  0.16096977246E+01 -0.19766990463E+00  0.19957268677E+01  0.51100000000E-03 0.  1.
         12    1    3    3    0    0  0.73702497526E+00  0.13019034147E+01 -0.90999287683E+01  0.92220855506E+01  0.00000000000E+00 0. -1.
</event>
<event>
 7    1  0.4430431E-010  0.4778727E+02  0.7816164E-02  0.1312668E+00
        -11   -1    0    0    0    0  0.00000000000E+00  0.00000000000E+00  0.45593999997E+02  0.45594000000E+02  0.51100000000E-03 0. -1.
         11   -1    0    0    0    0 -0.00000000000E+00 -0.00000000000E+00 -0.45593999997E+02  0.45594000000E+02  0.51100000000E-03 0.  1.
    9900012    2    1    2    0    0 -0.39834410067E+01  0.21745461996E+02  0.37348233629E+02  0.47787268729E+02  0.19999989441E+02 0.  0.
        -12    1    1    2    0    0  0.39834410067E+01 -0.21745461996E+02 -0.37348233629E+02  0.43400731271E+02  0.00000000000E+00 0.  1.
         11    1    3    3    0    0  0.23425163248E+01  0.46443194094E+01  0.16135726853E+02  0.16953429354E+02  0.51100000000E-03 0. -1.
        -11    1    3    3    0    0  0.32984367901E+01  0.59377322965E+01  0.30572082016E+01  0.74486825904E+01  0.51100000000E-03 0.  1.
        -12    1    3    3    0    0 -0.96243941216E+01  0.11163410290E+02  0.18155298574E+02  0.23385156784E+02  0.00000000000E+00 0.  1.
</event>
<event>
 7    1  0.4430431E-010  0.4778727E+02  0.7816164E-02  0.1312668E+00
        -11   -1    0    0    0    0  0.00000000000E+00  0.00000000000E+00  0.45593999997E+02  0.45594000000E+02  0.51100000000E-03 0.  1.
         11   -1    0    0    0    0 -0.00000000000E+00 -0.00000000000E+00 -0.45593999997E+02  0.45594000000E+02  0.51100000000E-03 0. -1.
    9900012    2    1    2    0    0 -0.17097350833E+02  0.37366097129E+02 -0.13967064366E+02  0.47787268357E+02  0.19999987747E+02 0.  0.
        -12    1    1    2    0    0  0.17097350833E+02 -0.37366097129E+02  0.13967064366E+02  0.43400731643E+02  0.00000000000E+00 0.  1.
         11    1    3    3    0    0 -0.60756186075E+01  0.25167237201E+02 -0.66967527973E+01  0.26742278663E+02  0.51100000000E-03 0. -1.
        -11    1    3    3    0    0 -0.18633892411E+01  0.32114238397E+01  0.28679880637E+01  0.46915688567E+01  0.51100000000E-03 0.  1.
        -12    1    3    3    0    0 -0.91583429843E+01  0.89874360881E+01 -0.10138299632E+02  0.16353420837E+02  0.00000000000E+00 0.  1.
</event>
<event>
 7    1  0.4430431E-010  0.4778727E+02  0.7816164E-02  0.1312668E+00
        -11   -1    0    0    0    0  0.00000000000E+00  0.00000000000E+00  0.45593999997E+02  0.45594000000E+02  0.51100000000E-03 0. -1.
         11   -1    0    0    0    0 -0.00000000000E+00 -0.00000000000E+00 -0.45593999997E+02  0.45594000000E+02  0.51100000000E-03 0.  1.
    9900012    2    1    2    0    0 -0.30393123988E+02  0.13036827102E+02  0.28105553730E+02  0.47787274233E+02  0.20000014537E+02 0.  0.
        -12    1    1    2    0    0  0.30393123988E+02 -0.13036827102E+02 -0.28105553730E+02  0.43400725767E+02  0.00000000000E+00 0.  1.
         11    1    3    3    0    0 -0.19764774815E+02  0.11115941792E+02  0.16874345884E+02  0.28265774970E+02  0.51100000000E-03 0. -1.
        -11    1    3    3    0    0 -0.76558004687E+01 -0.91570645171E+00  0.15955509798E+00  0.77120203068E+01  0.51100000000E-03 0.  1.
        -12    1    3    3    0    0 -0.29725487045E+01  0.28365917615E+01  0.11071652749E+02  0.11809478956E+02  0.00000000000E+00 0.  1.
</event>
<event>
 7    1  0.4430431E-010  0.4778727E+02  0.7816164E-02  0.1312668E+00
        -11   -1    0    0    0    0  0.00000000000E+00  0.00000000000E+00  0.45593999997E+02  0.45594000000E+02  0.51100000000E-03 0.  1.
         11   -1    0    0    0    0 -0.00000000000E+00 -0.00000000000E+00 -0.45593999997E+02  0.45594000000E+02  0.51100000000E-03 0. -1.
    9900012    2    1    2    0    0  0.35138777080E+02  0.18054630256E+02 -0.17969982436E+02  0.47787267320E+02  0.19999983021E+02 0.  0.
        -12    1    1    2    0    0 -0.35138777080E+02 -0.18054630256E+02  0.17969982436E+02  0.43400732680E+02  0.00000000000E+00 0.  1.
         11    1    3    3    0    0  0.24409442769E+02  0.12652991063E+02 -0.15791315030E+02  0.31706225095E+02  0.51100000000E-03 0. -1.
        -11    1    3    3    0    0  0.12291394159E+02  0.24066550876E+01 -0.21181667390E+01  0.12702637115E+02  0.51100000000E-03 0.  1.
         12    1    3    3    0    0 -0.15620598480E+01  0.29949841052E+01 -0.60500667433E-01  0.33784051104E+01  0.00000000000E+00 0. -1.
</event>
<event>
 7    1  0.4430431E-010  0.4778727E+02  0.7816164E-02  0.1312668E+00
        -11   -1    0    0    0    0  0.00000000000E+00  0.00000000000E+00  0.45593999997E+02  0.45594000000E+02  0.51100000000E-03 0.  1.
         11   -1    0    0    0    0 -0.00000000000E+00 -0.00000000000E+00 -0.45593999997E+02  0.45594000000E+02  0.51100000000E-03 0. -1.
    9900012    2    1    2    0    0 -0.29431641076E+02  0.13697785583E+02 -0.28805771331E+02  0.47787270878E+02  0.19999999243E+02 0.  0.
        -12    1    1    2    0    0  0.29431641076E+02 -0.13697785583E+02  0.28805771331E+02  0.43400729122E+02  0.00000000000E+00 0.  1.
         11    1    3    3    0    0 -0.53794780897E+01  0.26109304891E+01 -0.64738136029E+01  0.88128318583E+01  0.51100000000E-03 0. -1.
        -11    1    3    3    0    0 -0.81937375479E+01  0.70379422719E+01  0.58006416964E+00  0.10816951564E+02  0.51100000000E-03 0.  1.
        -12    1    3    3    0    0 -0.15858425438E+02  0.40489128223E+01 -0.22912021898E+02  0.28157487457E+02  0.00000000000E+00 0.  1.
</event>
<event>
 7    1  0.4430431E-010  0.4778727E+02  0.7816164E-02  0.1312668E+00
        -11   -1    0    0    0    0  0.00000000000E+00  0.00000000000E+00  0.45593999997E+02  0.45594000000E+02  0.51100000000E-03 0. -1.
         11   -1    0    0    0    0 -0.00000000000E+00 -0.00000000000E+00 -0.45593999997E+02  0.45594000000E+02  0.51100000000E-03 0.  1.
    9900012    2    1    2    0    0  0.42974398576E+02  0.59093935638E+01 -0.13796317660E+01  0.47787271330E+02  0.20000001301E+02 0.  0.
        -12    1    1    2    0    0 -0.42974398576E+02 -0.59093935638E+01  0.13796317660E+01  0.43400728670E+02  0.00000000000E+00 0.  1.
         11    1    3    3    0    0 -0.93496284077E+00 -0.54153967946E+00 -0.51334145760E+00  0.11962192321E+01  0.51100000000E-03 0. -1.
        -11    1    3    3    0    0  0.15772577037E+02 -0.44442642690E+01 -0.10143761554E+01  0.16418118971E+02  0.51100000000E-03 0.  1.
         12    1    3    3    0    0  0.28136784380E+02  0.10895197512E+02  0.14808584700E+00  0.30172933127E+02  0.00000000000E+00 0. -1.
</event>
<event>
 7    1  0.4430431E-010  0.4778727E+02  0.7816164E-02  0.1312668E+00
        -11   -1    0    0    0    0  0.00000000000E+00  0.00000000000E+00  0.45593999997E+02  0.45594000000E+02  0.51100000000E-03 0.  1.
         11   -1    0    0    0    0 -0.00000000000E+00 -0.00000000000E+00 -0.45593999997E+02  0.45594000000E+02  0.51100000000E-03 0. -1.
    9900012    2    1    2    0    0  0.21117315398E+02 -0.14666832195E+02 -0.34965219491E+02  0.47787267860E+02  0.19999985480E+02 0.  0.
        -12    1    1    2    0    0 -0.21117315398E+02  0.14666832195E+02  0.34965219491E+02  0.43400732140E+02  0.00000000000E+00 0.  1.
         11    1    3    3    0    0  0.10234715273E+02 -0.88824490679E+01 -0.12721789070E+02  0.18587393996E+02  0.51100000000E-03 0. -1.
        -11    1    3    3    0    0  0.78597680728E+01 -0.99948353883E+01 -0.10974988716E+02  0.16796519466E+02  0.51100000000E-03 0.  1.
         12    1    3    3    0    0  0.30228320520E+01  0.42104522610E+01 -0.11268441705E+02  0.12403354398E+02  0.00000000000E+00 0. -1.
</event>
<event>
 7    1  0.4430431E-010  0.4778727E+02  0.7816164E-02  0.1312668E+00
        -11   -1    0    0    0    0  0.00000000000E+00  0.00000000000E+00  0.45593999997E+02  0.45594000000E+02  0.51100000000E-03 0.  1.
         11   -1    0    0    0    0 -0.00000000000E+00 -0.00000000000E+00 -0.45593999997E+02  0.45594000000E+02  0.51100000000E-03 0. -1.
    9900012    2    1    2    0    0 -0.21377095725E+02  0.35000849617E+02 -0.14198004649E+02  0.47787273836E+02  0.20000012727E+02 0.  0.
        -12    1    1    2    0    0  0.21377095725E+02 -0.35000849617E+02  0.14198004649E+02  0.43400726164E+02  0.00000000000E+00 0.  1.
         11    1    3    3    0    0 -0.83040713361E+01  0.85795714318E+01  0.10611817431E+01  0.11987191233E+02  0.51100000000E-03 0. -1.
        -11    1    3    3    0    0 -0.17584680715E+01  0.80171909267E+01  0.16421649943E+01  0.83704400388E+01  0.51100000000E-03 0.  1.
        -12    1    3    3    0    0 -0.11314556317E+02  0.18404087259E+02 -0.16901351387E+02  0.27429642564E+02  0.00000000000E+00 0.  1.
</event>
<event>
 7    1  0.4430431E-010  0.4778727E+02  0.7816164E-02  0.1312668E+00
        -11   -1    0    0    0    0  0.00000000000E+00  0.00000000000E+00  0.45593999997E+02  0.45594000000E+02  0.51100000000E-03 0.  1.
         11   -1    0    0    0    0 -0.00000000000E+00 -0.00000000000E+00 -0.45593999997E+02  0.45594000000E+02  0.51100000000E-03 0. -1.
    9900012    2    1    2    0    0  0.79736600047E+01  0.11561145670E+02 -0.41065604882E+02  0.47787271350E+02  0.20000001392E+02 0.  0.
        -12    1    1    2    0    0 -0.79736600047E+01 -0.11561145670E+02  0.41065604882E+02  0.43400728650E+02  0.00000000000E+00 0.  1.
         11    1    3    3    0    0 -0.32020311464E+01  0.47791191990E+01 -0.18627651474E+02  0.19495701667E+02  0.51100000000E-03 0. -1.
        -11    1    3    3    0    0  0.90353466689E+00 -0.14352082376E+01 -0.10149728411E+02  0.10290441422E+02  0.51100000000E-03 0.  1.
         12    1    3    3    0    0  0.10272156484E+02  0.82172347084E+01 -0.12288224996E+02  0.18001128260E+02  0.00000000000E+00 0. -1.
</event>
<event>
 7    1  0.4430431E-010  0.4778727E+02  0.7816164E-02  0.1312668E+00
        -11   -1    0    0    0    0  0.00000000000E+00  0.00000000000E+00  0.45593999997E+02  0.45594000000E+02  0.51100000000E-03 0.  1.
         11   -1    0    0    0    0 -0.00000000000E+00 -0.00000000000E+00 -0.45593999997E+02  0.45594000000E+02  0.51100000000E-03 0. -1.
    9900012    2    1    2    0    0 -0.17476938313E+01  0.32896515027E+02 -0.28255758881E+02  0.47787273686E+02  0.20000012043E+02 0.  0.
        -12    1    1    2    0    0  0.17476938313E+01 -0.32896515027E+02  0.28255758881E+02  0.43400726314E+02  0.00000000000E+00 0.  1.
         11    1    3    3    0    0  0.34568417954E+01  0.16642434706E+02 -0.10430726822E+02  0.19942929836E+02  0.51100000000E-03 0. -1.
        -11    1    3    3    0    0  0.20974861062E+01  0.50871969767E+01  0.94148835600E-01  0.55034430414E+01  0.51100000000E-03 0.  1.
         12    1    3    3    0    0 -0.73020217329E+01  0.11166883345E+02 -0.17919180894E+02  0.22340900809E+02  0.00000000000E+00 0. -1.
</event>
<event>
 7    1  0.4430431E-010  0.4778727E+02  0.7816164E-02  0.1312668E+00
        -11   -1    0    0    0    0  0.00000000000E+00  0.00000000000E+00  0.45593999997E+02  0.45594000000E+02  0.51100000000E-03 0.  1.
         11   -1    0    0    0    0 -0.00000000000E+00 -0.00000000000E+00 -0.45593999997E+02  0.45594000000E+02  0.51100000000E-03 0. -1.
    9900012    2    1    2    0    0 -0.28105438855E+02  0.25689173280E+02 -0.20827240097E+02  0.47787271353E+02  0.20000001407E+02 0.  0.
        -12    1    1    2    0    0  0.28105438855E+02 -0.25689173280E+02  0.20827240097E+02  0.43400728647E+02  0.00000000000E+00 0.  1.
         11    1    3    3    0    0 -0.13590451443E+00  0.85174739425E+00 -0.20075051898E+00  0.88557591016E+00  0.51100000000E-03 0. -1.
        -11    1    3    3    0    0 -0.12504622015E+02 -0.40854417684E+00 -0.64658583022E+01  0.14083316511E+02  0.51100000000E-03 0.  1.
         12    1    3    3    0    0 -0.15464912325E+02  0.25245970062E+02 -0.14160631276E+02  0.32818378932E+02  0.00000000000E+00 0. -1.
</event>
<event>
 7    1  0.4430431E-010  0.4778726E+02  0.7816164E-02  0.1312668E+00
        -11   -1    0    0    0    0  0.00000000000E+00  0.00000000000E+00  0.45593999997E+02  0.45594000000E+02  0.51100000000E-03 0.  1.
         11   -1    0    0    0    0 -0.00000000000E+00 -0.00000000000E+00 -0.45593999997E+02  0.45594000000E+02  0.51100000000E-03 0. -1.
    9900012    2    1    2    0    0  0.24667519434E+02  0.25148659410E+02 -0.25351185069E+02  0.47787260726E+02  0.19999952955E+02 0.  0.
        -12    1    1    2    0    0 -0.24667519434E+02 -0.25148659410E+02  0.25351185069E+02  0.43400739274E+02  0.00000000000E+00 0.  1.
         11    1    3    3    0    0  0.17014056118E+01  0.78838066496E+01 -0.12229354465E+02  0.14649447062E+02  0.51100000000E-03 0. -1.
        -11    1    3    3    0    0 -0.32063991171E+00 -0.30183588789E+00  0.72523277941E+00  0.84845606937E+00  0.51100000000E-03 0.  1.
         12    1    3    3    0    0  0.23286753734E+02  0.17566688648E+02 -0.13847063383E+02  0.32289357594E+02  0.00000000000E+00 0. -1.
</event>
<event>
 7    1  0.4430431E-010  0.4778727E+02  0.7816164E-02  0.1312668E+00
        -11   -1    0    0    0    0  0.00000000000E+00  0.00000000000E+00  0.45593999997E+02  0.45594000000E+02  0.51100000000E-03 0.  1.
         11   -1    0    0    0    0 -0.00000000000E+00 -0.00000000000E+00 -0.45593999997E+02  0.45594000000E+02  0.51100000000E-03 0. -1.
    9900012    2    1    2    0    0  0.25668836911E+02 -0.21808669054E+02 -0.27369984794E+02  0.47787270722E+02  0.19999998528E+02 0.  0.
        -12    1    1    2    0    0 -0.25668836911E+02  0.21808669054E+02  0.27369984794E+02  0.43400729278E+02  0.00000000000E+00 0.  1.
         11    1    3    3    0    0  0.16263807921E+01  0.49238530662E-02 -0.88363527583E+01  0.89847798557E+01  0.51100000000E-03 0. -1.
        -11    1    3    3    0    0  0.24967643601E+01 -0.56035814951E+01 -0.74498842473E+01  0.96506338342E+01  0.51100000000E-03 0.  1.
        -12    1    3    3    0    0  0.21545691759E+02 -0.16210011412E+02 -0.11083747788E+02  0.29151857032E+02  0.00000000000E+00 0.  1.
</event>
<event>
 7    1  0.4430431E-010  0.4778727E+02  0.7816164E-02  0.1312668E+00
        -11   -1    0    0    0    0  0.00000000000E+00  0.00000000000E+00  0.45593999997E+02  0.45594000000E+02  0.51100000000E-03 0.  1.
         11   -1    0    0    0    0 -0.00000000000E+00 -0.00000000000E+00 -0.45593999997E+02  0.45594000000E+02  0.51100000000E-03 0. -1.
    9900012    2    1    2    0    0  0.65890791443E+01  0.42893753856E+02  0.57736135098E+00  0.47787269246E+02  0.19999991800E+02 0.  0.
        -12    1    1    2    0    0 -0.65890791443E+01 -0.42893753856E+02 -0.57736135098E+00  0.43400730754E+02  0.00000000000E+00 0.  1.
         11    1    3    3    0    0  0.15399602488E+01  0.33939841643E+02 -0.94473617754E+00  0.33987892771E+02  0.51100000000E-03 0. -1.
        -11    1    3    3    0    0 -0.15618880054E+01 -0.40523583505E+00 -0.12132509032E+01  0.20188333856E+01  0.51100000000E-03 0.  1.
        -12    1    3    3    0    0  0.66110069009E+01  0.93591480484E+01  0.27353484317E+01  0.11780543089E+02  0.00000000000E+00 0.  1.
</event>
<event>
 7    1  0.4430431E-010  0.4778727E+02  0.7816164E-02  0.1312668E+00
        -11   -1    0    0    0    0  0.00000000000E+00  0.00000000000E+00  0.45593999997E+02  0.45594000000E+02  0.51100000000E-03 0.  1.
         11   -1    0    0    0    0 -0.00000000000E+00 -0.00000000000E+00 -0.45593999997E+02  0.45594000000E+02  0.51100000000E-03 0. -1.
    9900012    2    1    2    0    0  0.29967856037E+01  0.38939992554E+02 -0.18929328549E+02  0.47787271626E+02  0.20000002652E+02 0.  0.
        -12    1    1    2    0    0 -0.29967856037E+01 -0.38939992554E+02  0.18929328549E+02  0.43400728374E+02  0.00000000000E+00 0.  1.
         11    1    3    3    0    0  0.19207177359E+01  0.16342800833E+01  0.12798508815E+01  0.28280817796E+01  0.51100000000E-03 0. -1.
        -11    1    3    3    0    0 -0.33172450949E+01  0.58883159787E+01 -0.91253405298E+01  0.11355536981E+02  0.51100000000E-03 0.  1.
         12    1    3    3    0    0  0.43933129627E+01  0.31417396492E+02 -0.11083838900E+02  0.33603652865E+02  0.00000000000E+00 0. -1.
</event>
<event>
 7    1  0.4430431E-010  0.4778728E+02  0.7816164E-02  0.1312668E+00
        -11   -1    0    0    0    0  0.00000000000E+00  0.00000000000E+00  0.45593999997E+02  0.45594000000E+02  0.51100000000E-03 0.  1.
         11   -1    0    0    0    0 -0.00000000000E+00 -0.00000000000E+00 -0.45593999997E+02  0.45594000000E+02  0.51100000000E-03 0. -1.
    9900012    2    1    2    0    0 -0.33856592914E+02 -0.12907410231E+02 -0.23890433129E+02  0.47787275147E+02  0.20000018706E+02 0.  0.
        -12    1    1    2    0    0  0.33856592914E+02  0.12907410231E+02  0.23890433129E+02  0.43400724853E+02  0.00000000000E+00 0.  1.
         11    1    3    3    0    0 -0.20261587729E+02 -0.29654420578E+01 -0.12847904072E+02  0.24174251244E+02  0.51100000000E-03 0. -1.
        -11    1    3    3    0    0 -0.47513119496E+01  0.17648436433E+01 -0.65234831680E+01  0.82610817229E+01  0.51100000000E-03 0.  1.
        -12    1    3    3    0    0 -0.88436932358E+01 -0.11706811817E+02 -0.45190458900E+01  0.15351942181E+02  0.00000000000E+00 0.  1.
</event>
<event>
 7    1  0.4430431E-010  0.4778726E+02  0.7816164E-02  0.1312668E+00
        -11   -1    0    0    0    0  0.00000000000E+00  0.00000000000E+00  0.45593999997E+02  0.45594000000E+02  0.51100000000E-03 0.  1.
         11   -1    0    0    0    0 -0.00000000000E+00 -0.00000000000E+00 -0.45593999997E+02  0.45594000000E+02  0.51100000000E-03 0. -1.
    9900012    2    1    2    0    0  0.27482749733E+02  0.29408336407E+02 -0.16231836920E+02  0.47787259074E+02  0.19999945422E+02 0.  0.
        -12    1    1    2    0    0 -0.27482749733E+02 -0.29408336407E+02  0.16231836920E+02  0.43400740926E+02  0.00000000000E+00 0.  1.
         11    1    3    3    0    0  0.86968242438E+01  0.11588439789E+02 -0.10896255975E+02  0.18128846715E+02  0.51100000000E-03 0. -1.
        -11    1    3    3    0    0  0.31795576070E+01 -0.82433312616E+00 -0.41812251008E+01  0.53171190775E+01  0.51100000000E-03 0.  1.
        -12    1    3    3    0    0  0.15606367882E+02  0.18644229744E+02 -0.11543558445E+01  0.24341293282E+02  0.00000000000E+00 0.  1.
</event>
<event>
 7    1  0.4430431E-010  0.4778727E+02  0.7816164E-02  0.1312668E+00
        -11   -1    0    0    0    0  0.00000000000E+00  0.00000000000E+00  0.45593999997E+02  0.45594000000E+02  0.51100000000E-03 0.  1.
         11   -1    0    0    0    0 -0.00000000000E+00 -0.00000000000E+00 -0.45593999997E+02  0.45594000000E+02  0.51100000000E-03 0. -1.
    9900012    2    1    2    0    0  0.75825731784E+01 -0.16562244274E+02 -0.39393147997E+02  0.47787268895E+02  0.19999990198E+02 0.  0.
        -12    1    1    2    0    0 -0.75825731784E+01  0.16562244274E+02  0.39393147997E+02  0.43400731105E+02  0.00000000000E+00 0.  1.
         11    1    3    3    0    0 -0.12814326805E+01 -0.56808138516E+00 -0.12624469456E+01  0.18864142510E+01  0.51100000000E-03 0. -1.
        -11    1    3    3    0    0 -0.21939659341E+01  0.22572183468E+01 -0.14532382759E+01  0.34670481584E+01  0.51100000000E-03 0.  1.
         12    1    3    3    0    0  0.11057971793E+02 -0.18251381236E+02 -0.36677462775E+02  0.42433806485E+02  0.00000000000E+00 0. -1.
</event>
<event>
 7    1  0.4430431E-010  0.4778727E+02  0.7816164E-02  0.1312668E+00
        -11   -1    0    0    0    0  0.00000000000E+00  0.00000000000E+00  0.45593999997E+02  0.45594000000E+02  0.51100000000E-03 0.  1.
         11   -1    0    0    0    0 -0.00000000000E+00 -0.00000000000E+00 -0.45593999997E+02  0.45594000000E+02  0.51100000000E-03 0. -1.
    9900012    2    1    2    0    0  0.44087056007E+01 -0.65690783710E+01 -0.42673575235E+02  0.47787268450E+02  0.19999988170E+02 0.  0.
        -12    1    1    2    0    0 -0.44087056007E+01  0.65690783710E+01  0.42673575235E+02  0.43400731550E+02  0.00000000000E+00 0.  1.
         11    1    3    3    0    0  0.24794894160E+01 -0.11909665016E+02 -0.14937369009E+02  0.19264292921E+02  0.51100000000E-03 0. -1.
        -11    1    3    3    0    0 -0.83409145462E+00  0.25441836061E+01 -0.96590467193E+01  0.10023261074E+02  0.51100000000E-03 0.  1.
        -12    1    3    3    0    0  0.27633076393E+01  0.27964030390E+01 -0.18077159507E+02  0.18499714455E+02  0.00000000000E+00 0.  1.
</event>
<event>
 7    1  0.4430431E-010  0.4778727E+02  0.7816164E-02  0.1312668E+00
        -11   -1    0    0    0    0  0.00000000000E+00  0.00000000000E+00  0.45593999997E+02  0.45594000000E+02  0.51100000000E-03 0.  1.
         11   -1    0    0    0    0 -0.00000000000E+00 -0.00000000000E+00 -0.45593999997E+02  0.45594000000E+02  0.51100000000E-03 0. -1.
    9900012    2    1    2    0    0 -0.54270362480E+01  0.54546175913E+01 -0.42713199896E+02  0.47787273960E+02  0.20000013291E+02 0.  0.
        -12    1    1    2    0    0  0.54270362480E+01 -0.54546175913E+01  0.42713199896E+02  0.43400726040E+02  0.00000000000E+00 0.  1.
         11    1    3    3    0    0 -0.28170388417E+01 -0.46292107047E+01 -0.11411044051E+02  0.12632387984E+02  0.51100000000E-03 0. -1.
        -11    1    3    3    0    0 -0.31674531499E+01 -0.99693501722E+00 -0.21322670314E+01  0.39462896295E+01  0.51100000000E-03 0.  1.
        -12    1    3    3    0    0  0.55745574362E+00  0.11080763313E+02 -0.29169888813E+02  0.31208596346E+02  0.00000000000E+00 0.  1.
</event>
<event>
 7    1  0.4430431E-010  0.4778727E+02  0.7816164E-02  0.1312668E+00
        -11   -1    0    0    0    0  0.00000000000E+00  0.00000000000E+00  0.45593999997E+02  0.45594000000E+02  0.51100000000E-03 0.  1.
         11   -1    0    0    0    0 -0.00000000000E+00 -0.00000000000E+00 -0.45593999997E+02  0.45594000000E+02  0.51100000000E-03 0. -1.
    9900012    2    1    2    0    0 -0.14772552432E+02 -0.31018092350E+02 -0.26519287027E+02  0.47787274858E+02  0.20000017390E+02 0.  0.
        -12    1    1    2    0    0  0.14772552432E+02  0.31018092350E+02  0.26519287027E+02  0.43400725142E+02  0.00000000000E+00 0.  1.
         11    1    3    3    0    0 -0.81934191815E+01 -0.28099604450E+02 -0.13980726226E+02  0.32437333340E+02  0.51100000000E-03 0. -1.
        -11    1    3    3    0    0 -0.25877616886E+01 -0.39517435328E+01 -0.70213654694E+01  0.84624086892E+01  0.51100000000E-03 0.  1.
        -12    1    3    3    0    0 -0.39913715619E+01  0.10332556328E+01 -0.55171953318E+01  0.68875328295E+01  0.00000000000E+00 0.  1.
</event>
<event>
 7    1  0.4430431E-010  0.4778727E+02  0.7816164E-02  0.1312668E+00
        -11   -1    0    0    0    0  0.00000000000E+00  0.00000000000E+00  0.45593999997E+02  0.45594000000E+02  0.51100000000E-03 0. -1.
         11   -1    0    0    0    0 -0.00000000000E+00 -0.00000000000E+00 -0.45593999997E+02  0.45594000000E+02  0.51100000000E-03 0.  1.
    9900012    2    1    2    0    0  0.27692249875E+02 -0.62098610720E+01  0.32835964223E+02  0.47787267009E+02  0.19999981601E+02 0.  0.
        -12    1    1    2    0    0 -0.27692249875E+02  0.62098610720E+01 -0.32835964223E+02  0.43400732991E+02  0.00000000000E+00 0.  1.
         11    1    3    3    0    0  0.14573730017E+02 -0.98579161808E+00  0.77623081642E+01  0.16541427387E+02  0.51100000000E-03 0. -1.
        -11    1    3    3    0    0  0.15471282476E+02 -0.46197775193E+01  0.20816935914E+02  0.26344785952E+02  0.51100000000E-03 0.  1.
        -12    1    3    3    0    0 -0.23527626173E+01 -0.60429193460E+00  0.42567201452E+01  0.49010536694E+01  0.00000000000E+00 0.  1.
</event>
<event>
 7    1  0.4430431E-010  0.4778726E+02  0.7816164E-02  0.1312668E+00
        -11   -1    0    0    0    0  0.00000000000E+00  0.00000000000E+00  0.45593999997E+02  0.45594000000E+02  0.51100000000E-03 0. -1.
         11   -1    0    0    0    0 -0.00000000000E+00 -0.00000000000E+00 -0.45593999997E+02  0.45594000000E+02  0.51100000000E-03 0.  1.
    9900012    2    1    2    0    0  0.30183645475E+02 -0.27370610634E+02  0.14947282813E+02  0.47787262171E+02  0.19999959542E+02 0.  0.
        -12    1    1    2    0    0 -0.30183645475E+02  0.27370610634E+02 -0.14947282813E+02  0.43400737829E+02  0.00000000000E+00 0.  1.
         11    1    3    3    0    0  0.13722236530E+02 -0.54177018479E+01 -0.12765086029E+01  0.14808130982E+02  0.51100000000E-03 0. -1.
        -11    1    3    3    0    0  0.11421300384E+01  0.10141490199E+00 -0.59724460328E+00  0.12928446868E+01  0.51100000000E-03 0.  1.
        -12    1    3    3    0    0  0.15319278907E+02 -0.22054323688E+02  0.16821036019E+02  0.31686286502E+02  0.00000000000E+00 0.  1.
</event>
<event>
 7    1  0.4430431E-010  0.4778726E+02  0.7816164E-02  0.1312668E+00
        -11   -1    0    0    0    0  0.00000000000E+00  0.00000000000E+00  0.45593999997E+02  0.45594000000E+02  0.51100000000E-03 0.  1.
         11   -1    0    0    0    0 -0.00000000000E+00 -0.00000000000E+00 -0.45593999997E+02  0.45594000000E+02  0.51100000000E-03 0. -1.
    9900012    2    1    2    0    0 -0.34966874827E+02 -0.23921360184E+02  0.94185992298E+01  0.47787264757E+02  0.19999971332E+02 0.  0.
        -12    1    1    2    0    0  0.34966874827E+02  0.23921360184E+02 -0.94185992298E+01  0.43400735243E+02  0.00000000000E+00 0.  1.
         11    1    3    3    0    0 -0.13846202729E+02 -0.60102600753E+01  0.71243024816E+01  0.16691202542E+02  0.51100000000E-03 0. -1.
        -11    1    3    3    0    0 -0.19424028544E+02 -0.18180883658E+02  0.57657180925E+01  0.27222801488E+02  0.51100000000E-03 0.  1.
         12    1    3    3    0    0 -0.16966435536E+01  0.26978354899E+00 -0.34714213443E+01  0.38732607272E+01  0.00000000000E+00 0. -1.
</event>
<event>
 7    1  0.4430431E-010  0.4778729E+02  0.7816164E-02  0.1312668E+00
        -11   -1    0    0    0    0  0.00000000000E+00  0.00000000000E+00  0.45593999997E+02  0.45594000000E+02  0.51100000000E-03 0. -1.
         11   -1    0    0    0    0 -0.00000000000E+00 -0.00000000000E+00 -0.45593999997E+02  0.45594000000E+02  0.51100000000E-03 0.  1.
    9900012    2    1    2    0    0 -0.17266790232E+01 -0.22229593105E+02  0.37235544078E+02  0.47787286033E+02  0.20000068338E+02 0.  0.
        -12    1    1    2    0    0  0.17266790232E+01  0.22229593105E+02 -0.37235544078E+02  0.43400713967E+02  0.00000000000E+00 0.  1.
         11    1    3    3    0    0  0.36568437931E+01 -0.73386598284E+01  0.12613720696E+02  0.15044413736E+02  0.51100000000E-03 0. -1.
        -11    1    3    3    0    0 -0.65200416199E+01 -0.86055272592E+01  0.46156778765E+01  0.11741827995E+02  0.51100000000E-03 0.  1.
        -12    1    3    3    0    0  0.11365188036E+01 -0.62854060179E+01  0.20006145506E+02  0.21001044303E+02  0.00000000000E+00 0.  1.
</event>
<event>
 7    1  0.4430431E-010  0.4778727E+02  0.7816164E-02  0.1312668E+00
        -11   -1    0    0    0    0  0.00000000000E+00  0.00000000000E+00  0.45593999997E+02  0.45594000000E+02  0.51100000000E-03 0.  1.
         11   -1    0    0    0    0 -0.00000000000E+00 -0.00000000000E+00 -0.45593999997E+02  0.45594000000E+02  0.51100000000E-03 0. -1.
    9900012    2    1    2    0    0 -0.26766265734E+02 -0.61342020805E+01 -0.33608952908E+02  0.47787272678E+02  0.20000007449E+02 0.  0.
        -12    1    1    2    0    0  0.26766265734E+02  0.61342020805E+01  0.33608952908E+02  0.43400727322E+02  0.00000000000E+00 0.  1.
         11    1    3    3    0    0 -0.21485319797E+01  0.40242580897E+01 -0.15823042821E+01  0.48285121872E+01  0.51100000000E-03 0. -1.
        -11    1    3    3    0    0 -0.37144183475E+00 -0.22336802147E+01 -0.64505801552E+01  0.68364669924E+01  0.51100000000E-03 0.  1.
         12    1    3    3    0    0 -0.24246291920E+02 -0.79247799555E+01 -0.25576068470E+02  0.36122293499E+02  0.00000000000E+00 0. -1.
</event>
<event>
 7    1  0.4430431E-010  0.4778728E+02  0.7816164E-02  0.1312668E+00
        -11   -1    0    0    0    0  0.00000000000E+00  0.00000000000E+00  0.45593999997E+02  0.45594000000E+02  0.51100000000E-03 0.  1.
         11   -1    0    0    0    0 -0.00000000000E+00 -0.00000000000E+00 -0.45593999997E+02  0.45594000000E+02  0.51100000000E-03 0. -1.
    9900012    2    1    2    0    0 -0.40608426098E+02  0.12637268810E+02 -0.86532126234E+01  0.47787275101E+02  0.20000018493E+02 0.  0.
        -12    1    1    2    0    0  0.40608426098E+02 -0.12637268810E+02  0.86532126234E+01  0.43400724899E+02  0.00000000000E+00 0.  1.
         11    1    3    3    0    0 -0.15144447844E+02  0.94785360745E+00  0.41046419326E+00  0.15179631355E+02  0.51100000000E-03 0. -1.
        -11    1    3    3    0    0 -0.24238642231E+02  0.72441074137E+01 -0.37536503565E+01  0.25574963552E+02  0.51100000000E-03 0.  1.
        -12    1    3    3    0    0 -0.12253360231E+01  0.44453077885E+01 -0.53100264601E+01  0.70326801940E+01  0.00000000000E+00 0.  1.
</event>
<event>
 7    1  0.4430431E-010  0.4778727E+02  0.7816164E-02  0.1312668E+00
        -11   -1    0    0    0    0  0.00000000000E+00  0.00000000000E+00  0.45593999997E+02  0.45594000000E+02  0.51100000000E-03 0.  1.
         11   -1    0    0    0    0 -0.00000000000E+00 -0.00000000000E+00 -0.45593999997E+02  0.45594000000E+02  0.51100000000E-03 0. -1.
    9900012    2    1    2    0    0 -0.22043070058E+02  0.33559755439E+02 -0.16476318527E+02  0.47787271954E+02  0.20000004149E+02 0.  0.
        -12    1    1    2    0    0  0.22043070058E+02 -0.33559755439E+02  0.16476318527E+02  0.43400728046E+02  0.00000000000E+00 0.  1.
         11    1    3    3    0    0 -0.30038782980E+00  0.10840557934E+02 -0.88136876556E+01  0.13974584771E+02  0.51100000000E-03 0. -1.
        -11    1    3    3    0    0 -0.51798553863E+01  0.52445816389E+01 -0.63011630860E+01  0.96974839463E+01  0.51100000000E-03 0.  1.
        -12    1    3    3    0    0 -0.16562826842E+02  0.17474615866E+02 -0.13614677854E+01  0.24115203238E+02  0.00000000000E+00 0.  1.
</event>
<event>
 7    1  0.4430431E-010  0.4778727E+02  0.7816164E-02  0.1312668E+00
        -11   -1    0    0    0    0  0.00000000000E+00  0.00000000000E+00  0.45593999997E+02  0.45594000000E+02  0.51100000000E-03 0. -1.
         11   -1    0    0    0    0 -0.00000000000E+00 -0.00000000000E+00 -0.45593999997E+02  0.45594000000E+02  0.51100000000E-03 0.  1.
    9900012    2    1    2    0    0  0.18220500984E+02 -0.99342558106E+01  0.38117546629E+02  0.47787268951E+02  0.19999990454E+02 0.  0.
        -12    1    1    2    0    0 -0.18220500984E+02  0.99342558106E+01 -0.38117546629E+02  0.43400731049E+02  0.00000000000E+00 0.  1.
         11    1    3    3    0    0  0.11879714289E+01 -0.19851410843E+01 -0.35158210756E+00  0.23400152734E+01  0.51100000000E-03 0. -1.
        -11    1    3    3    0    0  0.15563961232E+02 -0.41674714264E+01  0.38108271155E+02  0.41374449096E+02  0.51100000000E-03 0.  1.
        -12    1    3    3    0    0  0.14685683230E+01 -0.37816432998E+01  0.36085758189E+00  0.40728045817E+01  0.00000000000E+00 0.  1.
</event>
<event>
 7    1  0.4430431E-010  0.4778728E+02  0.7816164E-02  0.1312668E+00
        -11   -1    0    0    0    0  0.00000000000E+00  0.00000000000E+00  0.45593999997E+02  0.45594000000E+02  0.51100000000E-03 0.  1.
         11   -1    0    0    0    0 -0.00000000000E+00 -0.00000000000E+00 -0.45593999997E+02  0.45594000000E+02  0.51100000000E-03 0. -1.
    9900012    2    1    2    0    0  0.38258774822E+00  0.16640355981E+02 -0.40082103314E+02  0.47787276197E+02  0.20000023492E+02 0.  0.
        -12    1    1    2    0    0 -0.38258774822E+00 -0.16640355981E+02  0.40082103314E+02  0.43400723803E+02  0.00000000000E+00 0.  1.
         11    1    3    3    0    0 -0.87082205680E+00  0.10221626409E+02 -0.16738442691E+02  0.19632000445E+02  0.51100000000E-03 0. -1.
        -11    1    3    3    0    0 -0.26804809177E+01  0.88648733242E+01 -0.21026342092E+02  0.22975596163E+02  0.51100000000E-03 0.  1.
        -12    1    3    3    0    0  0.39338907227E+01 -0.24461437517E+01 -0.23173185313E+01  0.51796795892E+01  0.00000000000E+00 0.  1.
</event>
<event>
 7    1  0.4430431E-010  0.4778727E+02  0.7816164E-02  0.1312668E+00
        -11   -1    0    0    0    0  0.00000000000E+00  0.00000000000E+00  0.45593999997E+02  0.45594000000E+02  0.51100000000E-03 0. -1.
         11   -1    0    0    0    0 -0.00000000000E+00 -0.00000000000E+00 -0.45593999997E+02  0.45594000000E+02  0.51100000000E-03 0.  1.
    9900012    2    1    2    0    0 -0.32139909679E+02  0.28741299496E+02  0.49585438200E+01  0.47787271346E+02  0.20000001376E+02 0.  0.
        -12    1    1    2    0    0  0.32139909679E+02 -0.28741299496E+02 -0.49585438200E+01  0.43400728654E+02  0.00000000000E+00 0.  1.
         11    1    3    3    0    0 -0.13934625118E+02  0.21690911450E+02  0.48917425408E+01  0.26241161599E+02  0.51100000000E-03 0. -1.
        -11    1    3    3    0    0 -0.11319883749E+02  0.82058334861E+01  0.23982244479E+01  0.14185448603E+02  0.51100000000E-03 0.  1.
        -12    1    3    3    0    0 -0.68854008109E+01 -0.11554454399E+01 -0.23314231687E+01  0.73606611444E+01  0.00000000000E+00 0.  1.
</event>
<event>
 7    1  0.4430431E-010  0.4778727E+02  0.7816164E-02  0.1312668E+00
        -11   -1    0    0    0    0  0.00000000000E+00  0.00000000000E+00  0.45593999997E+02  0.45594000000E+02  0.51100000000E-03 0. -1.
         11   -1    0    0    0    0 -0.00000000000E+00 -0.00000000000E+00 -0.45593999997E+02  0.45594000000E+02  0.51100000000E-03 0.  1.
    9900012    2    1    2    0    0 -0.14808496776E+02 -0.40500312600E+02  0.49047775460E+01  0.47787265672E+02  0.19999975504E+02 0.  0.
        -12    1    1    2    0    0  0.14808496776E+02  0.40500312600E+02 -0.49047775460E+01  0.43400734328E+02  0.00000000000E+00 0.  1.
         11    1    3    3    0    0 -0.47767868172E+01 -0.47425457995E+01  0.53394041321E+01  0.85917791932E+01  0.51100000000E-03 0. -1.
        -11    1    3    3    0    0  0.13080564500E+01 -0.55995303838E+01  0.35073641335E+01  0.67355293498E+01  0.51100000000E-03 0.  1.
        -12    1    3    3    0    0 -0.11339766409E+02 -0.30158236417E+02 -0.39419907196E+01  0.32459957129E+02  0.00000000000E+00 0.  1.
</event>
<event>
 7    1  0.4430431E-010  0.4778727E+02  0.7816164E-02  0.1312668E+00
        -11   -1    0    0    0    0  0.00000000000E+00  0.00000000000E+00  0.45593999997E+02  0.45594000000E+02  0.51100000000E-03 0.  1.
         11   -1    0    0    0    0 -0.00000000000E+00 -0.00000000000E+00 -0.45593999997E+02  0.45594000000E+02  0.51100000000E-03 0. -1.
    9900012    2    1    2    0    0 -0.14337347279E+00  0.34863991311E+02 -0.25847722512E+02  0.47787271836E+02  0.20000003611E+02 0.  0.
        -12    1    1    2    0    0  0.14337347279E+00 -0.34863991311E+02  0.25847722512E+02  0.43400728164E+02  0.00000000000E+00 0.  1.
         11    1    3    3    0    0 -0.50611055279E+00  0.83504596756E+01 -0.11649669123E+02  0.14342284185E+02  0.51100000000E-03 0. -1.
        -11    1    3    3    0    0  0.81154473543E+00  0.28213863558E+02 -0.14379130997E+02  0.31677122821E+02  0.51100000000E-03 0.  1.
         12    1    3    3    0    0 -0.44880765544E+00 -0.17003319231E+01  0.18107760785E+00  0.17678648309E+01  0.00000000000E+00 0. -1.
</event>
<event>
 7    1  0.4430431E-010  0.4778727E+02  0.7816164E-02  0.1312668E+00
        -11   -1    0    0    0    0  0.00000000000E+00  0.00000000000E+00  0.45593999997E+02  0.45594000000E+02  0.51100000000E-03 0.  1.
         11   -1    0    0    0    0 -0.00000000000E+00 -0.00000000000E+00 -0.45593999997E+02  0.45594000000E+02  0.51100000000E-03 0. -1.
    9900012    2    1    2    0    0 -0.23833954575E+02 -0.33172700202E+02  0.14667581405E+02  0.47787269895E+02  0.19999994758E+02 0.  0.
        -12    1    1    2    0    0  0.23833954575E+02  0.33172700202E+02 -0.14667581405E+02  0.43400730105E+02  0.00000000000E+00 0.  1.
         11    1    3    3    0    0 -0.68157668121E+01 -0.10475056738E+02  0.45400088651E+01  0.13296359338E+02  0.51100000000E-03 0. -1.
        -11    1    3    3    0    0  0.13994312678E+00 -0.22510191104E+01  0.73106331285E+01  0.76506227273E+01  0.51100000000E-03 0.  1.
        -12    1    3    3    0    0 -0.17158130890E+02 -0.20446624353E+02  0.28169394116E+01  0.26840287829E+02  0.00000000000E+00 0.  1.
</event>
<event>
 7    1  0.4430431E-010  0.4778727E+02  0.7816164E-02  0.1312668E+00
        -11   -1    0    0    0    0  0.00000000000E+00  0.00000000000E+00  0.45593999997E+02  0.45594000000E+02  0.51100000000E-03 0. -1.
         11   -1    0    0    0    0 -0.00000000000E+00 -0.00000000000E+00 -0.45593999997E+02  0.45594000000E+02  0.51100000000E-03 0.  1.
    9900012    2    1    2    0    0  0.39854390997E+02 -0.16338435472E+02 -0.53203620614E+01  0.47787271805E+02  0.20000003468E+02 0.  0.
        -12    1    1    2    0    0 -0.39854390997E+02  0.16338435472E+02  0.53203620614E+01  0.43400728195E+02  0.00000000000E+00 0.  1.
         11    1    3    3    0    0  0.20923484022E+02 -0.11161638875E+02 -0.83454411865E+01  0.25140022968E+02  0.51100000000E-03 0. -1.
        -11    1    3    3    0    0  0.89254056854E+01 -0.39485332262E+01 -0.38000114620E+01  0.10473484075E+02  0.51100000000E-03 0.  1.
        -12    1    3    3    0    0  0.10005501290E+02 -0.12282633707E+01  0.68250905871E+01  0.12173764762E+02  0.00000000000E+00 0.  1.
</event>
<event>
 7    1  0.4430431E-010  0.4778727E+02  0.7816164E-02  0.1312668E+00
        -11   -1    0    0    0    0  0.00000000000E+00  0.00000000000E+00  0.45593999997E+02  0.45594000000E+02  0.51100000000E-03 0.  1.
         11   -1    0    0    0    0 -0.00000000000E+00 -0.00000000000E+00 -0.45593999997E+02  0.45594000000E+02  0.51100000000E-03 0. -1.
    9900012    2    1    2    0    0 -0.12943105253E+02 -0.40306698186E+02 -0.95639578901E+01  0.47787272094E+02  0.20000004785E+02 0.  0.
        -12    1    1    2    0    0  0.12943105253E+02  0.40306698186E+02  0.95639578901E+01  0.43400727906E+02  0.00000000000E+00 0.  1.
         11    1    3    3    0    0 -0.16741327279E+01 -0.29608101108E+01  0.25250104230E+01  0.42361296959E+01  0.51100000000E-03 0. -1.
        -11    1    3    3    0    0 -0.37763537239E+01 -0.18824587472E+01  0.19916428530E+01  0.46659554111E+01  0.51100000000E-03 0.  1.
         12    1    3    3    0    0 -0.74926188011E+01 -0.35463429328E+02 -0.14080611166E+02  0.38885186987E+02  0.00000000000E+00 0. -1.
</event>
<event>
 7    1  0.4430431E-010  0.4778727E+02  0.7816164E-02  0.1312668E+00
        -11   -1    0    0    0    0  0.00000000000E+00  0.00000000000E+00  0.45593999997E+02  0.45594000000E+02  0.51100000000E-03 0.  1.
         11   -1    0    0    0    0 -0.00000000000E+00 -0.00000000000E+00 -0.45593999997E+02  0.45594000000E+02  0.51100000000E-03 0. -1.
    9900012    2    1    2    0    0 -0.34683274658E+02 -0.21133314798E+02 -0.15299559972E+02  0.47787273385E+02  0.20000010671E+02 0.  0.
        -12    1    1    2    0    0  0.34683274658E+02  0.21133314798E+02  0.15299559972E+02  0.43400726615E+02  0.00000000000E+00 0.  1.
         11    1    3    3    0    0 -0.20176006172E+01 -0.30627406613E+01 -0.27086131621E+01  0.45593506261E+01  0.51100000000E-03 0. -1.
        -11    1    3    3    0    0 -0.19417889882E+02 -0.11812639344E+02  0.16595425243E+01  0.22789185536E+02  0.51100000000E-03 0.  1.
        -12    1    3    3    0    0 -0.13247784160E+02 -0.62579347925E+01 -0.14250489334E+02  0.20438737223E+02  0.00000000000E+00 0.  1.
</event>
<event>
 7    1  0.4430431E-010  0.4778728E+02  0.7816164E-02  0.1312668E+00
        -11   -1    0    0    0    0  0.00000000000E+00  0.00000000000E+00  0.45593999997E+02  0.45594000000E+02  0.51100000000E-03 0. -1.
         11   -1    0    0    0    0 -0.00000000000E+00 -0.00000000000E+00 -0.45593999997E+02  0.45594000000E+02  0.51100000000E-03 0.  1.
    9900012    2    1    2    0    0 -0.46431218236E+01 -0.41851914495E+01  0.42948202517E+02  0.47787279877E+02  0.20000040271E+02 0.  0.
        -12    1    1    2    0    0  0.46431218236E+01  0.41851914495E+01 -0.42948202517E+02  0.43400720123E+02  0.00000000000E+00 0.  1.
         11    1    3    3    0    0 -0.40388153196E+01  0.16561981414E+01  0.10163278661E+02  0.11061069337E+02  0.51100000000E-03 0. -1.
        -11    1    3    3    0    0 -0.14503067464E+01  0.13414791998E+01  0.27965186763E+02  0.28034882326E+02  0.51100000000E-03 0.  1.
        -12    1    3    3    0    0  0.84600024241E+00 -0.71828687908E+01  0.48197370939E+01  0.86913282144E+01  0.00000000000E+00 0.  1.
</event>
<event>
 7    1  0.4430431E-010  0.4778729E+02  0.7816164E-02  0.1312668E+00
        -11   -1    0    0    0    0  0.00000000000E+00  0.00000000000E+00  0.45593999997E+02  0.45594000000E+02  0.51100000000E-03 0.  1.
         11   -1    0    0    0    0 -0.00000000000E+00 -0.00000000000E+00 -0.45593999997E+02  0.45594000000E+02  0.51100000000E-03 0. -1.
    9900012    2    1    2    0    0 -0.21098946659E+02  0.14946240836E+01 -0.37897525574E+02  0.47787286919E+02  0.20000072379E+02 0.  0.
        -12    1    1    2    0    0  0.21098946659E+02 -0.14946240836E+01  0.37897525574E+02  0.43400713081E+02  0.00000000000E+00 0.  1.
         11    1    3    3    0    0 -0.41529311251E+01 -0.48249682764E+01 -0.65808303877E+01  0.91561173350E+01  0.51100000000E-03 0. -1.
        -11    1    3    3    0    0 -0.14331728009E+02  0.36340011702E+01 -0.12253196406E+02  0.19202739769E+02  0.51100000000E-03 0.  1.
        -12    1    3    3    0    0 -0.26142875249E+01  0.26855911898E+01 -0.19063498781E+02  0.19428429815E+02  0.00000000000E+00 0.  1.
</event>
<event>
 7    1  0.4430431E-010  0.4778727E+02  0.7816164E-02  0.1312668E+00
        -11   -1    0    0    0    0  0.00000000000E+00  0.00000000000E+00  0.45593999997E+02  0.45594000000E+02  0.51100000000E-03 0.  1.
         11   -1    0    0    0    0 -0.00000000000E+00 -0.00000000000E+00 -0.45593999997E+02  0.45594000000E+02  0.51100000000E-03 0. -1.
    9900012    2    1    2    0    0 -0.20012369147E+02  0.13649082639E+01 -0.38487213833E+02  0.47787268185E+02  0.19999986963E+02 0.  0.
        -12    1    1    2    0    0  0.20012369147E+02 -0.13649082639E+01  0.38487213833E+02  0.43400731815E+02  0.00000000000E+00 0.  1.
         11    1    3    3    0    0 -0.41378630730E+01  0.46004694540E+01 -0.17060736497E+02  0.18148139301E+02  0.51100000000E-03 0. -1.
        -11    1    3    3    0    0 -0.90937824226E+01  0.44170550843E+01 -0.88957357407E+01  0.13466304950E+02  0.51100000000E-03 0.  1.
         12    1    3    3    0    0 -0.67807236511E+01 -0.76526162744E+01 -0.12530741595E+02  0.16172823934E+02  0.00000000000E+00 0. -1.
</event>
<event>
 7    1  0.4430431E-010  0.4778728E+02  0.7816164E-02  0.1312668E+00
        -11   -1    0    0    0    0  0.00000000000E+00  0.00000000000E+00  0.45593999997E+02  0.45594000000E+02  0.51100000000E-03 0. -1.
         11   -1    0    0    0    0 -0.00000000000E+00 -0.00000000000E+00 -0.45593999997E+02  0.45594000000E+02  0.51100000000E-03 0.  1.
    9900012    2    1    2    0    0  0.16140663028E+02  0.22385707399E+02  0.33495997545E+02  0.47787277077E+02  0.20000027504E+02 0.  0.
        -12    1    1    2    0    0 -0.16140663028E+02 -0.22385707399E+02 -0.33495997545E+02  0.43400722923E+02  0.00000000000E+00 0.  1.
         11    1    3    3    0    0  0.55561269080E+01  0.36153255089E+01  0.11358123394E+02  0.13150973045E+02  0.51100000000E-03 0. -1.
        -11    1    3    3    0    0 -0.26602308903E+01 -0.20358004228E+00  0.82126852079E-01  0.26692729917E+01  0.51100000000E-03 0.  1.
        -12    1    3    3    0    0  0.13244767010E+02  0.18973961932E+02  0.22055747299E+02  0.31967031040E+02  0.00000000000E+00 0.  1.
</event>
<event>
 7    1  0.4430431E-010  0.4778728E+02  0.7816164E-02  0.1312668E+00
        -11   -1    0    0    0    0  0.00000000000E+00  0.00000000000E+00  0.45593999997E+02  0.45594000000E+02  0.51100000000E-03 0.  1.
         11   -1    0    0    0    0 -0.00000000000E+00 -0.00000000000E+00 -0.45593999997E+02  0.45594000000E+02  0.51100000000E-03 0. -1.
    9900012    2    1    2    0    0 -0.37532156085E+02 -0.13789145404E+02 -0.16876590809E+02  0.47787278938E+02  0.20000035990E+02 0.  0.
        -12    1    1    2    0    0  0.37532156085E+02  0.13789145404E+02  0.16876590809E+02  0.43400721062E+02  0.00000000000E+00 0.  1.
         11    1    3    3    0    0 -0.49513590067E+01 -0.35846211539E+01  0.25001351659E+01  0.66042517319E+01  0.51100000000E-03 0. -1.
        -11    1    3    3    0    0  0.52666069303E+00  0.46409492373E+00 -0.23553082704E+01  0.24576885265E+01  0.51100000000E-03 0.  1.
         12    1    3    3    0    0 -0.33107457771E+02 -0.10668619174E+02 -0.17021417705E+02  0.38725338679E+02  0.00000000000E+00 0. -1.
</event>
<event>
 7    1  0.4430431E-010  0.4778724E+02  0.7816164E-02  0.1312668E+00
        -11   -1    0    0    0    0  0.00000000000E+00  0.00000000000E+00  0.45593999997E+02  0.45594000000E+02  0.51100000000E-03 0. -1.
         11   -1    0    0    0    0 -0.00000000000E+00 -0.00000000000E+00 -0.45593999997E+02  0.45594000000E+02  0.51100000000E-03 0.  1.
    9900012    2    1    2    0    0 -0.34543331265E+02 -0.21355600191E+02 -0.15307590813E+02  0.47787242739E+02  0.19999870942E+02 0.  0.
        -12    1    1    2    0    0  0.34543331265E+02  0.21355600191E+02  0.15307590813E+02  0.43400757261E+02  0.00000000000E+00 0.  1.
         11    1    3    3    0    0 -0.18859320601E+01 -0.56594149509E+01 -0.18074592327E+01  0.62331875040E+01  0.51100000000E-03 0. -1.
        -11    1    3    3    0    0 -0.92111608663E+01 -0.15064558074E+01  0.27025765409E+01  0.97169343841E+01  0.51100000000E-03 0.  1.
        -12    1    3    3    0    0 -0.23446238338E+02 -0.14189729432E+02 -0.16202708121E+02  0.31837120850E+02  0.00000000000E+00 0.  1.
</event>
<event>
 7    1  0.4430431E-010  0.4778728E+02  0.7816164E-02  0.1312668E+00
        -11   -1    0    0    0    0  0.00000000000E+00  0.00000000000E+00  0.45593999997E+02  0.45594000000E+02  0.51100000000E-03 0. -1.
         11   -1    0    0    0    0 -0.00000000000E+00 -0.00000000000E+00 -0.45593999997E+02  0.45594000000E+02  0.51100000000E-03 0.  1.
    9900012    2    1    2    0    0 -0.35607581771E+01 -0.22380251589E+02  0.37014433115E+02  0.47787275135E+02  0.20000018651E+02 0.  0.
        -12    1    1    2    0    0  0.35607581771E+01  0.22380251589E+02 -0.37014433115E+02  0.43400724865E+02  0.00000000000E+00 0.  1.
         11    1    3    3    0    0 -0.82336756734E+00 -0.90790082135E+01  0.71931105464E+01  0.11612371157E+02  0.51100000000E-03 0.  1.
        -11    1    3    3    0    0  0.47480462043E+00  0.32775201779E+01  0.29349992624E+01  0.44251326393E+01  0.51100000000E-03 0. -1.
         12    1    3    3    0    0 -0.32121952302E+01 -0.16578763553E+02  0.26886323306E+02  0.31749771339E+02  0.00000000000E+00 0. -1.
</event>
<event>
 7    1  0.4430431E-010  0.4778727E+02  0.7816164E-02  0.1312668E+00
        -11   -1    0    0    0    0  0.00000000000E+00  0.00000000000E+00  0.45593999997E+02  0.45594000000E+02  0.51100000000E-03 0.  1.
         11   -1    0    0    0    0 -0.00000000000E+00 -0.00000000000E+00 -0.45593999997E+02  0.45594000000E+02  0.51100000000E-03 0. -1.
    9900012    2    1    2    0    0  0.37943041537E+01 -0.69955927613E+01 -0.42664836775E+02  0.47787270062E+02  0.19999995522E+02 0.  0.
        -12    1    1    2    0    0 -0.37943041537E+01  0.69955927613E+01  0.42664836775E+02  0.43400729938E+02  0.00000000000E+00 0.  1.
         11    1    3    3    0    0 -0.11841595787E+01  0.17328112792E+01 -0.94549646775E+00  0.23019193445E+01  0.51100000000E-03 0. -1.
        -11    1    3    3    0    0 -0.34415792915E+01  0.22117123072E+01 -0.12840294305E+02  0.13476249384E+02  0.51100000000E-03 0.  1.
         12    1    3    3    0    0  0.84200430239E+01 -0.10940116348E+02 -0.28879046002E+02  0.32009101334E+02  0.00000000000E+00 0. -1.
</event>
<event>
 7    1  0.4430431E-010  0.4778727E+02  0.7816164E-02  0.1312668E+00
        -11   -1    0    0    0    0  0.00000000000E+00  0.00000000000E+00  0.45593999997E+02  0.45594000000E+02  0.51100000000E-03 0. -1.
         11   -1    0    0    0    0 -0.00000000000E+00 -0.00000000000E+00 -0.45593999997E+02  0.45594000000E+02  0.51100000000E-03 0.  1.
    9900012    2    1    2    0    0  0.29491777533E+02 -0.31067503437E+02  0.69763008724E+01  0.47787268603E+02  0.19999988871E+02 0.  0.
        -12    1    1    2    0    0 -0.29491777533E+02  0.31067503437E+02 -0.69763008724E+01  0.43400731397E+02  0.00000000000E+00 0.  1.
         11    1    3    3    0    0  0.15988852918E+02 -0.12749713237E+02  0.38422336041E+01  0.20807723676E+02  0.51100000000E-03 0.  1.
        -11    1    3    3    0    0  0.75147351700E+01 -0.18132348448E+02  0.57345640934E+01  0.20448435894E+02  0.51100000000E-03 0. -1.
        -12    1    3    3    0    0  0.59881894446E+01 -0.18544175328E+00 -0.26004968252E+01  0.65311090333E+01  0.00000000000E+00 0.  1.
</event>
<event>
 7    1  0.4430431E-010  0.4778727E+02  0.7816164E-02  0.1312668E+00
        -11   -1    0    0    0    0  0.00000000000E+00  0.00000000000E+00  0.45593999997E+02  0.45594000000E+02  0.51100000000E-03 0.  1.
         11   -1    0    0    0    0 -0.00000000000E+00 -0.00000000000E+00 -0.45593999997E+02  0.45594000000E+02  0.51100000000E-03 0. -1.
    9900012    2    1    2    0    0  0.10896960209E+02  0.26788738726E+02 -0.32361129143E+02  0.47787274848E+02  0.20000017344E+02 0.  0.
        -12    1    1    2    0    0 -0.10896960209E+02 -0.26788738726E+02  0.32361129143E+02  0.43400725152E+02  0.00000000000E+00 0.  1.
         11    1    3    3    0    0  0.27923882366E+01  0.12733220267E+02 -0.13094242237E+02  0.18476783012E+02  0.51100000000E-03 0. -1.
        -11    1    3    3    0    0 -0.37258605262E+01  0.46382177106E+01 -0.18171319851E+01  0.62206968343E+01  0.51100000000E-03 0.  1.
         12    1    3    3    0    0  0.11830432498E+02  0.94173007477E+01 -0.17449754920E+02  0.23089795002E+02  0.00000000000E+00 0. -1.
</event>
<event>
 7    1  0.4430431E-010  0.4778726E+02  0.7816164E-02  0.1312668E+00
        -11   -1    0    0    0    0  0.00000000000E+00  0.00000000000E+00  0.45593999997E+02  0.45594000000E+02  0.51100000000E-03 0. -1.
         11   -1    0    0    0    0 -0.00000000000E+00 -0.00000000000E+00 -0.45593999997E+02  0.45594000000E+02  0.51100000000E-03 0.  1.
    9900012    2    1    2    0    0 -0.43235763105E+01 -0.11413732899E+02  0.41649225535E+02  0.47787255784E+02  0.19999930421E+02 0.  0.
        -12    1    1    2    0    0  0.43235763105E+01  0.11413732899E+02 -0.41649225535E+02  0.43400744216E+02  0.00000000000E+00 0.  1.
         11    1    3    3    0    0  0.28533643845E+01 -0.34711925962E+01  0.52911922105E+01  0.69417275675E+01  0.51100000000E-03 0. -1.
        -11    1    3    3    0    0 -0.73119592781E+01 -0.12195208123E+02  0.29943224148E+02  0.33147918823E+02  0.51100000000E-03 0.  1.
        -12    1    3    3    0    0  0.13501858307E+00  0.42526678198E+01  0.64148091766E+01  0.76976093936E+01  0.00000000000E+00 0.  1.
</event>
<event>
 7    1  0.4430431E-010  0.4778726E+02  0.7816164E-02  0.1312668E+00
        -11   -1    0    0    0    0  0.00000000000E+00  0.00000000000E+00  0.45593999997E+02  0.45594000000E+02  0.51100000000E-03 0.  1.
         11   -1    0    0    0    0 -0.00000000000E+00 -0.00000000000E+00 -0.45593999997E+02  0.45594000000E+02  0.51100000000E-03 0. -1.
    9900012    2    1    2    0    0 -0.20393987921E+02 -0.24812375550E+02 -0.29189986189E+02  0.47787262477E+02  0.19999960939E+02 0.  0.
        -12    1    1    2    0    0  0.20393987921E+02  0.24812375550E+02  0.29189986189E+02  0.43400737523E+02  0.00000000000E+00 0.  1.
         11    1    3    3    0    0 -0.21862648807E+01 -0.14984874714E+02 -0.56264729094E+01  0.16154981337E+02  0.51100000000E-03 0. -1.
        -11    1    3    3    0    0 -0.15843414999E+01 -0.54952391932E+00 -0.39881862826E+01  0.43264008844E+01  0.51100000000E-03 0.  1.
         12    1    3    3    0    0 -0.16623381540E+02 -0.92779769166E+01 -0.19575326997E+02  0.27305880256E+02  0.00000000000E+00 0. -1.
</event>
<event>
 7    1  0.4430431E-010  0.4778727E+02  0.7816164E-02  0.1312668E+00
        -11   -1    0    0    0    0  0.00000000000E+00  0.00000000000E+00  0.45593999997E+02  0.45594000000E+02  0.51100000000E-03 0. -1.
         11   -1    0    0    0    0 -0.00000000000E+00 -0.00000000000E+00 -0.45593999997E+02  0.45594000000E+02  0.51100000000E-03 0.  1.
    9900012    2    1    2    0    0  0.20610414093E+02  0.16902620571E+02  0.34251065477E+02  0.47787271463E+02  0.20000001909E+02 0.  0.
        -12    1    1    2    0    0 -0.20610414093E+02 -0.16902620571E+02 -0.34251065477E+02  0.43400728537E+02  0.00000000000E+00 0.  1.
         11    1    3    3    0    0  0.88315957211E+01  0.66091711889E+01  0.81022801019E+01  0.13686678556E+02  0.51100000000E-03 0. -1.
        -11    1    3    3    0    0  0.38180973911E+01  0.65521834518E+01  0.23824988659E+02  0.25002781056E+02  0.51100000000E-03 0.  1.
        -12    1    3    3    0    0  0.79607209810E+01  0.37412659299E+01  0.23237967154E+01  0.90978118507E+01  0.00000000000E+00 0.  1.
</event>
<event>
 7    1  0.4430431E-010  0.4778727E+02  0.7816164E-02  0.1312668E+00
        -11   -1    0    0    0    0  0.00000000000E+00  0.00000000000E+00  0.45593999997E+02  0.45594000000E+02  0.51100000000E-03 0.  1.
         11   -1    0    0    0    0 -0.00000000000E+00 -0.00000000000E+00 -0.45593999997E+02  0.45594000000E+02  0.51100000000E-03 0. -1.
    9900012    2    1    2    0    0  0.18046121813E+02  0.12324443040E+02 -0.37497584079E+02  0.47787271659E+02  0.20000002804E+02 0.  0.
        -12    1    1    2    0    0 -0.18046121813E+02 -0.12324443040E+02  0.37497584079E+02  0.43400728341E+02  0.00000000000E+00 0.  1.
         11    1    3    3    0    0  0.92804329197E+01 -0.19232213732E+01 -0.16147873952E+02  0.18723756275E+02  0.51100000000E-03 0. -1.
        -11    1    3    3    0    0  0.33096358902E+01 -0.10549808843E+01 -0.37879279863E+01  0.51395596195E+01  0.51100000000E-03 0.  1.
        -12    1    3    3    0    0  0.54560530030E+01  0.15302645297E+02 -0.17561782141E+02  0.23923955765E+02  0.00000000000E+00 0.  1.
</event>
<event>
 7    1  0.4430431E-010  0.4778728E+02  0.7816164E-02  0.1312668E+00
        -11   -1    0    0    0    0  0.00000000000E+00  0.00000000000E+00  0.45593999997E+02  0.45594000000E+02  0.51100000000E-03 0.  1.
         11   -1    0    0    0    0 -0.00000000000E+00 -0.00000000000E+00 -0.45593999997E+02  0.45594000000E+02  0.51100000000E-03 0. -1.
    9900012    2    1    2    0    0  0.30726945733E+02 -0.30630857620E+02 -0.11082118374E+01  0.47787276895E+02  0.20000026673E+02 0.  0.
        -12    1    1    2    0    0 -0.30726945733E+02  0.30630857620E+02  0.11082118374E+01  0.43400723105E+02  0.00000000000E+00 0.  1.
         11    1    3    3    0    0  0.99280640601E+01 -0.13542149981E+02 -0.84602373625E+01  0.18802443952E+02  0.51100000000E-03 0. -1.
        -11    1    3    3    0    0  0.12620665486E+02 -0.11016471677E+02  0.59810461365E+00  0.16763101590E+02  0.51100000000E-03 0.  1.
        -12    1    3    3    0    0  0.81782161865E+01 -0.60722359619E+01  0.67539209114E+01  0.12221731352E+02  0.00000000000E+00 0.  1.
</event>
<event>
 7    1  0.4430431E-010  0.4778727E+02  0.7816164E-02  0.1312668E+00
        -11   -1    0    0    0    0  0.00000000000E+00  0.00000000000E+00  0.45593999997E+02  0.45594000000E+02  0.51100000000E-03 0.  1.
         11   -1    0    0    0    0 -0.00000000000E+00 -0.00000000000E+00 -0.45593999997E+02  0.45594000000E+02  0.51100000000E-03 0. -1.
    9900012    2    1    2    0    0  0.64001424971E+01 -0.20037367791E+02 -0.37962683345E+02  0.47787271219E+02  0.20000000795E+02 0.  0.
        -12    1    1    2    0    0 -0.64001424971E+01  0.20037367791E+02  0.37962683345E+02  0.43400728781E+02  0.00000000000E+00 0.  1.
         11    1    3    3    0    0  0.95150598577E-01 -0.30230993734E+01 -0.16303464082E+02  0.16581650243E+02  0.51100000000E-03 0. -1.
        -11    1    3    3    0    0  0.48872337903E+01  0.48112393021E+00 -0.48710441209E+01  0.69169072168E+01  0.51100000000E-03 0.  1.
        -12    1    3    3    0    0  0.14177581082E+01 -0.17495392348E+02 -0.16788175143E+02  0.24288713759E+02  0.00000000000E+00 0.  1.
</event>
<event>
 7    1  0.4430431E-010  0.4778727E+02  0.7816164E-02  0.1312668E+00
        -11   -1    0    0    0    0  0.00000000000E+00  0.00000000000E+00  0.45593999997E+02  0.45594000000E+02  0.51100000000E-03 0.  1.
         11   -1    0    0    0    0 -0.00000000000E+00 -0.00000000000E+00 -0.45593999997E+02  0.45594000000E+02  0.51100000000E-03 0. -1.
    9900012    2    1    2    0    0  0.13755360182E+02 -0.12552394507E+02 -0.39202689001E+02  0.47787269977E+02  0.19999995134E+02 0.  0.
        -12    1    1    2    0    0 -0.13755360182E+02  0.12552394507E+02  0.39202689001E+02  0.43400730023E+02  0.00000000000E+00 0.  1.
         11    1    3    3    0    0 -0.16926747909E+01 -0.73100834355E+01 -0.15059895227E+02  0.16825662313E+02  0.51100000000E-03 0. -1.
        -11    1    3    3    0    0  0.81140654817E+00  0.23932099220E+01 -0.55455125155E+01  0.60941401066E+01  0.51100000000E-03 0.  1.
        -12    1    3    3    0    0  0.14636628425E+02 -0.76355209939E+01 -0.18597281258E+02  0.24867467557E+02  0.00000000000E+00 0.  1.
</event>
<event>
 7    1  0.4430431E-010  0.4778727E+02  0.7816164E-02  0.1312668E+00
        -11   -1    0    0    0    0  0.00000000000E+00  0.00000000000E+00  0.45593999997E+02  0.45594000000E+02  0.51100000000E-03 0. -1.
         11   -1    0    0    0    0 -0.00000000000E+00 -0.00000000000E+00 -0.45593999997E+02  0.45594000000E+02  0.51100000000E-03 0.  1.
    9900012    2    1    2    0    0  0.23735539289E+02 -0.29384894824E+02 -0.21372302619E+02  0.47787272029E+02  0.20000004491E+02 0.  0.
        -12    1    1    2    0    0 -0.23735539289E+02  0.29384894824E+02  0.21372302619E+02  0.43400727971E+02  0.00000000000E+00 0.  1.
         11    1    3    3    0    0  0.11878157343E+02 -0.16062101109E+02 -0.11839763118E+02  0.23222009062E+02  0.51100000000E-03 0. -1.
        -11    1    3    3    0    0  0.12033565193E+02 -0.48615340634E+01 -0.95309309292E+01  0.16102169088E+02  0.51100000000E-03 0.  1.
         12    1    3    3    0    0 -0.17618324700E+00 -0.84612596516E+01 -0.16085709192E-02  0.84630938797E+01  0.00000000000E+00 0. -1.
</event>
<event>
 7    1  0.4430431E-010  0.4778728E+02  0.7816164E-02  0.1312668E+00
        -11   -1    0    0    0    0  0.00000000000E+00  0.00000000000E+00  0.45593999997E+02  0.45594000000E+02  0.51100000000E-03 0. -1.
         11   -1    0    0    0    0 -0.00000000000E+00 -0.00000000000E+00 -0.45593999997E+02  0.45594000000E+02  0.51100000000E-03 0.  1.
    9900012    2    1    2    0    0  0.11105766281E+02  0.30169707696E+02  0.29156020054E+02  0.47787276359E+02  0.20000024230E+02 0.  0.
        -12    1    1    2    0    0 -0.11105766281E+02 -0.30169707696E+02 -0.29156020054E+02  0.43400723641E+02  0.00000000000E+00 0.  1.
         11    1    3    3    0    0  0.72508174074E+01  0.22395211821E+02  0.21269456322E+02  0.31725536057E+02  0.51100000000E-03 0. -1.
        -11    1    3    3    0    0 -0.24373476488E+00  0.37089516483E+01  0.93876770402E+01  0.10096742516E+02  0.51100000000E-03 0.  1.
        -12    1    3    3    0    0  0.40986836385E+01  0.40655442266E+01 -0.15011133074E+01  0.59649977861E+01  0.00000000000E+00 0.  1.
</event>
<event>
 7    1  0.4430431E-010  0.4778727E+02  0.7816164E-02  0.1312668E+00
        -11   -1    0    0    0    0  0.00000000000E+00  0.00000000000E+00  0.45593999997E+02  0.45594000000E+02  0.51100000000E-03 0.  1.
         11   -1    0    0    0    0 -0.00000000000E+00 -0.00000000000E+00 -0.45593999997E+02  0.45594000000E+02  0.51100000000E-03 0. -1.
    9900012    2    1    2    0    0  0.46515536967E+01  0.41778593349E+02  0.10795168545E+02  0.47787268693E+02  0.19999989281E+02 0.  0.
        -12    1    1    2    0    0 -0.46515536967E+01 -0.41778593349E+02 -0.10795168545E+02  0.43400731307E+02  0.00000000000E+00 0.  1.
         11    1    3    3    0    0  0.10239915971E+01  0.16174210627E+02  0.50446376922E+01  0.16973568214E+02  0.51100000000E-03 0. -1.
        -11    1    3    3    0    0  0.82605690500E+01  0.99875724405E+01  0.65147623297E+01  0.14506230825E+02  0.51100000000E-03 0.  1.
         12    1    3    3    0    0 -0.46330069504E+01  0.15616810282E+02 -0.76423147736E+00  0.16307469654E+02  0.00000000000E+00 0. -1.
</event>
<event>
 7    1  0.4430431E-010  0.4778728E+02  0.7816164E-02  0.1312668E+00
        -11   -1    0    0    0    0  0.00000000000E+00  0.00000000000E+00  0.45593999997E+02  0.45594000000E+02  0.51100000000E-03 0. -1.
         11   -1    0    0    0    0 -0.00000000000E+00 -0.00000000000E+00 -0.45593999997E+02  0.45594000000E+02  0.51100000000E-03 0.  1.
    9900012    2    1    2    0    0 -0.38838294542E+02 -0.15966719308E+02  0.10966932239E+02  0.47787275914E+02  0.20000022203E+02 0.  0.
        -12    1    1    2    0    0  0.38838294542E+02  0.15966719308E+02 -0.10966932239E+02  0.43400724086E+02  0.00000000000E+00 0.  1.
         11    1    3    3    0    0 -0.80414941902E+01 -0.63519172893E+00 -0.11596245869E+01  0.81494678837E+01  0.51100000000E-03 0. -1.
        -11    1    3    3    0    0 -0.20321657282E+02 -0.20664969457E+01  0.37279745289E+01  0.20763861844E+02  0.51100000000E-03 0.  1.
        -12    1    3    3    0    0 -0.10475143070E+02 -0.13265030634E+02  0.83985822973E+01  0.18873946187E+02  0.00000000000E+00 0.  1.
</event>
<event>
 7    1  0.4430431E-010  0.4778728E+02  0.7816164E-02  0.1312668E+00
        -11   -1    0    0    0    0  0.00000000000E+00  0.00000000000E+00  0.45593999997E+02  0.45594000000E+02  0.51100000000E-03 0.  1.
         11   -1    0    0    0    0 -0.00000000000E+00 -0.00000000000E+00 -0.45593999997E+02  0.45594000000E+02  0.51100000000E-03 0. -1.
    9900012    2    1    2    0    0  0.14110541001E+02 -0.22664711947E+02 -0.34217329493E+02  0.47787283731E+02  0.20000057844E+02 0.  0.
        -12    1    1    2    0    0 -0.14110541001E+02  0.22664711947E+02  0.34217329493E+02  0.43400716269E+02  0.00000000000E+00 0.  1.
         11    1    3    3    0    0  0.37325050745E+01 -0.96181352959E+01 -0.17958561277E+02  0.20711109196E+02  0.51100000000E-03 0. -1.
        -11    1    3    3    0    0 -0.23007776476E+01 -0.31510980742E+01 -0.82129875733E+01  0.90926432899E+01  0.51100000000E-03 0.  1.
        -12    1    3    3    0    0  0.12678813574E+02 -0.98954785772E+01 -0.80457806426E+01  0.17983531246E+02  0.00000000000E+00 0.  1.
</event>
<event>
 7    1  0.4430431E-010  0.4778727E+02  0.7816164E-02  0.1312668E+00
        -11   -1    0    0    0    0  0.00000000000E+00  0.00000000000E+00  0.45593999997E+02  0.45594000000E+02  0.51100000000E-03 0.  1.
         11   -1    0    0    0    0 -0.00000000000E+00 -0.00000000000E+00 -0.45593999997E+02  0.45594000000E+02  0.51100000000E-03 0. -1.
    9900012    2    1    2    0    0  0.37007469439E+02  0.19866017303E+02 -0.10927573691E+02  0.47787270691E+02  0.19999998390E+02 0.  0.
        -12    1    1    2    0    0 -0.37007469439E+02 -0.19866017303E+02  0.10927573691E+02  0.43400729309E+02  0.00000000000E+00 0.  1.
         11    1    3    3    0    0  0.15465414529E+02  0.75394131798E+01 -0.38190199725E+01  0.17624037888E+02  0.51100000000E-03 0. -1.
        -11    1    3    3    0    0  0.23848980892E+02  0.12402845978E+02 -0.57651606706E+01  0.27492572738E+02  0.51100000000E-03 0.  1.
        -12    1    3    3    0    0 -0.23069259819E+01 -0.76241855225E-01 -0.13433930476E+01  0.26706600658E+01  0.00000000000E+00 0.  1.
</event>
<event>
 7    1  0.4430431E-010  0.4778728E+02  0.7816164E-02  0.1312668E+00
        -11   -1    0    0    0    0  0.00000000000E+00  0.00000000000E+00  0.45593999997E+02  0.45594000000E+02  0.51100000000E-03 0.  1.
         11   -1    0    0    0    0 -0.00000000000E+00 -0.00000000000E+00 -0.45593999997E+02  0.45594000000E+02  0.51100000000E-03 0. -1.
    9900012    2    1    2    0    0 -0.63093868525E+01  0.39172606440E+02 -0.17587536504E+02  0.47787275374E+02  0.20000019741E+02 0.  0.
        -12    1    1    2    0    0  0.63093868525E+01 -0.39172606440E+02  0.17587536504E+02  0.43400724626E+02  0.00000000000E+00 0.  1.
         11    1    3    3    0    0  0.26069213994E+01  0.13476014866E+02 -0.79979365921E+01  0.15886031784E+02  0.51100000000E-03 0. -1.
        -11    1    3    3    0    0 -0.55004127541E+00 -0.11667979292E+01 -0.26116295331E+01  0.29128288469E+01  0.51100000000E-03 0.  1.
        -12    1    3    3    0    0 -0.83662669764E+01  0.26863389503E+02 -0.69779703789E+01  0.28988414743E+02  0.00000000000E+00 0.  1.
</event>
<event>
 7    1  0.4430431E-010  0.4778729E+02  0.7816164E-02  0.1312668E+00
        -11   -1    0    0    0    0  0.00000000000E+00  0.00000000000E+00  0.45593999997E+02  0.45594000000E+02  0.51100000000E-03 0. -1.
         11   -1    0    0    0    0 -0.00000000000E+00 -0.00000000000E+00 -0.45593999997E+02  0.45594000000E+02  0.51100000000E-03 0.  1.
    9900012    2    1    2    0    0 -0.42696069564E+02  0.54061727269E+01  0.56071780919E+01  0.47787291413E+02  0.20000092867E+02 0.  0.
        -12    1    1    2    0    0  0.42696069564E+02 -0.54061727269E+01 -0.56071780919E+01  0.43400708587E+02  0.00000000000E+00 0.  1.
         11    1    3    3    0    0 -0.16035069207E+02 -0.40985981755E+01  0.40250798105E+01  0.17033003823E+02  0.51100000000E-03 0. -1.
        -11    1    3    3    0    0 -0.16999868205E+02  0.53437874308E+01  0.67232021370E+01  0.19046076507E+02  0.51100000000E-03 0.  1.
        -12    1    3    3    0    0 -0.96611321516E+01  0.41609834716E+01 -0.51411038555E+01  0.11708211083E+02  0.00000000000E+00 0.  1.
</event>
<event>
 7    1  0.4430431E-010  0.4778727E+02  0.7816164E-02  0.1312668E+00
        -11   -1    0    0    0    0  0.00000000000E+00  0.00000000000E+00  0.45593999997E+02  0.45594000000E+02  0.51100000000E-03 0.  1.
         11   -1    0    0    0    0 -0.00000000000E+00 -0.00000000000E+00 -0.45593999997E+02  0.45594000000E+02  0.51100000000E-03 0. -1.
    9900012    2    1    2    0    0  0.24937062996E+02 -0.14492732409E+02 -0.32430337760E+02  0.47787271772E+02  0.20000003316E+02 0.  0.
        -12    1    1    2    0    0 -0.24937062996E+02  0.14492732409E+02  0.32430337760E+02  0.43400728228E+02  0.00000000000E+00 0.  1.
         11    1    3    3    0    0  0.11281037290E+02 -0.14105132285E+02 -0.15202218455E+02  0.23607710718E+02  0.51100000000E-03 0. -1.
        -11    1    3    3    0    0  0.69681296643E+01 -0.36601122933E+01 -0.36108212495E+01  0.86596352911E+01  0.51100000000E-03 0.  1.
        -12    1    3    3    0    0  0.66878960419E+01  0.32725121694E+01 -0.13617298055E+02  0.15519925763E+02  0.00000000000E+00 0.  1.
</event>
<event>
 7    1  0.4430431E-010  0.4778728E+02  0.7816164E-02  0.1312668E+00
        -11   -1    0    0    0    0  0.00000000000E+00  0.00000000000E+00  0.45593999997E+02  0.45594000000E+02  0.51100000000E-03 0.  1.
         11   -1    0    0    0    0 -0.00000000000E+00 -0.00000000000E+00 -0.45593999997E+02  0.45594000000E+02  0.51100000000E-03 0. -1.
    9900012    2    1    2    0    0  0.75053585215E+01  0.28009360004E+02 -0.32291915427E+02  0.47787280463E+02  0.20000042943E+02 0.  0.
        -12    1    1    2    0    0 -0.75053585215E+01 -0.28009360004E+02  0.32291915427E+02  0.43400719537E+02  0.00000000000E+00 0.  1.
         11    1    3    3    0    0  0.57832054013E+01  0.24079882608E+02 -0.26028652400E+02  0.35927384502E+02  0.51100000000E-03 0. -1.
        -11    1    3    3    0    0  0.44435298314E+01  0.31080694153E+01 -0.70652077846E+01  0.89063019348E+01  0.51100000000E-03 0.  1.
        -12    1    3    3    0    0 -0.27213767113E+01  0.82140798104E+00  0.80194475796E+00  0.29535940261E+01  0.00000000000E+00 0.  1.
</event>
<event>
 7    1  0.6878080E-010  0.4778727E+02  0.7816164E-02  0.1312668E+00
        -11   -1    0    0    0    0  0.00000000000E+00  0.00000000000E+00  0.45593999997E+02  0.45594000000E+02  0.51100000000E-03 0.  1.
         11   -1    0    0    0    0 -0.00000000000E+00 -0.00000000000E+00 -0.45593999997E+02  0.45594000000E+02  0.51100000000E-03 0. -1.
    9900012    2    1    2    0    0  0.38806146286E+02 -0.18143213922E+02 -0.69663588666E+01  0.47787270089E+02  0.19999995642E+02 0.  0.
        -12    1    1    2    0    0 -0.38806146286E+02  0.18143213922E+02  0.69663588666E+01  0.43400729911E+02  0.00000000000E+00 0.  1.
         11    1    3    3    0    0  0.16764277621E+02 -0.12077485546E+02 -0.29694010185E+01  0.20874003064E+02  0.51100000000E-03 0. -1.
        -11    1    3    3    0    0  0.20753831138E+02 -0.46341511920E+01 -0.78001099006E+01  0.22650354940E+02  0.51100000000E-03 0.  1.
        -12    1    3    3    0    0  0.12880375270E+01 -0.14315771840E+01  0.38031520525E+01  0.42629120843E+01  0.00000000000E+00 0.  1.
</event>
<event>
 7    1  0.4430431E-010  0.4778727E+02  0.7816164E-02  0.1312668E+00
        -11   -1    0    0    0    0  0.00000000000E+00  0.00000000000E+00  0.45593999997E+02  0.45594000000E+02  0.51100000000E-03 0.  1.
         11   -1    0    0    0    0 -0.00000000000E+00 -0.00000000000E+00 -0.45593999997E+02  0.45594000000E+02  0.51100000000E-03 0. -1.
    9900012    2    1    2    0    0  0.14287137623E+02  0.10303529352E+02 -0.39665332657E+02  0.47787266903E+02  0.19999981120E+02 0.  0.
        -12    1    1    2    0    0 -0.14287137623E+02 -0.10303529352E+02  0.39665332657E+02  0.43400733097E+02  0.00000000000E+00 0.  1.
         11    1    3    3    0    0 -0.14723934456E+01 -0.29156349843E+01 -0.10576219397E+02  0.11069114094E+02  0.51100000000E-03 0.  1.
        -11    1    3    3    0    0  0.78267491741E+01  0.17868434023E+01 -0.14385764323E+02  0.16474253470E+02  0.51100000000E-03 0. -1.
         12    1    3    3    0    0  0.79327818941E+01  0.11432320934E+02 -0.14703348936E+02  0.20243899339E+02  0.00000000000E+00 0. -1.
</event>
<event>
 7    1  0.4430431E-010  0.4778727E+02  0.7816164E-02  0.1312668E+00
        -11   -1    0    0    0    0  0.00000000000E+00  0.00000000000E+00  0.45593999997E+02  0.45594000000E+02  0.51100000000E-03 0.  1.
         11   -1    0    0    0    0 -0.00000000000E+00 -0.00000000000E+00 -0.45593999997E+02  0.45594000000E+02  0.51100000000E-03 0. -1.
    9900012    2    1    2    0    0  0.41770243418E+02 -0.45720429449E+01 -0.10861232546E+02  0.47787272076E+02  0.20000004703E+02 0.  0.
        -12    1    1    2    0    0 -0.41770243418E+02  0.45720429449E+01  0.10861232546E+02  0.43400727924E+02  0.00000000000E+00 0.  1.
         11    1    3    3    0    0  0.67581158873E+01 -0.36129814531E+01 -0.80175226965E+01  0.11090826650E+02  0.51100000000E-03 0. -1.
        -11    1    3    3    0    0  0.25889031633E+01 -0.22182412405E+01 -0.25330776353E+01  0.42472928270E+01  0.51100000000E-03 0.  1.
        -12    1    3    3    0    0  0.32423224368E+02  0.12591797487E+01 -0.31063221402E+00  0.32449152599E+02  0.00000000000E+00 0.  1.
</event>
<event>
 7    1  0.4430431E-010  0.4778727E+02  0.7816164E-02  0.1312668E+00
        -11   -1    0    0    0    0  0.00000000000E+00  0.00000000000E+00  0.45593999997E+02  0.45594000000E+02  0.51100000000E-03 0.  1.
         11   -1    0    0    0    0 -0.00000000000E+00 -0.00000000000E+00 -0.45593999997E+02  0.45594000000E+02  0.51100000000E-03 0. -1.
    9900012    2    1    2    0    0  0.97980667804E+01 -0.69586336086E+00 -0.42274544201E+02  0.47787269294E+02  0.19999992017E+02 0.  0.
        -12    1    1    2    0    0 -0.97980667804E+01  0.69586336086E+00  0.42274544201E+02  0.43400730706E+02  0.00000000000E+00 0.  1.
         11    1    3    3    0    0 -0.11164462523E+01  0.12120518601E+01 -0.78532542589E+00  0.18254474059E+01  0.51100000000E-03 0. -1.
        -11    1    3    3    0    0  0.47311399855E+01 -0.30873087202E+00 -0.84138561099E+00  0.48152809182E+01  0.51100000000E-03 0.  1.
         12    1    3    3    0    0  0.61833730471E+01 -0.15991843489E+01 -0.40647833164E+02  0.41146540970E+02  0.00000000000E+00 0. -1.
</event>
<event>
 7    1  0.4430431E-010  0.4778724E+02  0.7816164E-02  0.1312668E+00
        -11   -1    0    0    0    0  0.00000000000E+00  0.00000000000E+00  0.45593999997E+02  0.45594000000E+02  0.51100000000E-03 0.  1.
         11   -1    0    0    0    0 -0.00000000000E+00 -0.00000000000E+00 -0.45593999997E+02  0.45594000000E+02  0.51100000000E-03 0. -1.
    9900012    2    1    2    0    0 -0.41126155260E+01  0.30571238816E+02 -0.30530500843E+02  0.47787242738E+02  0.19999870939E+02 0.  0.
        -12    1    1    2    0    0  0.41126155260E+01 -0.30571238816E+02  0.30530500843E+02  0.43400757262E+02  0.00000000000E+00 0.  1.
         11    1    3    3    0    0  0.50696929380E+00  0.17882658837E+02 -0.14577720354E+02  0.23077184315E+02  0.51100000000E-03 0. -1.
        -11    1    3    3    0    0  0.25480819157E+01  0.67473093331E+01 -0.12683456652E+01  0.73230871682E+01  0.51100000000E-03 0.  1.
         12    1    3    3    0    0 -0.71676667355E+01  0.59412706460E+01 -0.14684434824E+02  0.17386971255E+02  0.00000000000E+00 0. -1.
</event>
<event>
 7    1  0.4430431E-010  0.4778727E+02  0.7816164E-02  0.1312668E+00
        -11   -1    0    0    0    0  0.00000000000E+00  0.00000000000E+00  0.45593999997E+02  0.45594000000E+02  0.51100000000E-03 0.  1.
         11   -1    0    0    0    0 -0.00000000000E+00 -0.00000000000E+00 -0.45593999997E+02  0.45594000000E+02  0.51100000000E-03 0. -1.
    9900012    2    1    2    0    0  0.21563439856E+02  0.37658594162E+02  0.68666787520E+00  0.47787272293E+02  0.20000005693E+02 0.  0.
        -12    1    1    2    0    0 -0.21563439856E+02 -0.37658594162E+02 -0.68666787520E+00  0.43400727707E+02  0.00000000000E+00 0.  1.
         11    1    3    3    0    0  0.15464624870E+01  0.54367424564E+01 -0.45885791482E+00  0.56710021697E+01  0.51100000000E-03 0. -1.
        -11    1    3    3    0    0 -0.72834934856E+00  0.14189951239E+02 -0.23725525222E+01  0.14405353681E+02  0.51100000000E-03 0.  1.
         12    1    3    3    0    0  0.20745326718E+02  0.18031900467E+02  0.35180783122E+01  0.27710916442E+02  0.00000000000E+00 0. -1.
</event>
<event>
 7    1  0.4430431E-010  0.4778727E+02  0.7816164E-02  0.1312668E+00
        -11   -1    0    0    0    0  0.00000000000E+00  0.00000000000E+00  0.45593999997E+02  0.45594000000E+02  0.51100000000E-03 0.  1.
         11   -1    0    0    0    0 -0.00000000000E+00 -0.00000000000E+00 -0.45593999997E+02  0.45594000000E+02  0.51100000000E-03 0. -1.
    9900012    2    1    2    0    0 -0.30706194791E+01  0.42611432491E+02  0.76459410016E+01  0.47787270781E+02  0.19999998798E+02 0.  0.
        -12    1    1    2    0    0  0.30706194791E+01 -0.42611432491E+02 -0.76459410016E+01  0.43400729219E+02  0.00000000000E+00 0.  1.
         11    1    3    3    0    0  0.66955921895E+01  0.16440958549E+02  0.65527474978E+01  0.18922858474E+02  0.51100000000E-03 0. -1.
        -11    1    3    3    0    0 -0.78631427812E+00 -0.33348436838E+00  0.13000359730E+00  0.86394627400E+00  0.51100000000E-03 0.  1.
        -12    1    3    3    0    0 -0.89798973904E+01  0.26503958310E+02  0.96318990651E+00  0.28000466033E+02  0.00000000000E+00 0.  1.
</event>
<event>
 7    1  0.4430431E-010  0.4778727E+02  0.7816164E-02  0.1312668E+00
        -11   -1    0    0    0    0  0.00000000000E+00  0.00000000000E+00  0.45593999997E+02  0.45594000000E+02  0.51100000000E-03 0.  1.
         11   -1    0    0    0    0 -0.00000000000E+00 -0.00000000000E+00 -0.45593999997E+02  0.45594000000E+02  0.51100000000E-03 0. -1.
    9900012    2    1    2    0    0  0.14974160265E+02 -0.30741169635E+02 -0.26727861426E+02  0.47787267718E+02  0.19999984835E+02 0.  0.
        -12    1    1    2    0    0 -0.14974160265E+02  0.30741169635E+02  0.26727861426E+02  0.43400732282E+02  0.00000000000E+00 0.  1.
         11    1    3    3    0    0  0.53753078057E+01 -0.16659285520E+02 -0.16351739271E+02  0.23954229387E+02  0.51100000000E-03 0. -1.
        -11    1    3    3    0    0  0.73985211741E+01 -0.74484580628E+01 -0.12691233364E+02  0.16470733063E+02  0.51100000000E-03 0.  1.
        -12    1    3    3    0    0  0.22003312853E+01 -0.66334260521E+01  0.23151112096E+01  0.73623052685E+01  0.00000000000E+00 0.  1.
</event>
<event>
 7    1  0.4430431E-010  0.4778727E+02  0.7816164E-02  0.1312668E+00
        -11   -1    0    0    0    0  0.00000000000E+00  0.00000000000E+00  0.45593999997E+02  0.45594000000E+02  0.51100000000E-03 0.  1.
         11   -1    0    0    0    0 -0.00000000000E+00 -0.00000000000E+00 -0.45593999997E+02  0.45594000000E+02  0.51100000000E-03 0. -1.
    9900012    2    1    2    0    0  0.14403034136E+02 -0.23571525547E+02 -0.33474749502E+02  0.47787273472E+02  0.20000011068E+02 0.  0.
        -12    1    1    2    0    0 -0.14403034136E+02  0.23571525547E+02  0.33474749502E+02  0.43400726528E+02  0.00000000000E+00 0.  1.
         11    1    3    3    0    0  0.14437367508E+02 -0.12875170477E+02 -0.16524167429E+02  0.25441220585E+02  0.51100000000E-03 0. -1.
        -11    1    3    3    0    0  0.45518800630E+01 -0.35200588755E+01 -0.90789396645E+01  0.10748840509E+02  0.51100000000E-03 0.  1.
        -12    1    3    3    0    0 -0.45862134344E+01 -0.71762961939E+01 -0.78716424088E+01  0.11597212378E+02  0.00000000000E+00 0.  1.
</event>
<event>
 7    1  0.4430431E-010  0.4778727E+02  0.7816164E-02  0.1312668E+00
        -11   -1    0    0    0    0  0.00000000000E+00  0.00000000000E+00  0.45593999997E+02  0.45594000000E+02  0.51100000000E-03 0.  1.
         11   -1    0    0    0    0 -0.00000000000E+00 -0.00000000000E+00 -0.45593999997E+02  0.45594000000E+02  0.51100000000E-03 0. -1.
    9900012    2    1    2    0    0 -0.28232585686E+02  0.20848032853E+02 -0.25532414739E+02  0.47787267624E+02  0.19999984404E+02 0.  0.
        -12    1    1    2    0    0  0.28232585686E+02 -0.20848032853E+02  0.25532414739E+02  0.43400732376E+02  0.00000000000E+00 0.  1.
         11    1    3    3    0    0 -0.24838708133E+01  0.23430085698E+01  0.63555219705E+00  0.34732161222E+01  0.51100000000E-03 0. -1.
        -11    1    3    3    0    0 -0.47121465537E+01  0.53466537779E+01  0.13581980051E+01  0.72550488522E+01  0.51100000000E-03 0.  1.
         12    1    3    3    0    0 -0.21036568319E+02  0.13158370505E+02 -0.27526164941E+02  0.37059002650E+02  0.00000000000E+00 0. -1.
</event>
<event>
 7    1  0.4430431E-010  0.4778727E+02  0.7816164E-02  0.1312668E+00
        -11   -1    0    0    0    0  0.00000000000E+00  0.00000000000E+00  0.45593999997E+02  0.45594000000E+02  0.51100000000E-03 0.  1.
         11   -1    0    0    0    0 -0.00000000000E+00 -0.00000000000E+00 -0.45593999997E+02  0.45594000000E+02  0.51100000000E-03 0. -1.
    9900012    2    1    2    0    0 -0.35841539351E+02  0.23368714475E+02 -0.72739696432E+01  0.47787269665E+02  0.19999993710E+02 0.  0.
        -12    1    1    2    0    0  0.35841539351E+02 -0.23368714475E+02  0.72739696432E+01  0.43400730335E+02  0.00000000000E+00 0.  1.
         11    1    3    3    0    0  0.12007150073E+01  0.49862577919E+01 -0.10979124262E+01  0.52449876314E+01  0.51100000000E-03 0. -1.
        -11    1    3    3    0    0 -0.12398869559E+01  0.16139109524E+01 -0.18873503380E+01  0.27756296196E+01  0.51100000000E-03 0.  1.
         12    1    3    3    0    0 -0.35802367402E+02  0.16768545731E+02 -0.42887068790E+01  0.39766652414E+02  0.00000000000E+00 0. -1.
</event>
<event>
 7    1  0.4430431E-010  0.4778726E+02  0.7816164E-02  0.1312668E+00
        -11   -1    0    0    0    0  0.00000000000E+00  0.00000000000E+00  0.45593999997E+02  0.45594000000E+02  0.51100000000E-03 0. -1.
         11   -1    0    0    0    0 -0.00000000000E+00 -0.00000000000E+00 -0.45593999997E+02  0.45594000000E+02  0.51100000000E-03 0.  1.
    9900012    2    1    2    0    0 -0.25025039582E+00 -0.31461356181E+02 -0.29895558938E+02  0.47787262654E+02  0.19999961743E+02 0.  0.
        -12    1    1    2    0    0  0.25025039582E+00  0.31461356181E+02  0.29895558938E+02  0.43400737346E+02  0.00000000000E+00 0.  1.
         11    1    3    3    0    0 -0.46241907762E+01 -0.13810594184E+02 -0.10854457710E+02  0.18164110341E+02  0.51100000000E-03 0. -1.
        -11    1    3    3    0    0  0.30842404603E+01 -0.19170183817E+02 -0.13271291492E+02  0.23518836386E+02  0.51100000000E-03 0.  1.
        -12    1    3    3    0    0  0.12896999201E+01  0.15194218202E+01 -0.57698097355E+01  0.61043159269E+01  0.00000000000E+00 0.  1.
</event>
<event>
 7    1  0.4430431E-010  0.4778727E+02  0.7816164E-02  0.1312668E+00
        -11   -1    0    0    0    0  0.00000000000E+00  0.00000000000E+00  0.45593999997E+02  0.45594000000E+02  0.51100000000E-03 0.  1.
         11   -1    0    0    0    0 -0.00000000000E+00 -0.00000000000E+00 -0.45593999997E+02  0.45594000000E+02  0.51100000000E-03 0. -1.
    9900012    2    1    2    0    0  0.17657829293E+02 -0.39276831737E+02 -0.53995224180E+01  0.47787270870E+02  0.19999999205E+02 0.  0.
        -12    1    1    2    0    0 -0.17657829293E+02  0.39276831737E+02  0.53995224180E+01  0.43400729130E+02  0.00000000000E+00 0.  1.
         11    1    3    3    0    0  0.11212215300E+02 -0.14882489061E+02  0.13760863447E+01  0.18684107323E+02  0.51100000000E-03 0. -1.
        -11    1    3    3    0    0  0.68501882878E+01 -0.84470758306E+01 -0.73735953410E+01  0.13139561567E+02  0.51100000000E-03 0.  1.
        -12    1    3    3    0    0 -0.40457429424E+00 -0.15947266846E+02  0.59798657831E+00  0.15963601980E+02  0.00000000000E+00 0.  1.
</event>
<event>
 7    1  0.4430431E-010  0.4778727E+02  0.7816164E-02  0.1312668E+00
        -11   -1    0    0    0    0  0.00000000000E+00  0.00000000000E+00  0.45593999997E+02  0.45594000000E+02  0.51100000000E-03 0. -1.
         11   -1    0    0    0    0 -0.00000000000E+00 -0.00000000000E+00 -0.45593999997E+02  0.45594000000E+02  0.51100000000E-03 0.  1.
    9900012    2    1    2    0    0  0.31362317557E+02  0.68818399444E+01  0.29200490438E+02  0.47787270451E+02  0.19999997294E+02 0.  0.
        -12    1    1    2    0    0 -0.31362317557E+02 -0.68818399444E+01 -0.29200490438E+02  0.43400729549E+02  0.00000000000E+00 0.  1.
         11    1    3    3    0    0  0.10896315631E+02  0.88401491502E+00  0.30102518495E+01  0.11338994363E+02  0.51100000000E-03 0.  1.
        -11    1    3    3    0    0 -0.87548427857E+00  0.28622561976E+01  0.73376785527E+00  0.30817850005E+01  0.51100000000E-03 0. -1.
         12    1    3    3    0    0  0.21341486205E+02  0.31355688318E+01  0.25456470733E+02  0.33366491088E+02  0.00000000000E+00 0. -1.
</event>
<event>
 7    1  0.4430431E-010  0.4778727E+02  0.7816164E-02  0.1312668E+00
        -11   -1    0    0    0    0  0.00000000000E+00  0.00000000000E+00  0.45593999997E+02  0.45594000000E+02  0.51100000000E-03 0. -1.
         11   -1    0    0    0    0 -0.00000000000E+00 -0.00000000000E+00 -0.45593999997E+02  0.45594000000E+02  0.51100000000E-03 0.  1.
    9900012    2    1    2    0    0  0.17413650131E+01 -0.33061194494E+02  0.28063292027E+02  0.47787270826E+02  0.19999999004E+02 0.  0.
        -12    1    1    2    0    0 -0.17413650131E+01  0.33061194494E+02 -0.28063292027E+02  0.43400729174E+02  0.00000000000E+00 0.  1.
         11    1    3    3    0    0 -0.10829729328E-01 -0.98373283630E+01  0.13708904624E+01  0.99323958603E+01  0.51100000000E-03 0.  1.
        -11    1    3    3    0    0  0.32888606854E+01 -0.24555600570E+02  0.25144769687E+02  0.35299483946E+02  0.51100000000E-03 0. -1.
         12    1    3    3    0    0 -0.15366659430E+01  0.13317344394E+01  0.15476318768E+01  0.25553910197E+01  0.00000000000E+00 0. -1.
</event>
<event>
 7    1  0.4430431E-010  0.4778727E+02  0.7816164E-02  0.1312668E+00
        -11   -1    0    0    0    0  0.00000000000E+00  0.00000000000E+00  0.45593999997E+02  0.45594000000E+02  0.51100000000E-03 0.  1.
         11   -1    0    0    0    0 -0.00000000000E+00 -0.00000000000E+00 -0.45593999997E+02  0.45594000000E+02  0.51100000000E-03 0. -1.
    9900012    2    1    2    0    0 -0.89659500302E+01  0.29546607437E+02 -0.30499716556E+02  0.47787274419E+02  0.20000015387E+02 0.  0.
        -12    1    1    2    0    0  0.89659500302E+01 -0.29546607437E+02  0.30499716556E+02  0.43400725581E+02  0.00000000000E+00 0.  1.
         11    1    3    3    0    0 -0.44562657364E+01  0.97348884402E+01 -0.80130294938E+01  0.13372920369E+02  0.51100000000E-03 0. -1.
        -11    1    3    3    0    0 -0.34746259703E+01  0.68001984721E+01 -0.19615669757E+02  0.21049708434E+02  0.51100000000E-03 0.  1.
         12    1    3    3    0    0 -0.10350583235E+01  0.13011520524E+02 -0.28710173054E+01  0.13364645617E+02  0.00000000000E+00 0. -1.
</event>
<event>
 7    1  0.4430431E-010  0.4778727E+02  0.7816164E-02  0.1312668E+00
        -11   -1    0    0    0    0  0.00000000000E+00  0.00000000000E+00  0.45593999997E+02  0.45594000000E+02  0.51100000000E-03 0.  1.
         11   -1    0    0    0    0 -0.00000000000E+00 -0.00000000000E+00 -0.45593999997E+02  0.45594000000E+02  0.51100000000E-03 0. -1.
    9900012    2    1    2    0    0 -0.28066647246E+02 -0.33025272607E+02  0.22842715264E+01  0.47787271725E+02  0.20000003103E+02 0.  0.
        -12    1    1    2    0    0  0.28066647246E+02  0.33025272607E+02 -0.22842715264E+01  0.43400728275E+02  0.00000000000E+00 0.  1.
         11    1    3    3    0    0  0.12812994556E+01  0.31463093157E+00 -0.23388932918E+01  0.26853571475E+01  0.51100000000E-03 0.  1.
        -11    1    3    3    0    0 -0.35057098130E+01 -0.20768154181E+01  0.17641146978E+01  0.44401874399E+01  0.51100000000E-03 0. -1.
         12    1    3    3    0    0 -0.25842236888E+02 -0.31263088121E+02  0.28590501204E+01  0.40661727138E+02  0.00000000000E+00 0. -1.
</event>
<event>
 7    1  0.4430431E-010  0.4778727E+02  0.7816164E-02  0.1312668E+00
        -11   -1    0    0    0    0  0.00000000000E+00  0.00000000000E+00  0.45593999997E+02  0.45594000000E+02  0.51100000000E-03 0.  1.
         11   -1    0    0    0    0 -0.00000000000E+00 -0.00000000000E+00 -0.45593999997E+02  0.45594000000E+02  0.51100000000E-03 0. -1.
    9900012    2    1    2    0    0  0.40524391269E+02  0.15536100078E+02 -0.16423187763E+00  0.47787266533E+02  0.19999979431E+02 0.  0.
        -12    1    1    2    0    0 -0.40524391269E+02 -0.15536100078E+02  0.16423187763E+00  0.43400733467E+02  0.00000000000E+00 0.  1.
         11    1    3    3    0    0  0.18577844253E+02  0.82610319325E+01  0.23803947773E+01  0.20470643010E+02  0.51100000000E-03 0. -1.
        -11    1    3    3    0    0  0.13346806755E+02  0.16899266674E+01  0.52445648620E+01  0.14439479337E+02  0.51100000000E-03 0.  1.
         12    1    3    3    0    0  0.85997402609E+01  0.55851414780E+01 -0.77891915170E+01  0.12877144185E+02  0.00000000000E+00 0. -1.
</event>
<event>
 7    1  0.4430431E-010  0.4778727E+02  0.7816164E-02  0.1312668E+00
        -11   -1    0    0    0    0  0.00000000000E+00  0.00000000000E+00  0.45593999997E+02  0.45594000000E+02  0.51100000000E-03 0.  1.
         11   -1    0    0    0    0 -0.00000000000E+00 -0.00000000000E+00 -0.45593999997E+02  0.45594000000E+02  0.51100000000E-03 0. -1.
    9900012    2    1    2    0    0  0.27805004095E+01  0.32743394582E+02 -0.28350699156E+02  0.47787271735E+02  0.20000003150E+02 0.  0.
        -12    1    1    2    0    0 -0.27805004095E+01 -0.32743394582E+02  0.28350699156E+02  0.43400728265E+02  0.00000000000E+00 0.  1.
         11    1    3    3    0    0  0.53608398747E+01  0.69866763285E+01 -0.10549963256E+02  0.13742415189E+02  0.51100000000E-03 0. -1.
        -11    1    3    3    0    0 -0.94472411009E+00 -0.14187426183E+01 -0.45577149335E+00  0.17643871957E+01  0.51100000000E-03 0.  1.
        -12    1    3    3    0    0 -0.16356153551E+01  0.27175460872E+02 -0.17344964407E+02  0.32280469350E+02  0.00000000000E+00 0.  1.
</event>
<event>
 7    1  0.4430431E-010  0.4778727E+02  0.7816164E-02  0.1312668E+00
        -11   -1    0    0    0    0  0.00000000000E+00  0.00000000000E+00  0.45593999997E+02  0.45594000000E+02  0.51100000000E-03 0.  1.
         11   -1    0    0    0    0 -0.00000000000E+00 -0.00000000000E+00 -0.45593999997E+02  0.45594000000E+02  0.51100000000E-03 0. -1.
    9900012    2    1    2    0    0  0.38359588105E+01 -0.40040547798E+02 -0.16299173491E+02  0.47787272996E+02  0.20000008897E+02 0.  0.
        -12    1    1    2    0    0 -0.38359588105E+01  0.40040547798E+02  0.16299173491E+02  0.43400727004E+02  0.00000000000E+00 0.  1.
         11    1    3    3    0    0  0.13035496470E+01 -0.17303646876E+02 -0.28313129093E+01  0.17582143497E+02  0.51100000000E-03 0. -1.
        -11    1    3    3    0    0 -0.36922732367E+01 -0.83043314699E+01  0.60454033155E+00  0.91082529658E+01  0.51100000000E-03 0.  1.
        -12    1    3    3    0    0  0.62246824003E+01 -0.14432569453E+02 -0.14072400913E+02  0.21096876533E+02  0.00000000000E+00 0.  1.
</event>
<event>
 7    1  0.4430431E-010  0.4778728E+02  0.7816164E-02  0.1312668E+00
        -11   -1    0    0    0    0  0.00000000000E+00  0.00000000000E+00  0.45593999997E+02  0.45594000000E+02  0.51100000000E-03 0. -1.
         11   -1    0    0    0    0 -0.00000000000E+00 -0.00000000000E+00 -0.45593999997E+02  0.45594000000E+02  0.51100000000E-03 0.  1.
    9900012    2    1    2    0    0  0.36889127419E+02  0.89882932538E+01 -0.21024401289E+02  0.47787278959E+02  0.20000036084E+02 0.  0.
        -12    1    1    2    0    0 -0.36889127419E+02 -0.89882932538E+01  0.21024401289E+02  0.43400721041E+02  0.00000000000E+00 0.  1.
         11    1    3    3    0    0  0.25821358272E+01 -0.29126950150E+01 -0.18305566904E+01  0.43014132258E+01  0.51100000000E-03 0. -1.
        -11    1    3    3    0    0  0.49276777586E+01  0.74462021546E+01 -0.70842041948E+01  0.11397977187E+02  0.51100000000E-03 0.  1.
         12    1    3    3    0    0  0.29379313833E+02  0.44547861142E+01 -0.12109640404E+02  0.32087888546E+02  0.00000000000E+00 0. -1.
</event>
<event>
 7    1  0.4430431E-010  0.4778727E+02  0.7816164E-02  0.1312668E+00
        -11   -1    0    0    0    0  0.00000000000E+00  0.00000000000E+00  0.45593999997E+02  0.45594000000E+02  0.51100000000E-03 0. -1.
         11   -1    0    0    0    0 -0.00000000000E+00 -0.00000000000E+00 -0.45593999997E+02  0.45594000000E+02  0.51100000000E-03 0.  1.
    9900012    2    1    2    0    0  0.16488409003E+02  0.39493353489E+02  0.72132400603E+01  0.47787269206E+02  0.19999991620E+02 0.  0.
        -12    1    1    2    0    0 -0.16488409003E+02 -0.39493353489E+02 -0.72132400603E+01  0.43400730794E+02  0.00000000000E+00 0.  1.
         11    1    3    3    0    0  0.10678645459E+02  0.20398540263E+02  0.63677004006E+01  0.23888941424E+02  0.51100000000E-03 0. -1.
        -11    1    3    3    0    0  0.90555105272E+01  0.13144488983E+02  0.39498387417E+01  0.16443268771E+02  0.51100000000E-03 0.  1.
        -12    1    3    3    0    0 -0.32457469831E+01  0.59503242424E+01 -0.31042990819E+01  0.74550590111E+01  0.00000000000E+00 0.  1.
</event>
<event>
 7    1  0.4430431E-010  0.4778727E+02  0.7816164E-02  0.1312668E+00
        -11   -1    0    0    0    0  0.00000000000E+00  0.00000000000E+00  0.45593999997E+02  0.45594000000E+02  0.51100000000E-03 0. -1.
         11   -1    0    0    0    0 -0.00000000000E+00 -0.00000000000E+00 -0.45593999997E+02  0.45594000000E+02  0.51100000000E-03 0.  1.
    9900012    2    1    2    0    0 -0.15749168528E+02  0.22192183572E+02  0.33809671230E+02  0.47787272014E+02  0.20000004421E+02 0.  0.
        -12    1    1    2    0    0  0.15749168528E+02 -0.22192183572E+02 -0.33809671230E+02  0.43400727986E+02  0.00000000000E+00 0.  1.
         11    1    3    3    0    0 -0.73168246799E+01  0.23804851118E+01  0.27872406968E+01  0.81836021242E+01  0.51100000000E-03 0. -1.
        -11    1    3    3    0    0 -0.95215376681E+01  0.71936747283E+01  0.14256652781E+02  0.18591954831E+02  0.51100000000E-03 0.  1.
         12    1    3    3    0    0  0.10891938201E+01  0.12618023732E+02  0.16765777752E+02  0.21011715059E+02  0.00000000000E+00 0. -1.
</event>
<event>
 7    1  0.4430431E-010  0.4778730E+02  0.7816164E-02  0.1312668E+00
        -11   -1    0    0    0    0  0.00000000000E+00  0.00000000000E+00  0.45593999997E+02  0.45594000000E+02  0.51100000000E-03 0.  1.
         11   -1    0    0    0    0 -0.00000000000E+00 -0.00000000000E+00 -0.45593999997E+02  0.45594000000E+02  0.51100000000E-03 0. -1.
    9900012    2    1    2    0    0  0.10271314114E+02 -0.99384333340E+01 -0.40979856839E+02  0.47787297041E+02  0.20000118529E+02 0.  0.
        -12    1    1    2    0    0 -0.10271314114E+02  0.99384333340E+01  0.40979856839E+02  0.43400702959E+02  0.00000000000E+00 0.  1.
         11    1    3    3    0    0  0.96178541944E+01 -0.60777242572E+01 -0.22506339537E+02  0.25218587809E+02  0.51100000000E-03 0. -1.
        -11    1    3    3    0    0  0.11353976336E+01  0.18340822486E+01 -0.16318988897E+02  0.16460935100E+02  0.51100000000E-03 0.  1.
        -12    1    3    3    0    0 -0.48193771432E+00 -0.56947913253E+01 -0.21545284046E+01  0.61077741318E+01  0.00000000000E+00 0.  1.
</event>
<event>
 7    1  0.4430431E-010  0.4778727E+02  0.7816164E-02  0.1312668E+00
        -11   -1    0    0    0    0  0.00000000000E+00  0.00000000000E+00  0.45593999997E+02  0.45594000000E+02  0.51100000000E-03 0. -1.
         11   -1    0    0    0    0 -0.00000000000E+00 -0.00000000000E+00 -0.45593999997E+02  0.45594000000E+02  0.51100000000E-03 0.  1.
    9900012    2    1    2    0    0 -0.19247272736E+02  0.38126055228E+02 -0.77181356580E+01  0.47787271745E+02  0.20000003195E+02 0.  0.
        -12    1    1    2    0    0  0.19247272736E+02 -0.38126055228E+02  0.77181356580E+01  0.43400728255E+02  0.00000000000E+00 0.  1.
         11    1    3    3    0    0  0.20662717743E+01  0.45206948825E+01  0.85375374400E+00  0.50433180529E+01  0.51100000000E-03 0. -1.
        -11    1    3    3    0    0  0.11806649133E+01  0.53185997515E+01 -0.28658361783E+01  0.61558500807E+01  0.51100000000E-03 0.  1.
         12    1    3    3    0    0 -0.22494209424E+02  0.28286760594E+02 -0.57060532237E+01  0.36588103612E+02  0.00000000000E+00 0. -1.
</event>
<event>
 7    1  0.4430431E-010  0.4778727E+02  0.7816164E-02  0.1312668E+00
        -11   -1    0    0    0    0  0.00000000000E+00  0.00000000000E+00  0.45593999997E+02  0.45594000000E+02  0.51100000000E-03 0. -1.
         11   -1    0    0    0    0 -0.00000000000E+00 -0.00000000000E+00 -0.45593999997E+02  0.45594000000E+02  0.51100000000E-03 0.  1.
    9900012    2    1    2    0    0  0.10087532369E+02 -0.25635579743E+02  0.33536283395E+02  0.47787267725E+02  0.19999984864E+02 0.  0.
        -12    1    1    2    0    0 -0.10087532369E+02  0.25635579743E+02 -0.33536283395E+02  0.43400732275E+02  0.00000000000E+00 0.  1.
         11    1    3    3    0    0 -0.41884153924E+00  0.14752772648E+01  0.44759595317E+01  0.47313935826E+01  0.51100000000E-03 0. -1.
        -11    1    3    3    0    0 -0.20703833703E+01 -0.77294032182E+01  0.11616888075E+02  0.14106106841E+02  0.51100000000E-03 0.  1.
        -12    1    3    3    0    0  0.12576757278E+02 -0.19381453790E+02  0.17443435788E+02  0.28949767301E+02  0.00000000000E+00 0.  1.
</event>
<event>
 7    1  0.4430431E-010  0.4778727E+02  0.7816164E-02  0.1312668E+00
        -11   -1    0    0    0    0  0.00000000000E+00  0.00000000000E+00  0.45593999997E+02  0.45594000000E+02  0.51100000000E-03 0.  1.
         11   -1    0    0    0    0 -0.00000000000E+00 -0.00000000000E+00 -0.45593999997E+02  0.45594000000E+02  0.51100000000E-03 0. -1.
    9900012    2    1    2    0    0  0.17753211050E+02 -0.36018767258E+02 -0.16464967775E+02  0.47787271190E+02  0.20000000666E+02 0.  0.
        -12    1    1    2    0    0 -0.17753211050E+02  0.36018767258E+02  0.16464967775E+02  0.43400728810E+02  0.00000000000E+00 0.  1.
         11    1    3    3    0    0  0.63500477644E+01 -0.20470107974E+02 -0.35023546472E+01  0.21716696697E+02  0.51100000000E-03 0. -1.
        -11    1    3    3    0    0  0.27915883973E+01 -0.12412432879E+02 -0.42188233247E+01  0.13403728074E+02  0.51100000000E-03 0.  1.
         12    1    3    3    0    0  0.86115748879E+01 -0.31362264046E+01 -0.87437898028E+01  0.12666846420E+02  0.00000000000E+00 0. -1.
</event>
<event>
 7    1  0.4430431E-010  0.4778727E+02  0.7816164E-02  0.1312668E+00
        -11   -1    0    0    0    0  0.00000000000E+00  0.00000000000E+00  0.45593999997E+02  0.45594000000E+02  0.51100000000E-03 0.  1.
         11   -1    0    0    0    0 -0.00000000000E+00 -0.00000000000E+00 -0.45593999997E+02  0.45594000000E+02  0.51100000000E-03 0. -1.
    9900012    2    1    2    0    0 -0.15372254809E+02 -0.40515839761E+02 -0.24049120314E+01  0.47787273147E+02  0.20000009588E+02 0.  0.
        -12    1    1    2    0    0  0.15372254809E+02  0.40515839761E+02  0.24049120314E+01  0.43400726853E+02  0.00000000000E+00 0.  1.
         11    1    3    3    0    0 -0.76997173168E+01 -0.72525963845E+01 -0.38476893959E+01  0.11255688119E+02  0.51100000000E-03 0. -1.
        -11    1    3    3    0    0  0.16411287084E+01  0.25922703904E+00 -0.33110809808E+00  0.16941472572E+01  0.51100000000E-03 0.  1.
        -12    1    3    3    0    0 -0.93136662002E+01 -0.33522470416E+02  0.17738854626E+01  0.34837437772E+02  0.00000000000E+00 0.  1.
</event>
<event>
 7    1  0.4430431E-010  0.4778727E+02  0.7816164E-02  0.1312668E+00
        -11   -1    0    0    0    0  0.00000000000E+00  0.00000000000E+00  0.45593999997E+02  0.45594000000E+02  0.51100000000E-03 0. -1.
         11   -1    0    0    0    0 -0.00000000000E+00 -0.00000000000E+00 -0.45593999997E+02  0.45594000000E+02  0.51100000000E-03 0.  1.
    9900012    2    1    2    0    0  0.38528729475E+02  0.10607075457E+00  0.19978709044E+02  0.47787273497E+02  0.20000011182E+02 0.  0.
        -12    1    1    2    0    0 -0.38528729475E+02 -0.10607075457E+00 -0.19978709044E+02  0.43400726503E+02  0.00000000000E+00 0.  1.
         11    1    3    3    0    0  0.24548954241E+02 -0.87935775737E+00  0.69622170188E+01  0.25532271549E+02  0.51100000000E-03 0. -1.
        -11    1    3    3    0    0  0.14545086535E+02  0.24926080014E+01  0.75896173554E+01  0.16594424631E+02  0.51100000000E-03 0.  1.
        -12    1    3    3    0    0 -0.56531130137E+00 -0.15071794894E+01  0.54268746694E+01  0.56605773167E+01  0.00000000000E+00 0.  1.
</event>
<event>
 7    1  0.4430431E-010  0.4778727E+02  0.7816164E-02  0.1312668E+00
        -11   -1    0    0    0    0  0.00000000000E+00  0.00000000000E+00  0.45593999997E+02  0.45594000000E+02  0.51100000000E-03 0.  1.
         11   -1    0    0    0    0 -0.00000000000E+00 -0.00000000000E+00 -0.45593999997E+02  0.45594000000E+02  0.51100000000E-03 0. -1.
    9900012    2    1    2    0    0  0.37219066277E+02 -0.21346431571E+02 -0.65340876509E+01  0.47787270320E+02  0.19999996697E+02 0.  0.
        -12    1    1    2    0    0 -0.37219066277E+02  0.21346431571E+02  0.65340876509E+01  0.43400729680E+02  0.00000000000E+00 0.  1.
         11    1    3    3    0    0  0.28259542629E+02 -0.12003420331E+02 -0.10450721266E+02  0.32433029838E+02  0.51100000000E-03 0. -1.
        -11    1    3    3    0    0  0.53102669193E+01 -0.60066673699E+00  0.95597502681E+00  0.54289615762E+01  0.51100000000E-03 0.  1.
         12    1    3    3    0    0  0.36492567286E+01 -0.87423445030E+01  0.29606585881E+01  0.99252789057E+01  0.00000000000E+00 0. -1.
</event>
<event>
 7    1  0.4430431E-010  0.4778727E+02  0.7816164E-02  0.1312668E+00
        -11   -1    0    0    0    0  0.00000000000E+00  0.00000000000E+00  0.45593999997E+02  0.45594000000E+02  0.51100000000E-03 0.  1.
         11   -1    0    0    0    0 -0.00000000000E+00 -0.00000000000E+00 -0.45593999997E+02  0.45594000000E+02  0.51100000000E-03 0. -1.
    9900012    2    1    2    0    0  0.32275190558E+02 -0.19105474312E+02 -0.21838405772E+02  0.47787273728E+02  0.20000012236E+02 0.  0.
        -12    1    1    2    0    0 -0.32275190558E+02  0.19105474312E+02  0.21838405772E+02  0.43400726272E+02  0.00000000000E+00 0.  1.
         11    1    3    3    0    0 -0.36020979606E+00  0.12668577312E+01 -0.15786609228E+01  0.20559304897E+01  0.51100000000E-03 0. -1.
        -11    1    3    3    0    0  0.39754383886E+01 -0.95786977600E+01 -0.48945432328E+01  0.11467873163E+02  0.51100000000E-03 0.  1.
         12    1    3    3    0    0  0.28659961965E+02 -0.10793634284E+02 -0.15365201617E+02  0.34263470076E+02  0.00000000000E+00 0. -1.
</event>
<event>
 7    1  0.4430431E-010  0.4778727E+02  0.7816164E-02  0.1312668E+00
        -11   -1    0    0    0    0  0.00000000000E+00  0.00000000000E+00  0.45593999997E+02  0.45594000000E+02  0.51100000000E-03 0.  1.
         11   -1    0    0    0    0 -0.00000000000E+00 -0.00000000000E+00 -0.45593999997E+02  0.45594000000E+02  0.51100000000E-03 0. -1.
    9900012    2    1    2    0    0  0.22121551691E+02 -0.30091607598E+02 -0.22107813179E+02  0.47787270736E+02  0.19999998594E+02 0.  0.
        -12    1    1    2    0    0 -0.22121551691E+02  0.30091607598E+02  0.22107813179E+02  0.43400729264E+02  0.00000000000E+00 0.  1.
         11    1    3    3    0    0  0.31275055169E+01 -0.72163778057E+01 -0.11446172577E+02  0.13887845993E+02  0.51100000000E-03 0. -1.
        -11    1    3    3    0    0 -0.12350288875E+01 -0.50896093959E+01 -0.14959523134E+01  0.54467691103E+01  0.51100000000E-03 0.  1.
         12    1    3    3    0    0  0.20229075062E+02 -0.17785620397E+02 -0.91656882880E+01  0.28452655633E+02  0.00000000000E+00 0. -1.
</event>
<event>
 7    1  0.4430431E-010  0.4778728E+02  0.7816164E-02  0.1312668E+00
        -11   -1    0    0    0    0  0.00000000000E+00  0.00000000000E+00  0.45593999997E+02  0.45594000000E+02  0.51100000000E-03 0. -1.
         11   -1    0    0    0    0 -0.00000000000E+00 -0.00000000000E+00 -0.45593999997E+02  0.45594000000E+02  0.51100000000E-03 0.  1.
    9900012    2    1    2    0    0  0.20664029417E+02  0.21691167986E+02  0.31402447403E+02  0.47787279001E+02  0.20000036276E+02 0.  0.
        -12    1    1    2    0    0 -0.20664029417E+02 -0.21691167986E+02 -0.31402447403E+02  0.43400720999E+02  0.00000000000E+00 0.  1.
         11    1    3    3    0    0  0.18544639317E+02  0.17113491219E+02  0.17483697815E+02  0.30699428637E+02  0.51100000000E-03 0. -1.
        -11    1    3    3    0    0  0.29007756391E+01  0.46353333163E+01  0.31902101123E+01  0.63307389050E+01  0.51100000000E-03 0.  1.
        -12    1    3    3    0    0 -0.78138553937E+00 -0.57656549392E-01  0.10728539476E+02  0.10757111458E+02  0.00000000000E+00 0.  1.
</event>
<event>
 7    1  0.4430431E-010  0.4778732E+02  0.7816164E-02  0.1312668E+00
        -11   -1    0    0    0    0  0.00000000000E+00  0.00000000000E+00  0.45593999997E+02  0.45594000000E+02  0.51100000000E-03 0.  1.
         11   -1    0    0    0    0 -0.00000000000E+00 -0.00000000000E+00 -0.45593999997E+02  0.45594000000E+02  0.51100000000E-03 0. -1.
    9900012    2    1    2    0    0 -0.11806774612E+02 -0.37537033873E+02 -0.18308190055E+02  0.47787324178E+02  0.20000242256E+02 0.  0.
        -12    1    1    2    0    0  0.11806774612E+02  0.37537033873E+02  0.18308190055E+02  0.43400675822E+02  0.00000000000E+00 0.  1.
         11    1    3    3    0    0 -0.51121282231E+01 -0.22734335242E+02 -0.14161740762E+02  0.27267907062E+02  0.51100000000E-03 0. -1.
        -11    1    3    3    0    0 -0.56587140776E+01 -0.42362365315E+01 -0.65464033634E+01  0.96344248515E+01  0.51100000000E-03 0.  1.
        -12    1    3    3    0    0 -0.10359323112E+01 -0.10566462099E+02  0.23999540707E+01  0.10884992264E+02  0.00000000000E+00 0.  1.
</event>
<event>
 7    1  0.4430431E-010  0.4778728E+02  0.7816164E-02  0.1312668E+00
        -11   -1    0    0    0    0  0.00000000000E+00  0.00000000000E+00  0.45593999997E+02  0.45594000000E+02  0.51100000000E-03 0. -1.
         11   -1    0    0    0    0 -0.00000000000E+00 -0.00000000000E+00 -0.45593999997E+02  0.45594000000E+02  0.51100000000E-03 0.  1.
    9900012    2    1    2    0    0 -0.28269085541E+02  0.77406125612E+01  0.32008814174E+02  0.47787280363E+02  0.20000042488E+02 0.  0.
        -12    1    1    2    0    0  0.28269085541E+02 -0.77406125612E+01 -0.32008814174E+02  0.43400719637E+02  0.00000000000E+00 0.  1.
         11    1    3    3    0    0  0.35094616457E+00  0.17738382518E+01  0.18777728134E+01  0.26068556450E+01  0.51100000000E-03 0. -1.
        -11    1    3    3    0    0 -0.56125843947E+01 -0.55473047334E+01  0.81043175108E+01  0.11311660177E+02  0.51100000000E-03 0.  1.
        -12    1    3    3    0    0 -0.23007447311E+02  0.11514079043E+02  0.22026723850E+02  0.33868764541E+02  0.00000000000E+00 0.  1.
</event>
<event>
 7    1  0.4430431E-010  0.4778727E+02  0.7816164E-02  0.1312668E+00
        -11   -1    0    0    0    0  0.00000000000E+00  0.00000000000E+00  0.45593999997E+02  0.45594000000E+02  0.51100000000E-03 0.  1.
         11   -1    0    0    0    0 -0.00000000000E+00 -0.00000000000E+00 -0.45593999997E+02  0.45594000000E+02  0.51100000000E-03 0. -1.
    9900012    2    1    2    0    0 -0.37482791806E+02 -0.55899520787E+01  0.21152221682E+02  0.47787265813E+02  0.19999976149E+02 0.  0.
        -12    1    1    2    0    0  0.37482791806E+02  0.55899520787E+01 -0.21152221682E+02  0.43400734187E+02  0.00000000000E+00 0.  1.
         11    1    3    3    0    0 -0.12245243952E+02  0.27690804575E+01  0.97979014898E+01  0.15925221502E+02  0.51100000000E-03 0. -1.
        -11    1    3    3    0    0 -0.18855913003E+02 -0.56254503468E+01  0.14013662888E+01  0.19727011292E+02  0.51100000000E-03 0.  1.
         12    1    3    3    0    0 -0.63816348508E+01 -0.27335821894E+01  0.99529539037E+01  0.12135033019E+02  0.00000000000E+00 0. -1.
</event>
<event>
 7    1  0.4430431E-010  0.4778727E+02  0.7816164E-02  0.1312668E+00
        -11   -1    0    0    0    0  0.00000000000E+00  0.00000000000E+00  0.45593999997E+02  0.45594000000E+02  0.51100000000E-03 0.  1.
         11   -1    0    0    0    0 -0.00000000000E+00 -0.00000000000E+00 -0.45593999997E+02  0.45594000000E+02  0.51100000000E-03 0. -1.
    9900012    2    1    2    0    0  0.37762251902E+02  0.19771208528E+02 -0.81691448993E+01  0.47787270931E+02  0.19999999482E+02 0.  0.
        -12    1    1    2    0    0 -0.37762251902E+02 -0.19771208528E+02  0.81691448993E+01  0.43400729069E+02  0.00000000000E+00 0.  1.
         11    1    3    3    0    0  0.55440086269E+01 -0.11822060369E+01 -0.18697967536E+01  0.59690688495E+01  0.51100000000E-03 0. -1.
        -11    1    3    3    0    0  0.24543024206E+02  0.71867185756E+01 -0.42353919047E+01  0.25921950273E+02  0.51100000000E-03 0.  1.
        -12    1    3    3    0    0  0.76752190686E+01  0.13766695989E+02 -0.20639562410E+01  0.15896251809E+02  0.00000000000E+00 0.  1.
</event>
<event>
 7    1  0.4430431E-010  0.4778721E+02  0.7816164E-02  0.1312668E+00
        -11   -1    0    0    0    0  0.00000000000E+00  0.00000000000E+00  0.45593999997E+02  0.45594000000E+02  0.51100000000E-03 0.  1.
         11   -1    0    0    0    0 -0.00000000000E+00 -0.00000000000E+00 -0.45593999997E+02  0.45594000000E+02  0.51100000000E-03 0. -1.
    9900012    2    1    2    0    0  0.12390158049E+02 -0.33549868943E+02 -0.24586963482E+02  0.47787210885E+02  0.19999725708E+02 0.  0.
        -12    1    1    2    0    0 -0.12390158049E+02  0.33549868943E+02  0.24586963482E+02  0.43400789115E+02  0.00000000000E+00 0.  1.
         11    1    3    3    0    0  0.13407178823E+01 -0.12137559103E+02 -0.99067316391E+01  0.15724541248E+02  0.51100000000E-03 0. -1.
        -11    1    3    3    0    0 -0.12714364489E+01 -0.13438376222E+02 -0.46100800385E+01  0.14263917567E+02  0.51100000000E-03 0.  1.
        -12    1    3    3    0    0  0.12320876616E+02 -0.79739336176E+01 -0.10070151804E+02  0.17798752071E+02  0.00000000000E+00 0.  1.
</event>
<event>
 7    1  0.4430431E-010  0.4778727E+02  0.7816164E-02  0.1312668E+00
        -11   -1    0    0    0    0  0.00000000000E+00  0.00000000000E+00  0.45593999997E+02  0.45594000000E+02  0.51100000000E-03 0.  1.
         11   -1    0    0    0    0 -0.00000000000E+00 -0.00000000000E+00 -0.45593999997E+02  0.45594000000E+02  0.51100000000E-03 0. -1.
    9900012    2    1    2    0    0 -0.93025201199E+01 -0.40005519607E+02  0.14023009036E+02  0.47787271181E+02  0.20000000622E+02 0.  0.
        -12    1    1    2    0    0  0.93025201199E+01  0.40005519607E+02 -0.14023009036E+02  0.43400728819E+02  0.00000000000E+00 0.  1.
         11    1    3    3    0    0  0.37709972646E+01 -0.18307018059E+02 -0.27476927727E+00  0.18693389982E+02  0.51100000000E-03 0. -1.
        -11    1    3    3    0    0 -0.30655328104E+01 -0.48428254156E+01  0.30241177124E+01  0.64804118402E+01  0.51100000000E-03 0.  1.
         12    1    3    3    0    0 -0.10007984574E+02 -0.16855676132E+02  0.11273660601E+02  0.22613469359E+02  0.00000000000E+00 0. -1.
</event>
<event>
 7    1  0.4430431E-010  0.4778726E+02  0.7816164E-02  0.1312668E+00
        -11   -1    0    0    0    0  0.00000000000E+00  0.00000000000E+00  0.45593999997E+02  0.45594000000E+02  0.51100000000E-03 0. -1.
         11   -1    0    0    0    0 -0.00000000000E+00 -0.00000000000E+00 -0.45593999997E+02  0.45594000000E+02  0.51100000000E-03 0.  1.
    9900012    2    1    2    0    0 -0.12353368266E+02 -0.39324939674E+02  0.13585583268E+02  0.47787255068E+02  0.19999927159E+02 0.  0.
        -12    1    1    2    0    0  0.12353368266E+02  0.39324939674E+02 -0.13585583268E+02  0.43400744932E+02  0.00000000000E+00 0.  1.
         11    1    3    3    0    0  0.12237789874E+01 -0.18562307742E+02  0.48157542795E+01  0.19215837043E+02  0.51100000000E-03 0. -1.
        -11    1    3    3    0    0 -0.73877546376E+01 -0.23554602156E+01  0.20337622955E+01  0.80164394059E+01  0.51100000000E-03 0.  1.
         12    1    3    3    0    0 -0.61893926155E+01 -0.18407171716E+02  0.67360666930E+01  0.20554978619E+02  0.00000000000E+00 0. -1.
</event>
<event>
 7    1  0.4430431E-010  0.4778727E+02  0.7816164E-02  0.1312668E+00
        -11   -1    0    0    0    0  0.00000000000E+00  0.00000000000E+00  0.45593999997E+02  0.45594000000E+02  0.51100000000E-03 0. -1.
         11   -1    0    0    0    0 -0.00000000000E+00 -0.00000000000E+00 -0.45593999997E+02  0.45594000000E+02  0.51100000000E-03 0.  1.
    9900012    2    1    2    0    0 -0.24773017974E+01  0.32782283296E+02  0.28333874496E+02  0.47787267676E+02  0.19999984642E+02 0.  0.
        -12    1    1    2    0    0  0.24773017974E+01 -0.32782283296E+02 -0.28333874496E+02  0.43400732324E+02  0.00000000000E+00 0.  1.
         11    1    3    3    0    0 -0.73610674504E-02  0.19876364929E+01 -0.40025325180E+00  0.20275492448E+01  0.51100000000E-03 0. -1.
        -11    1    3    3    0    0 -0.52829898800E+01  0.10008048391E+01  0.23675733488E+01  0.58751166985E+01  0.51100000000E-03 0.  1.
         12    1    3    3    0    0  0.28130491501E+01  0.29793841964E+02  0.26366554399E+02  0.39884601733E+02  0.00000000000E+00 0. -1.
</event>
<event>
 7    1  0.4430431E-010  0.4778727E+02  0.7816164E-02  0.1312668E+00
        -11   -1    0    0    0    0  0.00000000000E+00  0.00000000000E+00  0.45593999997E+02  0.45594000000E+02  0.51100000000E-03 0.  1.
         11   -1    0    0    0    0 -0.00000000000E+00 -0.00000000000E+00 -0.45593999997E+02  0.45594000000E+02  0.51100000000E-03 0. -1.
    9900012    2    1    2    0    0  0.16183130526E+02  0.19803859250E+02 -0.35064753791E+02  0.47787268287E+02  0.19999987428E+02 0.  0.
        -12    1    1    2    0    0 -0.16183130526E+02 -0.19803859250E+02  0.35064753791E+02  0.43400731713E+02  0.00000000000E+00 0.  1.
         11    1    3    3    0    0  0.48812435785E+01  0.97384574651E+01 -0.15267540577E+02  0.18755316265E+02  0.51100000000E-03 0. -1.
        -11    1    3    3    0    0  0.63447584788E+01  0.13669160280E+02 -0.13288304852E+02  0.20091812985E+02  0.51100000000E-03 0.  1.
         12    1    3    3    0    0  0.49571284689E+01 -0.36037584948E+01 -0.65089083613E+01  0.89401390370E+01  0.00000000000E+00 0. -1.
</event>
<event>
 7    1  0.4430431E-010  0.4778727E+02  0.7816164E-02  0.1312668E+00
        -11   -1    0    0    0    0  0.00000000000E+00  0.00000000000E+00  0.45593999997E+02  0.45594000000E+02  0.51100000000E-03 0. -1.
         11   -1    0    0    0    0 -0.00000000000E+00 -0.00000000000E+00 -0.45593999997E+02  0.45594000000E+02  0.51100000000E-03 0.  1.
    9900012    2    1    2    0    0 -0.26011256687E+02 -0.27182874346E+02  0.21636293390E+02  0.47787270469E+02  0.19999997378E+02 0.  0.
        -12    1    1    2    0    0  0.26011256687E+02  0.27182874346E+02 -0.21636293390E+02  0.43400729531E+02  0.00000000000E+00 0.  1.
         11    1    3    3    0    0 -0.47472876516E+01 -0.16747954230E+02  0.13638135462E+02  0.22114010267E+02  0.51100000000E-03 0. -1.
        -11    1    3    3    0    0 -0.82299461764E+01 -0.45727979563E+01  0.61902994289E+01  0.11267754989E+02  0.51100000000E-03 0.  1.
         12    1    3    3    0    0 -0.13034022859E+02 -0.58621221599E+01  0.18078584990E+01  0.14405505214E+02  0.00000000000E+00 0. -1.
</event>
<event>
 7    1  0.4430431E-010  0.4778727E+02  0.7816164E-02  0.1312668E+00
        -11   -1    0    0    0    0  0.00000000000E+00  0.00000000000E+00  0.45593999997E+02  0.45594000000E+02  0.51100000000E-03 0.  1.
         11   -1    0    0    0    0 -0.00000000000E+00 -0.00000000000E+00 -0.45593999997E+02  0.45594000000E+02  0.51100000000E-03 0. -1.
    9900012    2    1    2    0    0  0.36319576713E+02  0.23321065226E+02  0.45430734782E+01  0.47787271291E+02  0.20000001123E+02 0.  0.
        -12    1    1    2    0    0 -0.36319576713E+02 -0.23321065226E+02 -0.45430734782E+01  0.43400728709E+02  0.00000000000E+00 0.  1.
         11    1    3    3    0    0  0.11875489896E+02  0.13543797341E+01  0.20753285601E+01  0.12131306345E+02  0.51100000000E-03 0. -1.
        -11    1    3    3    0    0  0.14906530351E+02  0.80050941132E+01 -0.42767702059E+01  0.17452132893E+02  0.51100000000E-03 0.  1.
         12    1    3    3    0    0  0.95375564659E+01  0.13961591378E+02  0.67445151241E+01  0.18203832053E+02  0.00000000000E+00 0. -1.
</event>
<event>
 7    1  0.4430431E-010  0.4778727E+02  0.7816164E-02  0.1312668E+00
        -11   -1    0    0    0    0  0.00000000000E+00  0.00000000000E+00  0.45593999997E+02  0.45594000000E+02  0.51100000000E-03 0.  1.
         11   -1    0    0    0    0 -0.00000000000E+00 -0.00000000000E+00 -0.45593999997E+02  0.45594000000E+02  0.51100000000E-03 0. -1.
    9900012    2    1    2    0    0 -0.90726096752E+01 -0.47335673777E+01 -0.42177064064E+02  0.47787266833E+02  0.19999980797E+02 0.  0.
        -12    1    1    2    0    0  0.90726096752E+01  0.47335673777E+01  0.42177064064E+02  0.43400733167E+02  0.00000000000E+00 0.  1.
         11    1    3    3    0    0  0.16490221274E+00 -0.64915434350E+01 -0.19268529274E+02  0.20333311328E+02  0.51100000000E-03 0. -1.
        -11    1    3    3    0    0 -0.43528841973E+01 -0.37281141624E+01 -0.35327332504E+01  0.67325062587E+01  0.51100000000E-03 0.  1.
        -12    1    3    3    0    0 -0.48846276906E+01  0.54860902197E+01 -0.19375801539E+02  0.20721449246E+02  0.00000000000E+00 0.  1.
</event>
<event>
 7    1  0.4430431E-010  0.4778727E+02  0.7816164E-02  0.1312668E+00
        -11   -1    0    0    0    0  0.00000000000E+00  0.00000000000E+00  0.45593999997E+02  0.45594000000E+02  0.51100000000E-03 0. -1.
         11   -1    0    0    0    0 -0.00000000000E+00 -0.00000000000E+00 -0.45593999997E+02  0.45594000000E+02  0.51100000000E-03 0.  1.
    9900012    2    1    2    0    0 -0.35659431685E+02  0.10226732582E+02  0.22526479914E+02  0.47787269306E+02  0.19999992074E+02 0.  0.
        -12    1    1    2    0    0  0.35659431685E+02 -0.10226732582E+02 -0.22526479914E+02  0.43400730694E+02  0.00000000000E+00 0.  1.
         11    1    3    3    0    0 -0.50784002137E+01 -0.41144401680E+00 -0.17852117868E+01  0.53987421030E+01  0.51100000000E-03 0.  1.
        -11    1    3    3    0    0 -0.76120161098E+01 -0.91889118854E+00  0.10946567996E+01  0.77450257612E+01  0.51100000000E-03 0. -1.
         12    1    3    3    0    0 -0.22969015362E+02  0.11557067787E+02  0.23217034902E+02  0.34643501442E+02  0.00000000000E+00 0. -1.
</event>
<event>
 7    1  0.4430431E-010  0.4778727E+02  0.7816164E-02  0.1312668E+00
        -11   -1    0    0    0    0  0.00000000000E+00  0.00000000000E+00  0.45593999997E+02  0.45594000000E+02  0.51100000000E-03 0. -1.
         11   -1    0    0    0    0 -0.00000000000E+00 -0.00000000000E+00 -0.45593999997E+02  0.45594000000E+02  0.51100000000E-03 0.  1.
    9900012    2    1    2    0    0 -0.60123278636E+00  0.51479400002E+01  0.43090147276E+02  0.47787267755E+02  0.19999985003E+02 0.  0.
        -12    1    1    2    0    0  0.60123278636E+00 -0.51479400002E+01 -0.43090147276E+02  0.43400732245E+02  0.00000000000E+00 0.  1.
         11    1    3    3    0    0 -0.48708059439E+01 -0.38786963834E+00  0.14218182540E+02  0.15034357598E+02  0.51100000000E-03 0. -1.
        -11    1    3    3    0    0  0.35411964462E+01 -0.40539248817E+01  0.14434225766E+02  0.15405234596E+02  0.51100000000E-03 0.  1.
        -12    1    3    3    0    0  0.72837671137E+00  0.95897345202E+01  0.14437738970E+02  0.17347675561E+02  0.00000000000E+00 0.  1.
</event>
<event>
 7    1  0.4430431E-010  0.4778727E+02  0.7816164E-02  0.1312668E+00
        -11   -1    0    0    0    0  0.00000000000E+00  0.00000000000E+00  0.45593999997E+02  0.45594000000E+02  0.51100000000E-03 0. -1.
         11   -1    0    0    0    0 -0.00000000000E+00 -0.00000000000E+00 -0.45593999997E+02  0.45594000000E+02  0.51100000000E-03 0.  1.
    9900012    2    1    2    0    0 -0.27470505014E+02 -0.16802099496E+02  0.29097835735E+02  0.47787271462E+02  0.20000001903E+02 0.  0.
        -12    1    1    2    0    0  0.27470505014E+02  0.16802099496E+02 -0.29097835735E+02  0.43400728538E+02  0.00000000000E+00 0.  1.
         11    1    3    3    0    0 -0.76208960826E+01 -0.15002100601E+02  0.15023630016E+02  0.22557715723E+02  0.51100000000E-03 0. -1.
        -11    1    3    3    0    0 -0.48206053702E+01 -0.25940184358E+01  0.16604481169E+01  0.57205118644E+01  0.51100000000E-03 0.  1.
         12    1    3    3    0    0 -0.15029003561E+02  0.79401954070E+00  0.12413757602E+02  0.19509043874E+02  0.00000000000E+00 0. -1.
</event>
<event>
 7    1  0.4564952E-010  0.4778727E+02  0.7816164E-02  0.1312668E+00
        -11   -1    0    0    0    0  0.00000000000E+00  0.00000000000E+00  0.45593999997E+02  0.45594000000E+02  0.51100000000E-03 0. -1.
         11   -1    0    0    0    0 -0.00000000000E+00 -0.00000000000E+00 -0.45593999997E+02  0.45594000000E+02  0.51100000000E-03 0.  1.
    9900012    2    1    2    0    0 -0.30199620934E+02  0.11584935841E+02  0.28937783721E+02  0.47787272245E+02  0.20000005472E+02 0.  0.
        -12    1    1    2    0    0  0.30199620934E+02 -0.11584935841E+02 -0.28937783721E+02  0.43400727755E+02  0.00000000000E+00 0.  1.
         11    1    3    3    0    0 -0.11745948469E+02  0.63520917597E+01  0.63127321474E+01  0.14770476045E+02  0.51100000000E-03 0. -1.
        -11    1    3    3    0    0 -0.19453580400E+02  0.76736390276E+00  0.18181053595E+02  0.26637968162E+02  0.51100000000E-03 0.  1.
        -12    1    3    3    0    0  0.99990793429E+00  0.44654801787E+01  0.44439979787E+01  0.63788280380E+01  0.00000000000E+00 0.  1.
</event>
<event>
 7    1  0.4430431E-010  0.4778727E+02  0.7816164E-02  0.1312668E+00
        -11   -1    0    0    0    0  0.00000000000E+00  0.00000000000E+00  0.45593999997E+02  0.45594000000E+02  0.51100000000E-03 0. -1.
         11   -1    0    0    0    0 -0.00000000000E+00 -0.00000000000E+00 -0.45593999997E+02  0.45594000000E+02  0.51100000000E-03 0.  1.
    9900012    2    1    2    0    0 -0.19438852545E+02  0.15661379836E+01  0.38772432389E+02  0.47787270861E+02  0.19999999162E+02 0.  0.
        -12    1    1    2    0    0  0.19438852545E+02 -0.15661379836E+01 -0.38772432389E+02  0.43400729139E+02  0.00000000000E+00 0.  1.
         11    1    3    3    0    0 -0.34155125019E+01 -0.10872979823E+01  0.91953141110E+01  0.98692322100E+01  0.51100000000E-03 0. -1.
        -11    1    3    3    0    0 -0.90066877136E+01 -0.58419616943E+01  0.22195925966E+02  0.24655791810E+02  0.51100000000E-03 0.  1.
         12    1    3    3    0    0 -0.70166523299E+01  0.84953976602E+01  0.73811923117E+01  0.13262246841E+02  0.00000000000E+00 0. -1.
</event>
<event>
 7    1  0.4430431E-010  0.4778728E+02  0.7816164E-02  0.1312668E+00
        -11   -1    0    0    0    0  0.00000000000E+00  0.00000000000E+00  0.45593999997E+02  0.45594000000E+02  0.51100000000E-03 0. -1.
         11   -1    0    0    0    0 -0.00000000000E+00 -0.00000000000E+00 -0.45593999997E+02  0.45594000000E+02  0.51100000000E-03 0.  1.
    9900012    2    1    2    0    0  0.52358356593E+00  0.37417649405E+02  0.21983363399E+02  0.47787275432E+02  0.20000020004E+02 0.  0.
        -12    1    1    2    0    0 -0.52358356593E+00 -0.37417649405E+02 -0.21983363399E+02  0.43400724568E+02  0.00000000000E+00 0.  1.
         11    1    3    3    0    0  0.17438010468E+01 -0.17746773179E+01  0.76609397330E+00  0.26033097992E+01  0.51100000000E-03 0.  1.
        -11    1    3    3    0    0  0.28233485457E+01  0.95979945078E+01  0.47295263655E+01  0.11066219566E+02  0.51100000000E-03 0. -1.
        -12    1    3    3    0    0 -0.40435660266E+01  0.29594332215E+02  0.16487743060E+02  0.34117746067E+02  0.00000000000E+00 0.  1.
</event>
<event>
 7    1  0.4430431E-010  0.4778727E+02  0.7816164E-02  0.1312668E+00
        -11   -1    0    0    0    0  0.00000000000E+00  0.00000000000E+00  0.45593999997E+02  0.45594000000E+02  0.51100000000E-03 0.  1.
         11   -1    0    0    0    0 -0.00000000000E+00 -0.00000000000E+00 -0.45593999997E+02  0.45594000000E+02  0.51100000000E-03 0. -1.
    9900012    2    1    2    0    0  0.33462390797E+02 -0.72449494011E+01 -0.26672126962E+02  0.47787271361E+02  0.20000001445E+02 0.  0.
        -12    1    1    2    0    0 -0.33462390797E+02  0.72449494011E+01  0.26672126962E+02  0.43400728639E+02  0.00000000000E+00 0.  1.
         11    1    3    3    0    0  0.62620480733E+01 -0.32101434959E+01 -0.13264882520E+02  0.15015837501E+02  0.51100000000E-03 0. -1.
        -11    1    3    3    0    0  0.86872394343E+01  0.39015350471E+01 -0.62696548590E+01  0.11401696235E+02  0.51100000000E-03 0.  1.
         12    1    3    3    0    0  0.18513103290E+02 -0.79363409523E+01 -0.71375895832E+01  0.21369737626E+02  0.00000000000E+00 0. -1.
</event>
<event>
 7    1  0.4430431E-010  0.4778727E+02  0.7816164E-02  0.1312668E+00
        -11   -1    0    0    0    0  0.00000000000E+00  0.00000000000E+00  0.45593999997E+02  0.45594000000E+02  0.51100000000E-03 0. -1.
         11   -1    0    0    0    0 -0.00000000000E+00 -0.00000000000E+00 -0.45593999997E+02  0.45594000000E+02  0.51100000000E-03 0.  1.
    9900012    2    1    2    0    0 -0.37885834868E+02 -0.99427386093E+01  0.18693020879E+02  0.47787267699E+02  0.19999984746E+02 0.  0.
        -12    1    1    2    0    0  0.37885834868E+02  0.99427386093E+01 -0.18693020879E+02  0.43400732301E+02  0.00000000000E+00 0.  1.
         11    1    3    3    0    0 -0.61777729529E+01  0.42303503925E+01  0.26859013146E+01  0.79545464505E+01  0.51100000000E-03 0. -1.
        -11    1    3    3    0    0 -0.15892609172E+02 -0.51335056136E+01  0.19329419331E+01  0.16812619396E+02  0.51100000000E-03 0.  1.
         12    1    3    3    0    0 -0.15815452743E+02 -0.90395833882E+01  0.14074177631E+02  0.23020101852E+02  0.00000000000E+00 0. -1.
</event>
<event>
 7    1  0.4430431E-010  0.4778728E+02  0.7816164E-02  0.1312668E+00
        -11   -1    0    0    0    0  0.00000000000E+00  0.00000000000E+00  0.45593999997E+02  0.45594000000E+02  0.51100000000E-03 0.  1.
         11   -1    0    0    0    0 -0.00000000000E+00 -0.00000000000E+00 -0.45593999997E+02  0.45594000000E+02  0.51100000000E-03 0. -1.
    9900012    2    1    2    0    0 -0.38576847113E+02 -0.19609062123E+02  0.33066401948E+01  0.47787282034E+02  0.20000050108E+02 0.  0.
        -12    1    1    2    0    0  0.38576847113E+02  0.19609062123E+02 -0.33066401948E+01  0.43400717966E+02  0.00000000000E+00 0.  1.
         11    1    3    3    0    0 -0.20967564478E+02 -0.19785820546E+02  0.24599572199E+01  0.28933870197E+02  0.51100000000E-03 0. -1.
        -11    1    3    3    0    0 -0.31804065925E+01 -0.14870809030E+01 -0.20173938953E+01  0.40492312969E+01  0.51100000000E-03 0.  1.
        -12    1    3    3    0    0 -0.14428876043E+02  0.16638393252E+01  0.28640768703E+01  0.14804180540E+02  0.00000000000E+00 0.  1.
</event>
<event>
 7    1  0.4430431E-010  0.4778727E+02  0.7816164E-02  0.1312668E+00
        -11   -1    0    0    0    0  0.00000000000E+00  0.00000000000E+00  0.45593999997E+02  0.45594000000E+02  0.51100000000E-03 0.  1.
         11   -1    0    0    0    0 -0.00000000000E+00 -0.00000000000E+00 -0.45593999997E+02  0.45594000000E+02  0.51100000000E-03 0. -1.
    9900012    2    1    2    0    0 -0.25295990705E+02  0.33810779854E+02 -0.10028347564E+02  0.47787265732E+02  0.19999975780E+02 0.  0.
        -12    1    1    2    0    0  0.25295990705E+02 -0.33810779854E+02  0.10028347564E+02  0.43400734268E+02  0.00000000000E+00 0.  1.
         11    1    3    3    0    0 -0.17523841439E+02  0.10422832933E+02 -0.38439081458E+01  0.20748399823E+02  0.51100000000E-03 0. -1.
        -11    1    3    3    0    0 -0.52845292989E+01  0.14115544889E+02 -0.83024370413E+01  0.17207711019E+02  0.51100000000E-03 0.  1.
        -12    1    3    3    0    0 -0.24876199673E+01  0.92724020325E+01  0.21179976227E+01  0.98311548906E+01  0.00000000000E+00 0.  1.
</event>
<event>
 7    1  0.4430431E-010  0.4778727E+02  0.7816164E-02  0.1312668E+00
        -11   -1    0    0    0    0  0.00000000000E+00  0.00000000000E+00  0.45593999997E+02  0.45594000000E+02  0.51100000000E-03 0.  1.
         11   -1    0    0    0    0 -0.00000000000E+00 -0.00000000000E+00 -0.45593999997E+02  0.45594000000E+02  0.51100000000E-03 0. -1.
    9900012    2    1    2    0    0  0.27538583711E+02 -0.30971000964E+02 -0.12885906470E+02  0.47787273289E+02  0.20000010232E+02 0.  0.
        -12    1    1    2    0    0 -0.27538583711E+02  0.30971000964E+02  0.12885906470E+02  0.43400726711E+02  0.00000000000E+00 0.  1.
         11    1    3    3    0    0  0.11426053602E+01 -0.24034301550E+01  0.21417233408E+01  0.34159921910E+01  0.51100000000E-03 0. -1.
        -11    1    3    3    0    0  0.54114789116E+01 -0.62055679926E+01  0.30417938789E+01  0.87775673386E+01  0.51100000000E-03 0.  1.
         12    1    3    3    0    0  0.20984499439E+02 -0.22362002817E+02 -0.18069423689E+02  0.35593713759E+02  0.00000000000E+00 0. -1.
</event>
<event>
 7    1  0.4430431E-010  0.4778727E+02  0.7816164E-02  0.1312668E+00
        -11   -1    0    0    0    0  0.00000000000E+00  0.00000000000E+00  0.45593999997E+02  0.45594000000E+02  0.51100000000E-03 0.  1.
         11   -1    0    0    0    0 -0.00000000000E+00 -0.00000000000E+00 -0.45593999997E+02  0.45594000000E+02  0.51100000000E-03 0. -1.
    9900012    2    1    2    0    0 -0.40769421841E+02  0.12337296572E+02  0.83227717037E+01  0.47787272209E+02  0.20000005310E+02 0.  0.
        -12    1    1    2    0    0  0.40769421841E+02 -0.12337296572E+02 -0.83227717037E+01  0.43400727791E+02  0.00000000000E+00 0.  1.
         11    1    3    3    0    0 -0.15694453537E+02  0.82039686420E+01  0.43831856399E+01  0.18243719191E+02  0.51100000000E-03 0. -1.
        -11    1    3    3    0    0 -0.93692916179E-02  0.41840286844E+01  0.97671859584E-01  0.41851790725E+01  0.51100000000E-03 0.  1.
         12    1    3    3    0    0 -0.25065599012E+02 -0.50700754535E-01  0.38419142043E+01  0.25358373946E+02  0.00000000000E+00 0. -1.
</event>
<event>
 7    1  0.4430431E-010  0.4778725E+02  0.7816164E-02  0.1312668E+00
        -11   -1    0    0    0    0  0.00000000000E+00  0.00000000000E+00  0.45593999997E+02  0.45594000000E+02  0.51100000000E-03 0. -1.
         11   -1    0    0    0    0 -0.00000000000E+00 -0.00000000000E+00 -0.45593999997E+02  0.45594000000E+02  0.51100000000E-03 0.  1.
    9900012    2    1    2    0    0  0.40332802161E+02  0.11577338427E+01 -0.15985915680E+02  0.47787253717E+02  0.19999920995E+02 0.  0.
        -12    1    1    2    0    0 -0.40332802161E+02 -0.11577338427E+01  0.15985915680E+02  0.43400746283E+02  0.00000000000E+00 0.  1.
         11    1    3    3    0    0 -0.31911038673E+00 -0.25665198877E+01 -0.27386626765E+01  0.37668460666E+01  0.51100000000E-03 0. -1.
        -11    1    3    3    0    0  0.75485521452E+01 -0.11581268765E+01 -0.61719131053E+01  0.98190839182E+01  0.51100000000E-03 0.  1.
         12    1    3    3    0    0  0.33103360403E+02  0.48823806069E+01 -0.70753398986E+01  0.34201323732E+02  0.00000000000E+00 0. -1.
</event>
<event>
 7    1  0.4430431E-010  0.4778727E+02  0.7816164E-02  0.1312668E+00
        -11   -1    0    0    0    0  0.00000000000E+00  0.00000000000E+00  0.45593999997E+02  0.45594000000E+02  0.51100000000E-03 0. -1.
         11   -1    0    0    0    0 -0.00000000000E+00 -0.00000000000E+00 -0.45593999997E+02  0.45594000000E+02  0.51100000000E-03 0.  1.
    9900012    2    1    2    0    0 -0.41104066750E+02  0.12872413162E+02  0.53273087610E+01  0.47787267948E+02  0.19999985881E+02 0.  0.
        -12    1    1    2    0    0  0.41104066750E+02 -0.12872413162E+02 -0.53273087610E+01  0.43400732052E+02  0.00000000000E+00 0.  1.
         11    1    3    3    0    0 -0.83351065936E+01  0.32035450795E+01 -0.35514208281E+01  0.96098539615E+01  0.51100000000E-03 0. -1.
        -11    1    3    3    0    0 -0.26255401358E+02  0.13492883063E+02  0.62020591222E+01  0.30164043685E+02  0.51100000000E-03 0.  1.
         12    1    3    3    0    0 -0.65135587991E+01 -0.38240149805E+01  0.26766704669E+01  0.80133703014E+01  0.00000000000E+00 0. -1.
</event>
<event>
 7    1  0.4430431E-010  0.4778727E+02  0.7816164E-02  0.1312668E+00
        -11   -1    0    0    0    0  0.00000000000E+00  0.00000000000E+00  0.45593999997E+02  0.45594000000E+02  0.51100000000E-03 0. -1.
         11   -1    0    0    0    0 -0.00000000000E+00 -0.00000000000E+00 -0.45593999997E+02  0.45594000000E+02  0.51100000000E-03 0.  1.
    9900012    2    1    2    0    0  0.90779918700E+01 -0.15538948942E+02  0.39493727083E+02  0.47787270173E+02  0.19999996027E+02 0.  0.
        -12    1    1    2    0    0 -0.90779918700E+01  0.15538948942E+02 -0.39493727083E+02  0.43400729827E+02  0.00000000000E+00 0.  1.
         11    1    3    3    0    0 -0.17487097466E+01 -0.93847756091E+01  0.31252331782E+02  0.32677824913E+02  0.51100000000E-03 0. -1.
        -11    1    3    3    0    0  0.15656363264E+01 -0.16030735999E+01  0.76884958038E+00  0.23690065453E+01  0.51100000000E-03 0.  1.
         12    1    3    3    0    0  0.92610652902E+01 -0.45510997328E+01  0.74725457209E+01  0.12740438715E+02  0.00000000000E+00 0. -1.
</event>
<event>
 7    1  0.4430431E-010  0.4778727E+02  0.7816164E-02  0.1312668E+00
        -11   -1    0    0    0    0  0.00000000000E+00  0.00000000000E+00  0.45593999997E+02  0.45594000000E+02  0.51100000000E-03 0.  1.
         11   -1    0    0    0    0 -0.00000000000E+00 -0.00000000000E+00 -0.45593999997E+02  0.45594000000E+02  0.51100000000E-03 0. -1.
    9900012    2    1    2    0    0 -0.21351798593E+02  0.30160758187E+02 -0.22760763092E+02  0.47787274498E+02  0.20000015745E+02 0.  0.
        -12    1    1    2    0    0  0.21351798593E+02 -0.30160758187E+02  0.22760763092E+02  0.43400725502E+02  0.00000000000E+00 0.  1.
         11    1    3    3    0    0 -0.30431336219E+01  0.72438584199E+01 -0.24585241901E+01  0.82327691880E+01  0.51100000000E-03 0. -1.
        -11    1    3    3    0    0  0.18217417345E+01  0.27426055176E+01  0.15521500350E+01  0.36400271929E+01  0.51100000000E-03 0.  1.
         12    1    3    3    0    0 -0.20130406706E+02  0.20174294250E+02 -0.21854388937E+02  0.35914478117E+02  0.00000000000E+00 0. -1.
</event>
<event>
 7    1  0.4430431E-010  0.4778727E+02  0.7816164E-02  0.1312668E+00
        -11   -1    0    0    0    0  0.00000000000E+00  0.00000000000E+00  0.45593999997E+02  0.45594000000E+02  0.51100000000E-03 0. -1.
         11   -1    0    0    0    0 -0.00000000000E+00 -0.00000000000E+00 -0.45593999997E+02  0.45594000000E+02  0.51100000000E-03 0.  1.
    9900012    2    1    2    0    0  0.52364388820E+01 -0.40026826697E+02  0.15939136684E+02  0.47787271598E+02  0.20000002524E+02 0.  0.
        -12    1    1    2    0    0 -0.52364388820E+01  0.40026826697E+02 -0.15939136684E+02  0.43400728402E+02  0.00000000000E+00 0.  1.
         11    1    3    3    0    0  0.25234978851E+01 -0.47592567758E+00  0.14883151865E-01  0.25680281533E+01  0.51100000000E-03 0. -1.
        -11    1    3    3    0    0 -0.50204679419E+01 -0.57006561800E+01  0.26227792599E+01  0.80362647135E+01  0.51100000000E-03 0.  1.
         12    1    3    3    0    0  0.77334089387E+01 -0.33850244840E+02  0.13301474272E+02  0.37182978731E+02  0.00000000000E+00 0. -1.
</event>
<event>
 7    1  0.4430431E-010  0.4778727E+02  0.7816164E-02  0.1312668E+00
        -11   -1    0    0    0    0  0.00000000000E+00  0.00000000000E+00  0.45593999997E+02  0.45594000000E+02  0.51100000000E-03 0. -1.
         11   -1    0    0    0    0 -0.00000000000E+00 -0.00000000000E+00 -0.45593999997E+02  0.45594000000E+02  0.51100000000E-03 0.  1.
    9900012    2    1    2    0    0  0.39354177211E+02 -0.28526583561E+01  0.18075796856E+02  0.47787270103E+02  0.19999995705E+02 0.  0.
        -12    1    1    2    0    0 -0.39354177211E+02  0.28526583561E+01 -0.18075796856E+02  0.43400729897E+02  0.00000000000E+00 0.  1.
         11    1    3    3    0    0  0.85239599241E+01 -0.17668051683E+01  0.61321593257E+01  0.10648139347E+02  0.51100000000E-03 0. -1.
        -11    1    3    3    0    0  0.11697447779E+02  0.60137991836E+01 -0.63206756415E+00  0.13167975351E+02  0.51100000000E-03 0.  1.
        -12    1    3    3    0    0  0.19132769507E+02 -0.70996523714E+01  0.12575705095E+02  0.23971155405E+02  0.00000000000E+00 0.  1.
</event>
<event>
 7    1  0.4430431E-010  0.4778727E+02  0.7816164E-02  0.1312668E+00
        -11   -1    0    0    0    0  0.00000000000E+00  0.00000000000E+00  0.45593999997E+02  0.45594000000E+02  0.51100000000E-03 0. -1.
         11   -1    0    0    0    0 -0.00000000000E+00 -0.00000000000E+00 -0.45593999997E+02  0.45594000000E+02  0.51100000000E-03 0.  1.
    9900012    2    1    2    0    0  0.36531519075E+02  0.22474541809E+02 -0.66307233161E+01  0.47787269509E+02  0.19999993001E+02 0.  0.
        -12    1    1    2    0    0 -0.36531519075E+02 -0.22474541809E+02  0.66307233161E+01  0.43400730491E+02  0.00000000000E+00 0.  1.
         11    1    3    3    0    0  0.27894352761E+02  0.90445886694E+01 -0.11248594106E+01  0.29345609708E+02  0.51100000000E-03 0. -1.
        -11    1    3    3    0    0  0.83141871983E+01  0.77369652604E+01 -0.14615162064E+01  0.11450867657E+02  0.51100000000E-03 0.  1.
        -12    1    3    3    0    0  0.32297911504E+00  0.56929878792E+01 -0.40443476991E+01  0.69907921449E+01  0.00000000000E+00 0.  1.
</event>
<event>
 7    1  0.4430431E-010  0.4778727E+02  0.7816164E-02  0.1312668E+00
        -11   -1    0    0    0    0  0.00000000000E+00  0.00000000000E+00  0.45593999997E+02  0.45594000000E+02  0.51100000000E-03 0.  1.
         11   -1    0    0    0    0 -0.00000000000E+00 -0.00000000000E+00 -0.45593999997E+02  0.45594000000E+02  0.51100000000E-03 0. -1.
    9900012    2    1    2    0    0 -0.11301089172E+02 -0.31401722790E+01 -0.41785741731E+02  0.47787268319E+02  0.19999987574E+02 0.  0.
        -12    1    1    2    0    0  0.11301089172E+02  0.31401722790E+01  0.41785741731E+02  0.43400731681E+02  0.00000000000E+00 0.  1.
         11    1    3    3    0    0 -0.13460383421E+01 -0.50906807391E+01 -0.31545867060E+02  0.31982316652E+02  0.51100000000E-03 0. -1.
        -11    1    3    3    0    0  0.52194253884E+00  0.73529216301E+00  0.24348878952E+00  0.93400515554E+00  0.51100000000E-03 0.  1.
         12    1    3    3    0    0 -0.10476993369E+02  0.12152162971E+01 -0.10483363460E+02  0.14870946511E+02  0.00000000000E+00 0. -1.
</event>
<event>
 7    1  0.4430431E-010  0.4778727E+02  0.7816164E-02  0.1312668E+00
        -11   -1    0    0    0    0  0.00000000000E+00  0.00000000000E+00  0.45593999997E+02  0.45594000000E+02  0.51100000000E-03 0.  1.
         11   -1    0    0    0    0 -0.00000000000E+00 -0.00000000000E+00 -0.45593999997E+02  0.45594000000E+02  0.51100000000E-03 0. -1.
    9900012    2    1    2    0    0 -0.29561429448E+02  0.26663481990E+02 -0.17285948848E+02  0.47787269472E+02  0.19999992829E+02 0.  0.
        -12    1    1    2    0    0  0.29561429448E+02 -0.26663481990E+02  0.17285948848E+02  0.43400730528E+02  0.00000000000E+00 0.  1.
         11    1    3    3    0    0 -0.18222910622E+02  0.23737049330E+02 -0.12497220957E+02  0.32429963218E+02  0.51100000000E-03 0. -1.
        -11    1    3    3    0    0 -0.31913887541E+01  0.33409295861E+01 -0.54830795840E+01  0.71701418860E+01  0.51100000000E-03 0.  1.
        -12    1    3    3    0    0 -0.81471300721E+01 -0.41449692563E+00  0.69435169294E+00  0.81871643678E+01  0.00000000000E+00 0.  1.
</event>
<event>
 7    1  0.4430431E-010  0.4778727E+02  0.7816164E-02  0.1312668E+00
        -11   -1    0    0    0    0  0.00000000000E+00  0.00000000000E+00  0.45593999997E+02  0.45594000000E+02  0.51100000000E-03 0.  1.
         11   -1    0    0    0    0 -0.00000000000E+00 -0.00000000000E+00 -0.45593999997E+02  0.45594000000E+02  0.51100000000E-03 0. -1.
    9900012    2    1    2    0    0  0.93123789123E+01  0.56501769016E+01 -0.42011643498E+02  0.47787273169E+02  0.20000009688E+02 0.  0.
        -12    1    1    2    0    0 -0.93123789123E+01 -0.56501769016E+01  0.42011643498E+02  0.43400726831E+02  0.00000000000E+00 0.  1.
         11    1    3    3    0    0 -0.43025998022E+01  0.20544288650E+01 -0.10004109095E+02  0.11082203845E+02  0.51100000000E-03 0. -1.
        -11    1    3    3    0    0  0.92050288933E+01 -0.18055573124E+01 -0.25486875392E+02  0.27158302812E+02  0.51100000000E-03 0.  1.
         12    1    3    3    0    0  0.44099498212E+01  0.54013053489E+01 -0.65206590117E+01  0.95467665125E+01  0.00000000000E+00 0. -1.
</event>
<event>
 7    1  0.4430431E-010  0.4778727E+02  0.7816164E-02  0.1312668E+00
        -11   -1    0    0    0    0  0.00000000000E+00  0.00000000000E+00  0.45593999997E+02  0.45594000000E+02  0.51100000000E-03 0.  1.
         11   -1    0    0    0    0 -0.00000000000E+00 -0.00000000000E+00 -0.45593999997E+02  0.45594000000E+02  0.51100000000E-03 0. -1.
    9900012    2    1    2    0    0 -0.63053201661E+01 -0.25759730786E+02 -0.34355530089E+02  0.47787271432E+02  0.20000001766E+02 0.  0.
        -12    1    1    2    0    0  0.63053201661E+01  0.25759730786E+02  0.34355530089E+02  0.43400728568E+02  0.00000000000E+00 0.  1.
         11    1    3    3    0    0 -0.37118316727E+00 -0.17834177281E+02 -0.17688165387E+02  0.25121043992E+02  0.51100000000E-03 0. -1.
        -11    1    3    3    0    0 -0.85765294223E+00 -0.85512539289E+01 -0.50386051424E+01  0.99622815845E+01  0.51100000000E-03 0.  1.
         12    1    3    3    0    0 -0.50764840566E+01  0.62570042389E+00 -0.11628759559E+02  0.12703945855E+02  0.00000000000E+00 0. -1.
</event>
<event>
 7    1  0.4430431E-010  0.4778726E+02  0.7816164E-02  0.1312668E+00
        -11   -1    0    0    0    0  0.00000000000E+00  0.00000000000E+00  0.45593999997E+02  0.45594000000E+02  0.51100000000E-03 0.  1.
         11   -1    0    0    0    0 -0.00000000000E+00 -0.00000000000E+00 -0.45593999997E+02  0.45594000000E+02  0.51100000000E-03 0. -1.
    9900012    2    1    2    0    0  0.33967135505E+02  0.25483757622E+02 -0.89686031128E+01  0.47787262233E+02  0.19999959823E+02 0.  0.
        -12    1    1    2    0    0 -0.33967135505E+02 -0.25483757622E+02  0.89686031128E+01  0.43400737767E+02  0.00000000000E+00 0.  1.
         11    1    3    3    0    0  0.28170204590E+02  0.21906124555E+02 -0.12683073459E+02  0.37872141110E+02  0.51100000000E-03 0. -1.
        -11    1    3    3    0    0 -0.30104598831E+00 -0.12500064819E+01 -0.23313181210E-01  0.12859582643E+01  0.51100000000E-03 0.  1.
        -12    1    3    3    0    0  0.60979769036E+01  0.48276395488E+01  0.37377835276E+01  0.86291628579E+01  0.00000000000E+00 0.  1.
</event>
<event>
 7    1  0.4430431E-010  0.4778726E+02  0.7816164E-02  0.1312668E+00
        -11   -1    0    0    0    0  0.00000000000E+00  0.00000000000E+00  0.45593999997E+02  0.45594000000E+02  0.51100000000E-03 0. -1.
         11   -1    0    0    0    0 -0.00000000000E+00 -0.00000000000E+00 -0.45593999997E+02  0.45594000000E+02  0.51100000000E-03 0.  1.
    9900012    2    1    2    0    0 -0.15419669860E+02  0.39274497709E+02 -0.10167189455E+02  0.47787261178E+02  0.19999955016E+02 0.  0.
        -12    1    1    2    0    0  0.15419669860E+02 -0.39274497709E+02  0.10167189455E+02  0.43400738822E+02  0.00000000000E+00 0.  1.
         11    1    3    3    0    0 -0.79513369783E+01  0.12566603231E+02  0.39817277412E+01  0.15394720932E+02  0.51100000000E-03 0. -1.
        -11    1    3    3    0    0 -0.19619403730E+01  0.68586417699E+00 -0.27687610380E+01  0.34620308554E+01  0.51100000000E-03 0.  1.
        -12    1    3    3    0    0 -0.55063925087E+01  0.26022030301E+02 -0.11380156158E+02  0.28930509391E+02  0.00000000000E+00 0.  1.
</event>
<event>
 7    1  0.4430431E-010  0.4778726E+02  0.7816164E-02  0.1312668E+00
        -11   -1    0    0    0    0  0.00000000000E+00  0.00000000000E+00  0.45593999997E+02  0.45594000000E+02  0.51100000000E-03 0.  1.
         11   -1    0    0    0    0 -0.00000000000E+00 -0.00000000000E+00 -0.45593999997E+02  0.45594000000E+02  0.51100000000E-03 0. -1.
    9900012    2    1    2    0    0  0.35871403299E+02  0.58882684883E+00 -0.24423750187E+02  0.47787264235E+02  0.19999968954E+02 0.  0.
        -12    1    1    2    0    0 -0.35871403299E+02 -0.58882684883E+00  0.24423750187E+02  0.43400735765E+02  0.00000000000E+00 0.  1.
         11    1    3    3    0    0  0.24800636858E+02 -0.14967213341E+01 -0.12487574085E+02  0.27807395960E+02  0.51100000000E-03 0. -1.
        -11    1    3    3    0    0  0.11707578810E+02 -0.14061116167E+01 -0.64355732994E+01  0.13433583119E+02  0.51100000000E-03 0.  1.
        -12    1    3    3    0    0 -0.63681236828E+00  0.34916597996E+01 -0.55006028024E+01  0.65462851556E+01  0.00000000000E+00 0.  1.
</event>
<event>
 7    1  0.4430431E-010  0.4778727E+02  0.7816164E-02  0.1312668E+00
        -11   -1    0    0    0    0  0.00000000000E+00  0.00000000000E+00  0.45593999997E+02  0.45594000000E+02  0.51100000000E-03 0.  1.
         11   -1    0    0    0    0 -0.00000000000E+00 -0.00000000000E+00 -0.45593999997E+02  0.45594000000E+02  0.51100000000E-03 0. -1.
    9900012    2    1    2    0    0  0.21527645993E+02 -0.11695647856E+02 -0.35824510611E+02  0.47787270958E+02  0.19999999608E+02 0.  0.
        -12    1    1    2    0    0 -0.21527645993E+02  0.11695647856E+02  0.35824510611E+02  0.43400729042E+02  0.00000000000E+00 0.  1.
         11    1    3    3    0    0  0.11831511486E+02 -0.83503283494E+01 -0.26824946284E+02  0.30484264646E+02  0.51100000000E-03 0. -1.
        -11    1    3    3    0    0  0.17279695793E+01  0.17956724688E+01 -0.72420443966E+01  0.76588201301E+01  0.51100000000E-03 0.  1.
        -12    1    3    3    0    0  0.79681649282E+01 -0.51409919754E+01 -0.17575199305E+01  0.96441861824E+01  0.00000000000E+00 0.  1.
</event>
<event>
 7    1  0.4430431E-010  0.4778726E+02  0.7816164E-02  0.1312668E+00
        -11   -1    0    0    0    0  0.00000000000E+00  0.00000000000E+00  0.45593999997E+02  0.45594000000E+02  0.51100000000E-03 0.  1.
         11   -1    0    0    0    0 -0.00000000000E+00 -0.00000000000E+00 -0.45593999997E+02  0.45594000000E+02  0.51100000000E-03 0. -1.
    9900012    2    1    2    0    0  0.28014654728E+02  0.28329723766E+02 -0.17211332000E+02  0.47787261787E+02  0.19999957792E+02 0.  0.
        -12    1    1    2    0    0 -0.28014654728E+02 -0.28329723766E+02  0.17211332000E+02  0.43400738213E+02  0.00000000000E+00 0.  1.
         11    1    3    3    0    0  0.12989924538E+02  0.49164195999E+01 -0.60273231316E+01  0.15140605853E+02  0.51100000000E-03 0. -1.
        -11    1    3    3    0    0  0.57126329318E+01  0.66246990550E+00 -0.41022685447E+01  0.70641099130E+01  0.51100000000E-03 0.  1.
         12    1    3    3    0    0  0.93120972582E+01  0.22750834261E+02 -0.70817403234E+01  0.25582546021E+02  0.00000000000E+00 0. -1.
</event>
<event>
 7    1  0.4430431E-010  0.4778727E+02  0.7816164E-02  0.1312668E+00
        -11   -1    0    0    0    0  0.00000000000E+00  0.00000000000E+00  0.45593999997E+02  0.45594000000E+02  0.51100000000E-03 0. -1.
         11   -1    0    0    0    0 -0.00000000000E+00 -0.00000000000E+00 -0.45593999997E+02  0.45594000000E+02  0.51100000000E-03 0.  1.
    9900012    2    1    2    0    0 -0.16587468608E+01  0.15812342489E+02  0.40383679832E+02  0.47787271746E+02  0.20000003201E+02 0.  0.
        -12    1    1    2    0    0  0.16587468608E+01 -0.15812342489E+02 -0.40383679832E+02  0.43400728254E+02  0.00000000000E+00 0.  1.
         11    1    3    3    0    0  0.27023233895E+01  0.11589982351E+02  0.12109723792E+02  0.16978682316E+02  0.51100000000E-03 0. -1.
        -11    1    3    3    0    0 -0.38265898746E+01  0.21856236091E+01  0.27425627960E+01  0.51905097611E+01  0.51100000000E-03 0.  1.
         12    1    3    3    0    0 -0.53448037570E+00  0.20367365287E+01  0.25531393244E+02  0.25618079670E+02  0.00000000000E+00 0. -1.
</event>
<event>
 7    1  0.4430431E-010  0.4778727E+02  0.7816164E-02  0.1312668E+00
        -11   -1    0    0    0    0  0.00000000000E+00  0.00000000000E+00  0.45593999997E+02  0.45594000000E+02  0.51100000000E-03 0.  1.
         11   -1    0    0    0    0 -0.00000000000E+00 -0.00000000000E+00 -0.45593999997E+02  0.45594000000E+02  0.51100000000E-03 0. -1.
    9900012    2    1    2    0    0  0.56612593059E+01  0.12436797957E+02 -0.41193439232E+02  0.47787271480E+02  0.20000001985E+02 0.  0.
        -12    1    1    2    0    0 -0.56612593059E+01 -0.12436797957E+02  0.41193439232E+02  0.43400728520E+02  0.00000000000E+00 0.  1.
         11    1    3    3    0    0  0.58698000681E+01  0.30628920008E+01 -0.16747933549E+01  0.68294065109E+01  0.51100000000E-03 0. -1.
        -11    1    3    3    0    0  0.19850892288E+01  0.33574257222E+01 -0.96107979939E+01  0.10372093572E+02  0.51100000000E-03 0.  1.
         12    1    3    3    0    0 -0.21936299910E+01  0.60164802336E+01 -0.29907847883E+02  0.30585771397E+02  0.00000000000E+00 0. -1.
</event>
<event>
 7    1  0.4430431E-010  0.4778728E+02  0.7816164E-02  0.1312668E+00
        -11   -1    0    0    0    0  0.00000000000E+00  0.00000000000E+00  0.45593999997E+02  0.45594000000E+02  0.51100000000E-03 0.  1.
         11   -1    0    0    0    0 -0.00000000000E+00 -0.00000000000E+00 -0.45593999997E+02  0.45594000000E+02  0.51100000000E-03 0. -1.
    9900012    2    1    2    0    0 -0.75354686320E+00  0.23169663639E+02 -0.36690893589E+02  0.47787276292E+02  0.20000023925E+02 0.  0.
        -12    1    1    2    0    0  0.75354686320E+00 -0.23169663639E+02  0.36690893589E+02  0.43400723708E+02  0.00000000000E+00 0.  1.
         11    1    3    3    0    0 -0.33855157967E+01  0.85067136965E+01 -0.21510316163E+01  0.94049365973E+01  0.51100000000E-03 0. -1.
        -11    1    3    3    0    0 -0.41267171912E+00  0.89026263792E+01 -0.12178825879E+02  0.15091416582E+02  0.51100000000E-03 0.  1.
         12    1    3    3    0    0  0.30446406527E+01  0.57603235635E+01 -0.22361036094E+02  0.23290923113E+02  0.00000000000E+00 0. -1.
</event>
<event>
 7    1  0.4430431E-010  0.4778727E+02  0.7816164E-02  0.1312668E+00
        -11   -1    0    0    0    0  0.00000000000E+00  0.00000000000E+00  0.45593999997E+02  0.45594000000E+02  0.51100000000E-03 0. -1.
         11   -1    0    0    0    0 -0.00000000000E+00 -0.00000000000E+00 -0.45593999997E+02  0.45594000000E+02  0.51100000000E-03 0.  1.
    9900012    2    1    2    0    0 -0.26523316650E+02 -0.31895262478E+02 -0.12760462331E+02  0.47787268514E+02  0.19999988462E+02 0.  0.
        -12    1    1    2    0    0  0.26523316650E+02  0.31895262478E+02  0.12760462331E+02  0.43400731486E+02  0.00000000000E+00 0.  1.
         11    1    3    3    0    0 -0.14625176577E+02 -0.14190666052E+02 -0.10950554988E+02  0.23134075467E+02  0.51100000000E-03 0. -1.
        -11    1    3    3    0    0 -0.10522815742E+02 -0.51507303649E+01 -0.25953545192E+01  0.11999814156E+02  0.51100000000E-03 0.  1.
        -12    1    3    3    0    0 -0.13753243305E+01 -0.12553866061E+02  0.78544717601E+00  0.12653378891E+02  0.00000000000E+00 0.  1.
</event>
<event>
 7    1  0.4430431E-010  0.4778726E+02  0.7816164E-02  0.1312668E+00
        -11   -1    0    0    0    0  0.00000000000E+00  0.00000000000E+00  0.45593999997E+02  0.45594000000E+02  0.51100000000E-03 0.  1.
         11   -1    0    0    0    0 -0.00000000000E+00 -0.00000000000E+00 -0.45593999997E+02  0.45594000000E+02  0.51100000000E-03 0. -1.
    9900012    2    1    2    0    0 -0.15847367636E+02  0.13647003453E+02 -0.38029515484E+02  0.47787264843E+02  0.19999971724E+02 0.  0.
        -12    1    1    2    0    0  0.15847367636E+02 -0.13647003453E+02  0.38029515484E+02  0.43400735157E+02  0.00000000000E+00 0.  1.
         11    1    3    3    0    0 -0.23117036703E+01  0.24290332353E+01 -0.72388307862E+01  0.79777721031E+01  0.51100000000E-03 0. -1.
        -11    1    3    3    0    0  0.11454908309E+01  0.10449341544E+02 -0.13628542548E+02  0.17211567628E+02  0.51100000000E-03 0.  1.
         12    1    3    3    0    0 -0.14681154797E+02  0.76862867358E+00 -0.17162142150E+02  0.22597925112E+02  0.00000000000E+00 0. -1.
</event>
<event>
 7    1  0.4430431E-010  0.4778728E+02  0.7816164E-02  0.1312668E+00
        -11   -1    0    0    0    0  0.00000000000E+00  0.00000000000E+00  0.45593999997E+02  0.45594000000E+02  0.51100000000E-03 0.  1.
         11   -1    0    0    0    0 -0.00000000000E+00 -0.00000000000E+00 -0.45593999997E+02  0.45594000000E+02  0.51100000000E-03 0. -1.
    9900012    2    1    2    0    0 -0.11631350732E+02  0.19854288562E+01 -0.41765925792E+02  0.47787276448E+02  0.20000024635E+02 0.  0.
        -12    1    1    2    0    0  0.11631350732E+02 -0.19854288562E+01  0.41765925792E+02  0.43400723552E+02  0.00000000000E+00 0.  1.
         11    1    3    3    0    0 -0.70853727054E+01  0.11092584105E+01 -0.52209399256E+01  0.88708046176E+01  0.51100000000E-03 0. -1.
        -11    1    3    3    0    0 -0.31678025505E-01 -0.33547224764E+01 -0.21844909597E+01  0.40033944853E+01  0.51100000000E-03 0.  1.
         12    1    3    3    0    0 -0.45143000008E+01  0.42308929221E+01 -0.34360494907E+02  0.34913077345E+02  0.00000000000E+00 0. -1.
</event>
<event>
 7    1  0.4430431E-010  0.4778727E+02  0.7816164E-02  0.1312668E+00
        -11   -1    0    0    0    0  0.00000000000E+00  0.00000000000E+00  0.45593999997E+02  0.45594000000E+02  0.51100000000E-03 0.  1.
         11   -1    0    0    0    0 -0.00000000000E+00 -0.00000000000E+00 -0.45593999997E+02  0.45594000000E+02  0.51100000000E-03 0. -1.
    9900012    2    1    2    0    0  0.51463431537E+01  0.13831824367E+01 -0.43072327160E+02  0.47787269494E+02  0.19999992930E+02 0.  0.
        -12    1    1    2    0    0 -0.51463431537E+01 -0.13831824367E+01  0.43072327160E+02  0.43400730506E+02  0.00000000000E+00 0.  1.
         11    1    3    3    0    0  0.25647846102E+01 -0.26069506195E+01 -0.18117604307E+02  0.18483016467E+02  0.51100000000E-03 0. -1.
        -11    1    3    3    0    0 -0.50056329108E-01 -0.53700035796E+01 -0.63856149834E+01  0.83435917361E+01  0.51100000000E-03 0.  1.
         12    1    3    3    0    0  0.26316148726E+01  0.93601366358E+01 -0.18569107869E+02  0.20960661291E+02  0.00000000000E+00 0. -1.
</event>
<event>
 7    1  0.4430431E-010  0.4778727E+02  0.7816164E-02  0.1312668E+00
        -11   -1    0    0    0    0  0.00000000000E+00  0.00000000000E+00  0.45593999997E+02  0.45594000000E+02  0.51100000000E-03 0.  1.
         11   -1    0    0    0    0 -0.00000000000E+00 -0.00000000000E+00 -0.45593999997E+02  0.45594000000E+02  0.51100000000E-03 0. -1.
    9900012    2    1    2    0    0 -0.13110546654E+02 -0.10451729451E+02 -0.40031213976E+02  0.47787272190E+02  0.20000005221E+02 0.  0.
        -12    1    1    2    0    0  0.13110546654E+02  0.10451729451E+02  0.40031213976E+02  0.43400727810E+02  0.00000000000E+00 0.  1.
         11    1    3    3    0    0 -0.16895293688E+01 -0.56346975366E+01 -0.18033015345E+02  0.18968235778E+02  0.51100000000E-03 0. -1.
        -11    1    3    3    0    0 -0.73130862404E+01 -0.52099263020E+01 -0.22897835203E+02  0.24595434936E+02  0.51100000000E-03 0.  1.
        -12    1    3    3    0    0 -0.41079310451E+01  0.39289438723E+00  0.89963657214E+00  0.42236014765E+01  0.00000000000E+00 0.  1.
</event>
<event>
 7    1  0.4430431E-010  0.4778727E+02  0.7816164E-02  0.1312668E+00
        -11   -1    0    0    0    0  0.00000000000E+00  0.00000000000E+00  0.45593999997E+02  0.45594000000E+02  0.51100000000E-03 0.  1.
         11   -1    0    0    0    0 -0.00000000000E+00 -0.00000000000E+00 -0.45593999997E+02  0.45594000000E+02  0.51100000000E-03 0. -1.
    9900012    2    1    2    0    0 -0.15354442147E+02 -0.89482404465E+01 -0.39595373935E+02  0.47787268004E+02  0.19999986136E+02 0.  0.
        -12    1    1    2    0    0  0.15354442147E+02  0.89482404465E+01  0.39595373935E+02  0.43400731996E+02  0.00000000000E+00 0.  1.
         11    1    3    3    0    0  0.13302060295E+01  0.12453905603E+01  0.20720937827E+00  0.18339524847E+01  0.51100000000E-03 0. -1.
        -11    1    3    3    0    0  0.11173570280E+01 -0.39197484498E+01 -0.77300147638E+01  0.87387666834E+01  0.51100000000E-03 0.  1.
         12    1    3    3    0    0 -0.17802005205E+02 -0.62738825570E+01 -0.32072568550E+02  0.37214548836E+02  0.00000000000E+00 0. -1.
</event>
<event>
 7    1  0.4430431E-010  0.4778728E+02  0.7816164E-02  0.1312668E+00
        -11   -1    0    0    0    0  0.00000000000E+00  0.00000000000E+00  0.45593999997E+02  0.45594000000E+02  0.51100000000E-03 0.  1.
         11   -1    0    0    0    0 -0.00000000000E+00 -0.00000000000E+00 -0.45593999997E+02  0.45594000000E+02  0.51100000000E-03 0. -1.
    9900012    2    1    2    0    0 -0.19297012685E+02  0.22914375103E+02 -0.31403495128E+02  0.47787276605E+02  0.20000025353E+02 0.  0.
        -12    1    1    2    0    0  0.19297012685E+02 -0.22914375103E+02  0.31403495128E+02  0.43400723395E+02  0.00000000000E+00 0.  1.
         11    1    3    3    0    0 -0.79836408524E+01  0.14851878312E+02 -0.27834961890E+02  0.32543846029E+02  0.51100000000E-03 0. -1.
        -11    1    3    3    0    0 -0.91331649570E+01  0.40996350775E+01 -0.38158818765E+01  0.10713667190E+02  0.51100000000E-03 0.  1.
        -12    1    3    3    0    0 -0.21802068756E+01  0.39628617140E+01  0.24734863890E+00  0.45297633861E+01  0.00000000000E+00 0.  1.
</event>
<event>
 7    1  0.4430431E-010  0.4778727E+02  0.7816164E-02  0.1312668E+00
        -11   -1    0    0    0    0  0.00000000000E+00  0.00000000000E+00  0.45593999997E+02  0.45594000000E+02  0.51100000000E-03 0.  1.
         11   -1    0    0    0    0 -0.00000000000E+00 -0.00000000000E+00 -0.45593999997E+02  0.45594000000E+02  0.51100000000E-03 0. -1.
    9900012    2    1    2    0    0 -0.35949490097E+02  0.11945744791E+02 -0.21179154617E+02  0.47787271353E+02  0.20000001407E+02 0.  0.
        -12    1    1    2    0    0  0.35949490097E+02 -0.11945744791E+02  0.21179154617E+02  0.43400728647E+02  0.00000000000E+00 0.  1.
         11    1    3    3    0    0 -0.10101365486E+02  0.60021597411E+01 -0.82367632014E+01  0.14349486908E+02  0.51100000000E-03 0. -1.
        -11    1    3    3    0    0 -0.11404379561E+02  0.77686049809E+01 -0.12884433477E+02  0.18879081620E+02  0.51100000000E-03 0.  1.
         12    1    3    3    0    0 -0.14443745050E+02 -0.18250199308E+01 -0.57957938012E-01  0.14558702825E+02  0.00000000000E+00 0. -1.
</event>
<event>
 7    1  0.5300368E-010  0.4778727E+02  0.7816164E-02  0.1312668E+00
        -11   -1    0    0    0    0  0.00000000000E+00  0.00000000000E+00  0.45593999997E+02  0.45594000000E+02  0.51100000000E-03 0. -1.
         11   -1    0    0    0    0 -0.00000000000E+00 -0.00000000000E+00 -0.45593999997E+02  0.45594000000E+02  0.51100000000E-03 0.  1.
    9900012    2    1    2    0    0  0.15019951825E+02  0.16589344111E+02  0.37186262276E+02  0.47787269673E+02  0.19999993747E+02 0.  0.
        -12    1    1    2    0    0 -0.15019951825E+02 -0.16589344111E+02 -0.37186262276E+02  0.43400730327E+02  0.00000000000E+00 0.  1.
         11    1    3    3    0    0 -0.21788438314E+01  0.31600005805E-01  0.56060823244E+01  0.60146918700E+01  0.51100000000E-03 0. -1.
        -11    1    3    3    0    0 -0.11045297761E+00  0.23931648578E+01 -0.70465301633E+00  0.24971932307E+01  0.51100000000E-03 0.  1.
         12    1    3    3    0    0  0.17309248634E+02  0.14164579248E+02  0.32284832968E+02  0.39275384572E+02  0.00000000000E+00 0. -1.
</event>
<event>
 7    1  0.4430431E-010  0.4778727E+02  0.7816164E-02  0.1312668E+00
        -11   -1    0    0    0    0  0.00000000000E+00  0.00000000000E+00  0.45593999997E+02  0.45594000000E+02  0.51100000000E-03 0. -1.
         11   -1    0    0    0    0 -0.00000000000E+00 -0.00000000000E+00 -0.45593999997E+02  0.45594000000E+02  0.51100000000E-03 0.  1.
    9900012    2    1    2    0    0  0.59536416801E+01 -0.42514272202E+02  0.63807855843E+01  0.47787267116E+02  0.19999982091E+02 0.  0.
        -12    1    1    2    0    0 -0.59536416801E+01  0.42514272202E+02 -0.63807855843E+01  0.43400732884E+02  0.00000000000E+00 0.  1.
         11    1    3    3    0    0 -0.64061389058E+00 -0.62034423877E+01  0.32556926256E+01  0.70350990290E+01  0.51100000000E-03 0. -1.
        -11    1    3    3    0    0 -0.45131819498E+01 -0.65743436579E+01  0.41555776462E+01  0.89921983785E+01  0.51100000000E-03 0.  1.
         12    1    3    3    0    0  0.11107437520E+02 -0.29736486157E+02 -0.10304846875E+01  0.31759969709E+02  0.00000000000E+00 0. -1.
</event>
<event>
 7    1  0.4430431E-010  0.4778727E+02  0.7816164E-02  0.1312668E+00
        -11   -1    0    0    0    0  0.00000000000E+00  0.00000000000E+00  0.45593999997E+02  0.45594000000E+02  0.51100000000E-03 0. -1.
         11   -1    0    0    0    0 -0.00000000000E+00 -0.00000000000E+00 -0.45593999997E+02  0.45594000000E+02  0.51100000000E-03 0.  1.
    9900012    2    1    2    0    0 -0.41528145571E+02  0.73727388141E+00  0.12589387954E+02  0.47787272628E+02  0.20000007222E+02 0.  0.
        -12    1    1    2    0    0  0.41528145571E+02 -0.73727388141E+00 -0.12589387954E+02  0.43400727372E+02  0.00000000000E+00 0.  1.
         11    1    3    3    0    0 -0.57184328914E+01  0.15198443314E+01  0.62726983413E+01  0.86230589855E+01  0.51100000000E-03 0. -1.
        -11    1    3    3    0    0 -0.32446165966E+01 -0.10046955668E+01 -0.37677004497E+01  0.50727228370E+01  0.51100000000E-03 0.  1.
         12    1    3    3    0    0 -0.32565096083E+02  0.22212511678E+00  0.10084390063E+02  0.34091490806E+02  0.00000000000E+00 0. -1.
</event>
<event>
 7    1  0.4430431E-010  0.4778727E+02  0.7816164E-02  0.1312668E+00
        -11   -1    0    0    0    0  0.00000000000E+00  0.00000000000E+00  0.45593999997E+02  0.45594000000E+02  0.51100000000E-03 0.  1.
         11   -1    0    0    0    0 -0.00000000000E+00 -0.00000000000E+00 -0.45593999997E+02  0.45594000000E+02  0.51100000000E-03 0. -1.
    9900012    2    1    2    0    0  0.43188967871E+02  0.14422442306E+01 -0.40319235192E+01  0.47787269344E+02  0.19999992249E+02 0.  0.
        -12    1    1    2    0    0 -0.43188967871E+02 -0.14422442306E+01  0.40319235192E+01  0.43400730656E+02  0.00000000000E+00 0.  1.
         11    1    3    3    0    0  0.11790559471E+02  0.44346001047E+01 -0.56458441722E+01  0.13804293803E+02  0.51100000000E-03 0.  1.
        -11    1    3    3    0    0  0.23589279623E+02 -0.28667482854E+01 -0.43480122173E+01  0.24157350214E+02  0.51100000000E-03 0. -1.
        -12    1    3    3    0    0  0.78091287772E+01 -0.12560758879E+00  0.59619328703E+01  0.98256253274E+01  0.00000000000E+00 0.  1.
</event>
<event>
 7    1  0.4430431E-010  0.4778727E+02  0.7816164E-02  0.1312668E+00
        -11   -1    0    0    0    0  0.00000000000E+00  0.00000000000E+00  0.45593999997E+02  0.45594000000E+02  0.51100000000E-03 0.  1.
         11   -1    0    0    0    0 -0.00000000000E+00 -0.00000000000E+00 -0.45593999997E+02  0.45594000000E+02  0.51100000000E-03 0. -1.
    9900012    2    1    2    0    0  0.23842661733E+02 -0.78131745657E+01 -0.35413345758E+02  0.47787271054E+02  0.20000000043E+02 0.  0.
        -12    1    1    2    0    0 -0.23842661733E+02  0.78131745657E+01  0.35413345758E+02  0.43400728946E+02  0.00000000000E+00 0.  1.
         11    1    3    3    0    0  0.19719677030E+02 -0.59249555498E+01 -0.15841475330E+02  0.25979282156E+02  0.51100000000E-03 0. -1.
        -11    1    3    3    0    0  0.21665215905E+01  0.25653955735E+01 -0.28864155520E+01  0.44279188396E+01  0.51100000000E-03 0.  1.
         12    1    3    3    0    0  0.19564631121E+01 -0.44536145893E+01 -0.16685454875E+02  0.17380070058E+02  0.00000000000E+00 0. -1.
</event>
<event>
 7    1  0.4430431E-010  0.4778728E+02  0.7816164E-02  0.1312668E+00
        -11   -1    0    0    0    0  0.00000000000E+00  0.00000000000E+00  0.45593999997E+02  0.45594000000E+02  0.51100000000E-03 0.  1.
         11   -1    0    0    0    0 -0.00000000000E+00 -0.00000000000E+00 -0.45593999997E+02  0.45594000000E+02  0.51100000000E-03 0. -1.
    9900012    2    1    2    0    0  0.67914171643E+01 -0.37520515312E+02 -0.20729455368E+02  0.47787277238E+02  0.20000028240E+02 0.  0.
        -12    1    1    2    0    0 -0.67914171643E+01  0.37520515312E+02  0.20729455368E+02  0.43400722762E+02  0.00000000000E+00 0.  1.
         11    1    3    3    0    0  0.42912160885E+01 -0.14724590955E+02 -0.16845001693E+02  0.22781180755E+02  0.51100000000E-03 0. -1.
        -11    1    3    3    0    0  0.33148512786E+01 -0.21131441174E+01  0.75758647907E-01  0.39318388439E+01  0.51100000000E-03 0.  1.
        -12    1    3    3    0    0 -0.81465020292E+00 -0.20682780239E+02 -0.39602123230E+01  0.21074257639E+02  0.00000000000E+00 0.  1.
</event>
<event>
 7    1  0.4430431E-010  0.4778727E+02  0.7816164E-02  0.1312668E+00
        -11   -1    0    0    0    0  0.00000000000E+00  0.00000000000E+00  0.45593999997E+02  0.45594000000E+02  0.51100000000E-03 0. -1.
         11   -1    0    0    0    0 -0.00000000000E+00 -0.00000000000E+00 -0.45593999997E+02  0.45594000000E+02  0.51100000000E-03 0.  1.
    9900012    2    1    2    0    0 -0.20048740381E+02  0.37859890820E+02  0.69497986326E+01  0.47787273914E+02  0.20000013083E+02 0.  0.
        -12    1    1    2    0    0  0.20048740381E+02 -0.37859890820E+02 -0.69497986326E+01  0.43400726086E+02  0.00000000000E+00 0.  1.
         11    1    3    3    0    0 -0.51630642384E+01  0.59250142289E+01  0.53676269498E+01  0.95170607477E+01  0.51100000000E-03 0. -1.
        -11    1    3    3    0    0  0.28723578153E+01  0.60179929598E+01  0.15807649270E+01  0.68531377265E+01  0.51100000000E-03 0.  1.
        -12    1    3    3    0    0 -0.17758033958E+02  0.25916883631E+02  0.14067558420E-02  0.31417075440E+02  0.00000000000E+00 0.  1.
</event>
<event>
 7    1  0.4430431E-010  0.4778727E+02  0.7816164E-02  0.1312668E+00
        -11   -1    0    0    0    0  0.00000000000E+00  0.00000000000E+00  0.45593999997E+02  0.45594000000E+02  0.51100000000E-03 0.  1.
         11   -1    0    0    0    0 -0.00000000000E+00 -0.00000000000E+00 -0.45593999997E+02  0.45594000000E+02  0.51100000000E-03 0. -1.
    9900012    2    1    2    0    0 -0.15030850285E+02 -0.30855835813E+02 -0.26563396364E+02  0.47787273158E+02  0.20000009638E+02 0.  0.
        -12    1    1    2    0    0  0.15030850285E+02  0.30855835813E+02  0.26563396364E+02  0.43400726842E+02  0.00000000000E+00 0.  1.
         11    1    3    3    0    0 -0.44773723602E+01 -0.15531345444E+02 -0.15168829487E+02  0.22166707983E+02  0.51100000000E-03 0. -1.
        -11    1    3    3    0    0 -0.38856044924E+01 -0.13433189360E+02 -0.22774908769E+01  0.14168114328E+02  0.51100000000E-03 0.  1.
         12    1    3    3    0    0 -0.66678734324E+01 -0.18913010091E+01 -0.91170760003E+01  0.11452450847E+02  0.00000000000E+00 0. -1.
</event>
<event>
 7    1  0.4430431E-010  0.4778727E+02  0.7816164E-02  0.1312668E+00
        -11   -1    0    0    0    0  0.00000000000E+00  0.00000000000E+00  0.45593999997E+02  0.45594000000E+02  0.51100000000E-03 0.  1.
         11   -1    0    0    0    0 -0.00000000000E+00 -0.00000000000E+00 -0.45593999997E+02  0.45594000000E+02  0.51100000000E-03 0. -1.
    9900012    2    1    2    0    0  0.38854532806E+02 -0.12424215535E+02 -0.14818481109E+02  0.47787271508E+02  0.20000002113E+02 0.  0.
        -12    1    1    2    0    0 -0.38854532806E+02  0.12424215535E+02  0.14818481109E+02  0.43400728492E+02  0.00000000000E+00 0.  1.
         11    1    3    3    0    0  0.12087609642E+02 -0.44172658309E+01 -0.10717321677E+02  0.16747642475E+02  0.51100000000E-03 0. -1.
        -11    1    3    3    0    0 -0.77859603520E+00  0.12635497850E+01  0.59496946555E+00  0.15989867952E+01  0.51100000000E-03 0.  1.
         12    1    3    3    0    0  0.27545519200E+02 -0.92704994890E+01 -0.46961288979E+01  0.29440642238E+02  0.00000000000E+00 0. -1.
</event>
<event>
 7    1  0.4430431E-010  0.4778727E+02  0.7816164E-02  0.1312668E+00
        -11   -1    0    0    0    0  0.00000000000E+00  0.00000000000E+00  0.45593999997E+02  0.45594000000E+02  0.51100000000E-03 0.  1.
         11   -1    0    0    0    0 -0.00000000000E+00 -0.00000000000E+00 -0.45593999997E+02  0.45594000000E+02  0.51100000000E-03 0. -1.
    9900012    2    1    2    0    0 -0.22621590469E+02  0.74560461966E+01 -0.36280769067E+02  0.47787272077E+02  0.20000004706E+02 0.  0.
        -12    1    1    2    0    0  0.22621590469E+02 -0.74560461966E+01  0.36280769067E+02  0.43400727923E+02  0.00000000000E+00 0.  1.
         11    1    3    3    0    0 -0.11701050779E+02  0.35252608760E+00 -0.11357777671E+02  0.16310670675E+02  0.51100000000E-03 0.  1.
        -11    1    3    3    0    0 -0.26278716729E+01 -0.31812922738E+01 -0.13144428788E+02  0.13776876949E+02  0.51100000000E-03 0. -1.
         12    1    3    3    0    0 -0.82926680164E+01  0.10284812383E+02 -0.11778562608E+02  0.17699724452E+02  0.00000000000E+00 0. -1.
</event>
<event>
 7    1  0.4430431E-010  0.4778721E+02  0.7816164E-02  0.1312668E+00
        -11   -1    0    0    0    0  0.00000000000E+00  0.00000000000E+00  0.45593999997E+02  0.45594000000E+02  0.51100000000E-03 0.  1.
         11   -1    0    0    0    0 -0.00000000000E+00 -0.00000000000E+00 -0.45593999997E+02  0.45594000000E+02  0.51100000000E-03 0. -1.
    9900012    2    1    2    0    0 -0.18591928046E+02  0.14955043476E+02 -0.36253485625E+02  0.47787212751E+02  0.19999734216E+02 0.  0.
        -12    1    1    2    0    0  0.18591928046E+02 -0.14955043476E+02  0.36253485625E+02  0.43400787249E+02  0.00000000000E+00 0.  1.
         11    1    3    3    0    0  0.10568238949E+01  0.27671957285E+01 -0.62010850741E+01  0.68722416504E+01  0.51100000000E-03 0. -1.
        -11    1    3    3    0    0 -0.74497562251E+01  0.59092750082E+01 -0.20430350649E+01  0.97258619913E+01  0.51100000000E-03 0.  1.
         12    1    3    3    0    0 -0.12198995716E+02  0.62785727396E+01 -0.28009365486E+02  0.31189109110E+02  0.00000000000E+00 0. -1.
</event>
<event>
 7    1  0.4430431E-010  0.4778730E+02  0.7816164E-02  0.1312668E+00
        -11   -1    0    0    0    0  0.00000000000E+00  0.00000000000E+00  0.45593999997E+02  0.45594000000E+02  0.51100000000E-03 0.  1.
         11   -1    0    0    0    0 -0.00000000000E+00 -0.00000000000E+00 -0.45593999997E+02  0.45594000000E+02  0.51100000000E-03 0. -1.
    9900012    2    1    2    0    0  0.27987850068E+02 -0.31798923559E+02 -0.94408546893E+01  0.47787296916E+02  0.20000117958E+02 0.  0.
        -12    1    1    2    0    0 -0.27987850068E+02  0.31798923559E+02  0.94408546893E+01  0.43400703084E+02  0.00000000000E+00 0.  1.
         11    1    3    3    0    0  0.36720736819E+01 -0.56297003068E+01 -0.71114535036E+01  0.97852144517E+01  0.51100000000E-03 0. -1.
        -11    1    3    3    0    0  0.15513742328E+00 -0.20038334049E+01  0.28009699969E+01  0.34474409523E+01  0.51100000000E-03 0.  1.
         12    1    3    3    0    0  0.24160638962E+02 -0.24165389847E+02 -0.51303711826E+01  0.34554641512E+02  0.00000000000E+00 0. -1.
</event>
<event>
 7    1  0.4430431E-010  0.4778727E+02  0.7816164E-02  0.1312668E+00
        -11   -1    0    0    0    0  0.00000000000E+00  0.00000000000E+00  0.45593999997E+02  0.45594000000E+02  0.51100000000E-03 0.  1.
         11   -1    0    0    0    0 -0.00000000000E+00 -0.00000000000E+00 -0.45593999997E+02  0.45594000000E+02  0.51100000000E-03 0. -1.
    9900012    2    1    2    0    0  0.18345062713E+02  0.26745738513E+02 -0.28840033506E+02  0.47787269739E+02  0.19999994047E+02 0.  0.
        -12    1    1    2    0    0 -0.18345062713E+02 -0.26745738513E+02  0.28840033506E+02  0.43400730261E+02  0.00000000000E+00 0.  1.
         11    1    3    3    0    0  0.18350481003E+01  0.64645858477E+00 -0.71414335986E+01  0.74017149592E+01  0.51100000000E-03 0.  1.
        -11    1    3    3    0    0  0.15275573568E+02  0.11039369937E+02 -0.13601025831E+02  0.23242175896E+02  0.51100000000E-03 0. -1.
         12    1    3    3    0    0  0.12344410451E+01  0.15059909991E+02 -0.80975740770E+01  0.17143378884E+02  0.00000000000E+00 0. -1.
</event>
<event>
 7    1  0.4430431E-010  0.4778727E+02  0.7816164E-02  0.1312668E+00
        -11   -1    0    0    0    0  0.00000000000E+00  0.00000000000E+00  0.45593999997E+02  0.45594000000E+02  0.51100000000E-03 0. -1.
         11   -1    0    0    0    0 -0.00000000000E+00 -0.00000000000E+00 -0.45593999997E+02  0.45594000000E+02  0.51100000000E-03 0.  1.
    9900012    2    1    2    0    0 -0.82754045790E+01 -0.26037068915E+02  0.33722575581E+02  0.47787269793E+02  0.19999994296E+02 0.  0.
        -12    1    1    2    0    0  0.82754045790E+01  0.26037068915E+02 -0.33722575581E+02  0.43400730207E+02  0.00000000000E+00 0.  1.
         11    1    3    3    0    0 -0.54946668070E+01 -0.89074458179E+01  0.18621079748E+02  0.21360678022E+02  0.51100000000E-03 0. -1.
        -11    1    3    3    0    0  0.44263124486E+01 -0.70382475178E+01  0.10032234142E+02  0.13029769459E+02  0.51100000000E-03 0.  1.
        -12    1    3    3    0    0 -0.72070502205E+01 -0.10091375580E+02  0.50692616905E+01  0.13396822312E+02  0.00000000000E+00 0.  1.
</event>
<event>
 7    1  0.4430431E-010  0.4778727E+02  0.7816164E-02  0.1312668E+00
        -11   -1    0    0    0    0  0.00000000000E+00  0.00000000000E+00  0.45593999997E+02  0.45594000000E+02  0.51100000000E-03 0.  1.
         11   -1    0    0    0    0 -0.00000000000E+00 -0.00000000000E+00 -0.45593999997E+02  0.45594000000E+02  0.51100000000E-03 0. -1.
    9900012    2    1    2    0    0 -0.24003356536E+02  0.71398129254E+01 -0.35446936520E+02  0.47787270026E+02  0.19999995356E+02 0.  0.
        -12    1    1    2    0    0  0.24003356536E+02 -0.71398129254E+01  0.35446936520E+02  0.43400729974E+02  0.00000000000E+00 0.  1.
         11    1    3    3    0    0 -0.14312974241E+02  0.57773105456E+01 -0.10514421806E+02  0.18675963561E+02  0.51100000000E-03 0. -1.
        -11    1    3    3    0    0 -0.19012807605E-01  0.27337387795E+00  0.11970700388E+01  0.12280357091E+01  0.51100000000E-03 0.  1.
         12    1    3    3    0    0 -0.96713694879E+01  0.10891285019E+01 -0.26129584753E+02  0.27883270756E+02  0.00000000000E+00 0. -1.
</event>
<event>
 7    1  0.4430431E-010  0.4778727E+02  0.7816164E-02  0.1312668E+00
        -11   -1    0    0    0    0  0.00000000000E+00  0.00000000000E+00  0.45593999997E+02  0.45594000000E+02  0.51100000000E-03 0.  1.
         11   -1    0    0    0    0 -0.00000000000E+00 -0.00000000000E+00 -0.45593999997E+02  0.45594000000E+02  0.51100000000E-03 0. -1.
    9900012    2    1    2    0    0 -0.22895511535E+02 -0.12021371901E+02 -0.34855492407E+02  0.47787272106E+02  0.20000004840E+02 0.  0.
        -12    1    1    2    0    0  0.22895511535E+02  0.12021371901E+02  0.34855492407E+02  0.43400727894E+02  0.00000000000E+00 0.  1.
         11    1    3    3    0    0 -0.60662481924E+01 -0.46865442107E+00 -0.12688119076E+01  0.62152142373E+01  0.51100000000E-03 0. -1.
        -11    1    3    3    0    0 -0.28417553074E+01  0.10875960734E+01  0.15036522122E-01  0.30428054167E+01  0.51100000000E-03 0.  1.
        -12    1    3    3    0    0 -0.13987508035E+02 -0.12640313553E+02 -0.33601717021E+02  0.38529252452E+02  0.00000000000E+00 0.  1.
</event>
<event>
 7    1  0.4430431E-010  0.4778729E+02  0.7816164E-02  0.1312668E+00
        -11   -1    0    0    0    0  0.00000000000E+00  0.00000000000E+00  0.45593999997E+02  0.45594000000E+02  0.51100000000E-03 0. -1.
         11   -1    0    0    0    0 -0.00000000000E+00 -0.00000000000E+00 -0.45593999997E+02  0.45594000000E+02  0.51100000000E-03 0.  1.
    9900012    2    1    2    0    0  0.97878023706E+01 -0.37655822028E+02  0.19231732964E+02  0.47787290782E+02  0.20000089992E+02 0.  0.
        -12    1    1    2    0    0 -0.97878023706E+01  0.37655822028E+02 -0.19231732964E+02  0.43400709218E+02  0.00000000000E+00 0.  1.
         11    1    3    3    0    0  0.42482490058E+01 -0.13073329755E+02  0.83942363343E+01  0.16106606545E+02  0.51100000000E-03 0. -1.
        -11    1    3    3    0    0  0.68567004374E+01 -0.12489626840E+02  0.13044797557E+02  0.19317656769E+02  0.51100000000E-03 0.  1.
         12    1    3    3    0    0 -0.13171470725E+01 -0.12092865433E+02 -0.22073009278E+01  0.12363027468E+02  0.00000000000E+00 0. -1.
</event>
<event>
 7    1  0.4430431E-010  0.4778727E+02  0.7816164E-02  0.1312668E+00
        -11   -1    0    0    0    0  0.00000000000E+00  0.00000000000E+00  0.45593999997E+02  0.45594000000E+02  0.51100000000E-03 0. -1.
         11   -1    0    0    0    0 -0.00000000000E+00 -0.00000000000E+00 -0.45593999997E+02  0.45594000000E+02  0.51100000000E-03 0.  1.
    9900012    2    1    2    0    0 -0.16570594230E+02  0.37716894319E+02  0.13655559800E+02  0.47787273927E+02  0.20000013145E+02 0.  0.
        -12    1    1    2    0    0  0.16570594230E+02 -0.37716894319E+02 -0.13655559800E+02  0.43400726073E+02  0.00000000000E+00 0.  1.
         11    1    3    3    0    0 -0.16058849707E+02  0.35148182992E+02  0.15590869431E+02  0.41669612807E+02  0.51100000000E-03 0. -1.
        -11    1    3    3    0    0 -0.20399011695E+01  0.16919019982E+00  0.77474661027E+00  0.21886193539E+01  0.51100000000E-03 0.  1.
         12    1    3    3    0    0  0.15281566467E+01  0.23995211266E+01 -0.27100562416E+01  0.39290417670E+01  0.00000000000E+00 0. -1.
</event>
<event>
 7    1  0.4430431E-010  0.4778727E+02  0.7816164E-02  0.1312668E+00
        -11   -1    0    0    0    0  0.00000000000E+00  0.00000000000E+00  0.45593999997E+02  0.45594000000E+02  0.51100000000E-03 0.  1.
         11   -1    0    0    0    0 -0.00000000000E+00 -0.00000000000E+00 -0.45593999997E+02  0.45594000000E+02  0.51100000000E-03 0. -1.
    9900012    2    1    2    0    0  0.44529882043E+01  0.40727958332E+02 -0.14318773661E+02  0.47787274510E+02  0.20000015803E+02 0.  0.
        -12    1    1    2    0    0 -0.44529882043E+01 -0.40727958332E+02  0.14318773661E+02  0.43400725490E+02  0.00000000000E+00 0.  1.
         11    1    3    3    0    0 -0.22746692273E+01  0.18683078839E+00  0.11934670462E+01  0.25755367768E+01  0.51100000000E-03 0. -1.
        -11    1    3    3    0    0 -0.29074218336E+01  0.11580361585E+02 -0.40194825688E+01  0.12598179096E+02  0.51100000000E-03 0.  1.
         12    1    3    3    0    0  0.96350792652E+01  0.28960765959E+02 -0.11492758138E+02  0.32613558637E+02  0.00000000000E+00 0. -1.
</event>
<event>
 7    1  0.4430431E-010  0.4778727E+02  0.7816164E-02  0.1312668E+00
        -11   -1    0    0    0    0  0.00000000000E+00  0.00000000000E+00  0.45593999997E+02  0.45594000000E+02  0.51100000000E-03 0.  1.
         11   -1    0    0    0    0 -0.00000000000E+00 -0.00000000000E+00 -0.45593999997E+02  0.45594000000E+02  0.51100000000E-03 0. -1.
    9900012    2    1    2    0    0  0.41111524654E+02  0.29780051929E+01 -0.13586656308E+02  0.47787271850E+02  0.20000003672E+02 0.  0.
        -12    1    1    2    0    0 -0.41111524654E+02 -0.29780051929E+01  0.13586656308E+02  0.43400728150E+02  0.00000000000E+00 0.  1.
         11    1    3    3    0    0  0.24236826066E+02 -0.55704954466E+00 -0.40462598726E+01  0.24578573212E+02  0.51100000000E-03 0. -1.
        -11    1    3    3    0    0  0.10145782979E+02 -0.18682369919E+01 -0.10258969651E+02  0.14549009598E+02  0.51100000000E-03 0.  1.
         12    1    3    3    0    0  0.67289156098E+01  0.54032917295E+01  0.71857321569E+00  0.86596890397E+01  0.00000000000E+00 0. -1.
</event>
<event>
 7    1  0.4430431E-010  0.4778728E+02  0.7816164E-02  0.1312668E+00
        -11   -1    0    0    0    0  0.00000000000E+00  0.00000000000E+00  0.45593999997E+02  0.45594000000E+02  0.51100000000E-03 0.  1.
         11   -1    0    0    0    0 -0.00000000000E+00 -0.00000000000E+00 -0.45593999997E+02  0.45594000000E+02  0.51100000000E-03 0. -1.
    9900012    2    1    2    0    0 -0.74593170492E+01  0.15630078051E+02 -0.39795494490E+02  0.47787284194E+02  0.20000059954E+02 0.  0.
        -12    1    1    2    0    0  0.74593170492E+01 -0.15630078051E+02  0.39795494490E+02  0.43400715806E+02  0.00000000000E+00 0.  1.
         11    1    3    3    0    0 -0.30437140864E+01  0.56293488485E+01 -0.44495169397E+01  0.77943546978E+01  0.51100000000E-03 0. -1.
        -11    1    3    3    0    0  0.35449387478E+01  0.79368292412E+01 -0.95305466434E+01  0.12899270084E+02  0.51100000000E-03 0.  1.
         12    1    3    3    0    0 -0.79605417106E+01  0.20638999617E+01 -0.25815430907E+02  0.27093659412E+02  0.00000000000E+00 0. -1.
</event>
<event>
 7    1  0.4430431E-010  0.4778727E+02  0.7816164E-02  0.1312668E+00
        -11   -1    0    0    0    0  0.00000000000E+00  0.00000000000E+00  0.45593999997E+02  0.45594000000E+02  0.51100000000E-03 0.  1.
         11   -1    0    0    0    0 -0.00000000000E+00 -0.00000000000E+00 -0.45593999997E+02  0.45594000000E+02  0.51100000000E-03 0. -1.
    9900012    2    1    2    0    0 -0.16142892285E+01 -0.41576371543E+02 -0.12345958450E+02  0.47787270854E+02  0.19999999131E+02 0.  0.
        -12    1    1    2    0    0  0.16142892285E+01  0.41576371543E+02  0.12345958450E+02  0.43400729146E+02  0.00000000000E+00 0.  1.
         11    1    3    3    0    0 -0.76075791227E+00 -0.10401344866E+02 -0.65025413693E+01  0.12290230761E+02  0.51100000000E-03 0. -1.
        -11    1    3    3    0    0 -0.53531478902E+01 -0.40047666827E+01  0.17852985430E+01  0.69196560367E+01  0.51100000000E-03 0.  1.
         12    1    3    3    0    0  0.44996165739E+01 -0.27170259994E+02 -0.76287156237E+01  0.28577384056E+02  0.00000000000E+00 0. -1.
</event>
<event>
 7    1  0.4430431E-010  0.4778726E+02  0.7816164E-02  0.1312668E+00
        -11   -1    0    0    0    0  0.00000000000E+00  0.00000000000E+00  0.45593999997E+02  0.45594000000E+02  0.51100000000E-03 0.  1.
         11   -1    0    0    0    0 -0.00000000000E+00 -0.00000000000E+00 -0.45593999997E+02  0.45594000000E+02  0.51100000000E-03 0. -1.
    9900012    2    1    2    0    0  0.36191177538E+02  0.16046691839E+01 -0.23900786313E+02  0.47787264048E+02  0.19999968103E+02 0.  0.
        -12    1    1    2    0    0 -0.36191177538E+02 -0.16046691839E+01  0.23900786313E+02  0.43400735952E+02  0.00000000000E+00 0.  1.
         11    1    3    3    0    0 -0.67582828933E+00  0.18126901481E+01 -0.11324463503E+01  0.22416566300E+01  0.51100000000E-03 0. -1.
        -11    1    3    3    0    0  0.27262973521E+01  0.40885961117E+01 -0.17095969899E+01  0.52030796213E+01  0.51100000000E-03 0.  1.
         12    1    3    3    0    0  0.34140708475E+02 -0.42966170758E+01 -0.21058742972E+02  0.40342527797E+02  0.00000000000E+00 0. -1.
</event>
<event>
 7    1  0.4430431E-010  0.4778727E+02  0.7816164E-02  0.1312668E+00
        -11   -1    0    0    0    0  0.00000000000E+00  0.00000000000E+00  0.45593999997E+02  0.45594000000E+02  0.51100000000E-03 0. -1.
         11   -1    0    0    0    0 -0.00000000000E+00 -0.00000000000E+00 -0.45593999997E+02  0.45594000000E+02  0.51100000000E-03 0.  1.
    9900012    2    1    2    0    0 -0.16430136187E+02  0.26749669663E+01  0.40081398383E+02  0.47787270516E+02  0.19999997591E+02 0.  0.
        -12    1    1    2    0    0  0.16430136187E+02 -0.26749669663E+01 -0.40081398383E+02  0.43400729484E+02  0.00000000000E+00 0.  1.
         11    1    3    3    0    0 -0.81236956624E+00 -0.31493075652E+01  0.14608581503E+02  0.14966253246E+02  0.51100000000E-03 0. -1.
        -11    1    3    3    0    0 -0.10047338072E+01 -0.16085564436E+01 -0.62839777267E+00  0.19979559248E+01  0.51100000000E-03 0.  1.
         12    1    3    3    0    0 -0.14613032813E+02  0.74328309751E+01  0.26101214653E+02  0.30823061345E+02  0.00000000000E+00 0. -1.
</event>
<event>
 7    1  0.4430431E-010  0.4778727E+02  0.7816164E-02  0.1312668E+00
        -11   -1    0    0    0    0  0.00000000000E+00  0.00000000000E+00  0.45593999997E+02  0.45594000000E+02  0.51100000000E-03 0.  1.
         11   -1    0    0    0    0 -0.00000000000E+00 -0.00000000000E+00 -0.45593999997E+02  0.45594000000E+02  0.51100000000E-03 0. -1.
    9900012    2    1    2    0    0  0.13742706708E+02 -0.36923987302E+02  0.18203864328E+02  0.47787268411E+02  0.19999987995E+02 0.  0.
        -12    1    1    2    0    0 -0.13742706708E+02  0.36923987302E+02 -0.18203864328E+02  0.43400731589E+02  0.00000000000E+00 0.  1.
         11    1    3    3    0    0  0.13080868026E+02 -0.28194374645E+02  0.10612267293E+02  0.32842839209E+02  0.51100000000E-03 0. -1.
        -11    1    3    3    0    0  0.33433715444E+01 -0.81436975126E+01  0.83113013762E+01  0.12106844068E+02  0.51100000000E-03 0.  1.
         12    1    3    3    0    0 -0.26815328633E+01 -0.58591514447E+00 -0.71970434147E+00  0.28375851340E+01  0.00000000000E+00 0. -1.
</event>
<event>
 7    1  0.4430431E-010  0.4778727E+02  0.7816164E-02  0.1312668E+00
        -11   -1    0    0    0    0  0.00000000000E+00  0.00000000000E+00  0.45593999997E+02  0.45594000000E+02  0.51100000000E-03 0. -1.
         11   -1    0    0    0    0 -0.00000000000E+00 -0.00000000000E+00 -0.45593999997E+02  0.45594000000E+02  0.51100000000E-03 0.  1.
    9900012    2    1    2    0    0 -0.29137935981E+02  0.31970951516E+02  0.35301639135E+01  0.47787272917E+02  0.20000008538E+02 0.  0.
        -12    1    1    2    0    0  0.29137935981E+02 -0.31970951516E+02 -0.35301639135E+01  0.43400727083E+02  0.00000000000E+00 0.  1.
         11    1    3    3    0    0 -0.30486203178E+01  0.68314961216E+01  0.59223931382E+01  0.95413922383E+01  0.51100000000E-03 0. -1.
        -11    1    3    3    0    0 -0.34564557070E+01 -0.39890255852E+00 -0.22088046072E+01  0.41212895263E+01  0.51100000000E-03 0.  1.
        -12    1    3    3    0    0 -0.22632859956E+02  0.25538357953E+02 -0.18342461754E+00  0.34124591152E+02  0.00000000000E+00 0.  1.
</event>
<event>
 7    1  0.4430431E-010  0.4778727E+02  0.7816164E-02  0.1312668E+00
        -11   -1    0    0    0    0  0.00000000000E+00  0.00000000000E+00  0.45593999997E+02  0.45594000000E+02  0.51100000000E-03 0.  1.
         11   -1    0    0    0    0 -0.00000000000E+00 -0.00000000000E+00 -0.45593999997E+02  0.45594000000E+02  0.51100000000E-03 0. -1.
    9900012    2    1    2    0    0  0.27221043572E+02 -0.32748434685E+02 -0.83772369584E+01  0.47787270899E+02  0.19999999338E+02 0.  0.
        -12    1    1    2    0    0 -0.27221043572E+02  0.32748434685E+02  0.83772369584E+01  0.43400729101E+02  0.00000000000E+00 0.  1.
         11    1    3    3    0    0  0.10670384328E+01  0.10801323363E+01  0.18567361172E+01  0.23984841361E+01  0.51100000000E-03 0. -1.
        -11    1    3    3    0    0  0.13811291526E+01 -0.68397035617E+01 -0.45134221292E+01  0.83102371882E+01  0.51100000000E-03 0.  1.
         12    1    3    3    0    0  0.24772875986E+02 -0.26988863459E+02 -0.57205509464E+01  0.37078549575E+02  0.00000000000E+00 0. -1.
</event>
<event>
 7    1  0.4430431E-010  0.4778727E+02  0.7816164E-02  0.1312668E+00
        -11   -1    0    0    0    0  0.00000000000E+00  0.00000000000E+00  0.45593999997E+02  0.45594000000E+02  0.51100000000E-03 0.  1.
         11   -1    0    0    0    0 -0.00000000000E+00 -0.00000000000E+00 -0.45593999997E+02  0.45594000000E+02  0.51100000000E-03 0. -1.
    9900012    2    1    2    0    0  0.25138527951E+02 -0.21140180961E+01 -0.35315843286E+02  0.47787269049E+02  0.19999990902E+02 0.  0.
        -12    1    1    2    0    0 -0.25138527951E+02  0.21140180961E+01  0.35315843286E+02  0.43400730951E+02  0.00000000000E+00 0.  1.
         11    1    3    3    0    0 -0.82177599923E+00 -0.46782448093E+00  0.29496502331E-01  0.94606862470E+00  0.51100000000E-03 0. -1.
        -11    1    3    3    0    0  0.43818508585E+01 -0.71418472188E+01 -0.81007134803E+01  0.11654533787E+02  0.51100000000E-03 0.  1.
         12    1    3    3    0    0  0.21578453092E+02  0.54956536036E+01 -0.27244626308E+02  0.35186666637E+02  0.00000000000E+00 0. -1.
</event>
<event>
 7    1  0.4430431E-010  0.4778727E+02  0.7816164E-02  0.1312668E+00
        -11   -1    0    0    0    0  0.00000000000E+00  0.00000000000E+00  0.45593999997E+02  0.45594000000E+02  0.51100000000E-03 0.  1.
         11   -1    0    0    0    0 -0.00000000000E+00 -0.00000000000E+00 -0.45593999997E+02  0.45594000000E+02  0.51100000000E-03 0. -1.
    9900012    2    1    2    0    0  0.44465810066E+01 -0.31156860075E+02 -0.29884806181E+02  0.47787266678E+02  0.19999980092E+02 0.  0.
        -12    1    1    2    0    0 -0.44465810066E+01  0.31156860075E+02  0.29884806181E+02  0.43400733322E+02  0.00000000000E+00 0.  1.
         11    1    3    3    0    0  0.10722364773E+01 -0.15041857495E+02 -0.95494149115E+01  0.17849327533E+02  0.51100000000E-03 0. -1.
        -11    1    3    3    0    0  0.75883728895E+01 -0.15246332415E+02 -0.18806836160E+02  0.25371857280E+02  0.51100000000E-03 0.  1.
         12    1    3    3    0    0 -0.42140283601E+01 -0.86867016545E+00 -0.15285551090E+01  0.45660818650E+01  0.00000000000E+00 0. -1.
</event>
<event>
 7    1  0.4430431E-010  0.4778727E+02  0.7816164E-02  0.1312668E+00
        -11   -1    0    0    0    0  0.00000000000E+00  0.00000000000E+00  0.45593999997E+02  0.45594000000E+02  0.51100000000E-03 0.  1.
         11   -1    0    0    0    0 -0.00000000000E+00 -0.00000000000E+00 -0.45593999997E+02  0.45594000000E+02  0.51100000000E-03 0. -1.
    9900012    2    1    2    0    0 -0.24090383062E+02 -0.85322429350E+01 -0.35078170393E+02  0.47787265402E+02  0.19999974273E+02 0.  0.
        -12    1    1    2    0    0  0.24090383062E+02  0.85322429350E+01  0.35078170393E+02  0.43400734598E+02  0.00000000000E+00 0.  1.
         11    1    3    3    0    0  0.13138326479E+01 -0.16065270551E+01 -0.14718455196E+01  0.25442906477E+01  0.51100000000E-03 0. -1.
        -11    1    3    3    0    0 -0.56245181987E+01 -0.81922038388E+01 -0.74214587103E+01  0.12402639169E+02  0.51100000000E-03 0.  1.
         12    1    3    3    0    0 -0.19779697511E+02  0.12664879589E+01 -0.26184866163E+02  0.32840335585E+02  0.00000000000E+00 0. -1.
</event>
<event>
 7    1  0.4430431E-010  0.4778726E+02  0.7816164E-02  0.1312668E+00
        -11   -1    0    0    0    0  0.00000000000E+00  0.00000000000E+00  0.45593999997E+02  0.45594000000E+02  0.51100000000E-03 0.  1.
         11   -1    0    0    0    0 -0.00000000000E+00 -0.00000000000E+00 -0.45593999997E+02  0.45594000000E+02  0.51100000000E-03 0. -1.
    9900012    2    1    2    0    0 -0.39351073299E+01 -0.10463800916E+02 -0.41936234254E+02  0.47787263339E+02  0.19999964870E+02 0.  0.
        -12    1    1    2    0    0  0.39351073299E+01  0.10463800916E+02  0.41936234254E+02  0.43400736661E+02  0.00000000000E+00 0.  1.
         11    1    3    3    0    0 -0.56478167434E+01 -0.42543664267E+01 -0.31417448857E+02  0.32203315988E+02  0.51100000000E-03 0. -1.
        -11    1    3    3    0    0 -0.21585141881E+01 -0.60292158481E+01 -0.28871274971E+01  0.70246802553E+01  0.51100000000E-03 0.  1.
        -12    1    3    3    0    0  0.38712236016E+01 -0.18021864126E+00 -0.76316578993E+01  0.85592670962E+01  0.00000000000E+00 0.  1.
</event>
<event>
 7    1  0.4430431E-010  0.4778727E+02  0.7816164E-02  0.1312668E+00
        -11   -1    0    0    0    0  0.00000000000E+00  0.00000000000E+00  0.45593999997E+02  0.45594000000E+02  0.51100000000E-03 0. -1.
         11   -1    0    0    0    0 -0.00000000000E+00 -0.00000000000E+00 -0.45593999997E+02  0.45594000000E+02  0.51100000000E-03 0.  1.
    9900012    2    1    2    0    0 -0.43339715869E+02  0.17589976575E+01 -0.14827377710E+01  0.47787267798E+02  0.19999985197E+02 0.  0.
        -12    1    1    2    0    0  0.43339715869E+02 -0.17589976575E+01  0.14827377710E+01  0.43400732202E+02  0.00000000000E+00 0.  1.
         11    1    3    3    0    0 -0.16741066664E+02  0.39313742085E+01  0.20446615153E+01  0.17317611186E+02  0.51100000000E-03 0. -1.
        -11    1    3    3    0    0 -0.27885751280E+02 -0.34440954323E+01 -0.21202738000E+01  0.28177517262E+02  0.51100000000E-03 0.  1.
        -12    1    3    3    0    0  0.12871020749E+01  0.12717188812E+01 -0.14071254863E+01  0.22921393496E+01  0.00000000000E+00 0.  1.
</event>
<event>
 7    1  0.4430431E-010  0.4778727E+02  0.7816164E-02  0.1312668E+00
        -11   -1    0    0    0    0  0.00000000000E+00  0.00000000000E+00  0.45593999997E+02  0.45594000000E+02  0.51100000000E-03 0. -1.
         11   -1    0    0    0    0 -0.00000000000E+00 -0.00000000000E+00 -0.45593999997E+02  0.45594000000E+02  0.51100000000E-03 0.  1.
    9900012    2    1    2    0    0  0.22942574646E+02  0.34698605823E+02  0.12380147206E+02  0.47787273942E+02  0.20000013213E+02 0.  0.
        -12    1    1    2    0    0 -0.22942574646E+02 -0.34698605823E+02 -0.12380147206E+02  0.43400726058E+02  0.00000000000E+00 0.  1.
         11    1    3    3    0    0  0.90179143575E+01  0.13381118438E+02  0.95457044376E+01  0.18748268813E+02  0.51100000000E-03 0. -1.
        -11    1    3    3    0    0 -0.14407935591E+01  0.37983889298E+01  0.40079428852E+01  0.57067723780E+01  0.51100000000E-03 0.  1.
        -12    1    3    3    0    0  0.15365453848E+02  0.17519098455E+02 -0.11735001166E+01  0.23332232752E+02  0.00000000000E+00 0.  1.
</event>
<event>
 7    1  0.4430431E-010  0.4778728E+02  0.7816164E-02  0.1312668E+00
        -11   -1    0    0    0    0  0.00000000000E+00  0.00000000000E+00  0.45593999997E+02  0.45594000000E+02  0.51100000000E-03 0.  1.
         11   -1    0    0    0    0 -0.00000000000E+00 -0.00000000000E+00 -0.45593999997E+02  0.45594000000E+02  0.51100000000E-03 0. -1.
    9900012    2    1    2    0    0  0.90252397032E+01  0.93929732517E+01 -0.41399756661E+02  0.47787277082E+02  0.20000027527E+02 0.  0.
        -12    1    1    2    0    0 -0.90252397032E+01 -0.93929732517E+01  0.41399756661E+02  0.43400722918E+02  0.00000000000E+00 0.  1.
         11    1    3    3    0    0  0.75045136660E+01  0.67056213448E+01 -0.20165856794E+02  0.22537632163E+02  0.51100000000E-03 0. -1.
        -11    1    3    3    0    0  0.53761045496E+01 -0.24011873781E+01 -0.47252932345E+01  0.75496090870E+01  0.51100000000E-03 0.  1.
        -12    1    3    3    0    0 -0.38553785124E+01  0.50885392850E+01 -0.16508606632E+02  0.17700035832E+02  0.00000000000E+00 0.  1.
</event>
<event>
 7    1  0.4430431E-010  0.4778727E+02  0.7816164E-02  0.1312668E+00
        -11   -1    0    0    0    0  0.00000000000E+00  0.00000000000E+00  0.45593999997E+02  0.45594000000E+02  0.51100000000E-03 0.  1.
         11   -1    0    0    0    0 -0.00000000000E+00 -0.00000000000E+00 -0.45593999997E+02  0.45594000000E+02  0.51100000000E-03 0. -1.
    9900012    2    1    2    0    0 -0.14381532369E+02  0.40549097399E+02 -0.57065939860E+01  0.47787274337E+02  0.20000015011E+02 0.  0.
        -12    1    1    2    0    0  0.14381532369E+02 -0.40549097399E+02  0.57065939860E+01  0.43400725663E+02  0.00000000000E+00 0.  1.
         11    1    3    3    0    0 -0.14719916033E+00  0.11897637106E+02  0.33936614270E+01  0.12373050329E+02  0.51100000000E-03 0. -1.
        -11    1    3    3    0    0 -0.41473246556E+01  0.73867180952E+01  0.29532548760E+01  0.89713778563E+01  0.51100000000E-03 0.  1.
         12    1    3    3    0    0 -0.10087008553E+02  0.21264742198E+02 -0.12053510289E+02  0.26442846151E+02  0.00000000000E+00 0. -1.
</event>
<event>
 7    1  0.4430431E-010  0.4778727E+02  0.7816164E-02  0.1312668E+00
        -11   -1    0    0    0    0  0.00000000000E+00  0.00000000000E+00  0.45593999997E+02  0.45594000000E+02  0.51100000000E-03 0.  1.
         11   -1    0    0    0    0 -0.00000000000E+00 -0.00000000000E+00 -0.45593999997E+02  0.45594000000E+02  0.51100000000E-03 0. -1.
    9900012    2    1    2    0    0 -0.30116298451E+02 -0.19901611815E+02 -0.24094761667E+02  0.47787272760E+02  0.20000007820E+02 0.  0.
        -12    1    1    2    0    0  0.30116298451E+02  0.19901611815E+02  0.24094761667E+02  0.43400727240E+02  0.00000000000E+00 0.  1.
         11    1    3    3    0    0 -0.14896333373E+02 -0.11108364198E+02 -0.92191723989E+01  0.20743424093E+02  0.51100000000E-03 0. -1.
        -11    1    3    3    0    0 -0.19003821124E+01 -0.35927528568E+01  0.23200039579E+01  0.46799299021E+01  0.51100000000E-03 0.  1.
         12    1    3    3    0    0 -0.13319582966E+02 -0.52004947601E+01 -0.17195593226E+02  0.22363918765E+02  0.00000000000E+00 0. -1.
</event>
<event>
 7    1  0.4430431E-010  0.4778727E+02  0.7816164E-02  0.1312668E+00
        -11   -1    0    0    0    0  0.00000000000E+00  0.00000000000E+00  0.45593999997E+02  0.45594000000E+02  0.51100000000E-03 0.  1.
         11   -1    0    0    0    0 -0.00000000000E+00 -0.00000000000E+00 -0.45593999997E+02  0.45594000000E+02  0.51100000000E-03 0. -1.
    9900012    2    1    2    0    0  0.13215595388E+02  0.71683465746E+01 -0.40713463726E+02  0.47787270944E+02  0.19999999541E+02 0.  0.
        -12    1    1    2    0    0 -0.13215595388E+02 -0.71683465746E+01  0.40713463726E+02  0.43400729056E+02  0.00000000000E+00 0.  1.
         11    1    3    3    0    0  0.13437331854E+01  0.15790270285E+01  0.29832615736E+00  0.20947419860E+01  0.51100000000E-03 0. -1.
        -11    1    3    3    0    0 -0.11310857094E+01  0.27064932741E+01 -0.40973823573E+00  0.29618147153E+01  0.51100000000E-03 0.  1.
         12    1    3    3    0    0  0.13002947912E+02  0.28828262720E+01 -0.40602051647E+02  0.42730714243E+02  0.00000000000E+00 0. -1.
</event>
<event>
 7    1  0.4430431E-010  0.4778727E+02  0.7816164E-02  0.1312668E+00
        -11   -1    0    0    0    0  0.00000000000E+00  0.00000000000E+00  0.45593999997E+02  0.45594000000E+02  0.51100000000E-03 0.  1.
         11   -1    0    0    0    0 -0.00000000000E+00 -0.00000000000E+00 -0.45593999997E+02  0.45594000000E+02  0.51100000000E-03 0. -1.
    9900012    2    1    2    0    0 -0.28204404197E+02 -0.32812110878E+02 -0.33912052743E+01  0.47787270633E+02  0.19999998123E+02 0.  0.
        -12    1    1    2    0    0  0.28204404197E+02  0.32812110878E+02  0.33912052743E+01  0.43400729367E+02  0.00000000000E+00 0.  1.
         11    1    3    3    0    0 -0.21308580319E+02 -0.15860862259E+02  0.27174165192E+01  0.26702189042E+02  0.51100000000E-03 0. -1.
        -11    1    3    3    0    0 -0.81616793151E+00  0.78477044658E+00  0.45505913849E+00  0.12202761273E+01  0.51100000000E-03 0.  1.
        -12    1    3    3    0    0 -0.60796559460E+01 -0.17736019066E+02 -0.65636809321E+01  0.19864805464E+02  0.00000000000E+00 0.  1.
</event>
<event>
 7    1  0.4439677E-010  0.4778727E+02  0.7816164E-02  0.1312668E+00
        -11   -1    0    0    0    0  0.00000000000E+00  0.00000000000E+00  0.45593999997E+02  0.45594000000E+02  0.51100000000E-03 0.  1.
         11   -1    0    0    0    0 -0.00000000000E+00 -0.00000000000E+00 -0.45593999997E+02  0.45594000000E+02  0.51100000000E-03 0. -1.
    9900012    2    1    2    0    0  0.39563649666E+02  0.10779782090E+02 -0.14217500847E+02  0.47787269509E+02  0.19999992998E+02 0.  0.
        -12    1    1    2    0    0 -0.39563649666E+02 -0.10779782090E+02  0.14217500847E+02  0.43400730491E+02  0.00000000000E+00 0.  1.
         11    1    3    3    0    0  0.21950657473E+02  0.80099505874E+01 -0.52668759796E+01  0.23952675315E+02  0.51100000000E-03 0. -1.
        -11    1    3    3    0    0  0.79332220233E+01 -0.27412188114E+00  0.27000699462E+01  0.83846009119E+01  0.51100000000E-03 0.  1.
        -12    1    3    3    0    0  0.96797701697E+01  0.30439533840E+01 -0.11650694814E+02  0.15449993281E+02  0.00000000000E+00 0.  1.
</event>
<event>
 7    1  0.4430431E-010  0.4778728E+02  0.7816164E-02  0.1312668E+00
        -11   -1    0    0    0    0  0.00000000000E+00  0.00000000000E+00  0.45593999997E+02  0.45594000000E+02  0.51100000000E-03 0.  1.
         11   -1    0    0    0    0 -0.00000000000E+00 -0.00000000000E+00 -0.45593999997E+02  0.45594000000E+02  0.51100000000E-03 0. -1.
    9900012    2    1    2    0    0 -0.17862267407E+02 -0.12629284021E+02 -0.37484170525E+02  0.47787280516E+02  0.20000043183E+02 0.  0.
        -12    1    1    2    0    0  0.17862267407E+02  0.12629284021E+02  0.37484170525E+02  0.43400719484E+02  0.00000000000E+00 0.  1.
         11    1    3    3    0    0 -0.15796467793E+01 -0.28096167202E+01 -0.24388828932E+02  0.24600898500E+02  0.51100000000E-03 0.  1.
        -11    1    3    3    0    0 -0.88219503470E+01 -0.60250353611E+01 -0.83933692835E+01  0.13585893685E+02  0.51100000000E-03 0. -1.
        -12    1    3    3    0    0 -0.74606702806E+01 -0.37946319394E+01 -0.47019723098E+01  0.96004883309E+01  0.00000000000E+00 0.  1.
</event>
<event>
 7    1  0.4430431E-010  0.4778726E+02  0.7816164E-02  0.1312668E+00
        -11   -1    0    0    0    0  0.00000000000E+00  0.00000000000E+00  0.45593999997E+02  0.45594000000E+02  0.51100000000E-03 0.  1.
         11   -1    0    0    0    0 -0.00000000000E+00 -0.00000000000E+00 -0.45593999997E+02  0.45594000000E+02  0.51100000000E-03 0. -1.
    9900012    2    1    2    0    0  0.21727770560E+02  0.21256637756E+02 -0.30978755134E+02  0.47787263465E+02  0.19999965440E+02 0.  0.
        -12    1    1    2    0    0 -0.21727770560E+02 -0.21256637756E+02  0.30978755134E+02  0.43400736535E+02  0.00000000000E+00 0.  1.
         11    1    3    3    0    0  0.11675059736E+02  0.11617389043E+02 -0.25231396090E+02  0.30131281037E+02  0.51100000000E-03 0. -1.
        -11    1    3    3    0    0  0.42601127720E+01  0.37263332578E+01 -0.72969549346E+01  0.92346993431E+01  0.51100000000E-03 0.  1.
        -12    1    3    3    0    0  0.57925980519E+01  0.59129154546E+01  0.15495958908E+01  0.84212830845E+01  0.00000000000E+00 0.  1.
</event>
<event>
 7    1  0.4430431E-010  0.4778727E+02  0.7816164E-02  0.1312668E+00
        -11   -1    0    0    0    0  0.00000000000E+00  0.00000000000E+00  0.45593999997E+02  0.45594000000E+02  0.51100000000E-03 0.  1.
         11   -1    0    0    0    0 -0.00000000000E+00 -0.00000000000E+00 -0.45593999997E+02  0.45594000000E+02  0.51100000000E-03 0. -1.
    9900012    2    1    2    0    0 -0.12821501050E+02 -0.25973992233E+02 -0.32320023052E+02  0.47787273603E+02  0.20000011665E+02 0.  0.
        -12    1    1    2    0    0  0.12821501050E+02  0.25973992233E+02  0.32320023052E+02  0.43400726397E+02  0.00000000000E+00 0.  1.
         11    1    3    3    0    0  0.75580880363E+00 -0.24881240391E+01 -0.20138504850E+01  0.32890123470E+01  0.51100000000E-03 0. -1.
        -11    1    3    3    0    0 -0.61251754896E+01 -0.22834473430E+02 -0.16613079478E+02  0.28895075040E+02  0.51100000000E-03 0.  1.
         12    1    3    3    0    0 -0.74521343640E+01 -0.65139476434E+00 -0.13693093089E+02  0.15603186215E+02  0.00000000000E+00 0. -1.
</event>
<event>
 7    1  0.4430431E-010  0.4778727E+02  0.7816164E-02  0.1312668E+00
        -11   -1    0    0    0    0  0.00000000000E+00  0.00000000000E+00  0.45593999997E+02  0.45594000000E+02  0.51100000000E-03 0. -1.
         11   -1    0    0    0    0 -0.00000000000E+00 -0.00000000000E+00 -0.45593999997E+02  0.45594000000E+02  0.51100000000E-03 0.  1.
    9900012    2    1    2    0    0 -0.16667958917E+01  0.43231004397E+02  0.34532973439E+01  0.47787271755E+02  0.20000003238E+02 0.  0.
        -12    1    1    2    0    0  0.16667958917E+01 -0.43231004397E+02 -0.34532973439E+01  0.43400728245E+02  0.00000000000E+00 0.  1.
         11    1    3    3    0    0 -0.12742434960E+01  0.21856041450E+02  0.17942094483E+01  0.21966552578E+02  0.51100000000E-03 0. -1.
        -11    1    3    3    0    0 -0.28005165870E+01  0.96733202562E+01 -0.59112530727E+01  0.11677282693E+02  0.51100000000E-03 0.  1.
         12    1    3    3    0    0  0.24079641912E+01  0.11701642690E+02  0.75703409683E+01  0.14143436484E+02  0.00000000000E+00 0. -1.
</event>
<event>
 7    1  0.4430431E-010  0.4778728E+02  0.7816164E-02  0.1312668E+00
        -11   -1    0    0    0    0  0.00000000000E+00  0.00000000000E+00  0.45593999997E+02  0.45594000000E+02  0.51100000000E-03 0. -1.
         11   -1    0    0    0    0 -0.00000000000E+00 -0.00000000000E+00 -0.45593999997E+02  0.45594000000E+02  0.51100000000E-03 0.  1.
    9900012    2    1    2    0    0  0.30431876695E+02  0.27743564248E+02  0.13704674621E+02  0.47787279006E+02  0.20000036298E+02 0.  0.
        -12    1    1    2    0    0 -0.30431876695E+02 -0.27743564248E+02 -0.13704674621E+02  0.43400720994E+02  0.00000000000E+00 0.  1.
         11    1    3    3    0    0  0.13939815364E+02  0.20596167097E+02  0.80261267128E+01  0.26133106623E+02  0.51100000000E-03 0.  1.
        -11    1    3    3    0    0  0.36941360881E+01  0.70818989452E+01  0.32725189260E+01  0.86318778079E+01  0.51100000000E-03 0. -1.
        -12    1    3    3    0    0  0.12797925243E+02  0.65498205761E-01  0.24060289821E+01  0.13022294575E+02  0.00000000000E+00 0.  1.
</event>
<event>
 7    1  0.4681411E-010  0.4778727E+02  0.7816164E-02  0.1312668E+00
        -11   -1    0    0    0    0  0.00000000000E+00  0.00000000000E+00  0.45593999997E+02  0.45594000000E+02  0.51100000000E-03 0. -1.
         11   -1    0    0    0    0 -0.00000000000E+00 -0.00000000000E+00 -0.45593999997E+02  0.45594000000E+02  0.51100000000E-03 0.  1.
    9900012    2    1    2    0    0 -0.18949102746E+01  0.64289344789E+01  0.42880083328E+02  0.47787269249E+02  0.19999991815E+02 0.  0.
        -12    1    1    2    0    0  0.18949102746E+01 -0.64289344789E+01 -0.42880083328E+02  0.43400730751E+02  0.00000000000E+00 0.  1.
         11    1    3    3    0    0 -0.31702772307E+01  0.88374336531E+00  0.29840248794E+02  0.30021194320E+02  0.51100000000E-03 0. -1.
        -11    1    3    3    0    0  0.19961640350E+00 -0.14723756281E+01  0.98868620294E+01  0.99978886645E+01  0.51100000000E-03 0.  1.
        -12    1    3    3    0    0  0.10757505526E+01  0.70175667418E+01  0.31529725048E+01  0.77681862647E+01  0.00000000000E+00 0.  1.
</event>
<event>
 7    1  0.4430431E-010  0.4778727E+02  0.7816164E-02  0.1312668E+00
        -11   -1    0    0    0    0  0.00000000000E+00  0.00000000000E+00  0.45593999997E+02  0.45594000000E+02  0.51100000000E-03 0.  1.
         11   -1    0    0    0    0 -0.00000000000E+00 -0.00000000000E+00 -0.45593999997E+02  0.45594000000E+02  0.51100000000E-03 0. -1.
    9900012    2    1    2    0    0 -0.13524326123E+02  0.37840781237E+02 -0.16394855719E+02  0.47787269410E+02  0.19999992548E+02 0.  0.
        -12    1    1    2    0    0  0.13524326123E+02 -0.37840781237E+02  0.16394855719E+02  0.43400730590E+02  0.00000000000E+00 0.  1.
         11    1    3    3    0    0 -0.11573868615E+02  0.13731959166E+02 -0.83819534802E+01  0.19818634708E+02  0.51100000000E-03 0. -1.
        -11    1    3    3    0    0 -0.46136603914E+01  0.30926097067E+01 -0.92978330040E+00  0.56315712063E+01  0.51100000000E-03 0.  1.
        -12    1    3    3    0    0  0.26632028839E+01  0.21016212364E+02 -0.70831189380E+01  0.22337063496E+02  0.00000000000E+00 0.  1.
</event>
<event>
 7    1  0.4430431E-010  0.4778728E+02  0.7816164E-02  0.1312668E+00
        -11   -1    0    0    0    0  0.00000000000E+00  0.00000000000E+00  0.45593999997E+02  0.45594000000E+02  0.51100000000E-03 0. -1.
         11   -1    0    0    0    0 -0.00000000000E+00 -0.00000000000E+00 -0.45593999997E+02  0.45594000000E+02  0.51100000000E-03 0.  1.
    9900012    2    1    2    0    0 -0.35282114901E+01 -0.20971068159E+02  0.37833699608E+02  0.47787276480E+02  0.20000024783E+02 0.  0.
        -12    1    1    2    0    0  0.35282114901E+01  0.20971068159E+02 -0.37833699608E+02  0.43400723520E+02  0.00000000000E+00 0.  1.
         11    1    3    3    0    0  0.21050233685E+01  0.60449625264E+00  0.10161334664E+01  0.24143459951E+01  0.51100000000E-03 0.  1.
        -11    1    3    3    0    0 -0.65968615665E+01 -0.19658962054E+01  0.96750724517E+01  0.11873936063E+02  0.51100000000E-03 0. -1.
        -12    1    3    3    0    0  0.96362670793E+00 -0.19609668207E+02  0.27142493689E+02  0.33498994422E+02  0.00000000000E+00 0.  1.
</event>
<event>
 7    1  0.4430431E-010  0.4778727E+02  0.7816164E-02  0.1312668E+00
        -11   -1    0    0    0    0  0.00000000000E+00  0.00000000000E+00  0.45593999997E+02  0.45594000000E+02  0.51100000000E-03 0.  1.
         11   -1    0    0    0    0 -0.00000000000E+00 -0.00000000000E+00 -0.45593999997E+02  0.45594000000E+02  0.51100000000E-03 0. -1.
    9900012    2    1    2    0    0  0.31936672558E+02  0.24256105035E+02 -0.16592582956E+02  0.47787268500E+02  0.19999988400E+02 0.  0.
        -12    1    1    2    0    0 -0.31936672558E+02 -0.24256105035E+02  0.16592582956E+02  0.43400731500E+02  0.00000000000E+00 0.  1.
         11    1    3    3    0    0  0.74689133323E+01  0.92827412721E+01 -0.33756813532E+01  0.12383423466E+02  0.51100000000E-03 0. -1.
        -11    1    3    3    0    0 -0.12871554640E+01 -0.12875034795E+01  0.65531220375E+00  0.19349079419E+01  0.51100000000E-03 0.  1.
         12    1    3    3    0    0  0.25754914690E+02  0.16260867243E+02 -0.13872213807E+02  0.33468937092E+02  0.00000000000E+00 0. -1.
</event>
<event>
 7    1  0.4430431E-010  0.4778727E+02  0.7816164E-02  0.1312668E+00
        -11   -1    0    0    0    0  0.00000000000E+00  0.00000000000E+00  0.45593999997E+02  0.45594000000E+02  0.51100000000E-03 0.  1.
         11   -1    0    0    0    0 -0.00000000000E+00 -0.00000000000E+00 -0.45593999997E+02  0.45594000000E+02  0.51100000000E-03 0. -1.
    9900012    2    1    2    0    0  0.26829951422E+02 -0.22974080331E+02 -0.25218414771E+02  0.47787273002E+02  0.20000008927E+02 0.  0.
        -12    1    1    2    0    0 -0.26829951422E+02  0.22974080331E+02  0.25218414771E+02  0.43400726998E+02  0.00000000000E+00 0.  1.
         11    1    3    3    0    0  0.44118051114E+01 -0.12684606707E+02 -0.63014030613E+01  0.14834788588E+02  0.51100000000E-03 0. -1.
        -11    1    3    3    0    0  0.65348751679E+01 -0.54229339559E+01 -0.10510814346E+01  0.85567270959E+01  0.51100000000E-03 0.  1.
        -12    1    3    3    0    0  0.15883271143E+02 -0.48665396680E+01 -0.17865930275E+02  0.24395757318E+02  0.00000000000E+00 0.  1.
</event>
<event>
 7    1  0.4430431E-010  0.4778728E+02  0.7816164E-02  0.1312668E+00
        -11   -1    0    0    0    0  0.00000000000E+00  0.00000000000E+00  0.45593999997E+02  0.45594000000E+02  0.51100000000E-03 0. -1.
         11   -1    0    0    0    0 -0.00000000000E+00 -0.00000000000E+00 -0.45593999997E+02  0.45594000000E+02  0.51100000000E-03 0.  1.
    9900012    2    1    2    0    0 -0.18633879247E+02  0.15166866370E+02  0.36143702795E+02  0.47787279464E+02  0.20000038389E+02 0.  0.
        -12    1    1    2    0    0  0.18633879247E+02 -0.15166866370E+02 -0.36143702795E+02  0.43400720536E+02  0.00000000000E+00 0.  1.
         11    1    3    3    0    0 -0.16833734127E+01  0.39957010904E+01  0.11420848883E+02  0.12216184458E+02  0.51100000000E-03 0. -1.
        -11    1    3    3    0    0  0.93542449166E+00  0.40200038504E+01 -0.12742822399E+00  0.41293689772E+01  0.51100000000E-03 0.  1.
         12    1    3    3    0    0 -0.17885930326E+02  0.71511614290E+01  0.24850282137E+02  0.31441726029E+02  0.00000000000E+00 0. -1.
</event>
<event>
 7    1  0.4430431E-010  0.4778727E+02  0.7816164E-02  0.1312668E+00
        -11   -1    0    0    0    0  0.00000000000E+00  0.00000000000E+00  0.45593999997E+02  0.45594000000E+02  0.51100000000E-03 0.  1.
         11   -1    0    0    0    0 -0.00000000000E+00 -0.00000000000E+00 -0.45593999997E+02  0.45594000000E+02  0.51100000000E-03 0. -1.
    9900012    2    1    2    0    0 -0.41769296668E+02  0.52339913328E+01  0.10561927320E+02  0.47787272839E+02  0.20000008180E+02 0.  0.
        -12    1    1    2    0    0  0.41769296668E+02 -0.52339913328E+01 -0.10561927320E+02  0.43400727161E+02  0.00000000000E+00 0.  1.
         11    1    3    3    0    0 -0.19535849081E+02  0.80488551989E+01  0.54524616759E+01  0.21821155054E+02  0.51100000000E-03 0. -1.
        -11    1    3    3    0    0 -0.16966847474E+02 -0.17083151100E+01  0.90412944885E+01  0.19301224314E+02  0.51100000000E-03 0.  1.
        -12    1    3    3    0    0 -0.52666001135E+01 -0.11065487560E+01 -0.39318288448E+01  0.66648934703E+01  0.00000000000E+00 0.  1.
</event>
<event>
 7    1  0.4430431E-010  0.4778727E+02  0.7816164E-02  0.1312668E+00
        -11   -1    0    0    0    0  0.00000000000E+00  0.00000000000E+00  0.45593999997E+02  0.45594000000E+02  0.51100000000E-03 0. -1.
         11   -1    0    0    0    0 -0.00000000000E+00 -0.00000000000E+00 -0.45593999997E+02  0.45594000000E+02  0.51100000000E-03 0.  1.
    9900012    2    1    2    0    0 -0.29574042131E+01 -0.24250743169E+02  0.35871697560E+02  0.47787268787E+02  0.19999989709E+02 0.  0.
        -12    1    1    2    0    0  0.29574042131E+01  0.24250743169E+02 -0.35871697560E+02  0.43400731213E+02  0.00000000000E+00 0.  1.
         11    1    3    3    0    0 -0.67890345045E+01 -0.21064197365E+01  0.80723640250E+01  0.10755977632E+02  0.51100000000E-03 0. -1.
        -11    1    3    3    0    0  0.31708947110E+01 -0.81631598329E+01  0.17774707370E+02  0.19814943202E+02  0.51100000000E-03 0.  1.
        -12    1    3    3    0    0  0.66073558044E+00 -0.13981163600E+02  0.10024626165E+02  0.17216347953E+02  0.00000000000E+00 0.  1.
</event>
<event>
 7    1  0.4430431E-010  0.4778731E+02  0.7816164E-02  0.1312668E+00
        -11   -1    0    0    0    0  0.00000000000E+00  0.00000000000E+00  0.45593999997E+02  0.45594000000E+02  0.51100000000E-03 0.  1.
         11   -1    0    0    0    0 -0.00000000000E+00 -0.00000000000E+00 -0.45593999997E+02  0.45594000000E+02  0.51100000000E-03 0. -1.
    9900012    2    1    2    0    0  0.39047480520E+02 -0.16909782591E+02 -0.85424646596E+01  0.47787306633E+02  0.20000162263E+02 0.  0.
        -12    1    1    2    0    0 -0.39047480520E+02  0.16909782591E+02  0.85424646596E+01  0.43400693367E+02  0.00000000000E+00 0.  1.
         11    1    3    3    0    0  0.51088104517E+01 -0.11251843130E+01 -0.55581198558E+01  0.76327374226E+01  0.51100000000E-03 0. -1.
        -11    1    3    3    0    0  0.83217571893E+01 -0.11300951866E+02 -0.81843389256E+00  0.14058200102E+02  0.51100000000E-03 0.  1.
        -12    1    3    3    0    0  0.25616912879E+02 -0.44836464123E+01 -0.21659109113E+01  0.26096369109E+02  0.00000000000E+00 0.  1.
</event>
<event>
 7    1  0.4430431E-010  0.4778727E+02  0.7816164E-02  0.1312668E+00
        -11   -1    0    0    0    0  0.00000000000E+00  0.00000000000E+00  0.45593999997E+02  0.45594000000E+02  0.51100000000E-03 0.  1.
         11   -1    0    0    0    0 -0.00000000000E+00 -0.00000000000E+00 -0.45593999997E+02  0.45594000000E+02  0.51100000000E-03 0. -1.
    9900012    2    1    2    0    0  0.27362833067E+02  0.30935434584E+02 -0.13337835564E+02  0.47787267243E+02  0.19999982668E+02 0.  0.
        -12    1    1    2    0    0 -0.27362833067E+02 -0.30935434584E+02  0.13337835564E+02  0.43400732757E+02  0.00000000000E+00 0.  1.
         11    1    3    3    0    0  0.14067828237E+02  0.18557608161E+02 -0.42654135678E+01  0.23674508762E+02  0.51100000000E-03 0. -1.
        -11    1    3    3    0    0  0.64887084434E+00  0.28254644227E+01  0.30137029777E+01  0.41817087985E+01  0.51100000000E-03 0.  1.
         12    1    3    3    0    0  0.12646133985E+02  0.95523619997E+01 -0.12086124974E+02  0.19931049682E+02  0.00000000000E+00 0. -1.
</event>
<event>
 7    1  0.4430431E-010  0.4778727E+02  0.7816164E-02  0.1312668E+00
        -11   -1    0    0    0    0  0.00000000000E+00  0.00000000000E+00  0.45593999997E+02  0.45594000000E+02  0.51100000000E-03 0.  1.
         11   -1    0    0    0    0 -0.00000000000E+00 -0.00000000000E+00 -0.45593999997E+02  0.45594000000E+02  0.51100000000E-03 0. -1.
    9900012    2    1    2    0    0 -0.18917017063E+02  0.13051731945E+02 -0.36816057671E+02  0.47787270239E+02  0.19999996328E+02 0.  0.
        -12    1    1    2    0    0  0.18917017063E+02 -0.13051731945E+02  0.36816057671E+02  0.43400729761E+02  0.00000000000E+00 0.  1.
         11    1    3    3    0    0 -0.91745710783E+00 -0.14824261309E+01  0.81887868727E-01  0.17452852668E+01  0.51100000000E-03 0. -1.
        -11    1    3    3    0    0 -0.75832156020E+01 -0.20291115270E+01 -0.86695459316E+01  0.11695446951E+02  0.51100000000E-03 0.  1.
         12    1    3    3    0    0 -0.10416344354E+02  0.16563269603E+02 -0.28228399608E+02  0.34346538022E+02  0.00000000000E+00 0. -1.
</event>
<event>
 7    1  0.4430431E-010  0.4778728E+02  0.7816164E-02  0.1312668E+00
        -11   -1    0    0    0    0  0.00000000000E+00  0.00000000000E+00  0.45593999997E+02  0.45594000000E+02  0.51100000000E-03 0. -1.
         11   -1    0    0    0    0 -0.00000000000E+00 -0.00000000000E+00 -0.45593999997E+02  0.45594000000E+02  0.51100000000E-03 0.  1.
    9900012    2    1    2    0    0 -0.57855798490E+01  0.37733142984E+01  0.42847544404E+02  0.47787275392E+02  0.20000019824E+02 0.  0.
        -12    1    1    2    0    0  0.57855798490E+01 -0.37733142984E+01 -0.42847544404E+02  0.43400724608E+02  0.00000000000E+00 0.  1.
         11    1    3    3    0    0 -0.27881133533E+00 -0.23239195163E+01  0.40812442496E+01  0.47047733808E+01  0.51100000000E-03 0. -1.
        -11    1    3    3    0    0 -0.66489095938E+01 -0.45048078404E+01  0.18891322087E+02  0.20527623899E+02  0.51100000000E-03 0.  1.
        -12    1    3    3    0    0  0.11421410801E+01  0.10602041655E+02  0.19874978067E+02  0.22554878113E+02  0.00000000000E+00 0.  1.
</event>
<event>
 7    1  0.4430431E-010  0.4778727E+02  0.7816164E-02  0.1312668E+00
        -11   -1    0    0    0    0  0.00000000000E+00  0.00000000000E+00  0.45593999997E+02  0.45594000000E+02  0.51100000000E-03 0.  1.
         11   -1    0    0    0    0 -0.00000000000E+00 -0.00000000000E+00 -0.45593999997E+02  0.45594000000E+02  0.51100000000E-03 0. -1.
    9900012    2    1    2    0    0  0.28448512466E+02 -0.32444626491E+02 -0.46531728980E+01  0.47787266508E+02  0.19999979315E+02 0.  0.
        -12    1    1    2    0    0 -0.28448512466E+02  0.32444626491E+02  0.46531728980E+01  0.43400733492E+02  0.00000000000E+00 0.  1.
         11    1    3    3    0    0 -0.66375406623E+00 -0.27204538920E+01 -0.69357566877E+00  0.28848719744E+01  0.51100000000E-03 0. -1.
        -11    1    3    3    0    0  0.16991657102E+02 -0.17487117565E+02 -0.10408019677E+02  0.26511178127E+02  0.51100000000E-03 0.  1.
         12    1    3    3    0    0  0.12120609430E+02 -0.12237055034E+02  0.64484224476E+01  0.18391216407E+02  0.00000000000E+00 0. -1.
</event>
<event>
 7    1  0.4430431E-010  0.4778727E+02  0.7816164E-02  0.1312668E+00
        -11   -1    0    0    0    0  0.00000000000E+00  0.00000000000E+00  0.45593999997E+02  0.45594000000E+02  0.51100000000E-03 0. -1.
         11   -1    0    0    0    0 -0.00000000000E+00 -0.00000000000E+00 -0.45593999997E+02  0.45594000000E+02  0.51100000000E-03 0.  1.
    9900012    2    1    2    0    0  0.36226259820E+02 -0.44224601999E-02  0.23901494516E+02  0.47787270050E+02  0.19999995466E+02 0.  0.
        -12    1    1    2    0    0 -0.36226259820E+02  0.44224601999E-02 -0.23901494516E+02  0.43400729950E+02  0.00000000000E+00 0.  1.
         11    1    3    3    0    0  0.10689527505E+02 -0.35672541652E+01 -0.37224086623E+00  0.11275187985E+02  0.51100000000E-03 0. -1.
        -11    1    3    3    0    0  0.11040885763E+02 -0.20928708726E+01  0.68897357257E+01  0.13181415916E+02  0.51100000000E-03 0.  1.
        -12    1    3    3    0    0  0.14495846551E+02  0.56557025776E+01  0.17383999657E+02  0.23330666149E+02  0.00000000000E+00 0.  1.
</event>
<event>
 7    1  0.4430431E-010  0.4778726E+02  0.7816164E-02  0.1312668E+00
        -11   -1    0    0    0    0  0.00000000000E+00  0.00000000000E+00  0.45593999997E+02  0.45594000000E+02  0.51100000000E-03 0.  1.
         11   -1    0    0    0    0 -0.00000000000E+00 -0.00000000000E+00 -0.45593999997E+02  0.45594000000E+02  0.51100000000E-03 0. -1.
    9900012    2    1    2    0    0 -0.24266779714E+02 -0.65173429639E+00 -0.35976697734E+02  0.47787261122E+02  0.19999954762E+02 0.  0.
        -12    1    1    2    0    0  0.24266779714E+02  0.65173429639E+00  0.35976697734E+02  0.43400738878E+02  0.00000000000E+00 0.  1.
         11    1    3    3    0    0 -0.11582009225E+02  0.34987278709E+01 -0.17975164496E+02  0.21667731154E+02  0.51100000000E-03 0. -1.
        -11    1    3    3    0    0  0.35440239890E+00  0.25562847034E+00 -0.10375184833E+02  0.10384382868E+02  0.51100000000E-03 0.  1.
        -12    1    3    3    0    0 -0.13039172887E+02 -0.44060906376E+01 -0.76263484050E+01  0.15735147101E+02  0.00000000000E+00 0.  1.
</event>
<event>
 7    1  0.4430431E-010  0.4778725E+02  0.7816164E-02  0.1312668E+00
        -11   -1    0    0    0    0  0.00000000000E+00  0.00000000000E+00  0.45593999997E+02  0.45594000000E+02  0.51100000000E-03 0. -1.
         11   -1    0    0    0    0 -0.00000000000E+00 -0.00000000000E+00 -0.45593999997E+02  0.45594000000E+02  0.51100000000E-03 0.  1.
    9900012    2    1    2    0    0 -0.12292174370E+02 -0.38854112494E+02  0.14929343461E+02  0.47787252258E+02  0.19999914344E+02 0.  0.
        -12    1    1    2    0    0  0.12292174370E+02  0.38854112494E+02 -0.14929343461E+02  0.43400747742E+02  0.00000000000E+00 0.  1.
         11    1    3    3    0    0  0.30871670276E+01 -0.34697113021E+01  0.29094889533E+01  0.54803852973E+01  0.51100000000E-03 0. -1.
        -11    1    3    3    0    0 -0.27547900710E+01 -0.26323201582E+00 -0.74011119877E+00  0.28645984496E+01  0.51100000000E-03 0.  1.
         12    1    3    3    0    0 -0.12624551327E+02 -0.35121169176E+02  0.12759965706E+02  0.39442268511E+02  0.00000000000E+00 0. -1.
</event>
<event>
 7    1  0.4430431E-010  0.4778727E+02  0.7816164E-02  0.1312668E+00
        -11   -1    0    0    0    0  0.00000000000E+00  0.00000000000E+00  0.45593999997E+02  0.45594000000E+02  0.51100000000E-03 0.  1.
         11   -1    0    0    0    0 -0.00000000000E+00 -0.00000000000E+00 -0.45593999997E+02  0.45594000000E+02  0.51100000000E-03 0. -1.
    9900012    2    1    2    0    0 -0.13560323041E+02  0.40741824407E+02 -0.63122590648E+01  0.47787271533E+02  0.20000002227E+02 0.  0.
        -12    1    1    2    0    0  0.13560323041E+02 -0.40741824407E+02  0.63122590648E+01  0.43400728467E+02  0.00000000000E+00 0.  1.
         11    1    3    3    0    0  0.14245077491E+01  0.38458296717E+01 -0.68120229591E+01  0.79513071408E+01  0.51100000000E-03 0.  1.
        -11    1    3    3    0    0 -0.62046861020E+01  0.15519142641E+02  0.64023634678E+00  0.16725783114E+02  0.51100000000E-03 0. -1.
        -12    1    3    3    0    0 -0.87801446882E+01  0.21376852095E+02 -0.14047245244E+00  0.23110181279E+02  0.00000000000E+00 0.  1.
</event>
<event>
 7    1  0.4430431E-010  0.4778727E+02  0.7816164E-02  0.1312668E+00
        -11   -1    0    0    0    0  0.00000000000E+00  0.00000000000E+00  0.45593999997E+02  0.45594000000E+02  0.51100000000E-03 0. -1.
         11   -1    0    0    0    0 -0.00000000000E+00 -0.00000000000E+00 -0.45593999997E+02  0.45594000000E+02  0.51100000000E-03 0.  1.
    9900012    2    1    2    0    0 -0.34125601293E+02 -0.12726761013E+01  0.26785205639E+02  0.47787267181E+02  0.19999982386E+02 0.  0.
        -12    1    1    2    0    0  0.34125601293E+02  0.12726761013E+01 -0.26785205639E+02  0.43400732819E+02  0.00000000000E+00 0.  1.
         11    1    3    3    0    0 -0.64108394934E+01  0.46370488374E+01  0.13582130016E+02  0.15718630378E+02  0.51100000000E-03 0. -1.
        -11    1    3    3    0    0 -0.39355376897E-01 -0.16037577456E+00  0.14448847050E+01  0.14542906541E+01  0.51100000000E-03 0.  1.
        -12    1    3    3    0    0 -0.27675406423E+02 -0.57493491642E+01  0.11758190919E+02  0.30614346149E+02  0.00000000000E+00 0.  1.
</event>
<event>
 7    1  0.4430431E-010  0.4778726E+02  0.7816164E-02  0.1312668E+00
        -11   -1    0    0    0    0  0.00000000000E+00  0.00000000000E+00  0.45593999997E+02  0.45594000000E+02  0.51100000000E-03 0. -1.
         11   -1    0    0    0    0 -0.00000000000E+00 -0.00000000000E+00 -0.45593999997E+02  0.45594000000E+02  0.51100000000E-03 0.  1.
    9900012    2    1    2    0    0  0.25973727669E+02  0.32193043868E+02 -0.13137635356E+02  0.47787261927E+02  0.19999958432E+02 0.  0.
        -12    1    1    2    0    0 -0.25973727669E+02 -0.32193043868E+02  0.13137635356E+02  0.43400738073E+02  0.00000000000E+00 0.  1.
         11    1    3    3    0    0  0.47886523009E+01  0.50293751601E+01 -0.64041436246E+01  0.94466322669E+01  0.51100000000E-03 0. -1.
        -11    1    3    3    0    0  0.18342957707E+02  0.16880663920E+02 -0.10468458262E+02  0.27037187917E+02  0.51100000000E-03 0.  1.
         12    1    3    3    0    0  0.28421176613E+01  0.10283004788E+02  0.37349665304E+01  0.11303441744E+02  0.00000000000E+00 0. -1.
</event>
<event>
 7    1  0.4430431E-010  0.4778727E+02  0.7816164E-02  0.1312668E+00
        -11   -1    0    0    0    0  0.00000000000E+00  0.00000000000E+00  0.45593999997E+02  0.45594000000E+02  0.51100000000E-03 0.  1.
         11   -1    0    0    0    0 -0.00000000000E+00 -0.00000000000E+00 -0.45593999997E+02  0.45594000000E+02  0.51100000000E-03 0. -1.
    9900012    2    1    2    0    0 -0.12634084762E+02  0.35202758551E+02 -0.22017468148E+02  0.47787271768E+02  0.20000003301E+02 0.  0.
        -12    1    1    2    0    0  0.12634084762E+02 -0.35202758551E+02  0.22017468148E+02  0.43400728232E+02  0.00000000000E+00 0.  1.
         11    1    3    3    0    0 -0.14214828568E+02  0.17376267806E+02 -0.69198674166E+01  0.23492139098E+02  0.51100000000E-03 0. -1.
        -11    1    3    3    0    0 -0.23587181747E+01  0.99686837778E+01 -0.80260055168E+01  0.13013645627E+02  0.51100000000E-03 0.  1.
         12    1    3    3    0    0  0.39394619804E+01  0.78578069676E+01 -0.70715952143E+01  0.11281487043E+02  0.00000000000E+00 0. -1.
</event>
<event>
 7    1  0.4430431E-010  0.4778727E+02  0.7816164E-02  0.1312668E+00
        -11   -1    0    0    0    0  0.00000000000E+00  0.00000000000E+00  0.45593999997E+02  0.45594000000E+02  0.51100000000E-03 0. -1.
         11   -1    0    0    0    0 -0.00000000000E+00 -0.00000000000E+00 -0.45593999997E+02  0.45594000000E+02  0.51100000000E-03 0.  1.
    9900012    2    1    2    0    0  0.27636449717E+02  0.11911107925E+02  0.31272593942E+02  0.47787274467E+02  0.20000015603E+02 0.  0.
        -12    1    1    2    0    0 -0.27636449717E+02 -0.11911107925E+02 -0.31272593942E+02  0.43400725533E+02  0.00000000000E+00 0.  1.
         11    1    3    3    0    0  0.97500758284E+01 -0.21210058363E+01  0.18157787420E+02  0.20718781062E+02  0.51100000000E-03 0. -1.
        -11    1    3    3    0    0  0.10284767970E+02  0.45234608939E+01  0.83367650119E+01  0.13990704120E+02  0.51100000000E-03 0.  1.
         12    1    3    3    0    0  0.76016059188E+01  0.95086528676E+01  0.47780415094E+01  0.13077789284E+02  0.00000000000E+00 0. -1.
</event>
<event>
 7    1  0.4430431E-010  0.4778727E+02  0.7816164E-02  0.1312668E+00
        -11   -1    0    0    0    0  0.00000000000E+00  0.00000000000E+00  0.45593999997E+02  0.45594000000E+02  0.51100000000E-03 0.  1.
         11   -1    0    0    0    0 -0.00000000000E+00 -0.00000000000E+00 -0.45593999997E+02  0.45594000000E+02  0.51100000000E-03 0. -1.
    9900012    2    1    2    0    0 -0.21186045092E+02  0.14734779741E+02 -0.34895000455E+02  0.47787270774E+02  0.19999998765E+02 0.  0.
        -12    1    1    2    0    0  0.21186045092E+02 -0.14734779741E+02  0.34895000455E+02  0.43400729226E+02  0.00000000000E+00 0.  1.
         11    1    3    3    0    0 -0.41297935804E+01  0.88894945361E+01 -0.82862987382E+01  0.12835149207E+02  0.51100000000E-03 0. -1.
        -11    1    3    3    0    0 -0.12823235206E+02  0.53004772032E+01 -0.83346925587E+01  0.16186337450E+02  0.51100000000E-03 0.  1.
        -12    1    3    3    0    0 -0.42330163048E+01  0.54480800140E+00 -0.18274009158E+02  0.18765784116E+02  0.00000000000E+00 0.  1.
</event>
<event>
 7    1  0.4430431E-010  0.4778726E+02  0.7816164E-02  0.1312668E+00
        -11   -1    0    0    0    0  0.00000000000E+00  0.00000000000E+00  0.45593999997E+02  0.45594000000E+02  0.51100000000E-03 0.  1.
         11   -1    0    0    0    0 -0.00000000000E+00 -0.00000000000E+00 -0.45593999997E+02  0.45594000000E+02  0.51100000000E-03 0. -1.
    9900012    2    1    2    0    0  0.74790117543E+01 -0.22909182203E+02 -0.36095129515E+02  0.47787255528E+02  0.19999929254E+02 0.  0.
        -12    1    1    2    0    0 -0.74790117543E+01  0.22909182203E+02  0.36095129515E+02  0.43400744472E+02  0.00000000000E+00 0.  1.
         11    1    3    3    0    0  0.48235153866E+01 -0.67869027505E+01 -0.98440572276E+01  0.12893169222E+02  0.51100000000E-03 0. -1.
        -11    1    3    3    0    0  0.61270028744E+00 -0.47137630410E+01 -0.22065190698E+02  0.22571389068E+02  0.51100000000E-03 0.  1.
        -12    1    3    3    0    0  0.20427960802E+01 -0.11408516412E+02 -0.41858815891E+01  0.12322697238E+02  0.00000000000E+00 0.  1.
</event>
<event>
 7    1  0.4430431E-010  0.4778728E+02  0.7816164E-02  0.1312668E+00
        -11   -1    0    0    0    0  0.00000000000E+00  0.00000000000E+00  0.45593999997E+02  0.45594000000E+02  0.51100000000E-03 0.  1.
         11   -1    0    0    0    0 -0.00000000000E+00 -0.00000000000E+00 -0.45593999997E+02  0.45594000000E+02  0.51100000000E-03 0. -1.
    9900012    2    1    2    0    0 -0.13767305031E+02  0.25468080996E+02 -0.32333579227E+02  0.47787283611E+02  0.20000057298E+02 0.  0.
        -12    1    1    2    0    0  0.13767305031E+02 -0.25468080996E+02  0.32333579227E+02  0.43400716389E+02  0.00000000000E+00 0.  1.
         11    1    3    3    0    0  0.58213780920E+00  0.38555430751E+01 -0.53513544440E+01  0.66212605657E+01  0.51100000000E-03 0. -1.
        -11    1    3    3    0    0 -0.27212225165E+01 -0.15502961648E+01  0.73714353090E+00  0.32174292578E+01  0.51100000000E-03 0.  1.
        -12    1    3    3    0    0 -0.11628220324E+02  0.23162834085E+02 -0.27719368314E+02  0.37948593788E+02  0.00000000000E+00 0.  1.
</event>
<event>
 7    1  0.4430431E-010  0.4778727E+02  0.7816164E-02  0.1312668E+00
        -11   -1    0    0    0    0  0.00000000000E+00  0.00000000000E+00  0.45593999997E+02  0.45594000000E+02  0.51100000000E-03 0. -1.
         11   -1    0    0    0    0 -0.00000000000E+00 -0.00000000000E+00 -0.45593999997E+02  0.45594000000E+02  0.51100000000E-03 0.  1.
    9900012    2    1    2    0    0 -0.25085752870E+02 -0.27250085215E+02 -0.22622141760E+02  0.47787269141E+02  0.19999991322E+02 0.  0.
        -12    1    1    2    0    0  0.25085752870E+02  0.27250085215E+02  0.22622141760E+02  0.43400730859E+02  0.00000000000E+00 0.  1.
         11    1    3    3    0    0 -0.10430592065E+02 -0.84341219552E+01 -0.43186717877E+01  0.14091933517E+02  0.51100000000E-03 0. -1.
        -11    1    3    3    0    0 -0.20101353316E+01  0.26099607525E+01 -0.12077116435E+01  0.35087186915E+01  0.51100000000E-03 0.  1.
        -12    1    3    3    0    0 -0.12645025474E+02 -0.21425924012E+02 -0.17095758329E+02  0.30186616933E+02  0.00000000000E+00 0.  1.
</event>
<event>
 7    1  0.4430431E-010  0.4778721E+02  0.7816164E-02  0.1312668E+00
        -11   -1    0    0    0    0  0.00000000000E+00  0.00000000000E+00  0.45593999997E+02  0.45594000000E+02  0.51100000000E-03 0.  1.
         11   -1    0    0    0    0 -0.00000000000E+00 -0.00000000000E+00 -0.45593999997E+02  0.45594000000E+02  0.51100000000E-03 0. -1.
    9900012    2    1    2    0    0  0.36571866341E+02  0.23032623525E+02 -0.39528819074E+01  0.47787211649E+02  0.19999729190E+02 0.  0.
        -12    1    1    2    0    0 -0.36571866341E+02 -0.23032623525E+02  0.39528819074E+01  0.43400788351E+02  0.00000000000E+00 0.  1.
         11    1    3    3    0    0  0.15261284159E+02 -0.37262903763E+00 -0.28065216903E+01  0.15521669074E+02  0.51100000000E-03 0. -1.
        -11    1    3    3    0    0 -0.33089615333E+00  0.11017505058E+01 -0.23926830642E+00  0.11749876701E+01  0.51100000000E-03 0.  1.
        -12    1    3    3    0    0  0.21641478335E+02  0.22303502057E+02 -0.90709191069E+00  0.31090554904E+02  0.00000000000E+00 0.  1.
</event>
<event>
 7    1  0.4430431E-010  0.4778728E+02  0.7816164E-02  0.1312668E+00
        -11   -1    0    0    0    0  0.00000000000E+00  0.00000000000E+00  0.45593999997E+02  0.45594000000E+02  0.51100000000E-03 0. -1.
         11   -1    0    0    0    0 -0.00000000000E+00 -0.00000000000E+00 -0.45593999997E+02  0.45594000000E+02  0.51100000000E-03 0.  1.
    9900012    2    1    2    0    0 -0.18020797746E+02  0.39172047897E+02 -0.49420401804E+01  0.47787282852E+02  0.20000053833E+02 0.  0.
        -12    1    1    2    0    0  0.18020797746E+02 -0.39172047897E+02  0.49420401804E+01  0.43400717148E+02  0.00000000000E+00 0.  1.
         11    1    3    3    0    0 -0.10064572670E+02  0.37700756940E+01 -0.27302095633E+01  0.11088874528E+02  0.51100000000E-03 0. -1.
        -11    1    3    3    0    0  0.82680135762E-01  0.38877742258E+01 -0.14980328281E+01  0.41672205426E+01  0.51100000000E-03 0.  1.
         12    1    3    3    0    0 -0.80389052113E+01  0.31514197977E+02 -0.71379778889E+00  0.32531187781E+02  0.00000000000E+00 0. -1.
</event>
<event>
 7    1  0.4430431E-010  0.4778727E+02  0.7816164E-02  0.1312668E+00
        -11   -1    0    0    0    0  0.00000000000E+00  0.00000000000E+00  0.45593999997E+02  0.45594000000E+02  0.51100000000E-03 0.  1.
         11   -1    0    0    0    0 -0.00000000000E+00 -0.00000000000E+00 -0.45593999997E+02  0.45594000000E+02  0.51100000000E-03 0. -1.
    9900012    2    1    2    0    0 -0.22698994025E+02 -0.19143063291E+01 -0.36942039446E+02  0.47787272162E+02  0.20000005094E+02 0.  0.
        -12    1    1    2    0    0  0.22698994025E+02  0.19143063291E+01  0.36942039446E+02  0.43400727838E+02  0.00000000000E+00 0.  1.
         11    1    3    3    0    0 -0.27514162420E+01  0.24368363132E+01 -0.52896863208E+01  0.64412144963E+01  0.51100000000E-03 0. -1.
        -11    1    3    3    0    0 -0.10155630536E+02 -0.37526204119E+01 -0.32604254179E+01  0.11307049381E+02  0.51100000000E-03 0.  1.
         12    1    3    3    0    0 -0.97919472470E+01 -0.59852223038E+00 -0.28391927707E+02  0.30039008284E+02  0.00000000000E+00 0. -1.
</event>
<event>
 7    1  0.4430431E-010  0.4778727E+02  0.7816164E-02  0.1312668E+00
        -11   -1    0    0    0    0  0.00000000000E+00  0.00000000000E+00  0.45593999997E+02  0.45594000000E+02  0.51100000000E-03 0.  1.
         11   -1    0    0    0    0 -0.00000000000E+00 -0.00000000000E+00 -0.45593999997E+02  0.45594000000E+02  0.51100000000E-03 0. -1.
    9900012    2    1    2    0    0 -0.25873852329E+02  0.11757510971E+02 -0.32801339229E+02  0.47787272428E+02  0.20000006307E+02 0.  0.
        -12    1    1    2    0    0  0.25873852329E+02 -0.11757510971E+02  0.32801339229E+02  0.43400727572E+02  0.00000000000E+00 0.  1.
         11    1    3    3    0    0 -0.59560695145E+01  0.94369967751E+01 -0.50291239775E+01  0.12240251649E+02  0.51100000000E-03 0. -1.
        -11    1    3    3    0    0 -0.50854931010E+01  0.42298177236E+01 -0.12673364650E+02  0.14295725580E+02  0.51100000000E-03 0.  1.
        -12    1    3    3    0    0 -0.14832289713E+02 -0.19093035280E+01 -0.15098850602E+02  0.21251295198E+02  0.00000000000E+00 0.  1.
</event>
<event>
 7    1  0.4430431E-010  0.4778727E+02  0.7816164E-02  0.1312668E+00
        -11   -1    0    0    0    0  0.00000000000E+00  0.00000000000E+00  0.45593999997E+02  0.45594000000E+02  0.51100000000E-03 0.  1.
         11   -1    0    0    0    0 -0.00000000000E+00 -0.00000000000E+00 -0.45593999997E+02  0.45594000000E+02  0.51100000000E-03 0. -1.
    9900012    2    1    2    0    0 -0.32659375548E+02 -0.12964022635E+01 -0.28553596390E+02  0.47787270320E+02  0.19999996696E+02 0.  0.
        -12    1    1    2    0    0  0.32659375548E+02  0.12964022635E+01  0.28553596390E+02  0.43400729680E+02  0.00000000000E+00 0.  1.
         11    1    3    3    0    0 -0.19643756477E+02  0.15815362230E+01 -0.14495410155E+02  0.24464164428E+02  0.51100000000E-03 0. -1.
        -11    1    3    3    0    0 -0.79094705235E+01  0.41310832380E+01 -0.33206352236E+01  0.95211444286E+01  0.51100000000E-03 0.  1.
         12    1    3    3    0    0 -0.51061485477E+01 -0.70090217245E+01 -0.10737551011E+02  0.13801961463E+02  0.00000000000E+00 0. -1.
</event>
<event>
 7    1  0.4430431E-010  0.4778727E+02  0.7816164E-02  0.1312668E+00
        -11   -1    0    0    0    0  0.00000000000E+00  0.00000000000E+00  0.45593999997E+02  0.45594000000E+02  0.51100000000E-03 0.  1.
         11   -1    0    0    0    0 -0.00000000000E+00 -0.00000000000E+00 -0.45593999997E+02  0.45594000000E+02  0.51100000000E-03 0. -1.
    9900012    2    1    2    0    0 -0.38078865836E+01 -0.24281835132E+02 -0.35770319199E+02  0.47787271282E+02  0.20000001084E+02 0.  0.
        -12    1    1    2    0    0  0.38078865836E+01  0.24281835132E+02  0.35770319199E+02  0.43400728718E+02  0.00000000000E+00 0.  1.
         11    1    3    3    0    0 -0.16072693888E+01  0.43172278544E+00 -0.22650205049E+01  0.28106969955E+01  0.51100000000E-03 0. -1.
        -11    1    3    3    0    0 -0.26017612108E+01  0.19860918304E+01 -0.43007098899E+01  0.54046117321E+01  0.51100000000E-03 0.  1.
         12    1    3    3    0    0  0.40114401597E+00 -0.26699649748E+02 -0.29204588805E+02  0.39571962555E+02  0.00000000000E+00 0. -1.
</event>
<event>
 7    1  0.4430431E-010  0.4778727E+02  0.7816164E-02  0.1312668E+00
        -11   -1    0    0    0    0  0.00000000000E+00  0.00000000000E+00  0.45593999997E+02  0.45594000000E+02  0.51100000000E-03 0.  1.
         11   -1    0    0    0    0 -0.00000000000E+00 -0.00000000000E+00 -0.45593999997E+02  0.45594000000E+02  0.51100000000E-03 0. -1.
    9900012    2    1    2    0    0  0.37749852269E+02  0.11688302141E+02 -0.17943110692E+02  0.47787274492E+02  0.20000015720E+02 0.  0.
        -12    1    1    2    0    0 -0.37749852269E+02 -0.11688302141E+02  0.17943110692E+02  0.43400725508E+02  0.00000000000E+00 0.  1.
         11    1    3    3    0    0  0.18236275322E+02  0.14346444560E+02 -0.94092462245E+01  0.25038293151E+02  0.51100000000E-03 0. -1.
        -11    1    3    3    0    0  0.67267749334E+01  0.79227252161E-01 -0.67873244071E+01  0.95563356383E+01  0.51100000000E-03 0.  1.
        -12    1    3    3    0    0  0.12786802014E+02 -0.27373696717E+01 -0.17465400607E+01  0.13192645703E+02  0.00000000000E+00 0.  1.
</event>
<event>
 7    1  0.4430431E-010  0.4778727E+02  0.7816164E-02  0.1312668E+00
        -11   -1    0    0    0    0  0.00000000000E+00  0.00000000000E+00  0.45593999997E+02  0.45594000000E+02  0.51100000000E-03 0. -1.
         11   -1    0    0    0    0 -0.00000000000E+00 -0.00000000000E+00 -0.45593999997E+02  0.45594000000E+02  0.51100000000E-03 0.  1.
    9900012    2    1    2    0    0  0.17491509597E+02  0.52883011719E+01  0.39366281277E+02  0.47787272600E+02  0.20000007094E+02 0.  0.
        -12    1    1    2    0    0 -0.17491509597E+02 -0.52883011719E+01 -0.39366281277E+02  0.43400727400E+02  0.00000000000E+00 0.  1.
         11    1    3    3    0    0  0.49076802971E+00  0.42569662368E+01  0.21700497368E+02  0.22119543420E+02  0.51100000000E-03 0. -1.
        -11    1    3    3    0    0  0.15760196005E+01  0.24226016562E-01 -0.64652811649E+00  0.17036500661E+01  0.51100000000E-03 0.  1.
         12    1    3    3    0    0  0.15424721967E+02  0.10071089186E+01  0.18312312025E+02  0.23964079115E+02  0.00000000000E+00 0. -1.
</event>
<event>
 7    1  0.4430431E-010  0.4778727E+02  0.7816164E-02  0.1312668E+00
        -11   -1    0    0    0    0  0.00000000000E+00  0.00000000000E+00  0.45593999997E+02  0.45594000000E+02  0.51100000000E-03 0.  1.
         11   -1    0    0    0    0 -0.00000000000E+00 -0.00000000000E+00 -0.45593999997E+02  0.45594000000E+02  0.51100000000E-03 0. -1.
    9900012    2    1    2    0    0  0.36516465544E+02  0.20177967646E+02 -0.11959117620E+02  0.47787272720E+02  0.20000007641E+02 0.  0.
        -12    1    1    2    0    0 -0.36516465544E+02 -0.20177967646E+02  0.11959117620E+02  0.43400727280E+02  0.00000000000E+00 0.  1.
         11    1    3    3    0    0  0.10765165729E+02  0.11819002713E+02 -0.13676840020E+01  0.16045191744E+02  0.51100000000E-03 0. -1.
        -11    1    3    3    0    0  0.22933202319E+02  0.11313163862E+02 -0.75890143553E+01  0.26674193227E+02  0.51100000000E-03 0.  1.
         12    1    3    3    0    0  0.28180974962E+01 -0.29541989293E+01 -0.30024192625E+01  0.50678877493E+01  0.00000000000E+00 0. -1.
</event>
<event>
 7    1  0.4430431E-010  0.4778727E+02  0.7816164E-02  0.1312668E+00
        -11   -1    0    0    0    0  0.00000000000E+00  0.00000000000E+00  0.45593999997E+02  0.45594000000E+02  0.51100000000E-03 0.  1.
         11   -1    0    0    0    0 -0.00000000000E+00 -0.00000000000E+00 -0.45593999997E+02  0.45594000000E+02  0.51100000000E-03 0. -1.
    9900012    2    1    2    0    0  0.49201483316E+01  0.39407525520E+02 -0.17506058440E+02  0.47787274093E+02  0.20000013897E+02 0.  0.
        -12    1    1    2    0    0 -0.49201483316E+01 -0.39407525520E+02  0.17506058440E+02  0.43400725907E+02  0.00000000000E+00 0.  1.
         11    1    3    3    0    0  0.55320987059E+01  0.22856512918E+01 -0.23912647989E+01  0.64456547782E+01  0.51100000000E-03 0. -1.
        -11    1    3    3    0    0 -0.16277629502E+01  0.11392946593E+02 -0.96502184553E+01  0.15019173106E+02  0.51100000000E-03 0.  1.
         12    1    3    3    0    0  0.10158125759E+01  0.25728927635E+02 -0.54645751861E+01  0.26322446208E+02  0.00000000000E+00 0. -1.
</event>
<event>
 7    1  0.4430431E-010  0.4778727E+02  0.7816164E-02  0.1312668E+00
        -11   -1    0    0    0    0  0.00000000000E+00  0.00000000000E+00  0.45593999997E+02  0.45594000000E+02  0.51100000000E-03 0.  1.
         11   -1    0    0    0    0 -0.00000000000E+00 -0.00000000000E+00 -0.45593999997E+02  0.45594000000E+02  0.51100000000E-03 0. -1.
    9900012    2    1    2    0    0  0.10570453231E+02  0.37430904948E+02  0.19256587027E+02  0.47787271081E+02  0.20000000166E+02 0.  0.
        -12    1    1    2    0    0 -0.10570453231E+02 -0.37430904948E+02 -0.19256587027E+02  0.43400728919E+02  0.00000000000E+00 0.  1.
         11    1    3    3    0    0  0.20105127325E+01  0.14078029812E+02  0.26734318842E+01  0.14469980067E+02  0.51100000000E-03 0. -1.
        -11    1    3    3    0    0  0.99186730489E+01  0.14932972169E+02  0.44232330234E+01  0.18464526083E+02  0.51100000000E-03 0.  1.
        -12    1    3    3    0    0 -0.13587325501E+01  0.84199029679E+01  0.12159922120E+02  0.14852764931E+02  0.00000000000E+00 0.  1.
</event>
<event>
 7    1  0.4430431E-010  0.4778727E+02  0.7816164E-02  0.1312668E+00
        -11   -1    0    0    0    0  0.00000000000E+00  0.00000000000E+00  0.45593999997E+02  0.45594000000E+02  0.51100000000E-03 0.  1.
         11   -1    0    0    0    0 -0.00000000000E+00 -0.00000000000E+00 -0.45593999997E+02  0.45594000000E+02  0.51100000000E-03 0. -1.
    9900012    2    1    2    0    0 -0.18078390080E+02 -0.37842123350E+02 -0.11169999417E+02  0.47787269885E+02  0.19999994715E+02 0.  0.
        -12    1    1    2    0    0  0.18078390080E+02  0.37842123350E+02  0.11169999417E+02  0.43400730115E+02  0.00000000000E+00 0.  1.
         11    1    3    3    0    0 -0.91365832492E+01 -0.15641074689E+02 -0.11387961169E+02  0.21396402285E+02  0.51100000000E-03 0. -1.
        -11    1    3    3    0    0 -0.24742685705E+01 -0.61205826261E+01 -0.50096213436E+01  0.82873302643E+01  0.51100000000E-03 0.  1.
        -12    1    3    3    0    0 -0.64675382599E+01 -0.16080466035E+02  0.52275830960E+01  0.18103537336E+02  0.00000000000E+00 0.  1.
</event>
<event>
 7    1  0.4430431E-010  0.4778727E+02  0.7816164E-02  0.1312668E+00
        -11   -1    0    0    0    0  0.00000000000E+00  0.00000000000E+00  0.45593999997E+02  0.45594000000E+02  0.51100000000E-03 0. -1.
         11   -1    0    0    0    0 -0.00000000000E+00 -0.00000000000E+00 -0.45593999997E+02  0.45594000000E+02  0.51100000000E-03 0.  1.
    9900012    2    1    2    0    0 -0.38356541787E+02 -0.20086174609E+02 -0.29907756835E+01  0.47787269044E+02  0.19999990881E+02 0.  0.
        -12    1    1    2    0    0  0.38356541787E+02  0.20086174609E+02  0.29907756835E+01  0.43400730956E+02  0.00000000000E+00 0.  1.
         11    1    3    3    0    0 -0.14106068019E+02 -0.10838859705E+01 -0.45607046444E+01  0.14864588486E+02  0.51100000000E-03 0. -1.
        -11    1    3    3    0    0 -0.15465597583E+02 -0.48387903009E+01  0.29995367846E+00  0.16207670180E+02  0.51100000000E-03 0.  1.
        -12    1    3    3    0    0 -0.87848761853E+01 -0.14163498337E+02  0.12699752824E+01  0.16715010379E+02  0.00000000000E+00 0.  1.
</event>
<event>
 7    1  0.4430431E-010  0.4778726E+02  0.7816164E-02  0.1312668E+00
        -11   -1    0    0    0    0  0.00000000000E+00  0.00000000000E+00  0.45593999997E+02  0.45594000000E+02  0.51100000000E-03 0.  1.
         11   -1    0    0    0    0 -0.00000000000E+00 -0.00000000000E+00 -0.45593999997E+02  0.45594000000E+02  0.51100000000E-03 0. -1.
    9900012    2    1    2    0    0  0.60540771987E+01  0.39635547206E+02  0.16613131015E+02  0.47787256053E+02  0.19999931648E+02 0.  0.
        -12    1    1    2    0    0 -0.60540771987E+01 -0.39635547206E+02 -0.16613131015E+02  0.43400743947E+02  0.00000000000E+00 0.  1.
         11    1    3    3    0    0  0.11117263254E+02  0.34967414510E+02  0.15744981721E+02  0.39927660456E+02  0.51100000000E-03 0. -1.
        -11    1    3    3    0    0 -0.17553385636E+00  0.21264023350E+01 -0.48225972255E+00  0.21874582799E+01  0.51100000000E-03 0.  1.
        -12    1    3    3    0    0 -0.48876521984E+01  0.25417303604E+01  0.13504090165E+01  0.56721373176E+01  0.00000000000E+00 0.  1.
</event>
<event>
 7    1  0.4430431E-010  0.4778727E+02  0.7816164E-02  0.1312668E+00
        -11   -1    0    0    0    0  0.00000000000E+00  0.00000000000E+00  0.45593999997E+02  0.45594000000E+02  0.51100000000E-03 0.  1.
         11   -1    0    0    0    0 -0.00000000000E+00 -0.00000000000E+00 -0.45593999997E+02  0.45594000000E+02  0.51100000000E-03 0. -1.
    9900012    2    1    2    0    0 -0.33868589234E+02 -0.16021101503E+02 -0.21905858167E+02  0.47787266687E+02  0.19999980135E+02 0.  0.
        -12    1    1    2    0    0  0.33868589234E+02  0.16021101503E+02  0.21905858167E+02  0.43400733313E+02  0.00000000000E+00 0.  1.
         11    1    3    3    0    0 -0.19728427411E+02 -0.28987421300E+01 -0.15294188557E+02  0.25130176241E+02  0.51100000000E-03 0. -1.
        -11    1    3    3    0    0 -0.94827400630E+01 -0.30265262471E+01 -0.49272712853E+00  0.99661928795E+01  0.51100000000E-03 0.  1.
        -12    1    3    3    0    0 -0.46574217600E+01 -0.10095833126E+02 -0.61189424811E+01  0.12690897567E+02  0.00000000000E+00 0.  1.
</event>
<event>
 7    1  0.4430431E-010  0.4778727E+02  0.7816164E-02  0.1312668E+00
        -11   -1    0    0    0    0  0.00000000000E+00  0.00000000000E+00  0.45593999997E+02  0.45594000000E+02  0.51100000000E-03 0.  1.
         11   -1    0    0    0    0 -0.00000000000E+00 -0.00000000000E+00 -0.45593999997E+02  0.45594000000E+02  0.51100000000E-03 0. -1.
    9900012    2    1    2    0    0 -0.30294040850E+02  0.14800563006E+02 -0.27328326263E+02  0.47787274284E+02  0.20000014772E+02 0.  0.
        -12    1    1    2    0    0  0.30294040850E+02 -0.14800563006E+02  0.27328326263E+02  0.43400725716E+02  0.00000000000E+00 0.  1.
         11    1    3    3    0    0 -0.95359467337E+01  0.45143422443E+01 -0.93946104720E+01  0.14127005068E+02  0.51100000000E-03 0. -1.
        -11    1    3    3    0    0 -0.18146327947E+01 -0.36553792408E+01 -0.60768577156E+01  0.73200334378E+01  0.51100000000E-03 0.  1.
        -12    1    3    3    0    0 -0.18943461321E+02  0.13941600002E+02 -0.11856858076E+02  0.26340235779E+02  0.00000000000E+00 0.  1.
</event>
<event>
 7    1  0.4430431E-010  0.4778727E+02  0.7816164E-02  0.1312668E+00
        -11   -1    0    0    0    0  0.00000000000E+00  0.00000000000E+00  0.45593999997E+02  0.45594000000E+02  0.51100000000E-03 0.  1.
         11   -1    0    0    0    0 -0.00000000000E+00 -0.00000000000E+00 -0.45593999997E+02  0.45594000000E+02  0.51100000000E-03 0. -1.
    9900012    2    1    2    0    0  0.37034568845E+01 -0.25596829686E+02 -0.34852687213E+02  0.47787273176E+02  0.20000009720E+02 0.  0.
        -12    1    1    2    0    0 -0.37034568845E+01  0.25596829686E+02  0.34852687213E+02  0.43400726824E+02  0.00000000000E+00 0.  1.
         11    1    3    3    0    0  0.21670528859E+01 -0.78932315979E+01 -0.56578589209E+01  0.99504065796E+01  0.51100000000E-03 0. -1.
        -11    1    3    3    0    0 -0.44966988667E+01 -0.11262743773E+02 -0.25562783134E+02  0.28293560748E+02  0.51100000000E-03 0.  1.
        -12    1    3    3    0    0  0.60331028653E+01 -0.64408543150E+01 -0.36320451579E+01  0.95433058486E+01  0.00000000000E+00 0.  1.
</event>
<event>
 7    1  0.4430431E-010  0.4778726E+02  0.7816164E-02  0.1312668E+00
        -11   -1    0    0    0    0  0.00000000000E+00  0.00000000000E+00  0.45593999997E+02  0.45594000000E+02  0.51100000000E-03 0. -1.
         11   -1    0    0    0    0 -0.00000000000E+00 -0.00000000000E+00 -0.45593999997E+02  0.45594000000E+02  0.51100000000E-03 0.  1.
    9900012    2    1    2    0    0  0.67512098341E+01 -0.36362396835E+02  0.22711696410E+02  0.47787263928E+02  0.19999967552E+02 0.  0.
        -12    1    1    2    0    0 -0.67512098341E+01  0.36362396835E+02 -0.22711696410E+02  0.43400736072E+02  0.00000000000E+00 0.  1.
         11    1    3    3    0    0  0.13896656618E+01 -0.20826592398E+02  0.12574807333E+02  0.24368091868E+02  0.51100000000E-03 0. -1.
        -11    1    3    3    0    0  0.79507004198E+01 -0.14762972875E+02  0.11558862363E+02  0.20365812153E+02  0.51100000000E-03 0.  1.
        -12    1    3    3    0    0 -0.25891562475E+01 -0.77283156153E+00 -0.14219732852E+01  0.30533599068E+01  0.00000000000E+00 0.  1.
</event>
<event>
 7    1  0.4430431E-010  0.4778728E+02  0.7816164E-02  0.1312668E+00
        -11   -1    0    0    0    0  0.00000000000E+00  0.00000000000E+00  0.45593999997E+02  0.45594000000E+02  0.51100000000E-03 0. -1.
         11   -1    0    0    0    0 -0.00000000000E+00 -0.00000000000E+00 -0.45593999997E+02  0.45594000000E+02  0.51100000000E-03 0.  1.
    9900012    2    1    2    0    0  0.12483380902E+02  0.35866653274E+02  0.21008838687E+02  0.47787275135E+02  0.20000018650E+02 0.  0.
        -12    1    1    2    0    0 -0.12483380902E+02 -0.35866653274E+02 -0.21008838687E+02  0.43400724865E+02  0.00000000000E+00 0.  1.
         11    1    3    3    0    0  0.14840568599E+01  0.72943416470E+01  0.10464980223E+02  0.12842338422E+02  0.51100000000E-03 0. -1.
        -11    1    3    3    0    0  0.22084730637E+01  0.73890214132E+01  0.91516739292E+01  0.11967795398E+02  0.51100000000E-03 0.  1.
        -12    1    3    3    0    0  0.87908509783E+01  0.21183290214E+02  0.13921845348E+01  0.22977141315E+02  0.00000000000E+00 0.  1.
</event>
<event>
 7    1  0.4430431E-010  0.4778726E+02  0.7816164E-02  0.1312668E+00
        -11   -1    0    0    0    0  0.00000000000E+00  0.00000000000E+00  0.45593999997E+02  0.45594000000E+02  0.51100000000E-03 0.  1.
         11   -1    0    0    0    0 -0.00000000000E+00 -0.00000000000E+00 -0.45593999997E+02  0.45594000000E+02  0.51100000000E-03 0. -1.
    9900012    2    1    2    0    0  0.62389726639E+01 -0.40162024697E+02 -0.15222050356E+02  0.47787264699E+02  0.19999971067E+02 0.  0.
        -12    1    1    2    0    0 -0.62389726639E+01  0.40162024697E+02  0.15222050356E+02  0.43400735301E+02  0.00000000000E+00 0.  1.
         11    1    3    3    0    0  0.32927535078E+01 -0.87790270980E+01 -0.43785321634E+01  0.10348192432E+02  0.51100000000E-03 0. -1.
        -11    1    3    3    0    0 -0.66019757888E+01 -0.18870592178E+02 -0.74706235486E+01  0.21342341716E+02  0.51100000000E-03 0.  1.
        -12    1    3    3    0    0  0.95481949449E+01 -0.12512405420E+02 -0.33728946444E+01  0.16096730550E+02  0.00000000000E+00 0.  1.
</event>
<event>
 7    1  0.4430431E-010  0.4778728E+02  0.7816164E-02  0.1312668E+00
        -11   -1    0    0    0    0  0.00000000000E+00  0.00000000000E+00  0.45593999997E+02  0.45594000000E+02  0.51100000000E-03 0.  1.
         11   -1    0    0    0    0 -0.00000000000E+00 -0.00000000000E+00 -0.45593999997E+02  0.45594000000E+02  0.51100000000E-03 0. -1.
    9900012    2    1    2    0    0  0.67540999124E+01 -0.24617493487E+01 -0.42801222059E+02  0.47787277826E+02  0.20000030919E+02 0.  0.
        -12    1    1    2    0    0 -0.67540999124E+01  0.24617493487E+01  0.42801222059E+02  0.43400722174E+02  0.00000000000E+00 0.  1.
         11    1    3    3    0    0 -0.19831251846E+01 -0.21198347319E+01 -0.13719400409E+02  0.14023139186E+02  0.51100000000E-03 0. -1.
        -11    1    3    3    0    0 -0.39746757091E+01 -0.10292878209E-01 -0.10683982124E+02  0.11399369598E+02  0.51100000000E-03 0.  1.
         12    1    3    3    0    0  0.12711900806E+02 -0.33162173859E+00 -0.18397839526E+02  0.22364769042E+02  0.00000000000E+00 0. -1.
</event>
<event>
 7    1  0.4430431E-010  0.4778727E+02  0.7816164E-02  0.1312668E+00
        -11   -1    0    0    0    0  0.00000000000E+00  0.00000000000E+00  0.45593999997E+02  0.45594000000E+02  0.51100000000E-03 0. -1.
         11   -1    0    0    0    0 -0.00000000000E+00 -0.00000000000E+00 -0.45593999997E+02  0.45594000000E+02  0.51100000000E-03 0.  1.
    9900012    2    1    2    0    0  0.32349582646E+02  0.28255643043E+02  0.62246697607E+01  0.47787269883E+02  0.19999994702E+02 0.  0.
        -12    1    1    2    0    0 -0.32349582646E+02 -0.28255643043E+02 -0.62246697607E+01  0.43400730117E+02  0.00000000000E+00 0.  1.
         11    1    3    3    0    0  0.10067443374E+02  0.40359280359E+01  0.48514942657E+01  0.11881882345E+02  0.51100000000E-03 0. -1.
        -11    1    3    3    0    0  0.33355682788E+01 -0.14298104379E+01  0.17177826263E+01  0.40151153213E+01  0.51100000000E-03 0.  1.
         12    1    3    3    0    0  0.18946570993E+02  0.25649525445E+02 -0.34460713131E+00  0.31890272216E+02  0.00000000000E+00 0. -1.
</event>
<event>
 7    1  0.4430431E-010  0.4778730E+02  0.7816164E-02  0.1312668E+00
        -11   -1    0    0    0    0  0.00000000000E+00  0.00000000000E+00  0.45593999997E+02  0.45594000000E+02  0.51100000000E-03 0.  1.
         11   -1    0    0    0    0 -0.00000000000E+00 -0.00000000000E+00 -0.45593999997E+02  0.45594000000E+02  0.51100000000E-03 0. -1.
    9900012    2    1    2    0    0 -0.87468865184E+01 -0.80737674465E-01 -0.42510073825E+02  0.47787298174E+02  0.20000123695E+02 0.  0.
        -12    1    1    2    0    0  0.87468865184E+01  0.80737674465E-01  0.42510073825E+02  0.43400701826E+02  0.00000000000E+00 0.  1.
         11    1    3    3    0    0 -0.36742108340E+01  0.18350390050E+01 -0.39897874270E+02  0.40108696874E+02  0.51100000000E-03 0. -1.
        -11    1    3    3    0    0 -0.43802269257E+01 -0.14002896676E+00 -0.34686345926E+01  0.55890448406E+01  0.51100000000E-03 0.  1.
        -12    1    3    3    0    0 -0.69244875873E+00 -0.17757477127E+01  0.85643503760E+00  0.20895564592E+01  0.00000000000E+00 0.  1.
</event>
<event>
 7    1  0.4430431E-010  0.4778727E+02  0.7816164E-02  0.1312668E+00
        -11   -1    0    0    0    0  0.00000000000E+00  0.00000000000E+00  0.45593999997E+02  0.45594000000E+02  0.51100000000E-03 0.  1.
         11   -1    0    0    0    0 -0.00000000000E+00 -0.00000000000E+00 -0.45593999997E+02  0.45594000000E+02  0.51100000000E-03 0. -1.
    9900012    2    1    2    0    0  0.28055815149E+02 -0.54696307978E+00 -0.33108843114E+02  0.47787269308E+02  0.19999992084E+02 0.  0.
        -12    1    1    2    0    0 -0.28055815149E+02  0.54696307978E+00  0.33108843114E+02  0.43400730692E+02  0.00000000000E+00 0.  1.
         11    1    3    3    0    0  0.10189473445E+02  0.18850957666E+00 -0.19975606345E+01  0.10385141005E+02  0.51100000000E-03 0. -1.
        -11    1    3    3    0    0  0.10227258911E+02  0.45727440397E+01 -0.14049991974E+02  0.17969671328E+02  0.51100000000E-03 0.  1.
         12    1    3    3    0    0  0.76390827922E+01 -0.53082166961E+01 -0.17061290505E+02  0.19432456975E+02  0.00000000000E+00 0. -1.
</event>
<event>
 7    1  0.4430431E-010  0.4778727E+02  0.7816164E-02  0.1312668E+00
        -11   -1    0    0    0    0  0.00000000000E+00  0.00000000000E+00  0.45593999997E+02  0.45594000000E+02  0.51100000000E-03 0. -1.
         11   -1    0    0    0    0 -0.00000000000E+00 -0.00000000000E+00 -0.45593999997E+02  0.45594000000E+02  0.51100000000E-03 0.  1.
    9900012    2    1    2    0    0  0.81850507775E+01 -0.36072363705E+02  0.22702701426E+02  0.47787272685E+02  0.20000007478E+02 0.  0.
        -12    1    1    2    0    0 -0.81850507775E+01  0.36072363705E+02 -0.22702701426E+02  0.43400727315E+02  0.00000000000E+00 0.  1.
         11    1    3    3    0    0  0.18353041744E+01 -0.87728669502E+01  0.87411264518E+01  0.12519537845E+02  0.51100000000E-03 0. -1.
        -11    1    3    3    0    0 -0.50860032511E+01 -0.63373835045E+01  0.59850912089E+01  0.10092134353E+02  0.51100000000E-03 0.  1.
         12    1    3    3    0    0  0.11435749854E+02 -0.20962113250E+02  0.79764837650E+01  0.25175600487E+02  0.00000000000E+00 0. -1.
</event>
<event>
 7    1  0.4430431E-010  0.4778727E+02  0.7816164E-02  0.1312668E+00
        -11   -1    0    0    0    0  0.00000000000E+00  0.00000000000E+00  0.45593999997E+02  0.45594000000E+02  0.51100000000E-03 0.  1.
         11   -1    0    0    0    0 -0.00000000000E+00 -0.00000000000E+00 -0.45593999997E+02  0.45594000000E+02  0.51100000000E-03 0. -1.
    9900012    2    1    2    0    0 -0.39665042890E+02 -0.15566818991E+02  0.82450932636E+01  0.47787273694E+02  0.20000012081E+02 0.  0.
        -12    1    1    2    0    0  0.39665042890E+02  0.15566818991E+02 -0.82450932636E+01  0.43400726306E+02  0.00000000000E+00 0.  1.
         11    1    3    3    0    0 -0.74947948823E+01 -0.10987707929E+02  0.10518786555E+01  0.13341968552E+02  0.51100000000E-03 0. -1.
        -11    1    3    3    0    0 -0.42331350421E+01 -0.51603093780E+00 -0.20607278875E+01  0.47362770085E+01  0.51100000000E-03 0.  1.
        -12    1    3    3    0    0 -0.27937112965E+02 -0.40630801239E+01  0.92539424956E+01  0.29709028134E+02  0.00000000000E+00 0.  1.
</event>
<event>
 7    1  0.4430431E-010  0.4778727E+02  0.7816164E-02  0.1312668E+00
        -11   -1    0    0    0    0  0.00000000000E+00  0.00000000000E+00  0.45593999997E+02  0.45594000000E+02  0.51100000000E-03 0.  1.
         11   -1    0    0    0    0 -0.00000000000E+00 -0.00000000000E+00 -0.45593999997E+02  0.45594000000E+02  0.51100000000E-03 0. -1.
    9900012    2    1    2    0    0 -0.18177946636E+02 -0.36512592588E+02  0.14832945099E+02  0.47787269341E+02  0.19999992232E+02 0.  0.
        -12    1    1    2    0    0  0.18177946636E+02  0.36512592588E+02 -0.14832945099E+02  0.43400730659E+02  0.00000000000E+00 0.  1.
         11    1    3    3    0    0 -0.15221255921E+02 -0.28007626072E+02  0.88773490945E+01  0.33089591674E+02  0.51100000000E-03 0. -1.
        -11    1    3    3    0    0 -0.69647049336E+00 -0.97246482461E+01  0.19550109403E+01  0.99436372971E+01  0.51100000000E-03 0.  1.
         12    1    3    3    0    0 -0.22602202222E+01  0.12196817293E+01  0.40005850646E+01  0.47540403693E+01  0.00000000000E+00 0. -1.
</event>
<event>
 7    1  0.4430431E-010  0.4778727E+02  0.7816164E-02  0.1312668E+00
        -11   -1    0    0    0    0  0.00000000000E+00  0.00000000000E+00  0.45593999997E+02  0.45594000000E+02  0.51100000000E-03 0.  1.
         11   -1    0    0    0    0 -0.00000000000E+00 -0.00000000000E+00 -0.45593999997E+02  0.45594000000E+02  0.51100000000E-03 0. -1.
    9900012    2    1    2    0    0 -0.13339018778E+02 -0.29054288128E+02 -0.29352038199E+02  0.47787271585E+02  0.20000002464E+02 0.  0.
        -12    1    1    2    0    0  0.13339018778E+02  0.29054288128E+02  0.29352038199E+02  0.43400728415E+02  0.00000000000E+00 0.  1.
         11    1    3    3    0    0  0.16299101056E+01 -0.34844364617E+01 -0.52600683285E+01  0.65166113502E+01  0.51100000000E-03 0. -1.
        -11    1    3    3    0    0  0.29832883356E+01 -0.64651796923E+01 -0.34972631118E+01  0.79328057636E+01  0.51100000000E-03 0.  1.
        -12    1    3    3    0    0 -0.17952217219E+02 -0.19104671973E+02 -0.20594706758E+02  0.33337854471E+02  0.00000000000E+00 0.  1.
</event>
<event>
 7    1  0.4430431E-010  0.4778727E+02  0.7816164E-02  0.1312668E+00
        -11   -1    0    0    0    0  0.00000000000E+00  0.00000000000E+00  0.45593999997E+02  0.45594000000E+02  0.51100000000E-03 0. -1.
         11   -1    0    0    0    0 -0.00000000000E+00 -0.00000000000E+00 -0.45593999997E+02  0.45594000000E+02  0.51100000000E-03 0.  1.
    9900012    2    1    2    0    0 -0.41837189533E+02 -0.65503863955E+01 -0.95060661543E+01  0.47787270932E+02  0.19999999485E+02 0.  0.
        -12    1    1    2    0    0  0.41837189533E+02  0.65503863955E+01  0.95060661543E+01  0.43400729068E+02  0.00000000000E+00 0.  1.
         11    1    3    3    0    0 -0.65095932049E+01 -0.35800078007E+01 -0.43790648216E+01  0.86236574908E+01  0.51100000000E-03 0. -1.
        -11    1    3    3    0    0 -0.12449908459E+02  0.16780368746E+01 -0.90610398953E+01  0.15489301877E+02  0.51100000000E-03 0.  1.
         12    1    3    3    0    0 -0.22877687869E+02 -0.46484154694E+01  0.39340385627E+01  0.23674311564E+02  0.00000000000E+00 0. -1.
</event>
<event>
 7    1  0.4430431E-010  0.4778727E+02  0.7816164E-02  0.1312668E+00
        -11   -1    0    0    0    0  0.00000000000E+00  0.00000000000E+00  0.45593999997E+02  0.45594000000E+02  0.51100000000E-03 0.  1.
         11   -1    0    0    0    0 -0.00000000000E+00 -0.00000000000E+00 -0.45593999997E+02  0.45594000000E+02  0.51100000000E-03 0. -1.
    9900012    2    1    2    0    0  0.39954859422E+02  0.16352736318E+02  0.44520065685E+01  0.47787272599E+02  0.20000007087E+02 0.  0.
        -12    1    1    2    0    0 -0.39954859422E+02 -0.16352736318E+02 -0.44520065685E+01  0.43400727401E+02  0.00000000000E+00 0.  1.
         11    1    3    3    0    0  0.86964358672E+01  0.96575771392E+01  0.91052179877E+00  0.13027887135E+02  0.51100000000E-03 0. -1.
        -11    1    3    3    0    0  0.79325731230E+01  0.77426011096E+01  0.26283440239E+01  0.11392180690E+02  0.51100000000E-03 0.  1.
         12    1    3    3    0    0  0.23325850431E+02 -0.10474419313E+01  0.91314074583E+00  0.23367204774E+02  0.00000000000E+00 0. -1.
</event>
<event>
 7    1  0.4430431E-010  0.4778728E+02  0.7816164E-02  0.1312668E+00
        -11   -1    0    0    0    0  0.00000000000E+00  0.00000000000E+00  0.45593999997E+02  0.45594000000E+02  0.51100000000E-03 0.  1.
         11   -1    0    0    0    0 -0.00000000000E+00 -0.00000000000E+00 -0.45593999997E+02  0.45594000000E+02  0.51100000000E-03 0. -1.
    9900012    2    1    2    0    0 -0.35604200557E+02  0.22288481563E+02 -0.10917268212E+02  0.47787282807E+02  0.20000053629E+02 0.  0.
        -12    1    1    2    0    0  0.35604200557E+02 -0.22288481563E+02  0.10917268212E+02  0.43400717193E+02  0.00000000000E+00 0.  1.
         11    1    3    3    0    0 -0.14198533962E+02  0.12848485990E+02 -0.39482964160E+01  0.19551751935E+02  0.51100000000E-03 0. -1.
        -11    1    3    3    0    0 -0.12161987664E+02  0.69550774354E+01 -0.11036662624E+02  0.17835217078E+02  0.51100000000E-03 0.  1.
        -12    1    3    3    0    0 -0.92436789310E+01  0.24849181379E+01  0.40676908277E+01  0.10400313793E+02  0.00000000000E+00 0.  1.
</event>
<event>
 7    1  0.4430431E-010  0.4778727E+02  0.7816164E-02  0.1312668E+00
        -11   -1    0    0    0    0  0.00000000000E+00  0.00000000000E+00  0.45593999997E+02  0.45594000000E+02  0.51100000000E-03 0.  1.
         11   -1    0    0    0    0 -0.00000000000E+00 -0.00000000000E+00 -0.45593999997E+02  0.45594000000E+02  0.51100000000E-03 0. -1.
    9900012    2    1    2    0    0  0.22078693546E+02  0.90926982734E+01  0.36241929598E+02  0.47787270380E+02  0.19999996970E+02 0.  0.
        -12    1    1    2    0    0 -0.22078693546E+02 -0.90926982734E+01 -0.36241929598E+02  0.43400729620E+02  0.00000000000E+00 0.  1.
         11    1    3    3    0    0  0.85395943646E+01 -0.59213291946E+01  0.11951661957E+02  0.15837582996E+02  0.51100000000E-03 0. -1.
        -11    1    3    3    0    0  0.16951375353E+01  0.29244211429E+01  0.68988443778E+01  0.76824334878E+01  0.51100000000E-03 0.  1.
         12    1    3    3    0    0  0.11843961646E+02  0.12089606325E+02  0.17391423263E+02  0.24267253896E+02  0.00000000000E+00 0. -1.
</event>
<event>
 7    1  0.4430431E-010  0.4778727E+02  0.7816164E-02  0.1312668E+00
        -11   -1    0    0    0    0  0.00000000000E+00  0.00000000000E+00  0.45593999997E+02  0.45594000000E+02  0.51100000000E-03 0.  1.
         11   -1    0    0    0    0 -0.00000000000E+00 -0.00000000000E+00 -0.45593999997E+02  0.45594000000E+02  0.51100000000E-03 0. -1.
    9900012    2    1    2    0    0  0.28796623106E+02 -0.23218484827E+02 -0.22699768031E+02  0.47787274100E+02  0.20000013931E+02 0.  0.
        -12    1    1    2    0    0 -0.28796623106E+02  0.23218484827E+02  0.22699768031E+02  0.43400725900E+02  0.00000000000E+00 0.  1.
         11    1    3    3    0    0  0.20921233863E+02 -0.16827703821E+02 -0.21312810323E+02  0.34279812227E+02  0.51100000000E-03 0. -1.
        -11    1    3    3    0    0 -0.68550125682E+00 -0.17750158810E+01 -0.30945517774E+01  0.36327461121E+01  0.51100000000E-03 0.  1.
        -12    1    3    3    0    0  0.85608904997E+01 -0.46157651259E+01  0.17075940693E+01  0.98747157605E+01  0.00000000000E+00 0.  1.
</event>
<event>
 7    1  0.4430431E-010  0.4778727E+02  0.7816164E-02  0.1312668E+00
        -11   -1    0    0    0    0  0.00000000000E+00  0.00000000000E+00  0.45593999997E+02  0.45594000000E+02  0.51100000000E-03 0. -1.
         11   -1    0    0    0    0 -0.00000000000E+00 -0.00000000000E+00 -0.45593999997E+02  0.45594000000E+02  0.51100000000E-03 0.  1.
    9900012    2    1    2    0    0  0.20581559257E+02 -0.37564523589E+02  0.69949478015E+01  0.47787270644E+02  0.19999998175E+02 0.  0.
        -12    1    1    2    0    0 -0.20581559257E+02  0.37564523589E+02 -0.69949478015E+01  0.43400729356E+02  0.00000000000E+00 0.  1.
         11    1    3    3    0    0 -0.36834612772E-02 -0.10520925050E+02  0.22910157544E+01  0.10767480249E+02  0.51100000000E-03 0. -1.
        -11    1    3    3    0    0 -0.16898421339E+01 -0.49882337028E+01  0.16769962717E+01  0.55272378877E+01  0.51100000000E-03 0.  1.
         12    1    3    3    0    0  0.22275084852E+02 -0.22055364836E+02  0.30269357754E+01  0.31492552507E+02  0.00000000000E+00 0. -1.
</event>
<event>
 7    1  0.4430431E-010  0.4778727E+02  0.7816164E-02  0.1312668E+00
        -11   -1    0    0    0    0  0.00000000000E+00  0.00000000000E+00  0.45593999997E+02  0.45594000000E+02  0.51100000000E-03 0.  1.
         11   -1    0    0    0    0 -0.00000000000E+00 -0.00000000000E+00 -0.45593999997E+02  0.45594000000E+02  0.51100000000E-03 0. -1.
    9900012    2    1    2    0    0  0.25913001524E+02 -0.27273014021E+02 -0.21640758875E+02  0.47787269748E+02  0.19999994088E+02 0.  0.
        -12    1    1    2    0    0 -0.25913001524E+02  0.27273014021E+02  0.21640758875E+02  0.43400730252E+02  0.00000000000E+00 0.  1.
         11    1    3    3    0    0  0.71726063233E+01 -0.89032490063E+01 -0.54210682382E+01  0.12653146069E+02  0.51100000000E-03 0. -1.
        -11    1    3    3    0    0  0.12997981623E+02 -0.11904787635E+01 -0.68439893526E+01  0.14737874897E+02  0.51100000000E-03 0.  1.
         12    1    3    3    0    0  0.57424135769E+01 -0.17179286251E+02 -0.93757012838E+01  0.20396248781E+02  0.00000000000E+00 0. -1.
</event>
<event>
 7    1  0.4430431E-010  0.4778730E+02  0.7816164E-02  0.1312668E+00
        -11   -1    0    0    0    0  0.00000000000E+00  0.00000000000E+00  0.45593999997E+02  0.45594000000E+02  0.51100000000E-03 0.  1.
         11   -1    0    0    0    0 -0.00000000000E+00 -0.00000000000E+00 -0.45593999997E+02  0.45594000000E+02  0.51100000000E-03 0. -1.
    9900012    2    1    2    0    0 -0.29206942962E+02 -0.31955033238E+02  0.30743204005E+01  0.47787295946E+02  0.20000113537E+02 0.  0.
        -12    1    1    2    0    0  0.29206942962E+02  0.31955033238E+02 -0.30743204005E+01  0.43400704054E+02  0.00000000000E+00 0.  1.
         11    1    3    3    0    0 -0.54900090237E+01 -0.50126236682E+01  0.23872655765E+01  0.78080492002E+01  0.51100000000E-03 0. -1.
        -11    1    3    3    0    0 -0.81797064844E+01 -0.28870738506E+01  0.63980222544E+01  0.10778565889E+02  0.51100000000E-03 0.  1.
         12    1    3    3    0    0 -0.15537227454E+02 -0.24055335719E+02 -0.57109674304E+01  0.29200680857E+02  0.00000000000E+00 0. -1.
</event>
<event>
 7    1  0.4430431E-010  0.4778727E+02  0.7816164E-02  0.1312668E+00
        -11   -1    0    0    0    0  0.00000000000E+00  0.00000000000E+00  0.45593999997E+02  0.45594000000E+02  0.51100000000E-03 0.  1.
         11   -1    0    0    0    0 -0.00000000000E+00 -0.00000000000E+00 -0.45593999997E+02  0.45594000000E+02  0.51100000000E-03 0. -1.
    9900012    2    1    2    0    0  0.24633703652E+02 -0.28254847659E+02 -0.21873896507E+02  0.47787272814E+02  0.20000008067E+02 0.  0.
        -12    1    1    2    0    0 -0.24633703652E+02  0.28254847659E+02  0.21873896507E+02  0.43400727186E+02  0.00000000000E+00 0.  1.
         11    1    3    3    0    0  0.16969275448E+01 -0.77052297618E+01 -0.34873871955E+01  0.86262389537E+01  0.51100000000E-03 0. -1.
        -11    1    3    3    0    0  0.22272221943E+02 -0.16646631462E+02 -0.94179307226E+01  0.29357445881E+02  0.51100000000E-03 0.  1.
        -12    1    3    3    0    0  0.66455416466E+00 -0.39029864358E+01 -0.89685785890E+01  0.98035879791E+01  0.00000000000E+00 0.  1.
</event>
<event>
 7    1  0.4430431E-010  0.4778727E+02  0.7816164E-02  0.1312668E+00
        -11   -1    0    0    0    0  0.00000000000E+00  0.00000000000E+00  0.45593999997E+02  0.45594000000E+02  0.51100000000E-03 0.  1.
         11   -1    0    0    0    0 -0.00000000000E+00 -0.00000000000E+00 -0.45593999997E+02  0.45594000000E+02  0.51100000000E-03 0. -1.
    9900012    2    1    2    0    0 -0.29416545958E+02 -0.31637792910E+02 -0.41641770402E+01  0.47787268592E+02  0.19999988819E+02 0.  0.
        -12    1    1    2    0    0  0.29416545958E+02  0.31637792910E+02  0.41641770402E+01  0.43400731408E+02  0.00000000000E+00 0.  1.
         11    1    3    3    0    0 -0.22971950401E+01 -0.10995106659E+02 -0.29885209664E+01  0.11623284102E+02  0.51100000000E-03 0. -1.
        -11    1    3    3    0    0 -0.14600205135E+02 -0.37268408816E+01 -0.12400519540E+01  0.15119294363E+02  0.51100000000E-03 0.  1.
         12    1    3    3    0    0 -0.12519145783E+02 -0.16915845369E+02  0.64395880290E-01  0.21044690127E+02  0.00000000000E+00 0. -1.
</event>
<event>
 7    1  0.4430431E-010  0.4778728E+02  0.7816164E-02  0.1312668E+00
        -11   -1    0    0    0    0  0.00000000000E+00  0.00000000000E+00  0.45593999997E+02  0.45594000000E+02  0.51100000000E-03 0.  1.
         11   -1    0    0    0    0 -0.00000000000E+00 -0.00000000000E+00 -0.45593999997E+02  0.45594000000E+02  0.51100000000E-03 0. -1.
    9900012    2    1    2    0    0 -0.27524956424E+02 -0.20678745902E+02 -0.26427050680E+02  0.47787276897E+02  0.20000026682E+02 0.  0.
        -12    1    1    2    0    0  0.27524956424E+02  0.20678745902E+02  0.26427050680E+02  0.43400723103E+02  0.00000000000E+00 0.  1.
         11    1    3    3    0    0 -0.10733022945E+02 -0.25802115846E+01 -0.55423724811E+01  0.12352051098E+02  0.51100000000E-03 0. -1.
        -11    1    3    3    0    0 -0.85204033853E+01 -0.27656693457E+00 -0.35537582939E+01  0.92359602311E+01  0.51100000000E-03 0.  1.
         12    1    3    3    0    0 -0.82715300941E+01 -0.17821967383E+02 -0.17330919905E+02  0.26199265567E+02  0.00000000000E+00 0. -1.
</event>
<event>
 7    1  0.4430431E-010  0.4778727E+02  0.7816164E-02  0.1312668E+00
        -11   -1    0    0    0    0  0.00000000000E+00  0.00000000000E+00  0.45593999997E+02  0.45594000000E+02  0.51100000000E-03 0. -1.
         11   -1    0    0    0    0 -0.00000000000E+00 -0.00000000000E+00 -0.45593999997E+02  0.45594000000E+02  0.51100000000E-03 0.  1.
    9900012    2    1    2    0    0 -0.45776416959E+01  0.26385938999E+02  0.34153346127E+02  0.47787266919E+02  0.19999981189E+02 0.  0.
        -12    1    1    2    0    0  0.45776416959E+01 -0.26385938999E+02 -0.34153346127E+02  0.43400733081E+02  0.00000000000E+00 0.  1.
         11    1    3    3    0    0 -0.61331632597E+00  0.29748613105E+01 -0.15827632936E+01  0.34250688514E+01  0.51100000000E-03 0. -1.
        -11    1    3    3    0    0 -0.49618786114E+00 -0.42410663637E+00  0.62723594890E+01  0.63062320488E+01  0.51100000000E-03 0.  1.
         12    1    3    3    0    0 -0.34681375088E+01  0.23835184325E+02  0.29463749932E+02  0.38055966018E+02  0.00000000000E+00 0. -1.
</event>
<event>
 7    1  0.4430431E-010  0.4778725E+02  0.7816164E-02  0.1312668E+00
        -11   -1    0    0    0    0  0.00000000000E+00  0.00000000000E+00  0.45593999997E+02  0.45594000000E+02  0.51100000000E-03 0.  1.
         11   -1    0    0    0    0 -0.00000000000E+00 -0.00000000000E+00 -0.45593999997E+02  0.45594000000E+02  0.51100000000E-03 0. -1.
    9900012    2    1    2    0    0  0.38770510065E+01 -0.28376348605E+02 -0.32609451568E+02  0.47787250972E+02  0.19999908479E+02 0.  0.
        -12    1    1    2    0    0 -0.38770510065E+01  0.28376348605E+02  0.32609451568E+02  0.43400749028E+02  0.00000000000E+00 0.  1.
         11    1    3    3    0    0  0.10172527387E+01 -0.12980245538E+02 -0.67092170251E+01  0.14647019175E+02  0.51100000000E-03 0. -1.
        -11    1    3    3    0    0 -0.63785379362E+00  0.32580336510E+00  0.13257885260E+01  0.15068910948E+01  0.51100000000E-03 0.  1.
         12    1    3    3    0    0  0.34976520615E+01 -0.15721906432E+02 -0.27226023069E+02  0.31633340702E+02  0.00000000000E+00 0. -1.
</event>
<event>
 7    1  0.4430431E-010  0.4778727E+02  0.7816164E-02  0.1312668E+00
        -11   -1    0    0    0    0  0.00000000000E+00  0.00000000000E+00  0.45593999997E+02  0.45594000000E+02  0.51100000000E-03 0.  1.
         11   -1    0    0    0    0 -0.00000000000E+00 -0.00000000000E+00 -0.45593999997E+02  0.45594000000E+02  0.51100000000E-03 0. -1.
    9900012    2    1    2    0    0 -0.24132480795E+01 -0.37949359901E+02 -0.20919979940E+02  0.47787271390E+02  0.20000001575E+02 0.  0.
        -12    1    1    2    0    0  0.24132480795E+01  0.37949359901E+02  0.20919979940E+02  0.43400728610E+02  0.00000000000E+00 0.  1.
         11    1    3    3    0    0 -0.10008626746E+01  0.55443126013E+00 -0.14793277370E+01  0.18701686903E+01  0.51100000000E-03 0.  1.
        -11    1    3    3    0    0  0.32679542322E+01 -0.19988816344E+02 -0.17416649779E+02  0.26712768361E+02  0.51100000000E-03 0. -1.
         12    1    3    3    0    0 -0.46803396371E+01 -0.18514974817E+02 -0.20240024243E+01  0.19204334339E+02  0.00000000000E+00 0. -1.
</event>
<event>
 7    1  0.4430431E-010  0.4778727E+02  0.7816164E-02  0.1312668E+00
        -11   -1    0    0    0    0  0.00000000000E+00  0.00000000000E+00  0.45593999997E+02  0.45594000000E+02  0.51100000000E-03 0. -1.
         11   -1    0    0    0    0 -0.00000000000E+00 -0.00000000000E+00 -0.45593999997E+02  0.45594000000E+02  0.51100000000E-03 0.  1.
    9900012    2    1    2    0    0  0.37025245037E+02  0.19869241588E+02  0.10861297066E+02  0.47787270683E+02  0.19999998350E+02 0.  0.
        -12    1    1    2    0    0 -0.37025245037E+02 -0.19869241588E+02 -0.10861297066E+02  0.43400729317E+02  0.00000000000E+00 0.  1.
         11    1    3    3    0    0  0.20331400989E+02  0.16171462388E+02  0.31333753625E+01  0.26166774799E+02  0.51100000000E-03 0.  1.
        -11    1    3    3    0    0  0.74412741181E+01  0.70161642868E+01  0.51881788648E+01  0.11468056592E+02  0.51100000000E-03 0. -1.
        -12    1    3    3    0    0  0.92525699294E+01 -0.33183850871E+01  0.25397428389E+01  0.10152439292E+02  0.00000000000E+00 0.  1.
</event>
<event>
 7    1  0.4430431E-010  0.4778728E+02  0.7816164E-02  0.1312668E+00
        -11   -1    0    0    0    0  0.00000000000E+00  0.00000000000E+00  0.45593999997E+02  0.45594000000E+02  0.51100000000E-03 0. -1.
         11   -1    0    0    0    0 -0.00000000000E+00 -0.00000000000E+00 -0.45593999997E+02  0.45594000000E+02  0.51100000000E-03 0.  1.
    9900012    2    1    2    0    0 -0.34844782317E+02 -0.23233266314E+02  0.11387683270E+02  0.47787275944E+02  0.20000022339E+02 0.  0.
        -12    1    1    2    0    0  0.34844782317E+02  0.23233266314E+02 -0.11387683270E+02  0.43400724056E+02  0.00000000000E+00 0.  1.
         11    1    3    3    0    0 -0.76568828634E+01 -0.66657338462E+01  0.21539570190E+01  0.10377831854E+02  0.51100000000E-03 0. -1.
        -11    1    3    3    0    0 -0.24111507446E+02 -0.55771240933E+01  0.75424957316E+01  0.25871960625E+02  0.51100000000E-03 0.  1.
         12    1    3    3    0    0 -0.30763920073E+01 -0.10990408375E+02  0.16912305192E+01  0.11537483464E+02  0.00000000000E+00 0. -1.
</event>
<event>
 7    1  0.4430431E-010  0.4778727E+02  0.7816164E-02  0.1312668E+00
        -11   -1    0    0    0    0  0.00000000000E+00  0.00000000000E+00  0.45593999997E+02  0.45594000000E+02  0.51100000000E-03 0. -1.
         11   -1    0    0    0    0 -0.00000000000E+00 -0.00000000000E+00 -0.45593999997E+02  0.45594000000E+02  0.51100000000E-03 0.  1.
    9900012    2    1    2    0    0 -0.25066707176E+02 -0.34908507758E+02  0.60563747489E+01  0.47787269618E+02  0.19999993498E+02 0.  0.
        -12    1    1    2    0    0  0.25066707176E+02  0.34908507758E+02 -0.60563747489E+01  0.43400730382E+02  0.00000000000E+00 0.  1.
         11    1    3    3    0    0 -0.85644290500E+01 -0.38013909942E+01  0.36354180022E+01  0.10050685686E+02  0.51100000000E-03 0. -1.
        -11    1    3    3    0    0 -0.10469929015E+02 -0.78711985650E+01  0.39513030933E+01  0.13681665719E+02  0.51100000000E-03 0.  1.
        -12    1    3    3    0    0 -0.60323491104E+01 -0.23235918199E+02 -0.15303463466E+01  0.24054918214E+02  0.00000000000E+00 0.  1.
</event>
<event>
 7    1  0.4430431E-010  0.4778727E+02  0.7816164E-02  0.1312668E+00
        -11   -1    0    0    0    0  0.00000000000E+00  0.00000000000E+00  0.45593999997E+02  0.45594000000E+02  0.51100000000E-03 0. -1.
         11   -1    0    0    0    0 -0.00000000000E+00 -0.00000000000E+00 -0.45593999997E+02  0.45594000000E+02  0.51100000000E-03 0.  1.
    9900012    2    1    2    0    0 -0.36951964111E+01 -0.30345168441E+02  0.30808104406E+02  0.47787273954E+02  0.20000013267E+02 0.  0.
        -12    1    1    2    0    0  0.36951964111E+01  0.30345168441E+02 -0.30808104406E+02  0.43400726046E+02  0.00000000000E+00 0.  1.
         11    1    3    3    0    0 -0.40048772566E+01 -0.85533577734E+01  0.89543297483E+01  0.13014568473E+02  0.51100000000E-03 0. -1.
        -11    1    3    3    0    0  0.27663944893E+01 -0.13472183286E+02  0.30833258424E+01  0.14094664219E+02  0.51100000000E-03 0.  1.
        -12    1    3    3    0    0 -0.24567136438E+01 -0.83196273821E+01  0.18770448815E+02  0.20678041262E+02  0.00000000000E+00 0.  1.
</event>
<event>
 7    1  0.4430431E-010  0.4778727E+02  0.7816164E-02  0.1312668E+00
        -11   -1    0    0    0    0  0.00000000000E+00  0.00000000000E+00  0.45593999997E+02  0.45594000000E+02  0.51100000000E-03 0. -1.
         11   -1    0    0    0    0 -0.00000000000E+00 -0.00000000000E+00 -0.45593999997E+02  0.45594000000E+02  0.51100000000E-03 0.  1.
    9900012    2    1    2    0    0 -0.77738727602E+01 -0.36312667040E+01  0.42544142593E+02  0.47787271152E+02  0.20000000489E+02 0.  0.
        -12    1    1    2    0    0  0.77738727602E+01  0.36312667040E+01 -0.42544142593E+02  0.43400728848E+02  0.00000000000E+00 0.  1.
         11    1    3    3    0    0 -0.11076046611E+01 -0.41397364749E+01  0.10221153379E+02  0.11083148598E+02  0.51100000000E-03 0. -1.
        -11    1    3    3    0    0 -0.11993303500E+01 -0.37563354103E+01  0.31719616215E+00  0.39558896180E+01  0.51100000000E-03 0.  1.
         12    1    3    3    0    0 -0.54669377491E+01  0.42648051812E+01  0.32005793052E+02  0.32748232936E+02  0.00000000000E+00 0. -1.
</event>
<event>
 7    1  0.4430431E-010  0.4778727E+02  0.7816164E-02  0.1312668E+00
        -11   -1    0    0    0    0  0.00000000000E+00  0.00000000000E+00  0.45593999997E+02  0.45594000000E+02  0.51100000000E-03 0. -1.
         11   -1    0    0    0    0 -0.00000000000E+00 -0.00000000000E+00 -0.45593999997E+02  0.45594000000E+02  0.51100000000E-03 0.  1.
    9900012    2    1    2    0    0 -0.12186046769E+02  0.31976882837E+02  0.26694616037E+02  0.47787270776E+02  0.19999998777E+02 0.  0.
        -12    1    1    2    0    0  0.12186046769E+02 -0.31976882837E+02 -0.26694616037E+02  0.43400729224E+02  0.00000000000E+00 0.  1.
         11    1    3    3    0    0 -0.10665361616E+02  0.15760387635E+02  0.15787926606E+02  0.24726471313E+02  0.51100000000E-03 0. -1.
        -11    1    3    3    0    0 -0.52740649134E+01  0.14985123613E+02  0.65599648179E+01  0.17187286845E+02  0.51100000000E-03 0.  1.
         12    1    3    3    0    0  0.37533797606E+01  0.12313715883E+01  0.43467246133E+01  0.58735126185E+01  0.00000000000E+00 0. -1.
</event>
<event>
 7    1  0.4430431E-010  0.4778726E+02  0.7816164E-02  0.1312668E+00
        -11   -1    0    0    0    0  0.00000000000E+00  0.00000000000E+00  0.45593999997E+02  0.45594000000E+02  0.51100000000E-03 0.  1.
         11   -1    0    0    0    0 -0.00000000000E+00 -0.00000000000E+00 -0.45593999997E+02  0.45594000000E+02  0.51100000000E-03 0. -1.
    9900012    2    1    2    0    0 -0.36116223071E+00 -0.19220425245E+01 -0.43356654390E+02  0.47787260772E+02  0.19999953165E+02 0.  0.
        -12    1    1    2    0    0  0.36116223071E+00  0.19220425245E+01  0.43356654390E+02  0.43400739228E+02  0.00000000000E+00 0.  1.
         11    1    3    3    0    0  0.34265523188E+01  0.31333338654E+01 -0.14304381795E+02  0.15039095076E+02  0.51100000000E-03 0. -1.
        -11    1    3    3    0    0  0.48314137334E+01 -0.13135961256E+01 -0.57591677548E+01  0.76312585419E+01  0.51100000000E-03 0.  1.
         12    1    3    3    0    0 -0.86191282829E+01 -0.37417802643E+01 -0.23293104840E+02  0.25116907154E+02  0.00000000000E+00 0. -1.
</event>
<event>
 7    1  0.4430431E-010  0.4778728E+02  0.7816164E-02  0.1312668E+00
        -11   -1    0    0    0    0  0.00000000000E+00  0.00000000000E+00  0.45593999997E+02  0.45594000000E+02  0.51100000000E-03 0.  1.
         11   -1    0    0    0    0 -0.00000000000E+00 -0.00000000000E+00 -0.45593999997E+02  0.45594000000E+02  0.51100000000E-03 0. -1.
    9900012    2    1    2    0    0  0.15397336077E+02  0.83833107284E+01 -0.39702196794E+02  0.47787282410E+02  0.20000051821E+02 0.  0.
        -12    1    1    2    0    0 -0.15397336077E+02 -0.83833107284E+01  0.39702196794E+02  0.43400717590E+02  0.00000000000E+00 0.  1.
         11    1    3    3    0    0  0.45146248513E+01  0.15943516297E+01 -0.20509528084E+02  0.21060971895E+02  0.51100000000E-03 0. -1.
        -11    1    3    3    0    0  0.90088515163E+01 -0.20113063301E+01 -0.12370384696E+02  0.15434739278E+02  0.51100000000E-03 0.  1.
        -12    1    3    3    0    0  0.18738597096E+01  0.88002654288E+01 -0.68222840132E+01  0.11291571236E+02  0.00000000000E+00 0.  1.
</event>
<event>
 7    1  0.4430431E-010  0.4778731E+02  0.7816164E-02  0.1312668E+00
        -11   -1    0    0    0    0  0.00000000000E+00  0.00000000000E+00  0.45593999997E+02  0.45594000000E+02  0.51100000000E-03 0.  1.
         11   -1    0    0    0    0 -0.00000000000E+00 -0.00000000000E+00 -0.45593999997E+02  0.45594000000E+02  0.51100000000E-03 0. -1.
    9900012    2    1    2    0    0 -0.61005937181E+01  0.42718870289E+02 -0.46369321961E+01  0.47787305735E+02  0.20000158166E+02 0.  0.
        -12    1    1    2    0    0  0.61005937181E+01 -0.42718870289E+02  0.46369321961E+01  0.43400694265E+02  0.00000000000E+00 0.  1.
         11    1    3    3    0    0  0.14655702303E+01  0.14957736923E+02  0.34647360546E+01  0.15423559451E+02  0.51100000000E-03 0.  1.
        -11    1    3    3    0    0  0.23899107374E+01  0.88951591559E+01 -0.58546443556E+01  0.10913862311E+02  0.51100000000E-03 0. -1.
        -12    1    3    3    0    0 -0.99560746859E+01  0.18865974211E+02 -0.22470238950E+01  0.21449883973E+02  0.00000000000E+00 0.  1.
</event>
<event>
 7    1  0.4430431E-010  0.4778727E+02  0.7816164E-02  0.1312668E+00
        -11   -1    0    0    0    0  0.00000000000E+00  0.00000000000E+00  0.45593999997E+02  0.45594000000E+02  0.51100000000E-03 0. -1.
         11   -1    0    0    0    0 -0.00000000000E+00 -0.00000000000E+00 -0.45593999997E+02  0.45594000000E+02  0.51100000000E-03 0.  1.
    9900012    2    1    2    0    0 -0.10530493501E+02  0.37088173677E+02  0.19929861049E+02  0.47787270957E+02  0.19999999602E+02 0.  0.
        -12    1    1    2    0    0  0.10530493501E+02 -0.37088173677E+02 -0.19929861049E+02  0.43400729043E+02  0.00000000000E+00 0.  1.
         11    1    3    3    0    0 -0.58816136720E+01  0.82390200544E+01  0.10449550911E+02  0.14548812506E+02  0.51100000000E-03 0. -1.
        -11    1    3    3    0    0 -0.11219672335E+01  0.14707287373E+02  0.11257920889E+02  0.18555427652E+02  0.51100000000E-03 0.  1.
        -12    1    3    3    0    0 -0.35269125956E+01  0.14141866249E+02 -0.17776107509E+01  0.14683030799E+02  0.00000000000E+00 0.  1.
</event>
<event>
 7    1  0.4430431E-010  0.4778727E+02  0.7816164E-02  0.1312668E+00
        -11   -1    0    0    0    0  0.00000000000E+00  0.00000000000E+00  0.45593999997E+02  0.45594000000E+02  0.51100000000E-03 0.  1.
         11   -1    0    0    0    0 -0.00000000000E+00 -0.00000000000E+00 -0.45593999997E+02  0.45594000000E+02  0.51100000000E-03 0. -1.
    9900012    2    1    2    0    0  0.25281003971E+02 -0.17464212622E+02 -0.30651192436E+02  0.47787268647E+02  0.19999989068E+02 0.  0.
        -12    1    1    2    0    0 -0.25281003971E+02  0.17464212622E+02  0.30651192436E+02  0.43400731353E+02  0.00000000000E+00 0.  1.
         11    1    3    3    0    0  0.88911138937E+01 -0.90230850715E+01 -0.73096643705E+01  0.14625291927E+02  0.51100000000E-03 0. -1.
        -11    1    3    3    0    0  0.61905317696E+01 -0.46233867417E+01 -0.36491543679E+00  0.77350857844E+01  0.51100000000E-03 0.  1.
         12    1    3    3    0    0  0.10199358307E+02 -0.38177408085E+01 -0.22976612628E+02  0.25426890935E+02  0.00000000000E+00 0. -1.
</event>
<event>
 7    1  0.4430431E-010  0.4778727E+02  0.7816164E-02  0.1312668E+00
        -11   -1    0    0    0    0  0.00000000000E+00  0.00000000000E+00  0.45593999997E+02  0.45594000000E+02  0.51100000000E-03 0.  1.
         11   -1    0    0    0    0 -0.00000000000E+00 -0.00000000000E+00 -0.45593999997E+02  0.45594000000E+02  0.51100000000E-03 0. -1.
    9900012    2    1    2    0    0  0.32083124797E+02  0.28803597939E+02  0.49647679054E+01  0.47787273378E+02  0.20000010641E+02 0.  0.
        -12    1    1    2    0    0 -0.32083124797E+02 -0.28803597939E+02 -0.49647679054E+01  0.43400726622E+02  0.00000000000E+00 0.  1.
         11    1    3    3    0    0  0.20091843430E+02  0.21740084469E+02  0.10702361598E+02  0.31477833298E+02  0.51100000000E-03 0. -1.
        -11    1    3    3    0    0  0.18961879653E+01  0.40383691879E+01 -0.35413025986E+00  0.44754176341E+01  0.51100000000E-03 0.  1.
        -12    1    3    3    0    0  0.10095093401E+02  0.30251442824E+01 -0.53834634329E+01  0.11834022446E+02  0.00000000000E+00 0.  1.
</event>
<event>
 7    1  0.4430431E-010  0.4778727E+02  0.7816164E-02  0.1312668E+00
        -11   -1    0    0    0    0  0.00000000000E+00  0.00000000000E+00  0.45593999997E+02  0.45594000000E+02  0.51100000000E-03 0.  1.
         11   -1    0    0    0    0 -0.00000000000E+00 -0.00000000000E+00 -0.45593999997E+02  0.45594000000E+02  0.51100000000E-03 0. -1.
    9900012    2    1    2    0    0  0.46457078704E+01  0.36428958823E+01 -0.42997323996E+02  0.47787272324E+02  0.20000005832E+02 0.  0.
        -12    1    1    2    0    0 -0.46457078704E+01 -0.36428958823E+01  0.42997323996E+02  0.43400727676E+02  0.00000000000E+00 0.  1.
         11    1    3    3    0    0 -0.18906790059E+01  0.19878338402E+01 -0.30756349270E+02  0.30878458044E+02  0.51100000000E-03 0. -1.
        -11    1    3    3    0    0  0.12188566128E+01  0.37437395848E+01 -0.10043675158E+02  0.10787799056E+02  0.51100000000E-03 0.  1.
        -12    1    3    3    0    0  0.53175302636E+01 -0.20886775427E+01 -0.21972995675E+01  0.61210152239E+01  0.00000000000E+00 0.  1.
</event>
<event>
 7    1  0.5624654E-010  0.4778727E+02  0.7816164E-02  0.1312668E+00
        -11   -1    0    0    0    0  0.00000000000E+00  0.00000000000E+00  0.45593999997E+02  0.45594000000E+02  0.51100000000E-03 0.  1.
         11   -1    0    0    0    0 -0.00000000000E+00 -0.00000000000E+00 -0.45593999997E+02  0.45594000000E+02  0.51100000000E-03 0. -1.
    9900012    2    1    2    0    0  0.15454968382E+02 -0.34125138952E+02 -0.21914426147E+02  0.47787271556E+02  0.20000002331E+02 0.  0.
        -12    1    1    2    0    0 -0.15454968382E+02  0.34125138952E+02  0.21914426147E+02  0.43400728444E+02  0.00000000000E+00 0.  1.
         11    1    3    3    0    0  0.96710015709E+01 -0.13127340500E+02 -0.84848974638E+01  0.18380664439E+02  0.51100000000E-03 0. -1.
        -11    1    3    3    0    0  0.36401774239E+01 -0.11236937064E+02 -0.15207830271E+02  0.19256109370E+02  0.51100000000E-03 0.  1.
        -12    1    3    3    0    0  0.21437893877E+01 -0.97608613882E+01  0.17783015881E+01  0.10150497747E+02  0.00000000000E+00 0.  1.
</event>
<event>
 7    1  0.4430431E-010  0.4778727E+02  0.7816164E-02  0.1312668E+00
        -11   -1    0    0    0    0  0.00000000000E+00  0.00000000000E+00  0.45593999997E+02  0.45594000000E+02  0.51100000000E-03 0.  1.
         11   -1    0    0    0    0 -0.00000000000E+00 -0.00000000000E+00 -0.45593999997E+02  0.45594000000E+02  0.51100000000E-03 0. -1.
    9900012    2    1    2    0    0 -0.42932880878E+02  0.51173915197E+01 -0.37686863470E+01  0.47787274738E+02  0.20000016841E+02 0.  0.
        -12    1    1    2    0    0  0.42932880878E+02 -0.51173915197E+01  0.37686863470E+01  0.43400725262E+02  0.00000000000E+00 0.  1.
         11    1    3    3    0    0 -0.13278797160E+02  0.12129129200E+01 -0.16763006524E+01  0.13439032551E+02  0.51100000000E-03 0. -1.
        -11    1    3    3    0    0 -0.84410280347E+01  0.88263276113E+01 -0.29157099951E+01  0.12556129118E+02  0.51100000000E-03 0.  1.
        -12    1    3    3    0    0 -0.21213055684E+02 -0.49218490116E+01  0.82332430060E+00  0.21792113070E+02  0.00000000000E+00 0.  1.
</event>
<event>
 7    1  0.4430431E-010  0.4778727E+02  0.7816164E-02  0.1312668E+00
        -11   -1    0    0    0    0  0.00000000000E+00  0.00000000000E+00  0.45593999997E+02  0.45594000000E+02  0.51100000000E-03 0. -1.
         11   -1    0    0    0    0 -0.00000000000E+00 -0.00000000000E+00 -0.45593999997E+02  0.45594000000E+02  0.51100000000E-03 0.  1.
    9900012    2    1    2    0    0  0.41087036098E+02  0.12799652621E+02 -0.56256196185E+01  0.47787271451E+02  0.20000001852E+02 0.  0.
        -12    1    1    2    0    0 -0.41087036098E+02 -0.12799652621E+02  0.56256196185E+01  0.43400728549E+02  0.00000000000E+00 0.  1.
         11    1    3    3    0    0  0.16346632795E+01 -0.12609873988E+01  0.18355799353E+01  0.27625291342E+01  0.51100000000E-03 0. -1.
        -11    1    3    3    0    0  0.14279442223E+02  0.12807217419E+02 -0.26134461706E+01  0.19358651538E+02  0.51100000000E-03 0.  1.
         12    1    3    3    0    0  0.25172930595E+02  0.12534226002E+01 -0.48477533833E+01  0.25666090778E+02  0.00000000000E+00 0. -1.
</event>
<event>
 7    1  0.4430431E-010  0.4778727E+02  0.7816164E-02  0.1312668E+00
        -11   -1    0    0    0    0  0.00000000000E+00  0.00000000000E+00  0.45593999997E+02  0.45594000000E+02  0.51100000000E-03 0. -1.
         11   -1    0    0    0    0 -0.00000000000E+00 -0.00000000000E+00 -0.45593999997E+02  0.45594000000E+02  0.51100000000E-03 0.  1.
    9900012    2    1    2    0    0 -0.31374108379E+02 -0.90782798733E+01  0.28580999313E+02  0.47787270009E+02  0.19999995279E+02 0.  0.
        -12    1    1    2    0    0  0.31374108379E+02  0.90782798733E+01 -0.28580999313E+02  0.43400729991E+02  0.00000000000E+00 0.  1.
         11    1    3    3    0    0 -0.24319681811E+02 -0.11916735076E+02  0.26519816717E+02  0.37904566707E+02  0.51100000000E-03 0. -1.
        -11    1    3    3    0    0 -0.59520056727E+01  0.15816792151E+01  0.39839097958E+01  0.73348223011E+01  0.51100000000E-03 0.  1.
         12    1    3    3    0    0 -0.11024208953E+01  0.12567759877E+01 -0.19227271994E+01  0.25478810013E+01  0.00000000000E+00 0. -1.
</event>
<event>
 7    1  0.4430431E-010  0.4778727E+02  0.7816164E-02  0.1312668E+00
        -11   -1    0    0    0    0  0.00000000000E+00  0.00000000000E+00  0.45593999997E+02  0.45594000000E+02  0.51100000000E-03 0.  1.
         11   -1    0    0    0    0 -0.00000000000E+00 -0.00000000000E+00 -0.45593999997E+02  0.45594000000E+02  0.51100000000E-03 0. -1.
    9900012    2    1    2    0    0  0.20273322829E+01 -0.20177555479E+02 -0.38371595140E+02  0.47787272646E+02  0.20000007302E+02 0.  0.
        -12    1    1    2    0    0 -0.20273322829E+01  0.20177555479E+02  0.38371595140E+02  0.43400727354E+02  0.00000000000E+00 0.  1.
         11    1    3    3    0    0  0.37987347495E+01 -0.77156279661E+00 -0.45554921195E+01  0.59814884066E+01  0.51100000000E-03 0. -1.
        -11    1    3    3    0    0 -0.23952320164E+00 -0.61693568821E-01 -0.14238852286E+02  0.14241000392E+02  0.51100000000E-03 0.  1.
         12    1    3    3    0    0 -0.15318792650E+01 -0.19344299113E+02 -0.19577250734E+02  0.27564783848E+02  0.00000000000E+00 0. -1.
</event>
<event>
 7    1  0.4430431E-010  0.4778727E+02  0.7816164E-02  0.1312668E+00
        -11   -1    0    0    0    0  0.00000000000E+00  0.00000000000E+00  0.45593999997E+02  0.45594000000E+02  0.51100000000E-03 0.  1.
         11   -1    0    0    0    0 -0.00000000000E+00 -0.00000000000E+00 -0.45593999997E+02  0.45594000000E+02  0.51100000000E-03 0. -1.
    9900012    2    1    2    0    0  0.10356687549E+02 -0.70983595727E+01 -0.41544863649E+02  0.47787269808E+02  0.19999994363E+02 0.  0.
        -12    1    1    2    0    0 -0.10356687549E+02  0.70983595727E+01  0.41544863649E+02  0.43400730192E+02  0.00000000000E+00 0.  1.
         11    1    3    3    0    0  0.86611529980E+01 -0.83686148466E+01 -0.19853781463E+02  0.23221152520E+02  0.51100000000E-03 0. -1.
        -11    1    3    3    0    0  0.54176228090E+01 -0.65048223564E+00 -0.51503579038E+01  0.75033293168E+01  0.51100000000E-03 0.  1.
        -12    1    3    3    0    0 -0.37220882582E+01  0.19207375095E+01 -0.16540724282E+02  0.17062787971E+02  0.00000000000E+00 0.  1.
</event>
<event>
 7    1  0.4430431E-010  0.4778726E+02  0.7816164E-02  0.1312668E+00
        -11   -1    0    0    0    0  0.00000000000E+00  0.00000000000E+00  0.45593999997E+02  0.45594000000E+02  0.51100000000E-03 0.  1.
         11   -1    0    0    0    0 -0.00000000000E+00 -0.00000000000E+00 -0.45593999997E+02  0.45594000000E+02  0.51100000000E-03 0. -1.
    9900012    2    1    2    0    0 -0.36014725701E+02  0.22469322650E+02 -0.90384134551E+01  0.47787264460E+02  0.19999969979E+02 0.  0.
        -12    1    1    2    0    0  0.36014725701E+02 -0.22469322650E+02  0.90384134551E+01  0.43400735540E+02  0.00000000000E+00 0.  1.
         11    1    3    3    0    0 -0.21693679299E+02  0.14531695586E+02 -0.61604443728E+01  0.26827914068E+02  0.51100000000E-03 0. -1.
        -11    1    3    3    0    0 -0.12978093384E+02  0.92965575878E+01 -0.62009700938E+01  0.17126264077E+02  0.51100000000E-03 0.  1.
        -12    1    3    3    0    0 -0.13429530177E+01 -0.13589305236E+01  0.33230010114E+01  0.38330863149E+01  0.00000000000E+00 0.  1.
</event>
<event>
 7    1  0.4430431E-010  0.4778727E+02  0.7816164E-02  0.1312668E+00
        -11   -1    0    0    0    0  0.00000000000E+00  0.00000000000E+00  0.45593999997E+02  0.45594000000E+02  0.51100000000E-03 0.  1.
         11   -1    0    0    0    0 -0.00000000000E+00 -0.00000000000E+00 -0.45593999997E+02  0.45594000000E+02  0.51100000000E-03 0. -1.
    9900012    2    1    2    0    0  0.14316512099E+02  0.71541033046E+01 -0.40342033408E+02  0.47787269911E+02  0.19999994832E+02 0.  0.
        -12    1    1    2    0    0 -0.14316512099E+02 -0.71541033046E+01  0.40342033408E+02  0.43400730089E+02  0.00000000000E+00 0.  1.
         11    1    3    3    0    0  0.25474090167E+01  0.20184851824E-01  0.23055233301E+00  0.25579004605E+01  0.51100000000E-03 0. -1.
        -11    1    3    3    0    0 -0.15954031137E+01 -0.25880102384E+01 -0.10301384737E+02  0.10740653418E+02  0.51100000000E-03 0.  1.
         12    1    3    3    0    0  0.13364506196E+02  0.97219286911E+01 -0.30271201004E+02  0.34488716032E+02  0.00000000000E+00 0. -1.
</event>
<event>
 7    1  0.4430431E-010  0.4778727E+02  0.7816164E-02  0.1312668E+00
        -11   -1    0    0    0    0  0.00000000000E+00  0.00000000000E+00  0.45593999997E+02  0.45594000000E+02  0.51100000000E-03 0.  1.
         11   -1    0    0    0    0 -0.00000000000E+00 -0.00000000000E+00 -0.45593999997E+02  0.45594000000E+02  0.51100000000E-03 0. -1.
    9900012    2    1    2    0    0  0.62848165516E+01 -0.42890136264E+02  0.21355481593E+01  0.47787271045E+02  0.20000000004E+02 0.  0.
        -12    1    1    2    0    0 -0.62848165516E+01  0.42890136264E+02 -0.21355481593E+01  0.43400728955E+02  0.00000000000E+00 0.  1.
         11    1    3    3    0    0  0.19487742892E+01 -0.10253342374E+02  0.83626147666E+01  0.13373932745E+02  0.51100000000E-03 0. -1.
        -11    1    3    3    0    0  0.25096402773E+01 -0.24706166769E+01 -0.14857369390E+01  0.38222579189E+01  0.51100000000E-03 0.  1.
        -12    1    3    3    0    0  0.18264019851E+01 -0.30166177213E+02 -0.47413296683E+01  0.30591080381E+02  0.00000000000E+00 0.  1.
</event>
<event>
 7    1  0.4430431E-010  0.4778727E+02  0.7816164E-02  0.1312668E+00
        -11   -1    0    0    0    0  0.00000000000E+00  0.00000000000E+00  0.45593999997E+02  0.45594000000E+02  0.51100000000E-03 0.  1.
         11   -1    0    0    0    0 -0.00000000000E+00 -0.00000000000E+00 -0.45593999997E+02  0.45594000000E+02  0.51100000000E-03 0. -1.
    9900012    2    1    2    0    0  0.16659379446E+01  0.43361938507E+02 -0.76835315276E+00  0.47787269281E+02  0.19999991961E+02 0.  0.
        -12    1    1    2    0    0 -0.16659379446E+01 -0.43361938507E+02  0.76835315276E+00  0.43400730719E+02  0.00000000000E+00 0.  1.
         11    1    3    3    0    0 -0.18582089170E-01 -0.88217945917E-01  0.56805358778E-01  0.10655895048E+00  0.51100000000E-03 0. -1.
        -11    1    3    3    0    0  0.91419280217E+01  0.26107923108E+02  0.45928995164E+01  0.28040920513E+02  0.51100000000E-03 0.  1.
         12    1    3    3    0    0 -0.74574079879E+01  0.17342233345E+02 -0.54180580279E+01  0.19639789818E+02  0.00000000000E+00 0. -1.
</event>
<event>
 7    1  0.4980956E-010  0.4778727E+02  0.7816164E-02  0.1312668E+00
        -11   -1    0    0    0    0  0.00000000000E+00  0.00000000000E+00  0.45593999997E+02  0.45594000000E+02  0.51100000000E-03 0. -1.
         11   -1    0    0    0    0 -0.00000000000E+00 -0.00000000000E+00 -0.45593999997E+02  0.45594000000E+02  0.51100000000E-03 0.  1.
    9900012    2    1    2    0    0 -0.10495423116E+02 -0.81796829256E+01  0.41310560795E+02  0.47787267836E+02  0.19999985373E+02 0.  0.
        -12    1    1    2    0    0  0.10495423116E+02  0.81796829256E+01 -0.41310560795E+02  0.43400732164E+02  0.00000000000E+00 0.  1.
         11    1    3    3    0    0 -0.82691653768E+01 -0.33464869635E+01  0.22425466536E+02  0.24134614575E+02  0.51100000000E-03 0. -1.
        -11    1    3    3    0    0 -0.38258166345E+01  0.37871010881E+01  0.59221420544E+01  0.80031727674E+01  0.51100000000E-03 0.  1.
        -12    1    3    3    0    0  0.15995588950E+01 -0.86202970502E+01  0.12962952204E+02  0.15649480494E+02  0.00000000000E+00 0.  1.
</event>
<event>
 7    1  0.4430431E-010  0.4778727E+02  0.7816164E-02  0.1312668E+00
        -11   -1    0    0    0    0  0.00000000000E+00  0.00000000000E+00  0.45593999997E+02  0.45594000000E+02  0.51100000000E-03 0.  1.
         11   -1    0    0    0    0 -0.00000000000E+00 -0.00000000000E+00 -0.45593999997E+02  0.45594000000E+02  0.51100000000E-03 0. -1.
    9900012    2    1    2    0    0 -0.14969487531E+02  0.11179601257E+02 -0.39173387598E+02  0.47787270316E+02  0.19999996678E+02 0.  0.
        -12    1    1    2    0    0  0.14969487531E+02 -0.11179601257E+02  0.39173387598E+02  0.43400729684E+02  0.00000000000E+00 0.  1.
         11    1    3    3    0    0 -0.34804592867E+01  0.76256683222E+01 -0.11032881452E+02  0.13856005470E+02  0.51100000000E-03 0. -1.
        -11    1    3    3    0    0 -0.14676254917E+02  0.49001925137E+01 -0.23665310992E+02  0.28274569664E+02  0.51100000000E-03 0.  1.
        -12    1    3    3    0    0  0.31872266719E+01 -0.13462595787E+01 -0.44751951544E+01  0.56566951819E+01  0.00000000000E+00 0.  1.
</event>
<event>
 7    1  0.4430431E-010  0.4778727E+02  0.7816164E-02  0.1312668E+00
        -11   -1    0    0    0    0  0.00000000000E+00  0.00000000000E+00  0.45593999997E+02  0.45594000000E+02  0.51100000000E-03 0.  1.
         11   -1    0    0    0    0 -0.00000000000E+00 -0.00000000000E+00 -0.45593999997E+02  0.45594000000E+02  0.51100000000E-03 0. -1.
    9900012    2    1    2    0    0 -0.33644759455E+02  0.22031846444E+02 -0.16317204172E+02  0.47787271336E+02  0.20000001331E+02 0.  0.
        -12    1    1    2    0    0  0.33644759455E+02 -0.22031846444E+02  0.16317204172E+02  0.43400728664E+02  0.00000000000E+00 0.  1.
         11    1    3    3    0    0 -0.10889013650E+02  0.32060924239E+01 -0.19385667253E+01  0.11515541156E+02  0.51100000000E-03 0. -1.
        -11    1    3    3    0    0 -0.55552325293E+01  0.18502714592E+01 -0.10179027615E+02  0.11742943258E+02  0.51100000000E-03 0.  1.
         12    1    3    3    0    0 -0.17200513276E+02  0.16975482561E+02 -0.41996098319E+01  0.24528786922E+02  0.00000000000E+00 0. -1.
</event>
<event>
 7    1  0.4430431E-010  0.4778727E+02  0.7816164E-02  0.1312668E+00
        -11   -1    0    0    0    0  0.00000000000E+00  0.00000000000E+00  0.45593999997E+02  0.45594000000E+02  0.51100000000E-03 0.  1.
         11   -1    0    0    0    0 -0.00000000000E+00 -0.00000000000E+00 -0.45593999997E+02  0.45594000000E+02  0.51100000000E-03 0. -1.
    9900012    2    1    2    0    0  0.44152336448E+00 -0.11225539899E+02 -0.41921540916E+02  0.47787270955E+02  0.19999999590E+02 0.  0.
        -12    1    1    2    0    0 -0.44152336448E+00  0.11225539899E+02  0.41921540916E+02  0.43400729045E+02  0.00000000000E+00 0.  1.
         11    1    3    3    0    0  0.17903991786E+01 -0.83147508455E+01 -0.23727651829E+02  0.25205992788E+02  0.51100000000E-03 0.  1.
        -11    1    3    3    0    0 -0.22668491718E-01 -0.87169664037E+00 -0.19700674256E+02  0.19719962862E+02  0.51100000000E-03 0. -1.
        -12    1    3    3    0    0 -0.13262073224E+01 -0.20390924128E+01  0.15067851684E+01  0.28613153048E+01  0.00000000000E+00 0.  1.
</event>
<event>
 7    1  0.4430431E-010  0.4778727E+02  0.7816164E-02  0.1312668E+00
        -11   -1    0    0    0    0  0.00000000000E+00  0.00000000000E+00  0.45593999997E+02  0.45594000000E+02  0.51100000000E-03 0.  1.
         11   -1    0    0    0    0 -0.00000000000E+00 -0.00000000000E+00 -0.45593999997E+02  0.45594000000E+02  0.51100000000E-03 0. -1.
    9900012    2    1    2    0    0  0.10627873054E+02 -0.80546418791E+01 -0.41301264369E+02  0.47787269822E+02  0.19999994428E+02 0.  0.
        -12    1    1    2    0    0 -0.10627873054E+02  0.80546418791E+01  0.41301264369E+02  0.43400730178E+02  0.00000000000E+00 0.  1.
         11    1    3    3    0    0  0.73188704529E+01 -0.79690997314E+01 -0.12319903626E+02  0.16396720430E+02  0.51100000000E-03 0. -1.
        -11    1    3    3    0    0  0.19252415679E+01 -0.47595091239E+01 -0.23504281483E+02  0.24058485624E+02  0.51100000000E-03 0.  1.
        -12    1    3    3    0    0  0.13837610336E+01  0.46739669763E+01 -0.54770792597E+01  0.73320637689E+01  0.00000000000E+00 0.  1.
</event>
<event>
 7    1  0.4430431E-010  0.4778727E+02  0.7816164E-02  0.1312668E+00
        -11   -1    0    0    0    0  0.00000000000E+00  0.00000000000E+00  0.45593999997E+02  0.45594000000E+02  0.51100000000E-03 0.  1.
         11   -1    0    0    0    0 -0.00000000000E+00 -0.00000000000E+00 -0.45593999997E+02  0.45594000000E+02  0.51100000000E-03 0. -1.
    9900012    2    1    2    0    0 -0.17207595666E+02  0.12145388390E+02 -0.37947484498E+02  0.47787269736E+02  0.19999994033E+02 0.  0.
        -12    1    1    2    0    0  0.17207595666E+02 -0.12145388390E+02  0.37947484498E+02  0.43400730264E+02  0.00000000000E+00 0.  1.
         11    1    3    3    0    0 -0.26498625442E+01  0.10700639593E+02 -0.27615085326E+02  0.29734128490E+02  0.51100000000E-03 0. -1.
        -11    1    3    3    0    0 -0.15606656515E+01  0.10005612174E+00 -0.33139571727E+00  0.15985968491E+01  0.51100000000E-03 0.  1.
        -12    1    3    3    0    0 -0.12997067470E+02  0.13446926749E+01 -0.10001003454E+02  0.16454544397E+02  0.00000000000E+00 0.  1.
</event>
<event>
 7    1  0.4430431E-010  0.4778727E+02  0.7816164E-02  0.1312668E+00
        -11   -1    0    0    0    0  0.00000000000E+00  0.00000000000E+00  0.45593999997E+02  0.45594000000E+02  0.51100000000E-03 0.  1.
         11   -1    0    0    0    0 -0.00000000000E+00 -0.00000000000E+00 -0.45593999997E+02  0.45594000000E+02  0.51100000000E-03 0. -1.
    9900012    2    1    2    0    0 -0.32405854391E+02  0.16804692597E+02 -0.23475221838E+02  0.47787272674E+02  0.20000007429E+02 0.  0.
        -12    1    1    2    0    0  0.32405854391E+02 -0.16804692597E+02  0.23475221838E+02  0.43400727326E+02  0.00000000000E+00 0.  1.
         11    1    3    3    0    0 -0.54310960650E+01  0.99850392016E+01 -0.43933173279E+01  0.12186018617E+02  0.51100000000E-03 0. -1.
        -11    1    3    3    0    0 -0.47014023423E+01 -0.14507000430E+01  0.31434667835E+00  0.49301651792E+01  0.51100000000E-03 0.  1.
         12    1    3    3    0    0 -0.22273355984E+02  0.82703534386E+01 -0.19396251188E+02  0.30671088878E+02  0.00000000000E+00 0. -1.
</event>
<event>
 7    1  0.4430431E-010  0.4778727E+02  0.7816164E-02  0.1312668E+00
        -11   -1    0    0    0    0  0.00000000000E+00  0.00000000000E+00  0.45593999997E+02  0.45594000000E+02  0.51100000000E-03 0.  1.
         11   -1    0    0    0    0 -0.00000000000E+00 -0.00000000000E+00 -0.45593999997E+02  0.45594000000E+02  0.51100000000E-03 0. -1.
    9900012    2    1    2    0    0 -0.35181529678E+02  0.24204552931E+02 -0.77474406173E+01  0.47787271329E+02  0.20000001296E+02 0.  0.
        -12    1    1    2    0    0  0.35181529678E+02 -0.24204552931E+02  0.77474406173E+01  0.43400728671E+02  0.00000000000E+00 0.  1.
         11    1    3    3    0    0 -0.42630480831E+01  0.53249734916E+00  0.63134238608E+00  0.43423180279E+01  0.51100000000E-03 0. -1.
        -11    1    3    3    0    0 -0.13892984593E+02  0.54398012256E+01 -0.10746382588E+02  0.18387256382E+02  0.51100000000E-03 0.  1.
         12    1    3    3    0    0 -0.17025497003E+02  0.18232254356E+02  0.23675995846E+01  0.25057696919E+02  0.00000000000E+00 0. -1.
</event>
<event>
 7    1  0.4430431E-010  0.4778727E+02  0.7816164E-02  0.1312668E+00
        -11   -1    0    0    0    0  0.00000000000E+00  0.00000000000E+00  0.45593999997E+02  0.45594000000E+02  0.51100000000E-03 0. -1.
         11   -1    0    0    0    0 -0.00000000000E+00 -0.00000000000E+00 -0.45593999997E+02  0.45594000000E+02  0.51100000000E-03 0.  1.
    9900012    2    1    2    0    0  0.42010026402E+02 -0.41732042878E-01  0.10898587209E+02  0.47787271169E+02  0.20000000568E+02 0.  0.
        -12    1    1    2    0    0 -0.42010026402E+02  0.41732042878E-01 -0.10898587209E+02  0.43400728831E+02  0.00000000000E+00 0.  1.
         11    1    3    3    0    0  0.26792046764E+02 -0.11507572685E+01  0.12452171013E+02  0.29566781619E+02  0.51100000000E-03 0. -1.
        -11    1    3    3    0    0  0.14323966293E+02  0.22609999226E+01  0.17527758424E+01  0.14606859841E+02  0.51100000000E-03 0.  1.
         12    1    3    3    0    0  0.89401334573E+00 -0.11519746970E+01 -0.33063596461E+01  0.36136297091E+01  0.00000000000E+00 0. -1.
</event>
<event>
 7    1  0.4430431E-010  0.4778727E+02  0.7816164E-02  0.1312668E+00
        -11   -1    0    0    0    0  0.00000000000E+00  0.00000000000E+00  0.45593999997E+02  0.45594000000E+02  0.51100000000E-03 0. -1.
         11   -1    0    0    0    0 -0.00000000000E+00 -0.00000000000E+00 -0.45593999997E+02  0.45594000000E+02  0.51100000000E-03 0.  1.
    9900012    2    1    2    0    0 -0.38797110897E+02  0.13648021597E+02 -0.13861424066E+02  0.47787269769E+02  0.19999994186E+02 0.  0.
        -12    1    1    2    0    0  0.38797110897E+02 -0.13648021597E+02  0.13861424066E+02  0.43400730231E+02  0.00000000000E+00 0.  1.
         11    1    3    3    0    0 -0.20866992898E+02  0.26517082083E+01 -0.10600059357E+02  0.23554706698E+02  0.51100000000E-03 0. -1.
        -11    1    3    3    0    0 -0.16797881904E+02  0.77934581749E+01 -0.64148771894E+01  0.19597384427E+02  0.51100000000E-03 0.  1.
        -12    1    3    3    0    0 -0.11322360952E+01  0.32028552135E+01  0.31535124803E+01  0.46351786436E+01  0.00000000000E+00 0.  1.
</event>
<event>
 7    1  0.4430431E-010  0.4778727E+02  0.7816164E-02  0.1312668E+00
        -11   -1    0    0    0    0  0.00000000000E+00  0.00000000000E+00  0.45593999997E+02  0.45594000000E+02  0.51100000000E-03 0.  1.
         11   -1    0    0    0    0 -0.00000000000E+00 -0.00000000000E+00 -0.45593999997E+02  0.45594000000E+02  0.51100000000E-03 0. -1.
    9900012    2    1    2    0    0 -0.28526696111E+02  0.15527738112E+02 -0.28787851399E+02  0.47787269245E+02  0.19999991796E+02 0.  0.
        -12    1    1    2    0    0  0.28526696111E+02 -0.15527738112E+02  0.28787851399E+02  0.43400730755E+02  0.00000000000E+00 0.  1.
         11    1    3    3    0    0 -0.46894741719E+01  0.23251224478E+01 -0.50482969108E+01  0.72720467797E+01  0.51100000000E-03 0. -1.
        -11    1    3    3    0    0  0.10868335501E+01  0.40412420847E+01 -0.95065168657E+01  0.10386852648E+02  0.51100000000E-03 0.  1.
        -12    1    3    3    0    0 -0.24924055489E+02  0.91613735794E+01 -0.14233037623E+02  0.30128369817E+02  0.00000000000E+00 0.  1.
</event>
<event>
 7    1  0.4430431E-010  0.4778729E+02  0.7816164E-02  0.1312668E+00
        -11   -1    0    0    0    0  0.00000000000E+00  0.00000000000E+00  0.45593999997E+02  0.45594000000E+02  0.51100000000E-03 0. -1.
         11   -1    0    0    0    0 -0.00000000000E+00 -0.00000000000E+00 -0.45593999997E+02  0.45594000000E+02  0.51100000000E-03 0.  1.
    9900012    2    1    2    0    0  0.13471475248E+02  0.28730650815E+02  0.29608968839E+02  0.47787285982E+02  0.20000068104E+02 0.  0.
        -12    1    1    2    0    0 -0.13471475248E+02 -0.28730650815E+02 -0.29608968839E+02  0.43400714018E+02  0.00000000000E+00 0.  1.
         11    1    3    3    0    0  0.34248478885E+01  0.10702795094E+02  0.16488702421E+02  0.19953864630E+02  0.51100000000E-03 0. -1.
        -11    1    3    3    0    0  0.75291673346E+00  0.15988813234E+01  0.81154990593E+01  0.83056986663E+01  0.51100000000E-03 0.  1.
        -12    1    3    3    0    0  0.92937106262E+01  0.16428974397E+02  0.50047673585E+01  0.19527722685E+02  0.00000000000E+00 0.  1.
</event>
<event>
 7    1  0.4430431E-010  0.4778727E+02  0.7816164E-02  0.1312668E+00
        -11   -1    0    0    0    0  0.00000000000E+00  0.00000000000E+00  0.45593999997E+02  0.45594000000E+02  0.51100000000E-03 0.  1.
         11   -1    0    0    0    0 -0.00000000000E+00 -0.00000000000E+00 -0.45593999997E+02  0.45594000000E+02  0.51100000000E-03 0. -1.
    9900012    2    1    2    0    0 -0.31093235360E+02  0.29895513061E+02  0.48054348976E+01  0.47787272000E+02  0.20000004358E+02 0.  0.
        -12    1    1    2    0    0  0.31093235360E+02 -0.29895513061E+02 -0.48054348976E+01  0.43400728000E+02  0.00000000000E+00 0.  1.
         11    1    3    3    0    0 -0.14498968494E+02  0.77073027268E+01  0.21331676861E+01  0.16558170410E+02  0.51100000000E-03 0. -1.
        -11    1    3    3    0    0 -0.15307362398E+02  0.87853754099E+01  0.16248673197E+01  0.17723948734E+02  0.51100000000E-03 0.  1.
         12    1    3    3    0    0 -0.12869044691E+01  0.13402834924E+02  0.10473998918E+01  0.13505152856E+02  0.00000000000E+00 0. -1.
</event>
<event>
 7    1  0.7651315E-010  0.4778727E+02  0.7816164E-02  0.1312668E+00
        -11   -1    0    0    0    0  0.00000000000E+00  0.00000000000E+00  0.45593999997E+02  0.45594000000E+02  0.51100000000E-03 0.  1.
         11   -1    0    0    0    0 -0.00000000000E+00 -0.00000000000E+00 -0.45593999997E+02  0.45594000000E+02  0.51100000000E-03 0. -1.
    9900012    2    1    2    0    0  0.12581355432E+02  0.41528067666E+02  0.86730192331E+00  0.47787272803E+02  0.20000008019E+02 0.  0.
        -12    1    1    2    0    0 -0.12581355432E+02 -0.41528067666E+02 -0.86730192331E+00  0.43400727197E+02  0.00000000000E+00 0.  1.
         11    1    3    3    0    0  0.34894381555E+01  0.13047871748E+02  0.20376119669E+01  0.13659245901E+02  0.51100000000E-03 0. -1.
        -11    1    3    3    0    0  0.11695289383E+02  0.12104871331E+02 -0.40170215752E+01  0.17304455100E+02  0.51100000000E-03 0.  1.
        -12    1    3    3    0    0 -0.26033721069E+01  0.16375324586E+02  0.28467115316E+01  0.16823571802E+02  0.00000000000E+00 0.  1.
</event>
<event>
 7    1  0.4430431E-010  0.4778727E+02  0.7816164E-02  0.1312668E+00
        -11   -1    0    0    0    0  0.00000000000E+00  0.00000000000E+00  0.45593999997E+02  0.45594000000E+02  0.51100000000E-03 0. -1.
         11   -1    0    0    0    0 -0.00000000000E+00 -0.00000000000E+00 -0.45593999997E+02  0.45594000000E+02  0.51100000000E-03 0.  1.
    9900012    2    1    2    0    0 -0.27518783318E+02  0.26383237064E+01  0.33457122756E+02  0.47787271315E+02  0.20000001234E+02 0.  0.
        -12    1    1    2    0    0  0.27518783318E+02 -0.26383237064E+01 -0.33457122756E+02  0.43400728685E+02  0.00000000000E+00 0.  1.
         11    1    3    3    0    0 -0.70014084676E+01  0.42789747540E+01  0.47713781617E+01  0.94918594226E+01  0.51100000000E-03 0. -1.
        -11    1    3    3    0    0 -0.12259276497E+02 -0.21549141587E+01  0.53720622191E+01  0.13557011766E+02  0.51100000000E-03 0.  1.
         12    1    3    3    0    0 -0.82580983531E+01  0.51426311108E+00  0.23313682375E+02  0.24738400127E+02  0.00000000000E+00 0. -1.
</event>
<event>
 7    1  0.4430431E-010  0.4778727E+02  0.7816164E-02  0.1312668E+00
        -11   -1    0    0    0    0  0.00000000000E+00  0.00000000000E+00  0.45593999997E+02  0.45594000000E+02  0.51100000000E-03 0.  1.
         11   -1    0    0    0    0 -0.00000000000E+00 -0.00000000000E+00 -0.45593999997E+02  0.45594000000E+02  0.51100000000E-03 0. -1.
    9900012    2    1    2    0    0  0.22012239214E+02  0.11852738648E+00 -0.37404149965E+02  0.47787272373E+02  0.20000006057E+02 0.  0.
        -12    1    1    2    0    0 -0.22012239214E+02 -0.11852738648E+00  0.37404149965E+02  0.43400727627E+02  0.00000000000E+00 0.  1.
         11    1    3    3    0    0  0.11134489928E+02 -0.17270743904E+01 -0.19091513419E+02  0.22168570924E+02  0.51100000000E-03 0. -1.
        -11    1    3    3    0    0  0.12909978455E+02  0.17257071092E+01 -0.83985990374E+01  0.15497808709E+02  0.51100000000E-03 0.  1.
        -12    1    3    3    0    0 -0.20322291698E+01  0.11989466768E+00 -0.99140375084E+01  0.10120892740E+02  0.00000000000E+00 0.  1.
</event>
<event>
 7    1  0.4430431E-010  0.4778727E+02  0.7816164E-02  0.1312668E+00
        -11   -1    0    0    0    0  0.00000000000E+00  0.00000000000E+00  0.45593999997E+02  0.45594000000E+02  0.51100000000E-03 0. -1.
         11   -1    0    0    0    0 -0.00000000000E+00 -0.00000000000E+00 -0.45593999997E+02  0.45594000000E+02  0.51100000000E-03 0.  1.
    9900012    2    1    2    0    0  0.35065429497E+02 -0.70758453179E+01  0.24575826093E+02  0.47787272346E+02  0.20000005933E+02 0.  0.
        -12    1    1    2    0    0 -0.35065429497E+02  0.70758453179E+01 -0.24575826093E+02  0.43400727654E+02  0.00000000000E+00 0.  1.
         11    1    3    3    0    0  0.18893272106E+02  0.22588364874E+01  0.19523345615E+02  0.27262044997E+02  0.51100000000E-03 0. -1.
        -11    1    3    3    0    0  0.20888960810E+01  0.10455980322E+01  0.11327279702E+01  0.25961192187E+01  0.51100000000E-03 0.  1.
        -12    1    3    3    0    0  0.14083261310E+02 -0.10380279837E+02  0.39197525082E+01  0.17929108130E+02  0.00000000000E+00 0.  1.
</event>
<event>
 7    1  0.4430431E-010  0.4778727E+02  0.7816164E-02  0.1312668E+00
        -11   -1    0    0    0    0  0.00000000000E+00  0.00000000000E+00  0.45593999997E+02  0.45594000000E+02  0.51100000000E-03 0.  1.
         11   -1    0    0    0    0 -0.00000000000E+00 -0.00000000000E+00 -0.45593999997E+02  0.45594000000E+02  0.51100000000E-03 0. -1.
    9900012    2    1    2    0    0 -0.17843549748E+02  0.37334572102E+02 -0.13090480154E+02  0.47787271754E+02  0.20000003236E+02 0.  0.
        -12    1    1    2    0    0  0.17843549748E+02 -0.37334572102E+02  0.13090480154E+02  0.43400728246E+02  0.00000000000E+00 0.  1.
         11    1    3    3    0    0 -0.31513603970E+01  0.59933600724E+01 -0.92963929731E+01  0.11501059076E+02  0.51100000000E-03 0. -1.
        -11    1    3    3    0    0  0.14526459462E+01  0.46909387026E+01 -0.90501799461E+00  0.49934100561E+01  0.51100000000E-03 0.  1.
         12    1    3    3    0    0 -0.16144835297E+02  0.26650273327E+02 -0.28890691859E+01  0.31292802622E+02  0.00000000000E+00 0. -1.
</event>
<event>
 7    1  0.4430431E-010  0.4778727E+02  0.7816164E-02  0.1312668E+00
        -11   -1    0    0    0    0  0.00000000000E+00  0.00000000000E+00  0.45593999997E+02  0.45594000000E+02  0.51100000000E-03 0.  1.
         11   -1    0    0    0    0 -0.00000000000E+00 -0.00000000000E+00 -0.45593999997E+02  0.45594000000E+02  0.51100000000E-03 0. -1.
    9900012    2    1    2    0    0 -0.20279547876E+02 -0.38209727170E+02 -0.35184763398E+01  0.47787274336E+02  0.20000015006E+02 0.  0.
        -12    1    1    2    0    0  0.20279547876E+02  0.38209727170E+02  0.35184763398E+01  0.43400725664E+02  0.00000000000E+00 0.  1.
         11    1    3    3    0    0 -0.91767043938E+01 -0.23905480583E+02 -0.32872875684E+01  0.25816470814E+02  0.51100000000E-03 0. -1.
        -11    1    3    3    0    0 -0.12024818878E+02 -0.13673067567E+02  0.30881054387E+01  0.18468498618E+02  0.51100000000E-03 0.  1.
         12    1    3    3    0    0  0.92197539628E+00 -0.63117901928E+00 -0.33192942101E+01  0.35023049038E+01  0.00000000000E+00 0. -1.
</event>
<event>
 7    1  0.4430431E-010  0.4778727E+02  0.7816164E-02  0.1312668E+00
        -11   -1    0    0    0    0  0.00000000000E+00  0.00000000000E+00  0.45593999997E+02  0.45594000000E+02  0.51100000000E-03 0.  1.
         11   -1    0    0    0    0 -0.00000000000E+00 -0.00000000000E+00 -0.45593999997E+02  0.45594000000E+02  0.51100000000E-03 0. -1.
    9900012    2    1    2    0    0  0.31439634349E+02  0.26472554488E+02 -0.13941886310E+02  0.47787274857E+02  0.20000017382E+02 0.  0.
        -12    1    1    2    0    0 -0.31439634349E+02 -0.26472554488E+02  0.13941886310E+02  0.43400725143E+02  0.00000000000E+00 0.  1.
         11    1    3    3    0    0  0.45030825723E+01  0.16055596915E+02 -0.60304655619E+01  0.17732074331E+02  0.51100000000E-03 0.  1.
        -11    1    3    3    0    0  0.13660979958E+02  0.50120349588E+01 -0.52941770644E+01  0.15484546454E+02  0.51100000000E-03 0. -1.
        -12    1    3    3    0    0  0.13275571818E+02  0.54049226141E+01 -0.26172436838E+01  0.14570654071E+02  0.00000000000E+00 0.  1.
</event>
<event>
 7    1  0.4430431E-010  0.4778727E+02  0.7816164E-02  0.1312668E+00
        -11   -1    0    0    0    0  0.00000000000E+00  0.00000000000E+00  0.45593999997E+02  0.45594000000E+02  0.51100000000E-03 0.  1.
         11   -1    0    0    0    0 -0.00000000000E+00 -0.00000000000E+00 -0.45593999997E+02  0.45594000000E+02  0.51100000000E-03 0. -1.
    9900012    2    1    2    0    0 -0.99578555546E+01  0.41086962880E+02 -0.98145908602E+01  0.47787267291E+02  0.19999982885E+02 0.  0.
        -12    1    1    2    0    0  0.99578555546E+01 -0.41086962880E+02  0.98145908602E+01  0.43400732709E+02  0.00000000000E+00 0.  1.
         11    1    3    3    0    0 -0.96083062325E+01  0.35305990762E+02 -0.11401369521E+02  0.38325236589E+02  0.51100000000E-03 0. -1.
        -11    1    3    3    0    0  0.12225913077E-01  0.75358694141E+01  0.13143053071E+01  0.76496324095E+01  0.51100000000E-03 0.  1.
         12    1    3    3    0    0 -0.36177523513E+00 -0.17548972964E+01  0.27247335385E+00  0.18123982924E+01  0.00000000000E+00 0. -1.
</event>
<event>
 7    1  0.4430431E-010  0.4778727E+02  0.7816164E-02  0.1312668E+00
        -11   -1    0    0    0    0  0.00000000000E+00  0.00000000000E+00  0.45593999997E+02  0.45594000000E+02  0.51100000000E-03 0. -1.
         11   -1    0    0    0    0 -0.00000000000E+00 -0.00000000000E+00 -0.45593999997E+02  0.45594000000E+02  0.51100000000E-03 0.  1.
    9900012    2    1    2    0    0 -0.16042964507E+02 -0.39266634538E+02  0.91857451155E+01  0.47787271764E+02  0.20000003279E+02 0.  0.
        -12    1    1    2    0    0  0.16042964507E+02  0.39266634538E+02 -0.91857451155E+01  0.43400728236E+02  0.00000000000E+00 0.  1.
         11    1    3    3    0    0 -0.49767496291E+01 -0.45697631555E+01 -0.24589404954E+01  0.71900737680E+01  0.51100000000E-03 0. -1.
        -11    1    3    3    0    0 -0.11103322977E+02 -0.28894482110E+02  0.43226668608E+01  0.31254764862E+02  0.51100000000E-03 0.  1.
        -12    1    3    3    0    0  0.37108099103E-01 -0.58023892731E+01  0.73220187501E+01  0.93424331341E+01  0.00000000000E+00 0.  1.
</event>
<event>
 7    1  0.4430431E-010  0.4778727E+02  0.7816164E-02  0.1312668E+00
        -11   -1    0    0    0    0  0.00000000000E+00  0.00000000000E+00  0.45593999997E+02  0.45594000000E+02  0.51100000000E-03 0. -1.
         11   -1    0    0    0    0 -0.00000000000E+00 -0.00000000000E+00 -0.45593999997E+02  0.45594000000E+02  0.51100000000E-03 0.  1.
    9900012    2    1    2    0    0 -0.16373837018E+02 -0.39932774659E+02  0.45710203348E+01  0.47787271233E+02  0.20000000858E+02 0.  0.
        -12    1    1    2    0    0  0.16373837018E+02  0.39932774659E+02 -0.45710203348E+01  0.43400728767E+02  0.00000000000E+00 0.  1.
         11    1    3    3    0    0 -0.53687966741E+01 -0.25113051083E+02  0.79695657315E+00  0.25692887196E+02  0.51100000000E-03 0. -1.
        -11    1    3    3    0    0 -0.70709729982E+00 -0.96432072876E+01 -0.78222778984E+00  0.97006862623E+01  0.51100000000E-03 0.  1.
        -12    1    3    3    0    0 -0.10297943044E+02 -0.51765162884E+01  0.45562915515E+01  0.12393697775E+02  0.00000000000E+00 0.  1.
</event>
<event>
 7    1  0.4430431E-010  0.4778727E+02  0.7816164E-02  0.1312668E+00
        -11   -1    0    0    0    0  0.00000000000E+00  0.00000000000E+00  0.45593999997E+02  0.45594000000E+02  0.51100000000E-03 0. -1.
         11   -1    0    0    0    0 -0.00000000000E+00 -0.00000000000E+00 -0.45593999997E+02  0.45594000000E+02  0.51100000000E-03 0.  1.
    9900012    2    1    2    0    0 -0.27877217974E+02 -0.28741343338E+02  0.16745721534E+02  0.47787270876E+02  0.19999999231E+02 0.  0.
        -12    1    1    2    0    0  0.27877217974E+02  0.28741343338E+02 -0.16745721534E+02  0.43400729124E+02  0.00000000000E+00 0.  1.
         11    1    3    3    0    0 -0.10429642825E+02 -0.13187495728E+02  0.98149886014E+01  0.19468474376E+02  0.51100000000E-03 0. -1.
        -11    1    3    3    0    0  0.57758607843E+00 -0.48288685652E+00 -0.27914798134E+01  0.28912186365E+01  0.51100000000E-03 0.  1.
         12    1    3    3    0    0 -0.18025161227E+02 -0.15070960754E+02  0.97222127458E+01  0.25427577863E+02  0.00000000000E+00 0. -1.
</event>
<event>
 7    1  0.4430431E-010  0.4778726E+02  0.7816164E-02  0.1312668E+00
        -11   -1    0    0    0    0  0.00000000000E+00  0.00000000000E+00  0.45593999997E+02  0.45594000000E+02  0.51100000000E-03 0.  1.
         11   -1    0    0    0    0 -0.00000000000E+00 -0.00000000000E+00 -0.45593999997E+02  0.45594000000E+02  0.51100000000E-03 0. -1.
    9900012    2    1    2    0    0  0.15304752216E+02  0.22402658037E+02 -0.33874912087E+02  0.47787260416E+02  0.19999951540E+02 0.  0.
        -12    1    1    2    0    0 -0.15304752216E+02 -0.22402658037E+02  0.33874912087E+02  0.43400739584E+02  0.00000000000E+00 0.  1.
         11    1    3    3    0    0  0.13082717038E+02  0.14292250808E+02 -0.24079408428E+02  0.30907019086E+02  0.51100000000E-03 0. -1.
        -11    1    3    3    0    0  0.52527685079E+01  0.66785713959E+01 -0.25085662237E+01  0.88593339280E+01  0.51100000000E-03 0.  1.
        -12    1    3    3    0    0 -0.30307333293E+01  0.14318358328E+01 -0.72869374354E+01  0.80209074021E+01  0.00000000000E+00 0.  1.
</event>
<event>
 7    1  0.4430431E-010  0.4778727E+02  0.7816164E-02  0.1312668E+00
        -11   -1    0    0    0    0  0.00000000000E+00  0.00000000000E+00  0.45593999997E+02  0.45594000000E+02  0.51100000000E-03 0. -1.
         11   -1    0    0    0    0 -0.00000000000E+00 -0.00000000000E+00 -0.45593999997E+02  0.45594000000E+02  0.51100000000E-03 0.  1.
    9900012    2    1    2    0    0 -0.37656485367E+02 -0.11959564030E+02 -0.17960542586E+02  0.47787272449E+02  0.20000006402E+02 0.  0.
        -12    1    1    2    0    0  0.37656485367E+02  0.11959564030E+02  0.17960542586E+02  0.43400727551E+02  0.00000000000E+00 0.  1.
         11    1    3    3    0    0 -0.23969812101E+02 -0.70212464860E+01 -0.12362176833E+02  0.27868857362E+02  0.51100000000E-03 0. -1.
        -11    1    3    3    0    0 -0.83042590004E+01  0.35654195120E+01 -0.30319338907E+01  0.95323426933E+01  0.51100000000E-03 0.  1.
        -12    1    3    3    0    0 -0.53824142662E+01 -0.85037370562E+01 -0.25664318617E+01  0.10386072393E+02  0.00000000000E+00 0.  1.
</event>
<event>
 7    1  0.4430431E-010  0.4778727E+02  0.7816164E-02  0.1312668E+00
        -11   -1    0    0    0    0  0.00000000000E+00  0.00000000000E+00  0.45593999997E+02  0.45594000000E+02  0.51100000000E-03 0.  1.
         11   -1    0    0    0    0 -0.00000000000E+00 -0.00000000000E+00 -0.45593999997E+02  0.45594000000E+02  0.51100000000E-03 0. -1.
    9900012    2    1    2    0    0 -0.64987870211E+01 -0.58944820649E+01 -0.42504638039E+02  0.47787269518E+02  0.19999993041E+02 0.  0.
        -12    1    1    2    0    0  0.64987870211E+01  0.58944820649E+01  0.42504638039E+02  0.43400730482E+02  0.00000000000E+00 0.  1.
         11    1    3    3    0    0 -0.16522615571E+01 -0.63036479886E+01 -0.10014377312E+02  0.11947957960E+02  0.51100000000E-03 0. -1.
        -11    1    3    3    0    0  0.41172301379E+00 -0.63545270088E+01 -0.11094742517E+02  0.12792296163E+02  0.51100000000E-03 0.  1.
        -12    1    3    3    0    0 -0.52582484778E+01  0.67636929325E+01 -0.21395518209E+02  0.23047015394E+02  0.00000000000E+00 0.  1.
</event>
<event>
 7    1  0.4430431E-010  0.4778727E+02  0.7816164E-02  0.1312668E+00
        -11   -1    0    0    0    0  0.00000000000E+00  0.00000000000E+00  0.45593999997E+02  0.45594000000E+02  0.51100000000E-03 0. -1.
         11   -1    0    0    0    0 -0.00000000000E+00 -0.00000000000E+00 -0.45593999997E+02  0.45594000000E+02  0.51100000000E-03 0.  1.
    9900012    2    1    2    0    0  0.17169166605E+02  0.12848305869E+02  0.37732800256E+02  0.47787268892E+02  0.19999990184E+02 0.  0.
        -12    1    1    2    0    0 -0.17169166605E+02 -0.12848305869E+02 -0.37732800256E+02  0.43400731108E+02  0.00000000000E+00 0.  1.
         11    1    3    3    0    0  0.66191293615E+01  0.81912243824E+01  0.17266137692E+02  0.20224454045E+02  0.51100000000E-03 0. -1.
        -11    1    3    3    0    0  0.13025237610E+02  0.48845228929E+01  0.20832797210E+02  0.25050365637E+02  0.51100000000E-03 0.  1.
        -12    1    3    3    0    0 -0.24752003667E+01 -0.22744140626E+00 -0.36613464619E+00  0.25124492090E+01  0.00000000000E+00 0.  1.
</event>
<event>
 7    1  0.4430431E-010  0.4778727E+02  0.7816164E-02  0.1312668E+00
        -11   -1    0    0    0    0  0.00000000000E+00  0.00000000000E+00  0.45593999997E+02  0.45594000000E+02  0.51100000000E-03 0.  1.
         11   -1    0    0    0    0 -0.00000000000E+00 -0.00000000000E+00 -0.45593999997E+02  0.45594000000E+02  0.51100000000E-03 0. -1.
    9900012    2    1    2    0    0  0.32610221500E+02  0.27236142840E+02 -0.88537697025E+01  0.47787271192E+02  0.20000000674E+02 0.  0.
        -12    1    1    2    0    0 -0.32610221500E+02 -0.27236142840E+02  0.88537697025E+01  0.43400728808E+02  0.00000000000E+00 0.  1.
         11    1    3    3    0    0  0.20430472030E+02  0.13954268244E+02 -0.84352101468E+01  0.26139597550E+02  0.51100000000E-03 0. -1.
        -11    1    3    3    0    0  0.13879313677E+02  0.13308614157E+02 -0.19914004135E+01  0.19331845095E+02  0.51100000000E-03 0.  1.
        -12    1    3    3    0    0 -0.16995642067E+01 -0.26739560134E-01  0.15728408578E+01  0.23158285474E+01  0.00000000000E+00 0.  1.
</event>
<event>
 7    1  0.4430431E-010  0.4778727E+02  0.7816164E-02  0.1312668E+00
        -11   -1    0    0    0    0  0.00000000000E+00  0.00000000000E+00  0.45593999997E+02  0.45594000000E+02  0.51100000000E-03 0.  1.
         11   -1    0    0    0    0 -0.00000000000E+00 -0.00000000000E+00 -0.45593999997E+02  0.45594000000E+02  0.51100000000E-03 0. -1.
    9900012    2    1    2    0    0  0.42680409390E+02  0.48591081126E+01 -0.61963853163E+01  0.47787268804E+02  0.19999989787E+02 0.  0.
        -12    1    1    2    0    0 -0.42680409390E+02 -0.48591081126E+01  0.61963853163E+01  0.43400731196E+02  0.00000000000E+00 0.  1.
         11    1    3    3    0    0  0.84241599461E+01  0.28927416540E+01 -0.31944021272E+01  0.94624854180E+01  0.51100000000E-03 0. -1.
        -11    1    3    3    0    0  0.29740160532E+02  0.72601291617E+01 -0.51472764758E+01  0.31043213096E+02  0.51100000000E-03 0.  1.
        -12    1    3    3    0    0  0.45160889113E+01 -0.52937627032E+01  0.21452932866E+01  0.72815702907E+01  0.00000000000E+00 0.  1.
</event>
<event>
 7    1  0.4430431E-010  0.4778727E+02  0.7816164E-02  0.1312668E+00
        -11   -1    0    0    0    0  0.00000000000E+00  0.00000000000E+00  0.45593999997E+02  0.45594000000E+02  0.51100000000E-03 0.  1.
         11   -1    0    0    0    0 -0.00000000000E+00 -0.00000000000E+00 -0.45593999997E+02  0.45594000000E+02  0.51100000000E-03 0. -1.
    9900012    2    1    2    0    0  0.39005797031E+02  0.81473993758E+01 -0.17198573034E+02  0.47787271515E+02  0.20000002146E+02 0.  0.
        -12    1    1    2    0    0 -0.39005797031E+02 -0.81473993758E+01  0.17198573034E+02  0.43400728485E+02  0.00000000000E+00 0.  1.
         11    1    3    3    0    0  0.22750226610E+02  0.76935770861E+01 -0.17159225568E+02  0.29516147471E+02  0.51100000000E-03 0. -1.
        -11    1    3    3    0    0 -0.52838883751E+00  0.13501570871E+01 -0.19220139412E+00  0.14625527548E+01  0.51100000000E-03 0.  1.
         12    1    3    3    0    0  0.16783959258E+02 -0.89633479742E+00  0.15285392786E+00  0.16808571289E+02  0.00000000000E+00 0. -1.
</event>
<event>
 7    1  0.4430431E-010  0.4778727E+02  0.7816164E-02  0.1312668E+00
        -11   -1    0    0    0    0  0.00000000000E+00  0.00000000000E+00  0.45593999997E+02  0.45594000000E+02  0.51100000000E-03 0.  1.
         11   -1    0    0    0    0 -0.00000000000E+00 -0.00000000000E+00 -0.45593999997E+02  0.45594000000E+02  0.51100000000E-03 0. -1.
    9900012    2    1    2    0    0  0.15431905343E+02  0.78627963282E+01 -0.39795177221E+02  0.47787269607E+02  0.19999993445E+02 0.  0.
        -12    1    1    2    0    0 -0.15431905343E+02 -0.78627963282E+01  0.39795177221E+02  0.43400730393E+02  0.00000000000E+00 0.  1.
         11    1    3    3    0    0  0.11121238648E+02 -0.74081983161E+00 -0.14839343122E+02  0.18559010416E+02  0.51100000000E-03 0. -1.
        -11    1    3    3    0    0  0.28522936074E+01 -0.26167307199E+01 -0.71788600021E+01  0.81559113331E+01  0.51100000000E-03 0.  1.
         12    1    3    3    0    0  0.14583730881E+01  0.11220346880E+02 -0.17776974097E+02  0.21072347857E+02  0.00000000000E+00 0. -1.
</event>
<event>
 7    1  0.4430431E-010  0.4778730E+02  0.7816164E-02  0.1312668E+00
        -11   -1    0    0    0    0  0.00000000000E+00  0.00000000000E+00  0.45593999997E+02  0.45594000000E+02  0.51100000000E-03 0.  1.
         11   -1    0    0    0    0 -0.00000000000E+00 -0.00000000000E+00 -0.45593999997E+02  0.45594000000E+02  0.51100000000E-03 0. -1.
    9900012    2    1    2    0    0  0.27952405879E+02  0.29354278818E+02 -0.15511611449E+02  0.47787299901E+02  0.20000131568E+02 0.  0.
        -12    1    1    2    0    0 -0.27952405879E+02 -0.29354278818E+02  0.15511611449E+02  0.43400700099E+02  0.00000000000E+00 0.  1.
         11    1    3    3    0    0  0.20998278830E+02  0.27152208226E+02 -0.92146220718E+01  0.35539828159E+02  0.51100000000E-03 0. -1.
        -11    1    3    3    0    0 -0.12199890773E+01  0.42845577502E+00  0.58180026880E+00  0.14178996840E+01  0.51100000000E-03 0.  1.
         12    1    3    3    0    0  0.81741161264E+01  0.17736148162E+01 -0.68787896455E+01  0.10829572058E+02  0.00000000000E+00 0. -1.
</event>
<event>
 7    1  0.4430431E-010  0.4778727E+02  0.7816164E-02  0.1312668E+00
        -11   -1    0    0    0    0  0.00000000000E+00  0.00000000000E+00  0.45593999997E+02  0.45594000000E+02  0.51100000000E-03 0.  1.
         11   -1    0    0    0    0 -0.00000000000E+00 -0.00000000000E+00 -0.45593999997E+02  0.45594000000E+02  0.51100000000E-03 0. -1.
    9900012    2    1    2    0    0  0.68020340280E+01  0.25345590232E+02 -0.34568145012E+02  0.47787271196E+02  0.20000000690E+02 0.  0.
        -12    1    1    2    0    0 -0.68020340280E+01 -0.25345590232E+02  0.34568145012E+02  0.43400728804E+02  0.00000000000E+00 0.  1.
         11    1    3    3    0    0 -0.38225029467E+01  0.92547328975E+00 -0.37522923765E+01  0.54357821817E+01  0.51100000000E-03 0. -1.
        -11    1    3    3    0    0  0.19654450817E+00  0.47824769685E+00  0.10390425425E+01  0.11605861750E+01  0.51100000000E-03 0.  1.
         12    1    3    3    0    0  0.10427992467E+02  0.23941869246E+02 -0.31854895178E+02  0.41190902839E+02  0.00000000000E+00 0. -1.
</event>
<event>
 7    1  0.4430431E-010  0.4778727E+02  0.7816164E-02  0.1312668E+00
        -11   -1    0    0    0    0  0.00000000000E+00  0.00000000000E+00  0.45593999997E+02  0.45594000000E+02  0.51100000000E-03 0.  1.
         11   -1    0    0    0    0 -0.00000000000E+00 -0.00000000000E+00 -0.45593999997E+02  0.45594000000E+02  0.51100000000E-03 0. -1.
    9900012    2    1    2    0    0  0.30355107044E+02  0.48814503686E+00 -0.31015358750E+02  0.47787270886E+02  0.19999999277E+02 0.  0.
        -12    1    1    2    0    0 -0.30355107044E+02 -0.48814503686E+00  0.31015358750E+02  0.43400729114E+02  0.00000000000E+00 0.  1.
         11    1    3    3    0    0  0.92420915233E+01 -0.41121740719E+01 -0.51671099454E+01  0.11358928505E+02  0.51100000000E-03 0. -1.
        -11    1    3    3    0    0  0.25206019395E+01  0.47354861669E+01 -0.11036170860E+01  0.54768818052E+01  0.51100000000E-03 0.  1.
        -12    1    3    3    0    0  0.18592413581E+02 -0.13516705809E+00 -0.24744631718E+02  0.30951460576E+02  0.00000000000E+00 0.  1.
</event>
<event>
 7    1  0.4430431E-010  0.4778727E+02  0.7816164E-02  0.1312668E+00
        -11   -1    0    0    0    0  0.00000000000E+00  0.00000000000E+00  0.45593999997E+02  0.45594000000E+02  0.51100000000E-03 0.  1.
         11   -1    0    0    0    0 -0.00000000000E+00 -0.00000000000E+00 -0.45593999997E+02  0.45594000000E+02  0.51100000000E-03 0. -1.
    9900012    2    1    2    0    0 -0.78621463165E+01  0.16108550185E+02 -0.39526251330E+02  0.47787270997E+02  0.19999999785E+02 0.  0.
        -12    1    1    2    0    0  0.78621463165E+01 -0.16108550185E+02  0.39526251330E+02  0.43400729003E+02  0.00000000000E+00 0.  1.
         11    1    3    3    0    0  0.23627563970E+01  0.19573549692E+01 -0.13936040923E+02  0.14269796535E+02  0.51100000000E-03 0. -1.
        -11    1    3    3    0    0 -0.80230786116E+01  0.47928052245E+01 -0.20742169794E+02  0.22750349016E+02  0.51100000000E-03 0.  1.
         12    1    3    3    0    0 -0.22018241019E+01  0.93583899910E+01 -0.48480406133E+01  0.10767125447E+02  0.00000000000E+00 0. -1.
</event>
<event>
 7    1  0.4430431E-010  0.4778727E+02  0.7816164E-02  0.1312668E+00
        -11   -1    0    0    0    0  0.00000000000E+00  0.00000000000E+00  0.45593999997E+02  0.45594000000E+02  0.51100000000E-03 0.  1.
         11   -1    0    0    0    0 -0.00000000000E+00 -0.00000000000E+00 -0.45593999997E+02  0.45594000000E+02  0.51100000000E-03 0. -1.
    9900012    2    1    2    0    0  0.18126690663E+02 -0.38143206115E+02  0.10007107911E+02  0.47787270791E+02  0.19999998845E+02 0.  0.
        -12    1    1    2    0    0 -0.18126690663E+02  0.38143206115E+02 -0.10007107911E+02  0.43400729209E+02  0.00000000000E+00 0.  1.
         11    1    3    3    0    0  0.11045141937E+01 -0.54766299037E+01  0.31706137780E+01  0.64238787891E+01  0.51100000000E-03 0. -1.
        -11    1    3    3    0    0 -0.16819503374E+01 -0.87076034386E+01  0.64492425150E+01  0.10965584520E+02  0.51100000000E-03 0.  1.
         12    1    3    3    0    0  0.18704126806E+02 -0.23958972773E+02  0.38725161784E+00  0.30397807482E+02  0.00000000000E+00 0. -1.
</event>
<event>
 7    1  0.4430431E-010  0.4778726E+02  0.7816164E-02  0.1312668E+00
        -11   -1    0    0    0    0  0.00000000000E+00  0.00000000000E+00  0.45593999997E+02  0.45594000000E+02  0.51100000000E-03 0.  1.
         11   -1    0    0    0    0 -0.00000000000E+00 -0.00000000000E+00 -0.45593999997E+02  0.45594000000E+02  0.51100000000E-03 0. -1.
    9900012    2    1    2    0    0 -0.25837612306E+02  0.25458273381E+02 -0.23831040522E+02  0.47787258237E+02  0.19999941604E+02 0.  0.
        -12    1    1    2    0    0  0.25837612306E+02 -0.25458273381E+02  0.23831040522E+02  0.43400741763E+02  0.00000000000E+00 0.  1.
         11    1    3    3    0    0 -0.18889545451E+02  0.11889539367E+02 -0.20427902373E+02  0.30256821864E+02  0.51100000000E-03 0. -1.
        -11    1    3    3    0    0 -0.38280624181E+01  0.49918644789E+01 -0.52798336501E+01  0.82127593710E+01  0.51100000000E-03 0.  1.
        -12    1    3    3    0    0 -0.31200044370E+01  0.85768695351E+01  0.18766955002E+01  0.93176770018E+01  0.00000000000E+00 0.  1.
</event>
<event>
 7    1  0.4430431E-010  0.4778727E+02  0.7816164E-02  0.1312668E+00
        -11   -1    0    0    0    0  0.00000000000E+00  0.00000000000E+00  0.45593999997E+02  0.45594000000E+02  0.51100000000E-03 0.  1.
         11   -1    0    0    0    0 -0.00000000000E+00 -0.00000000000E+00 -0.45593999997E+02  0.45594000000E+02  0.51100000000E-03 0. -1.
    9900012    2    1    2    0    0  0.27648211193E+02  0.10728256861E+02 -0.31687600796E+02  0.47787272798E+02  0.20000007995E+02 0.  0.
        -12    1    1    2    0    0 -0.27648211193E+02 -0.10728256861E+02  0.31687600796E+02  0.43400727202E+02  0.00000000000E+00 0.  1.
         11    1    3    3    0    0  0.10634035147E+02  0.29998468376E+01 -0.13974342712E+02  0.17814714116E+02  0.51100000000E-03 0. -1.
        -11    1    3    3    0    0  0.69738912310E+01  0.61353696839E+01 -0.17490863073E+02  0.19804247306E+02  0.51100000000E-03 0.  1.
        -12    1    3    3    0    0  0.10040284815E+02  0.15930403399E+01 -0.22239501147E+00  0.10168311376E+02  0.00000000000E+00 0.  1.
</event>
<event>
 7    1  0.4430431E-010  0.4778728E+02  0.7816164E-02  0.1312668E+00
        -11   -1    0    0    0    0  0.00000000000E+00  0.00000000000E+00  0.45593999997E+02  0.45594000000E+02  0.51100000000E-03 0. -1.
         11   -1    0    0    0    0 -0.00000000000E+00 -0.00000000000E+00 -0.45593999997E+02  0.45594000000E+02  0.51100000000E-03 0.  1.
    9900012    2    1    2    0    0  0.25929781149E+02  0.21018088642E+02  0.27740029551E+02  0.47787276042E+02  0.20000022784E+02 0.  0.
        -12    1    1    2    0    0 -0.25929781149E+02 -0.21018088642E+02 -0.27740029551E+02  0.43400723958E+02  0.00000000000E+00 0.  1.
         11    1    3    3    0    0  0.14281514413E+02  0.93313469979E+01  0.51110567758E+01  0.17808946975E+02  0.51100000000E-03 0. -1.
        -11    1    3    3    0    0  0.10654646578E+02  0.11787159879E+02  0.23687589399E+02  0.28522982374E+02  0.51100000000E-03 0.  1.
        -12    1    3    3    0    0  0.99362015826E+00 -0.10041823521E+00 -0.10586166234E+01  0.14553466928E+01  0.00000000000E+00 0.  1.
</event>
<event>
 7    1  0.4430431E-010  0.4778727E+02  0.7816164E-02  0.1312668E+00
        -11   -1    0    0    0    0  0.00000000000E+00  0.00000000000E+00  0.45593999997E+02  0.45594000000E+02  0.51100000000E-03 0. -1.
         11   -1    0    0    0    0 -0.00000000000E+00 -0.00000000000E+00 -0.45593999997E+02  0.45594000000E+02  0.51100000000E-03 0.  1.
    9900012    2    1    2    0    0 -0.87106671629E+01 -0.36185767120E+02  0.22323484302E+02  0.47787269409E+02  0.19999992542E+02 0.  0.
        -12    1    1    2    0    0  0.87106671629E+01  0.36185767120E+02 -0.22323484302E+02  0.43400730591E+02  0.00000000000E+00 0.  1.
         11    1    3    3    0    0  0.23764898539E+00 -0.22652841780E+02  0.99798572998E+01  0.24754903953E+02  0.51100000000E-03 0. -1.
        -11    1    3    3    0    0  0.23798364780E+01 -0.12554687340E+01  0.23046880822E+01  0.35427970336E+01  0.51100000000E-03 0.  1.
        -12    1    3    3    0    0 -0.11328152626E+02 -0.12277456606E+02  0.10038938920E+02  0.19489568422E+02  0.00000000000E+00 0.  1.
</event>
<event>
 7    1  0.4430431E-010  0.4778729E+02  0.7816164E-02  0.1312668E+00
        -11   -1    0    0    0    0  0.00000000000E+00  0.00000000000E+00  0.45593999997E+02  0.45594000000E+02  0.51100000000E-03 0.  1.
         11   -1    0    0    0    0 -0.00000000000E+00 -0.00000000000E+00 -0.45593999997E+02  0.45594000000E+02  0.51100000000E-03 0. -1.
    9900012    2    1    2    0    0 -0.95396057618E+01 -0.12348121781E+02 -0.40498660781E+02  0.47787289008E+02  0.20000081902E+02 0.  0.
        -12    1    1    2    0    0  0.95396057618E+01  0.12348121781E+02  0.40498660781E+02  0.43400710992E+02  0.00000000000E+00 0.  1.
         11    1    3    3    0    0  0.41060298806E+01 -0.40430650190E+01 -0.20598516281E+02  0.21389360191E+02  0.51100000000E-03 0. -1.
        -11    1    3    3    0    0 -0.35091820038E+01  0.92439819409E+00 -0.44733096818E+01  0.57601536548E+01  0.51100000000E-03 0.  1.
         12    1    3    3    0    0 -0.10136453639E+02 -0.92294549559E+01 -0.15426834818E+02  0.20637775162E+02  0.00000000000E+00 0. -1.
</event>
<event>
 7    1  0.4430431E-010  0.4778727E+02  0.7816164E-02  0.1312668E+00
        -11   -1    0    0    0    0  0.00000000000E+00  0.00000000000E+00  0.45593999997E+02  0.45594000000E+02  0.51100000000E-03 0. -1.
         11   -1    0    0    0    0 -0.00000000000E+00 -0.00000000000E+00 -0.45593999997E+02  0.45594000000E+02  0.51100000000E-03 0.  1.
    9900012    2    1    2    0    0 -0.27466164754E+02  0.85974027576E+01  0.32485657196E+02  0.47787268855E+02  0.19999990020E+02 0.  0.
        -12    1    1    2    0    0  0.27466164754E+02 -0.85974027576E+01 -0.32485657196E+02  0.43400731145E+02  0.00000000000E+00 0.  1.
         11    1    3    3    0    0 -0.10210205600E+02  0.34845774700E+01  0.22531161960E+01  0.11021211884E+02  0.51100000000E-03 0. -1.
        -11    1    3    3    0    0  0.12071127793E+01  0.66796058574E+00  0.46332726186E+00  0.14553229947E+01  0.51100000000E-03 0.  1.
         12    1    3    3    0    0 -0.18463071933E+02  0.44448647018E+01  0.29769213738E+02  0.35310733977E+02  0.00000000000E+00 0. -1.
</event>
<event>
 7    1  0.4430431E-010  0.4778725E+02  0.7816164E-02  0.1312668E+00
        -11   -1    0    0    0    0  0.00000000000E+00  0.00000000000E+00  0.45593999997E+02  0.45594000000E+02  0.51100000000E-03 0.  1.
         11   -1    0    0    0    0 -0.00000000000E+00 -0.00000000000E+00 -0.45593999997E+02  0.45594000000E+02  0.51100000000E-03 0. -1.
    9900012    2    1    2    0    0 -0.19264953368E+02  0.25772967535E+02 -0.29124570010E+02  0.47787252747E+02  0.19999916575E+02 0.  0.
        -12    1    1    2    0    0  0.19264953368E+02 -0.25772967535E+02  0.29124570010E+02  0.43400747253E+02  0.00000000000E+00 0.  1.
         11    1    3    3    0    0 -0.97194560976E+01  0.98224198485E+01 -0.19030446501E+02  0.23518198332E+02  0.51100000000E-03 0. -1.
        -11    1    3    3    0    0 -0.12117134860E+02  0.12848236611E+02 -0.98736838441E+01  0.20233432090E+02  0.51100000000E-03 0.  1.
         12    1    3    3    0    0  0.25716375893E+01  0.31023110755E+01 -0.22043966468E+00  0.40356223244E+01  0.00000000000E+00 0. -1.
</event>
<event>
 7    1  0.4430431E-010  0.4778727E+02  0.7816164E-02  0.1312668E+00
        -11   -1    0    0    0    0  0.00000000000E+00  0.00000000000E+00  0.45593999997E+02  0.45594000000E+02  0.51100000000E-03 0.  1.
         11   -1    0    0    0    0 -0.00000000000E+00 -0.00000000000E+00 -0.45593999997E+02  0.45594000000E+02  0.51100000000E-03 0. -1.
    9900012    2    1    2    0    0  0.70726752899E+01 -0.27353489486E+02 -0.32945214461E+02  0.47787270989E+02  0.19999999746E+02 0.  0.
        -12    1    1    2    0    0 -0.70726752899E+01  0.27353489486E+02  0.32945214461E+02  0.43400729011E+02  0.00000000000E+00 0.  1.
         11    1    3    3    0    0 -0.20104754518E+01 -0.15440711091E+01 -0.32937247346E+00  0.25562968567E+01  0.51100000000E-03 0. -1.
        -11    1    3    3    0    0  0.97409663282E+00  0.19393330418E+01 -0.40181070723E+01  0.45667342382E+01  0.51100000000E-03 0.  1.
         12    1    3    3    0    0  0.81090541088E+01 -0.27748751419E+02 -0.28597734916E+02  0.40664239894E+02  0.00000000000E+00 0. -1.
</event>
<event>
 7    1  0.4430431E-010  0.4778727E+02  0.7816164E-02  0.1312668E+00
        -11   -1    0    0    0    0  0.00000000000E+00  0.00000000000E+00  0.45593999997E+02  0.45594000000E+02  0.51100000000E-03 0.  1.
         11   -1    0    0    0    0 -0.00000000000E+00 -0.00000000000E+00 -0.45593999997E+02  0.45594000000E+02  0.51100000000E-03 0. -1.
    9900012    2    1    2    0    0 -0.12492438754E+02 -0.10891943021E+02 -0.40111439617E+02  0.47787273774E+02  0.20000012446E+02 0.  0.
        -12    1    1    2    0    0  0.12492438754E+02  0.10891943021E+02  0.40111439617E+02  0.43400726226E+02  0.00000000000E+00 0.  1.
         11    1    3    3    0    0 -0.95459612273E+00 -0.63922268084E+01 -0.19275397244E+02  0.20330094847E+02  0.51100000000E-03 0. -1.
        -11    1    3    3    0    0  0.17141822533E+00 -0.60608640659E+01 -0.67451066609E+01  0.90697255505E+01  0.51100000000E-03 0.  1.
         12    1    3    3    0    0 -0.11709260857E+02  0.15611478530E+01 -0.14090935712E+02  0.18387453376E+02  0.00000000000E+00 0. -1.
</event>
<event>
 7    1  0.4430431E-010  0.4778727E+02  0.7816164E-02  0.1312668E+00
        -11   -1    0    0    0    0  0.00000000000E+00  0.00000000000E+00  0.45593999997E+02  0.45594000000E+02  0.51100000000E-03 0. -1.
         11   -1    0    0    0    0 -0.00000000000E+00 -0.00000000000E+00 -0.45593999997E+02  0.45594000000E+02  0.51100000000E-03 0.  1.
    9900012    2    1    2    0    0  0.36049312922E+02  0.24137793201E+02 -0.11989479123E+01  0.47787268453E+02  0.19999988183E+02 0.  0.
        -12    1    1    2    0    0 -0.36049312922E+02 -0.24137793201E+02  0.11989479123E+01  0.43400731547E+02  0.00000000000E+00 0.  1.
         11    1    3    3    0    0  0.11809307230E+02  0.10102973010E+02  0.44591589068E+00  0.15547624968E+02  0.51100000000E-03 0. -1.
        -11    1    3    3    0    0  0.11055352244E+02  0.13756382690E+01  0.57323692392E+01  0.12528896649E+02  0.51100000000E-03 0.  1.
        -12    1    3    3    0    0  0.13184653447E+02  0.12659181922E+02 -0.73772330421E+01  0.19710746836E+02  0.00000000000E+00 0.  1.
</event>
<event>
 7    1  0.4430431E-010  0.4778727E+02  0.7816164E-02  0.1312668E+00
        -11   -1    0    0    0    0  0.00000000000E+00  0.00000000000E+00  0.45593999997E+02  0.45594000000E+02  0.51100000000E-03 0.  1.
         11   -1    0    0    0    0 -0.00000000000E+00 -0.00000000000E+00 -0.45593999997E+02  0.45594000000E+02  0.51100000000E-03 0. -1.
    9900012    2    1    2    0    0  0.29150581213E+01 -0.52310834502E+01 -0.42985595408E+02  0.47787271775E+02  0.20000003331E+02 0.  0.
        -12    1    1    2    0    0 -0.29150581213E+01  0.52310834502E+01  0.42985595408E+02  0.43400728225E+02  0.00000000000E+00 0.  1.
         11    1    3    3    0    0  0.37717238039E+01 -0.32505431927E+01 -0.19504346845E+02  0.20129865315E+02  0.51100000000E-03 0. -1.
        -11    1    3    3    0    0  0.65388126479E+01 -0.11755509155E+01 -0.74363645866E+01  0.99718358052E+01  0.51100000000E-03 0.  1.
        -12    1    3    3    0    0 -0.73954783305E+01 -0.80498934210E+00 -0.16044883976E+02  0.17685570655E+02  0.00000000000E+00 0.  1.
</event>
<event>
 7    1  0.4430431E-010  0.4778727E+02  0.7816164E-02  0.1312668E+00
        -11   -1    0    0    0    0  0.00000000000E+00  0.00000000000E+00  0.45593999997E+02  0.45594000000E+02  0.51100000000E-03 0. -1.
         11   -1    0    0    0    0 -0.00000000000E+00 -0.00000000000E+00 -0.45593999997E+02  0.45594000000E+02  0.51100000000E-03 0.  1.
    9900012    2    1    2    0    0  0.42096293066E+01  0.35033807197E+02  0.25269243136E+02  0.47787271040E+02  0.19999999978E+02 0.  0.
        -12    1    1    2    0    0 -0.42096293066E+01 -0.35033807197E+02 -0.25269243136E+02  0.43400728960E+02  0.00000000000E+00 0.  1.
         11    1    3    3    0    0  0.55539492699E+01  0.24064918333E+02  0.18982933652E+02  0.31149934464E+02  0.51100000000E-03 0. -1.
        -11    1    3    3    0    0  0.25890143664E+01  0.13038756019E+01  0.54452330695E+01  0.61687640915E+01  0.51100000000E-03 0.  1.
         12    1    3    3    0    0 -0.39333343297E+01  0.96650132626E+01  0.84107641496E+00  0.10468572484E+02  0.00000000000E+00 0. -1.
</event>
<event>
 7    1  0.4430431E-010  0.4778729E+02  0.7816164E-02  0.1312668E+00
        -11   -1    0    0    0    0  0.00000000000E+00  0.00000000000E+00  0.45593999997E+02  0.45594000000E+02  0.51100000000E-03 0. -1.
         11   -1    0    0    0    0 -0.00000000000E+00 -0.00000000000E+00 -0.45593999997E+02  0.45594000000E+02  0.51100000000E-03 0.  1.
    9900012    2    1    2    0    0 -0.59318843129E+01  0.41588429126E+02 -0.10901247835E+02  0.47787286953E+02  0.20000072533E+02 0.  0.
        -12    1    1    2    0    0  0.59318843129E+01 -0.41588429126E+02  0.10901247835E+02  0.43400713047E+02  0.00000000000E+00 0.  1.
         11    1    3    3    0    0 -0.22595421147E+01  0.26995096658E+01  0.12845586408E+01  0.37473956512E+01  0.51100000000E-03 0. -1.
        -11    1    3    3    0    0 -0.30365429565E+00 -0.10402734489E+01  0.13620538586E+01  0.17405647803E+01  0.51100000000E-03 0.  1.
         12    1    3    3    0    0 -0.33686879025E+01  0.39929192909E+02 -0.13547860334E+02  0.42299326521E+02  0.00000000000E+00 0. -1.
</event>
<event>
 7    1  0.4430431E-010  0.4778727E+02  0.7816164E-02  0.1312668E+00
        -11   -1    0    0    0    0  0.00000000000E+00  0.00000000000E+00  0.45593999997E+02  0.45594000000E+02  0.51100000000E-03 0.  1.
         11   -1    0    0    0    0 -0.00000000000E+00 -0.00000000000E+00 -0.45593999997E+02  0.45594000000E+02  0.51100000000E-03 0. -1.
    9900012    2    1    2    0    0  0.14300345479E+02 -0.26193581282E+02 -0.31512214408E+02  0.47787271456E+02  0.20000001877E+02 0.  0.
        -12    1    1    2    0    0 -0.14300345479E+02  0.26193581282E+02  0.31512214408E+02  0.43400728544E+02  0.00000000000E+00 0.  1.
         11    1    3    3    0    0  0.53138981987E+00 -0.75547294152E+01 -0.64511114618E+01  0.99485250681E+01  0.51100000000E-03 0. -1.
        -11    1    3    3    0    0  0.17543336533E+02 -0.15501797660E+02 -0.21369747964E+02  0.31697642116E+02  0.51100000000E-03 0.  1.
        -12    1    3    3    0    0 -0.37743808732E+01 -0.31370542070E+01 -0.36913549828E+01  0.61411042723E+01  0.00000000000E+00 0.  1.
</event>
<event>
 7    1  0.4430431E-010  0.4778727E+02  0.7816164E-02  0.1312668E+00
        -11   -1    0    0    0    0  0.00000000000E+00  0.00000000000E+00  0.45593999997E+02  0.45594000000E+02  0.51100000000E-03 0. -1.
         11   -1    0    0    0    0 -0.00000000000E+00 -0.00000000000E+00 -0.45593999997E+02  0.45594000000E+02  0.51100000000E-03 0.  1.
    9900012    2    1    2    0    0  0.16729760214E+02  0.38288338759E+02 -0.11736331274E+02  0.47787271509E+02  0.20000002120E+02 0.  0.
        -12    1    1    2    0    0 -0.16729760214E+02 -0.38288338759E+02  0.11736331274E+02  0.43400728491E+02  0.00000000000E+00 0.  1.
         11    1    3    3    0    0  0.28973532956E+01 -0.13523449770E+00  0.42350589874E-01  0.29008168371E+01  0.51100000000E-03 0. -1.
        -11    1    3    3    0    0 -0.38045313687E+00  0.24490472795E+01 -0.50497138001E+01  0.56251388330E+01  0.51100000000E-03 0.  1.
        -12    1    3    3    0    0  0.14212860056E+02  0.35974525977E+02 -0.67289680640E+01  0.39261315839E+02  0.00000000000E+00 0.  1.
</event>
<event>
 7    1  0.4430431E-010  0.4778727E+02  0.7816164E-02  0.1312668E+00
        -11   -1    0    0    0    0  0.00000000000E+00  0.00000000000E+00  0.45593999997E+02  0.45594000000E+02  0.51100000000E-03 0.  1.
         11   -1    0    0    0    0 -0.00000000000E+00 -0.00000000000E+00 -0.45593999997E+02  0.45594000000E+02  0.51100000000E-03 0. -1.
    9900012    2    1    2    0    0  0.25710776432E+02  0.22740857032E+02 -0.26559987907E+02  0.47787267738E+02  0.19999984924E+02 0.  0.
        -12    1    1    2    0    0 -0.25710776432E+02 -0.22740857032E+02  0.26559987907E+02  0.43400732262E+02  0.00000000000E+00 0.  1.
         11    1    3    3    0    0  0.79441130444E+01  0.15997356232E+02 -0.80641380492E+01  0.19597312602E+02  0.51100000000E-03 0. -1.
        -11    1    3    3    0    0  0.42085868981E+01  0.52130170300E+00  0.23177975861E+00  0.42470791448E+01  0.51100000000E-03 0.  1.
         12    1    3    3    0    0  0.13558076489E+02  0.62221990970E+01 -0.18727629616E+02  0.23942875991E+02  0.00000000000E+00 0. -1.
</event>
<event>
 7    1  0.4430431E-010  0.4778727E+02  0.7816164E-02  0.1312668E+00
        -11   -1    0    0    0    0  0.00000000000E+00  0.00000000000E+00  0.45593999997E+02  0.45594000000E+02  0.51100000000E-03 0.  1.
         11   -1    0    0    0    0 -0.00000000000E+00 -0.00000000000E+00 -0.45593999997E+02  0.45594000000E+02  0.51100000000E-03 0. -1.
    9900012    2    1    2    0    0 -0.34845054719E+02 -0.13898218004E+02 -0.21823955536E+02  0.47787270314E+02  0.19999996669E+02 0.  0.
        -12    1    1    2    0    0  0.34845054719E+02  0.13898218004E+02  0.21823955536E+02  0.43400729686E+02  0.00000000000E+00 0.  1.
         11    1    3    3    0    0 -0.27261069027E+02 -0.10448888156E+02 -0.23647653026E+02  0.37570688602E+02  0.51100000000E-03 0. -1.
        -11    1    3    3    0    0 -0.64917765209E+01 -0.11445668533E+01 -0.69949710601E+00  0.66289133454E+01  0.51100000000E-03 0.  1.
        -12    1    3    3    0    0 -0.10922091710E+01 -0.23047629951E+01  0.25231945954E+01  0.35876683658E+01  0.00000000000E+00 0.  1.
</event>
<event>
 7    1  0.4430431E-010  0.4778725E+02  0.7816164E-02  0.1312668E+00
        -11   -1    0    0    0    0  0.00000000000E+00  0.00000000000E+00  0.45593999997E+02  0.45594000000E+02  0.51100000000E-03 0.  1.
         11   -1    0    0    0    0 -0.00000000000E+00 -0.00000000000E+00 -0.45593999997E+02  0.45594000000E+02  0.51100000000E-03 0. -1.
    9900012    2    1    2    0    0 -0.10116457806E+02  0.42862507970E+01 -0.41987024999E+02  0.47787251934E+02  0.19999912867E+02 0.  0.
        -12    1    1    2    0    0  0.10116457806E+02 -0.42862507970E+01  0.41987024999E+02  0.43400748066E+02  0.00000000000E+00 0.  1.
         11    1    3    3    0    0 -0.18451612076E+01  0.57631386539E+01 -0.67140616941E+01  0.90386399264E+01  0.51100000000E-03 0. -1.
        -11    1    3    3    0    0  0.31296328035E+01 -0.11278304156E+01 -0.16093368905E+02  0.16433597473E+02  0.51100000000E-03 0.  1.
         12    1    3    3    0    0 -0.11400929402E+02 -0.34905744127E+00 -0.19179594400E+02  0.22315014535E+02  0.00000000000E+00 0. -1.
</event>
<event>
 7    1  0.4430431E-010  0.4778728E+02  0.7816164E-02  0.1312668E+00
        -11   -1    0    0    0    0  0.00000000000E+00  0.00000000000E+00  0.45593999997E+02  0.45594000000E+02  0.51100000000E-03 0.  1.
         11   -1    0    0    0    0 -0.00000000000E+00 -0.00000000000E+00 -0.45593999997E+02  0.45594000000E+02  0.51100000000E-03 0. -1.
    9900012    2    1    2    0    0  0.20888149757E+02  0.14465465149E+02 -0.35186054247E+02  0.47787275401E+02  0.20000019865E+02 0.  0.
        -12    1    1    2    0    0 -0.20888149757E+02 -0.14465465149E+02  0.35186054247E+02  0.43400724599E+02  0.00000000000E+00 0.  1.
         11    1    3    3    0    0  0.12523643854E+02  0.89267405716E+01 -0.16356221693E+02  0.22451154557E+02  0.51100000000E-03 0. -1.
        -11    1    3    3    0    0  0.79378338821E+01 -0.27924326935E+01 -0.11369891922E+02  0.14145010769E+02  0.51100000000E-03 0.  1.
         12    1    3    3    0    0  0.42667202072E+00  0.83311572706E+01 -0.74599406324E+01  0.11191110075E+02  0.00000000000E+00 0. -1.
</event>
<event>
 7    1  0.4430431E-010  0.4778729E+02  0.7816164E-02  0.1312668E+00
        -11   -1    0    0    0    0  0.00000000000E+00  0.00000000000E+00  0.45593999997E+02  0.45594000000E+02  0.51100000000E-03 0.  1.
         11   -1    0    0    0    0 -0.00000000000E+00 -0.00000000000E+00 -0.45593999997E+02  0.45594000000E+02  0.51100000000E-03 0. -1.
    9900012    2    1    2    0    0  0.35295978271E+02  0.15962608896E+01 -0.25204519933E+02  0.47787286227E+02  0.20000069224E+02 0.  0.
        -12    1    1    2    0    0 -0.35295978271E+02 -0.15962608896E+01  0.25204519933E+02  0.43400713773E+02  0.00000000000E+00 0.  1.
         11    1    3    3    0    0  0.20972059063E+02  0.45860402160E+01 -0.70042421285E+01  0.22581373613E+02  0.51100000000E-03 0. -1.
        -11    1    3    3    0    0  0.12328874271E+01 -0.22012072855E+01  0.28704880935E+00  0.25392365391E+01  0.51100000000E-03 0.  1.
        -12    1    3    3    0    0  0.13091031781E+02 -0.78857204092E+00 -0.18487326614E+02  0.22666676075E+02  0.00000000000E+00 0.  1.
</event>
<event>
 7    1  0.4430431E-010  0.4778727E+02  0.7816164E-02  0.1312668E+00
        -11   -1    0    0    0    0  0.00000000000E+00  0.00000000000E+00  0.45593999997E+02  0.45594000000E+02  0.51100000000E-03 0.  1.
         11   -1    0    0    0    0 -0.00000000000E+00 -0.00000000000E+00 -0.45593999997E+02  0.45594000000E+02  0.51100000000E-03 0. -1.
    9900012    2    1    2    0    0  0.27801488916E+02  0.33246569517E+02 -0.23165120391E+01  0.47787269607E+02  0.19999993447E+02 0.  0.
        -12    1    1    2    0    0 -0.27801488916E+02 -0.33246569517E+02  0.23165120391E+01  0.43400730393E+02  0.00000000000E+00 0.  1.
         11    1    3    3    0    0  0.88659870163E+01  0.24298661980E+02 -0.13482692117E+01  0.25900743811E+02  0.51100000000E-03 0. -1.
        -11    1    3    3    0    0  0.19963712800E+00  0.10780624552E+01  0.98160436840E+00  0.14716049189E+01  0.51100000000E-03 0.  1.
         12    1    3    3    0    0  0.18735864772E+02  0.78698450811E+01 -0.19498471958E+01  0.20414920878E+02  0.00000000000E+00 0. -1.
</event>
<event>
 7    1  0.4430431E-010  0.4778729E+02  0.7816164E-02  0.1312668E+00
        -11   -1    0    0    0    0  0.00000000000E+00  0.00000000000E+00  0.45593999997E+02  0.45594000000E+02  0.51100000000E-03 0.  1.
         11   -1    0    0    0    0 -0.00000000000E+00 -0.00000000000E+00 -0.45593999997E+02  0.45594000000E+02  0.51100000000E-03 0. -1.
    9900012    2    1    2    0    0 -0.37631076122E+02  0.16111105135E+02 -0.14420692897E+02  0.47787285923E+02  0.20000067836E+02 0.  0.
        -12    1    1    2    0    0  0.37631076122E+02 -0.16111105135E+02  0.14420692897E+02  0.43400714077E+02  0.00000000000E+00 0.  1.
         11    1    3    3    0    0 -0.15475049418E+02  0.10631839394E+02 -0.13575794162E+02  0.23169276010E+02  0.51100000000E-03 0. -1.
        -11    1    3    3    0    0 -0.40213909954E+01  0.18652892576E+01 -0.38656286582E+01  0.58816642829E+01  0.51100000000E-03 0.  1.
        -12    1    3    3    0    0 -0.18134635708E+02  0.36139764837E+01  0.30207299238E+01  0.18736345630E+02  0.00000000000E+00 0.  1.
</event>
<event>
 7    1  0.4430431E-010  0.4778727E+02  0.7816164E-02  0.1312668E+00
        -11   -1    0    0    0    0  0.00000000000E+00  0.00000000000E+00  0.45593999997E+02  0.45594000000E+02  0.51100000000E-03 0. -1.
         11   -1    0    0    0    0 -0.00000000000E+00 -0.00000000000E+00 -0.45593999997E+02  0.45594000000E+02  0.51100000000E-03 0.  1.
    9900012    2    1    2    0    0 -0.37002855393E+01  0.39307679940E+02  0.18023247539E+02  0.47787271121E+02  0.20000000349E+02 0.  0.
        -12    1    1    2    0    0  0.37002855393E+01 -0.39307679940E+02 -0.18023247539E+02  0.43400728879E+02  0.00000000000E+00 0.  1.
         11    1    3    3    0    0 -0.14100619444E+01  0.29409441321E+02  0.10045663050E+02  0.31109787204E+02  0.51100000000E-03 0. -1.
        -11    1    3    3    0    0 -0.31671702702E+01  0.10183049236E+02  0.22792886244E+01  0.10905072955E+02  0.51100000000E-03 0.  1.
         12    1    3    3    0    0  0.87694667531E+00 -0.28481061629E+00  0.56982958642E+01  0.57724109620E+01  0.00000000000E+00 0. -1.
</event>
<event>
 7    1  0.4430431E-010  0.4778727E+02  0.7816164E-02  0.1312668E+00
        -11   -1    0    0    0    0  0.00000000000E+00  0.00000000000E+00  0.45593999997E+02  0.45594000000E+02  0.51100000000E-03 0. -1.
         11   -1    0    0    0    0 -0.00000000000E+00 -0.00000000000E+00 -0.45593999997E+02  0.45594000000E+02  0.51100000000E-03 0.  1.
    9900012    2    1    2    0    0  0.19840162408E+02 -0.13685063725E+02  0.36093074357E+02  0.47787273853E+02  0.20000012804E+02 0.  0.
        -12    1    1    2    0    0 -0.19840162408E+02  0.13685063725E+02 -0.36093074357E+02  0.43400726147E+02  0.00000000000E+00 0.  1.
         11    1    3    3    0    0  0.26311268790E+01 -0.44477820190E+01  0.98056541619E+01  0.11084062764E+02  0.51100000000E-03 0. -1.
        -11    1    3    3    0    0  0.84451389421E+01 -0.10075449855E+02  0.57322886482E+01  0.14342042914E+02  0.51100000000E-03 0.  1.
        -12    1    3    3    0    0  0.87638965870E+01  0.83816814882E+00  0.20555131547E+02  0.22361168175E+02  0.00000000000E+00 0.  1.
</event>
<event>
 7    1  0.4430431E-010  0.4778726E+02  0.7816164E-02  0.1312668E+00
        -11   -1    0    0    0    0  0.00000000000E+00  0.00000000000E+00  0.45593999997E+02  0.45594000000E+02  0.51100000000E-03 0.  1.
         11   -1    0    0    0    0 -0.00000000000E+00 -0.00000000000E+00 -0.45593999997E+02  0.45594000000E+02  0.51100000000E-03 0. -1.
    9900012    2    1    2    0    0  0.26309063401E+02  0.33938834286E+02 -0.62938513336E+01  0.47787264357E+02  0.19999969510E+02 0.  0.
        -12    1    1    2    0    0 -0.26309063401E+02 -0.33938834286E+02  0.62938513336E+01  0.43400735643E+02  0.00000000000E+00 0.  1.
         11    1    3    3    0    0  0.24901121958E+02  0.24055898226E+02 -0.17702844120E+01  0.34668227838E+02  0.51100000000E-03 0. -1.
        -11    1    3    3    0    0  0.33863680532E+01  0.31488805932E+01 -0.39419025120E+01  0.60763091805E+01  0.51100000000E-03 0.  1.
        -12    1    3    3    0    0 -0.19784266105E+01  0.67340554670E+01 -0.58166440963E+00  0.70427273390E+01  0.00000000000E+00 0.  1.
</event>
<event>
 7    1  0.4430431E-010  0.4778727E+02  0.7816164E-02  0.1312668E+00
        -11   -1    0    0    0    0  0.00000000000E+00  0.00000000000E+00  0.45593999997E+02  0.45594000000E+02  0.51100000000E-03 0. -1.
         11   -1    0    0    0    0 -0.00000000000E+00 -0.00000000000E+00 -0.45593999997E+02  0.45594000000E+02  0.51100000000E-03 0.  1.
    9900012    2    1    2    0    0  0.28255174133E+01  0.42384149938E+02 -0.89007550074E+01  0.47787272422E+02  0.20000006279E+02 0.  0.
        -12    1    1    2    0    0 -0.28255174133E+01 -0.42384149938E+02  0.89007550074E+01  0.43400727578E+02  0.00000000000E+00 0.  1.
         11    1    3    3    0    0  0.49762669764E+01  0.16023633760E+02  0.23797552938E+01  0.16946483629E+02  0.51100000000E-03 0. -1.
        -11    1    3    3    0    0  0.17577717815E+01  0.60915666589E+00  0.92373980327E+00  0.20770481373E+01  0.51100000000E-03 0.  1.
         12    1    3    3    0    0 -0.39085213446E+01  0.25751359513E+02 -0.12204250104E+02  0.28763740655E+02  0.00000000000E+00 0. -1.
</event>
<event>
 7    1  0.4430431E-010  0.4778727E+02  0.7816164E-02  0.1312668E+00
        -11   -1    0    0    0    0  0.00000000000E+00  0.00000000000E+00  0.45593999997E+02  0.45594000000E+02  0.51100000000E-03 0.  1.
         11   -1    0    0    0    0 -0.00000000000E+00 -0.00000000000E+00 -0.45593999997E+02  0.45594000000E+02  0.51100000000E-03 0. -1.
    9900012    2    1    2    0    0  0.37451740679E+02 -0.13631974208E+02 -0.17180218120E+02  0.47787268493E+02  0.19999988369E+02 0.  0.
        -12    1    1    2    0    0 -0.37451740679E+02  0.13631974208E+02  0.17180218120E+02  0.43400731507E+02  0.00000000000E+00 0.  1.
         11    1    3    3    0    0  0.13656025899E+02 -0.16486310043E+01 -0.73747591227E+01  0.15607437327E+02  0.51100000000E-03 0. -1.
        -11    1    3    3    0    0 -0.10121932131E+00  0.23153689121E+01  0.69232812743E+00  0.24187800742E+01  0.51100000000E-03 0.  1.
         12    1    3    3    0    0  0.23896934101E+02 -0.14298712115E+02 -0.10497787125E+02  0.29761051092E+02  0.00000000000E+00 0. -1.
</event>
<event>
 7    1  0.4430431E-010  0.4778727E+02  0.7816164E-02  0.1312668E+00
        -11   -1    0    0    0    0  0.00000000000E+00  0.00000000000E+00  0.45593999997E+02  0.45594000000E+02  0.51100000000E-03 0. -1.
         11   -1    0    0    0    0 -0.00000000000E+00 -0.00000000000E+00 -0.45593999997E+02  0.45594000000E+02  0.51100000000E-03 0.  1.
    9900012    2    1    2    0    0 -0.18063968772E+02  0.36823705487E+02  0.14189116728E+02  0.47787270892E+02  0.19999999306E+02 0.  0.
        -12    1    1    2    0    0  0.18063968772E+02 -0.36823705487E+02 -0.14189116728E+02  0.43400729108E+02  0.00000000000E+00 0.  1.
         11    1    3    3    0    0 -0.19973253737E+01  0.14283277673E+01 -0.24797315472E+01  0.34897704318E+01  0.51100000000E-03 0.  1.
        -11    1    3    3    0    0  0.22903854435E+01  0.26822658503E+01  0.12870413540E+01  0.37545827038E+01  0.51100000000E-03 0. -1.
         12    1    3    3    0    0 -0.18357028842E+02  0.32713111869E+02  0.15381806921E+02  0.40542917757E+02  0.00000000000E+00 0. -1.
</event>
<event>
 7    1  0.4430431E-010  0.4778727E+02  0.7816164E-02  0.1312668E+00
        -11   -1    0    0    0    0  0.00000000000E+00  0.00000000000E+00  0.45593999997E+02  0.45594000000E+02  0.51100000000E-03 0.  1.
         11   -1    0    0    0    0 -0.00000000000E+00 -0.00000000000E+00 -0.45593999997E+02  0.45594000000E+02  0.51100000000E-03 0. -1.
    9900012    2    1    2    0    0  0.32912944257E+02  0.12991267570E+02 -0.25131420444E+02  0.47787271593E+02  0.20000002500E+02 0.  0.
        -12    1    1    2    0    0 -0.32912944257E+02 -0.12991267570E+02  0.25131420444E+02  0.43400728407E+02  0.00000000000E+00 0.  1.
         11    1    3    3    0    0  0.14425087531E+02  0.45031884574E+01 -0.82320073456E+01  0.17208364297E+02  0.51100000000E-03 0. -1.
        -11    1    3    3    0    0  0.99631792816E+01  0.32999517677E+01  0.51471021035E+00  0.10508070704E+02  0.51100000000E-03 0.  1.
        -12    1    3    3    0    0  0.85246774441E+01  0.51881273454E+01 -0.17414123309E+02  0.20070836592E+02  0.00000000000E+00 0.  1.
</event>
<event>
 7    1  0.4430431E-010  0.4778727E+02  0.7816164E-02  0.1312668E+00
        -11   -1    0    0    0    0  0.00000000000E+00  0.00000000000E+00  0.45593999997E+02  0.45594000000E+02  0.51100000000E-03 0.  1.
         11   -1    0    0    0    0 -0.00000000000E+00 -0.00000000000E+00 -0.45593999997E+02  0.45594000000E+02  0.51100000000E-03 0. -1.
    9900012    2    1    2    0    0 -0.26089626623E+02 -0.17221450793E+02 -0.30106081821E+02  0.47787272502E+02  0.20000006647E+02 0.  0.
        -12    1    1    2    0    0  0.26089626623E+02  0.17221450793E+02  0.30106081821E+02  0.43400727498E+02  0.00000000000E+00 0.  1.
         11    1    3    3    0    0 -0.57540528079E+00 -0.25442747626E+01 -0.11388439261E+02  0.11683363145E+02  0.51100000000E-03 0. -1.
        -11    1    3    3    0    0 -0.12887803236E+02 -0.83737933283E+01 -0.15076363077E+02  0.21529343019E+02  0.51100000000E-03 0.  1.
        -12    1    3    3    0    0 -0.12626418106E+02 -0.63033827023E+01 -0.36412794824E+01  0.14574566338E+02  0.00000000000E+00 0.  1.
</event>
<event>
 7    1  0.4430431E-010  0.4778725E+02  0.7816164E-02  0.1312668E+00
        -11   -1    0    0    0    0  0.00000000000E+00  0.00000000000E+00  0.45593999997E+02  0.45594000000E+02  0.51100000000E-03 0.  1.
         11   -1    0    0    0    0 -0.00000000000E+00 -0.00000000000E+00 -0.45593999997E+02  0.45594000000E+02  0.51100000000E-03 0. -1.
    9900012    2    1    2    0    0 -0.20983032258E+02  0.20325840685E+02 -0.32096695417E+02  0.47787247714E+02  0.19999893628E+02 0.  0.
        -12    1    1    2    0    0  0.20983032258E+02 -0.20325840685E+02  0.32096695417E+02  0.43400752286E+02  0.00000000000E+00 0.  1.
         11    1    3    3    0    0 -0.52938758680E+01  0.41844943389E+00 -0.32509639949E+00  0.53203298360E+01  0.51100000000E-03 0. -1.
        -11    1    3    3    0    0 -0.32073953831E-01  0.26731261868E+01 -0.10815050874E+02  0.11140554654E+02  0.51100000000E-03 0.  1.
         12    1    3    3    0    0 -0.15657082437E+02  0.17234265064E+02 -0.20956548143E+02  0.31326363224E+02  0.00000000000E+00 0. -1.
</event>
<event>
 7    1  0.4430431E-010  0.4778727E+02  0.7816164E-02  0.1312668E+00
        -11   -1    0    0    0    0  0.00000000000E+00  0.00000000000E+00  0.45593999997E+02  0.45594000000E+02  0.51100000000E-03 0.  1.
         11   -1    0    0    0    0 -0.00000000000E+00 -0.00000000000E+00 -0.45593999997E+02  0.45594000000E+02  0.51100000000E-03 0. -1.
    9900012    2    1    2    0    0 -0.35938769424E+02 -0.24265016865E+02 -0.17992200242E+01  0.47787269777E+02  0.19999994222E+02 0.  0.
        -12    1    1    2    0    0  0.35938769424E+02  0.24265016865E+02  0.17992200242E+01  0.43400730223E+02  0.00000000000E+00 0.  1.
         11    1    3    3    0    0 -0.13616676799E+02 -0.13066691184E+02  0.65813796854E+01  0.19986667165E+02  0.51100000000E-03 0. -1.
        -11    1    3    3    0    0 -0.19840410125E+02 -0.12746699125E+02 -0.74706742438E+01  0.24737242903E+02  0.51100000000E-03 0.  1.
        -12    1    3    3    0    0 -0.24816825006E+01  0.15483734442E+01 -0.90992546592E+00  0.30633597096E+01  0.00000000000E+00 0.  1.
</event>
<event>
 7    1  0.4430431E-010  0.4778727E+02  0.7816164E-02  0.1312668E+00
        -11   -1    0    0    0    0  0.00000000000E+00  0.00000000000E+00  0.45593999997E+02  0.45594000000E+02  0.51100000000E-03 0.  1.
         11   -1    0    0    0    0 -0.00000000000E+00 -0.00000000000E+00 -0.45593999997E+02  0.45594000000E+02  0.51100000000E-03 0. -1.
    9900012    2    1    2    0    0 -0.23259978925E+02  0.36576832093E+02  0.21753326045E+01  0.47787270311E+02  0.19999996658E+02 0.  0.
        -12    1    1    2    0    0  0.23259978925E+02 -0.36576832093E+02 -0.21753326045E+01  0.43400729689E+02  0.00000000000E+00 0.  1.
         11    1    3    3    0    0 -0.13806308437E+02  0.17653834398E+02  0.17129675970E+01  0.22476794252E+02  0.51100000000E-03 0. -1.
        -11    1    3    3    0    0 -0.64732088742E+01  0.20782715231E+02  0.79257205933E+00  0.21781915808E+02  0.51100000000E-03 0.  1.
         12    1    3    3    0    0 -0.29804616144E+01 -0.18597175366E+01 -0.33020705189E+00  0.35285602515E+01  0.00000000000E+00 0. -1.
</event>
<event>
 7    1  0.4430431E-010  0.4778727E+02  0.7816164E-02  0.1312668E+00
        -11   -1    0    0    0    0  0.00000000000E+00  0.00000000000E+00  0.45593999997E+02  0.45594000000E+02  0.51100000000E-03 0. -1.
         11   -1    0    0    0    0 -0.00000000000E+00 -0.00000000000E+00 -0.45593999997E+02  0.45594000000E+02  0.51100000000E-03 0.  1.
    9900012    2    1    2    0    0 -0.71671948658E+01  0.40254000384E+02  0.14555769170E+02  0.47787266765E+02  0.19999980491E+02 0.  0.
        -12    1    1    2    0    0  0.71671948658E+01 -0.40254000384E+02 -0.14555769170E+02  0.43400733235E+02  0.00000000000E+00 0.  1.
         11    1    3    3    0    0  0.31465596126E+01  0.10488823477E+02  0.11696220106E+02  0.16022416183E+02  0.51100000000E-03 0. -1.
        -11    1    3    3    0    0 -0.12941722786E+01  0.60954040703E+01 -0.30011582898E+00  0.62385016181E+01  0.51100000000E-03 0.  1.
        -12    1    3    3    0    0 -0.90195821998E+01  0.23669772836E+02  0.31596648935E+01  0.25526348964E+02  0.00000000000E+00 0.  1.
</event>
<event>
 7    1  0.4430431E-010  0.4778728E+02  0.7816164E-02  0.1312668E+00
        -11   -1    0    0    0    0  0.00000000000E+00  0.00000000000E+00  0.45593999997E+02  0.45594000000E+02  0.51100000000E-03 0.  1.
         11   -1    0    0    0    0 -0.00000000000E+00 -0.00000000000E+00 -0.45593999997E+02  0.45594000000E+02  0.51100000000E-03 0. -1.
    9900012    2    1    2    0    0  0.11108989608E+01 -0.42056334703E+02  0.10660814039E+02  0.47787281790E+02  0.20000048994E+02 0.  0.
        -12    1    1    2    0    0 -0.11108989608E+01  0.42056334703E+02 -0.10660814039E+02  0.43400718210E+02  0.00000000000E+00 0.  1.
         11    1    3    3    0    0  0.30600323410E+01 -0.42792177048E+01  0.87902644041E+00  0.53336844523E+01  0.51100000000E-03 0. -1.
        -11    1    3    3    0    0  0.48477564475E+01 -0.13799321367E+02  0.96647164188E+01  0.17530794519E+02  0.51100000000E-03 0.  1.
        -12    1    3    3    0    0 -0.67968898277E+01 -0.23977795631E+02  0.11707117987E+00  0.24922802819E+02  0.00000000000E+00 0.  1.
</event>
<event>
 7    1  0.4430431E-010  0.4778727E+02  0.7816164E-02  0.1312668E+00
        -11   -1    0    0    0    0  0.00000000000E+00  0.00000000000E+00  0.45593999997E+02  0.45594000000E+02  0.51100000000E-03 0.  1.
         11   -1    0    0    0    0 -0.00000000000E+00 -0.00000000000E+00 -0.45593999997E+02  0.45594000000E+02  0.51100000000E-03 0. -1.
    9900012    2    1    2    0    0  0.29319714790E+02 -0.22267922838E+02 -0.22980801933E+02  0.47787270509E+02  0.19999997557E+02 0.  0.
        -12    1    1    2    0    0 -0.29319714790E+02  0.22267922838E+02  0.22980801933E+02  0.43400729491E+02  0.00000000000E+00 0.  1.
         11    1    3    3    0    0  0.12069045548E+02 -0.92385236894E+01 -0.43074242780E+01  0.15797660731E+02  0.51100000000E-03 0. -1.
        -11    1    3    3    0    0  0.29989149790E+01 -0.11159039660E+02 -0.73906987655E+01  0.13716416649E+02  0.51100000000E-03 0.  1.
         12    1    3    3    0    0  0.14251754263E+02 -0.18703594888E+01 -0.11282678890E+02  0.18273193128E+02  0.00000000000E+00 0. -1.
</event>
<event>
 7    1  0.4430431E-010  0.4778727E+02  0.7816164E-02  0.1312668E+00
        -11   -1    0    0    0    0  0.00000000000E+00  0.00000000000E+00  0.45593999997E+02  0.45594000000E+02  0.51100000000E-03 0. -1.
         11   -1    0    0    0    0 -0.00000000000E+00 -0.00000000000E+00 -0.45593999997E+02  0.45594000000E+02  0.51100000000E-03 0.  1.
    9900012    2    1    2    0    0  0.30686699937E+02  0.27622629231E+02  0.13376851714E+02  0.47787270047E+02  0.19999995452E+02 0.  0.
        -12    1    1    2    0    0 -0.30686699937E+02 -0.27622629231E+02 -0.13376851714E+02  0.43400729953E+02  0.00000000000E+00 0.  1.
         11    1    3    3    0    0 -0.17368953041E+00  0.32711109010E+01  0.29848642481E+01  0.44316756899E+01  0.51100000000E-03 0. -1.
        -11    1    3    3    0    0  0.74649608883E+00  0.67042183285E+01 -0.57318342645E+00  0.67699585898E+01  0.51100000000E-03 0.  1.
         12    1    3    3    0    0  0.30113893379E+02  0.17647300002E+02  0.10965170893E+02  0.36585635767E+02  0.00000000000E+00 0. -1.
</event>
<event>
 7    1  0.4430431E-010  0.4778728E+02  0.7816164E-02  0.1312668E+00
        -11   -1    0    0    0    0  0.00000000000E+00  0.00000000000E+00  0.45593999997E+02  0.45594000000E+02  0.51100000000E-03 0. -1.
         11   -1    0    0    0    0 -0.00000000000E+00 -0.00000000000E+00 -0.45593999997E+02  0.45594000000E+02  0.51100000000E-03 0.  1.
    9900012    2    1    2    0    0  0.22868628018E+02 -0.34225790322E+02  0.13756589880E+02  0.47787278397E+02  0.20000033522E+02 0.  0.
        -12    1    1    2    0    0 -0.22868628018E+02  0.34225790322E+02 -0.13756589880E+02  0.43400721603E+02  0.00000000000E+00 0.  1.
         11    1    3    3    0    0  0.77434456542E+00 -0.98697217354E+01 -0.22492056893E+01  0.10152336831E+02  0.51100000000E-03 0. -1.
        -11    1    3    3    0    0  0.80347605883E+00 -0.53817273641E+00 -0.10441510119E+01  0.14231849030E+01  0.51100000000E-03 0.  1.
        -12    1    3    3    0    0  0.21290807393E+02 -0.23817895850E+02  0.17049946581E+02  0.36211756663E+02  0.00000000000E+00 0.  1.
</event>
<event>
 7    1  0.4430431E-010  0.4778727E+02  0.7816164E-02  0.1312668E+00
        -11   -1    0    0    0    0  0.00000000000E+00  0.00000000000E+00  0.45593999997E+02  0.45594000000E+02  0.51100000000E-03 0. -1.
         11   -1    0    0    0    0 -0.00000000000E+00 -0.00000000000E+00 -0.45593999997E+02  0.45594000000E+02  0.51100000000E-03 0.  1.
    9900012    2    1    2    0    0  0.32978840296E+02 -0.28108720331E+02 -0.24329374796E+01  0.47787271312E+02  0.20000001219E+02 0.  0.
        -12    1    1    2    0    0 -0.32978840296E+02  0.28108720331E+02  0.24329374796E+01  0.43400728688E+02  0.00000000000E+00 0.  1.
         11    1    3    3    0    0  0.14858362261E+02 -0.37061649580E+01  0.12614856171E+01  0.15365478645E+02  0.51100000000E-03 0. -1.
        -11    1    3    3    0    0  0.16560004214E+02 -0.14498414031E+02 -0.96723643512E+00  0.22031189155E+02  0.51100000000E-03 0.  1.
        -12    1    3    3    0    0  0.15604738210E+01 -0.99041413411E+01 -0.27271866616E+01  0.10390603512E+02  0.00000000000E+00 0.  1.
</event>
<event>
 7    1  0.4430431E-010  0.4778727E+02  0.7816164E-02  0.1312668E+00
        -11   -1    0    0    0    0  0.00000000000E+00  0.00000000000E+00  0.45593999997E+02  0.45594000000E+02  0.51100000000E-03 0.  1.
         11   -1    0    0    0    0 -0.00000000000E+00 -0.00000000000E+00 -0.45593999997E+02  0.45594000000E+02  0.51100000000E-03 0. -1.
    9900012    2    1    2    0    0  0.10757880196E+02  0.97832795006E+00 -0.42034917794E+02  0.47787269294E+02  0.19999992017E+02 0.  0.
        -12    1    1    2    0    0 -0.10757880196E+02 -0.97832795006E+00  0.42034917794E+02  0.43400730706E+02  0.00000000000E+00 0.  1.
         11    1    3    3    0    0 -0.10872192854E+01  0.44205168427E+01 -0.53138439242E+01  0.69971388755E+01  0.51100000000E-03 0. -1.
        -11    1    3    3    0    0  0.50313174792E+00  0.39800893294E+01 -0.60731844393E+01  0.72785865469E+01  0.51100000000E-03 0.  1.
         12    1    3    3    0    0  0.11341967733E+02 -0.74222782220E+01 -0.30647889431E+02  0.33511543871E+02  0.00000000000E+00 0. -1.
</event>
<event>
 7    1  0.4430431E-010  0.4778727E+02  0.7816164E-02  0.1312668E+00
        -11   -1    0    0    0    0  0.00000000000E+00  0.00000000000E+00  0.45593999997E+02  0.45594000000E+02  0.51100000000E-03 0. -1.
         11   -1    0    0    0    0 -0.00000000000E+00 -0.00000000000E+00 -0.45593999997E+02  0.45594000000E+02  0.51100000000E-03 0.  1.
    9900012    2    1    2    0    0  0.22080325819E+02  0.23425932205E+02  0.29108564469E+02  0.47787267133E+02  0.19999982167E+02 0.  0.
        -12    1    1    2    0    0 -0.22080325819E+02 -0.23425932205E+02 -0.29108564469E+02  0.43400732867E+02  0.00000000000E+00 0.  1.
         11    1    3    3    0    0  0.57319259607E+01  0.50383488798E+01  0.65162266963E+01  0.10034996028E+02  0.51100000000E-03 0. -1.
        -11    1    3    3    0    0  0.18056377291E+01 -0.35043999231E+01  0.34398642036E+01  0.52319988943E+01  0.51100000000E-03 0.  1.
        -12    1    3    3    0    0  0.14542762129E+02  0.21891983248E+02  0.19152473569E+02  0.32520272211E+02  0.00000000000E+00 0.  1.
</event>
<event>
 7    1  0.4430431E-010  0.4778727E+02  0.7816164E-02  0.1312668E+00
        -11   -1    0    0    0    0  0.00000000000E+00  0.00000000000E+00  0.45593999997E+02  0.45594000000E+02  0.51100000000E-03 0. -1.
         11   -1    0    0    0    0 -0.00000000000E+00 -0.00000000000E+00 -0.45593999997E+02  0.45594000000E+02  0.51100000000E-03 0.  1.
    9900012    2    1    2    0    0  0.72141313240E+01  0.42682880908E+02 -0.31226817080E+01  0.47787272421E+02  0.20000006276E+02 0.  0.
        -12    1    1    2    0    0 -0.72141313240E+01 -0.42682880908E+02  0.31226817080E+01  0.43400727579E+02  0.00000000000E+00 0.  1.
         11    1    3    3    0    0 -0.19873482490E+01  0.48321672750E+01  0.21946352602E+01  0.56670819496E+01  0.51100000000E-03 0. -1.
        -11    1    3    3    0    0  0.21960830839E+01 -0.14132759229E+00 -0.25796892498E+01  0.33908039292E+01  0.51100000000E-03 0.  1.
         12    1    3    3    0    0  0.70053964891E+01  0.37992041225E+02 -0.27376277184E+01  0.38729386542E+02  0.00000000000E+00 0. -1.
</event>
<event>
 7    1  0.4430431E-010  0.4778727E+02  0.7816164E-02  0.1312668E+00
        -11   -1    0    0    0    0  0.00000000000E+00  0.00000000000E+00  0.45593999997E+02  0.45594000000E+02  0.51100000000E-03 0.  1.
         11   -1    0    0    0    0 -0.00000000000E+00 -0.00000000000E+00 -0.45593999997E+02  0.45594000000E+02  0.51100000000E-03 0. -1.
    9900012    2    1    2    0    0  0.34559461032E+02 -0.61446135600E+01 -0.25524704547E+02  0.47787272300E+02  0.20000005725E+02 0.  0.
        -12    1    1    2    0    0 -0.34559461032E+02  0.61446135600E+01  0.25524704547E+02  0.43400727700E+02  0.00000000000E+00 0.  1.
         11    1    3    3    0    0  0.24839422702E+02 -0.19296550198E+00 -0.77129319925E+01  0.26010064899E+02  0.51100000000E-03 0. -1.
        -11    1    3    3    0    0  0.15215879405E+01 -0.29045883681E+01 -0.79270536548E+01  0.85784639275E+01  0.51100000000E-03 0.  1.
         12    1    3    3    0    0  0.81984503894E+01 -0.30470596899E+01 -0.98847189002E+01  0.13198743473E+02  0.00000000000E+00 0. -1.
</event>
<event>
 7    1  0.4430431E-010  0.4778727E+02  0.7816164E-02  0.1312668E+00
        -11   -1    0    0    0    0  0.00000000000E+00  0.00000000000E+00  0.45593999997E+02  0.45594000000E+02  0.51100000000E-03 0. -1.
         11   -1    0    0    0    0 -0.00000000000E+00 -0.00000000000E+00 -0.45593999997E+02  0.45594000000E+02  0.51100000000E-03 0.  1.
    9900012    2    1    2    0    0  0.23619587146E+02 -0.23552337979E+02  0.27767353442E+02  0.47787269149E+02  0.19999991357E+02 0.  0.
        -12    1    1    2    0    0 -0.23619587146E+02  0.23552337979E+02 -0.27767353442E+02  0.43400730851E+02  0.00000000000E+00 0.  1.
         11    1    3    3    0    0  0.13800404638E+02 -0.94400807477E+01  0.13836278986E+02  0.21702739669E+02  0.51100000000E-03 0. -1.
        -11    1    3    3    0    0  0.81036953196E+01 -0.16165149495E+02  0.14696702633E+02  0.23301824061E+02  0.51100000000E-03 0.  1.
         12    1    3    3    0    0  0.17154871882E+01  0.20528922634E+01 -0.76562817761E+00  0.27827054182E+01  0.00000000000E+00 0. -1.
</event>
<event>
 7    1  0.4430431E-010  0.4778727E+02  0.7816164E-02  0.1312668E+00
        -11   -1    0    0    0    0  0.00000000000E+00  0.00000000000E+00  0.45593999997E+02  0.45594000000E+02  0.51100000000E-03 0.  1.
         11   -1    0    0    0    0 -0.00000000000E+00 -0.00000000000E+00 -0.45593999997E+02  0.45594000000E+02  0.51100000000E-03 0. -1.
    9900012    2    1    2    0    0  0.29589914865E+02  0.21635850876E+02 -0.23236828851E+02  0.47787270514E+02  0.19999997581E+02 0.  0.
        -12    1    1    2    0    0 -0.29589914865E+02 -0.21635850876E+02  0.23236828851E+02  0.43400729486E+02  0.00000000000E+00 0.  1.
         11    1    3    3    0    0  0.10617951890E+02  0.87871938789E+01 -0.11756494529E+02  0.18115486261E+02  0.51100000000E-03 0. -1.
        -11    1    3    3    0    0  0.81609588991E+01  0.94008596793E+01 -0.13257237739E+02  0.18186032156E+02  0.51100000000E-03 0.  1.
         12    1    3    3    0    0  0.10811004076E+02  0.34477973177E+01  0.17769034163E+01  0.11485752097E+02  0.00000000000E+00 0. -1.
</event>
<event>
 7    1  0.4430431E-010  0.4778727E+02  0.7816164E-02  0.1312668E+00
        -11   -1    0    0    0    0  0.00000000000E+00  0.00000000000E+00  0.45593999997E+02  0.45594000000E+02  0.51100000000E-03 0.  1.
         11   -1    0    0    0    0 -0.00000000000E+00 -0.00000000000E+00 -0.45593999997E+02  0.45594000000E+02  0.51100000000E-03 0. -1.
    9900012    2    1    2    0    0 -0.13600158848E+02 -0.36790552310E+02 -0.18577263388E+02  0.47787265272E+02  0.19999973681E+02 0.  0.
        -12    1    1    2    0    0  0.13600158848E+02  0.36790552310E+02  0.18577263388E+02  0.43400734728E+02  0.00000000000E+00 0.  1.
         11    1    3    3    0    0  0.81696875880E+00 -0.96855643695E+01 -0.30822179232E+01  0.10196943792E+02  0.51100000000E-03 0. -1.
        -11    1    3    3    0    0  0.31497102408E+01 -0.56955642558E+01 -0.21988046684E+01  0.68698521835E+01  0.51100000000E-03 0.  1.
         12    1    3    3    0    0 -0.17566837848E+02 -0.21409423684E+02 -0.13296240797E+02  0.30720469296E+02  0.00000000000E+00 0. -1.
</event>
<event>
 7    1  0.4430431E-010  0.4778726E+02  0.7816164E-02  0.1312668E+00
        -11   -1    0    0    0    0  0.00000000000E+00  0.00000000000E+00  0.45593999997E+02  0.45594000000E+02  0.51100000000E-03 0. -1.
         11   -1    0    0    0    0 -0.00000000000E+00 -0.00000000000E+00 -0.45593999997E+02  0.45594000000E+02  0.51100000000E-03 0.  1.
    9900012    2    1    2    0    0 -0.28311761767E+02 -0.29712387832E+01  0.32760339142E+02  0.47787263429E+02  0.19999965277E+02 0.  0.
        -12    1    1    2    0    0  0.28311761767E+02  0.29712387832E+01 -0.32760339142E+02  0.43400736571E+02  0.00000000000E+00 0.  1.
         11    1    3    3    0    0 -0.21589326618E+01  0.36200709981E+01  0.55920351881E+01  0.70026253702E+01  0.51100000000E-03 0. -1.
        -11    1    3    3    0    0 -0.13798209052E+01 -0.54227838517E+01  0.56168372811E+01  0.79283889748E+01  0.51100000000E-03 0.  1.
        -12    1    3    3    0    0 -0.24773008200E+02 -0.11685259295E+01  0.21551466672E+02  0.32856249084E+02  0.00000000000E+00 0.  1.
</event>
<event>
 7    1  0.4430431E-010  0.4778727E+02  0.7816164E-02  0.1312668E+00
        -11   -1    0    0    0    0  0.00000000000E+00  0.00000000000E+00  0.45593999997E+02  0.45594000000E+02  0.51100000000E-03 0. -1.
         11   -1    0    0    0    0 -0.00000000000E+00 -0.00000000000E+00 -0.45593999997E+02  0.45594000000E+02  0.51100000000E-03 0.  1.
    9900012    2    1    2    0    0  0.42111461966E+02  0.87141855453E+01 -0.58575459845E+01  0.47787273006E+02  0.20000008943E+02 0.  0.
        -12    1    1    2    0    0 -0.42111461966E+02 -0.87141855453E+01  0.58575459845E+01  0.43400726994E+02  0.00000000000E+00 0.  1.
         11    1    3    3    0    0  0.77976610366E+01 -0.15589404611E+01  0.12494341478E+01  0.80495278715E+01  0.51100000000E-03 0. -1.
        -11    1    3    3    0    0  0.25376041559E+01  0.59901179989E+01  0.12009026777E+01  0.66153696794E+01  0.51100000000E-03 0.  1.
         12    1    3    3    0    0  0.31776196774E+02  0.42830080076E+01 -0.83078828100E+01  0.33122375455E+02  0.00000000000E+00 0. -1.
</event>
<event>
 7    1  0.4569874E-010  0.4778727E+02  0.7816164E-02  0.1312668E+00
        -11   -1    0    0    0    0  0.00000000000E+00  0.00000000000E+00  0.45593999997E+02  0.45594000000E+02  0.51100000000E-03 0.  1.
         11   -1    0    0    0    0 -0.00000000000E+00 -0.00000000000E+00 -0.45593999997E+02  0.45594000000E+02  0.51100000000E-03 0. -1.
    9900012    2    1    2    0    0 -0.42439437307E+02 -0.65220873799E+01  0.63229482495E+01  0.47787272618E+02  0.20000007176E+02 0.  0.
        -12    1    1    2    0    0  0.42439437307E+02  0.65220873799E+01 -0.63229482495E+01  0.43400727382E+02  0.00000000000E+00 0.  1.
         11    1    3    3    0    0 -0.28518527208E+02 -0.24819666073E+01 -0.19036137483E+00  0.28626959148E+02  0.51100000000E-03 0. -1.
        -11    1    3    3    0    0 -0.66124590396E+01  0.32527844122E+01  0.94441568724E+00  0.74294779248E+01  0.51100000000E-03 0.  1.
        -12    1    3    3    0    0 -0.73084510593E+01 -0.72929051848E+01  0.55688939371E+01  0.11730835546E+02  0.00000000000E+00 0.  1.
</event>
<event>
 7    1  0.4430431E-010  0.4778727E+02  0.7816164E-02  0.1312668E+00
        -11   -1    0    0    0    0  0.00000000000E+00  0.00000000000E+00  0.45593999997E+02  0.45594000000E+02  0.51100000000E-03 0.  1.
         11   -1    0    0    0    0 -0.00000000000E+00 -0.00000000000E+00 -0.45593999997E+02  0.45594000000E+02  0.51100000000E-03 0. -1.
    9900012    2    1    2    0    0 -0.31322202984E+01 -0.13605105995E+02 -0.41093961746E+02  0.47787269532E+02  0.19999993105E+02 0.  0.
        -12    1    1    2    0    0  0.31322202984E+01  0.13605105995E+02  0.41093961746E+02  0.43400730468E+02  0.00000000000E+00 0.  1.
         11    1    3    3    0    0 -0.64951498277E+01 -0.26919785559E+01 -0.87257878808E+01  0.11205940132E+02  0.51100000000E-03 0. -1.
        -11    1    3    3    0    0 -0.18501093266E+01  0.21375157159E+00  0.10074444936E+00  0.18651391262E+01  0.51100000000E-03 0.  1.
         12    1    3    3    0    0  0.52130388559E+01 -0.11126879011E+02 -0.32468918315E+02  0.34716190274E+02  0.00000000000E+00 0. -1.
</event>
<event>
 7    1  0.4430431E-010  0.4778729E+02  0.7816164E-02  0.1312668E+00
        -11   -1    0    0    0    0  0.00000000000E+00  0.00000000000E+00  0.45593999997E+02  0.45594000000E+02  0.51100000000E-03 0. -1.
         11   -1    0    0    0    0 -0.00000000000E+00 -0.00000000000E+00 -0.45593999997E+02  0.45594000000E+02  0.51100000000E-03 0.  1.
    9900012    2    1    2    0    0 -0.47647991656E+01 -0.15179823891E+02  0.40379341937E+02  0.47787290101E+02  0.20000086888E+02 0.  0.
        -12    1    1    2    0    0  0.47647991656E+01  0.15179823891E+02 -0.40379341937E+02  0.43400709899E+02  0.00000000000E+00 0.  1.
         11    1    3    3    0    0  0.16061399164E+00  0.20644753112E+00  0.26541477395E+01  0.26670054221E+01  0.51100000000E-03 0. -1.
        -11    1    3    3    0    0  0.32451799323E+00 -0.11256232558E+02  0.36667014501E+02  0.38357242289E+02  0.51100000000E-03 0.  1.
        -12    1    3    3    0    0 -0.52499311505E+01 -0.41300388641E+01  0.10581796964E+01  0.67630423903E+01  0.00000000000E+00 0.  1.
</event>
<event>
 7    1  0.4430431E-010  0.4778727E+02  0.7816164E-02  0.1312668E+00
        -11   -1    0    0    0    0  0.00000000000E+00  0.00000000000E+00  0.45593999997E+02  0.45594000000E+02  0.51100000000E-03 0.  1.
         11   -1    0    0    0    0 -0.00000000000E+00 -0.00000000000E+00 -0.45593999997E+02  0.45594000000E+02  0.51100000000E-03 0. -1.
    9900012    2    1    2    0    0 -0.73657624332E+00  0.74283324332E+01 -0.42753953148E+02  0.47787272159E+02  0.20000005084E+02 0.  0.
        -12    1    1    2    0    0  0.73657624332E+00 -0.74283324332E+01  0.42753953148E+02  0.43400727841E+02  0.00000000000E+00 0.  1.
         11    1    3    3    0    0 -0.52442007504E+01  0.20199044613E+01 -0.41667857851E+01  0.69959816740E+01  0.51100000000E-03 0. -1.
        -11    1    3    3    0    0  0.97957247403E-01 -0.27181587003E+01 -0.31216296602E+01  0.41403567888E+01  0.51100000000E-03 0.  1.
        -12    1    3    3    0    0  0.44096672597E+01  0.81265866722E+01 -0.35465537703E+02  0.36650933697E+02  0.00000000000E+00 0.  1.
</event>
<event>
 7    1  0.4430431E-010  0.4778727E+02  0.7816164E-02  0.1312668E+00
        -11   -1    0    0    0    0  0.00000000000E+00  0.00000000000E+00  0.45593999997E+02  0.45594000000E+02  0.51100000000E-03 0. -1.
         11   -1    0    0    0    0 -0.00000000000E+00 -0.00000000000E+00 -0.45593999997E+02  0.45594000000E+02  0.51100000000E-03 0.  1.
    9900012    2    1    2    0    0  0.39286200771E+02 -0.23658891942E+01  0.18292627472E+02  0.47787271636E+02  0.20000002695E+02 0.  0.
        -12    1    1    2    0    0 -0.39286200771E+02  0.23658891942E+01 -0.18292627472E+02  0.43400728364E+02  0.00000000000E+00 0.  1.
         11    1    3    3    0    0  0.34293083947E+02 -0.30758769072E+01  0.20221929209E+02  0.39929976791E+02  0.51100000000E-03 0. -1.
        -11    1    3    3    0    0  0.53002681346E+01 -0.13694451796E+01 -0.17519549019E+01  0.57478316467E+01  0.51100000000E-03 0.  1.
         12    1    3    3    0    0 -0.30715131052E+00  0.20794328926E+01 -0.17734683484E+00  0.21094631977E+01  0.00000000000E+00 0. -1.
</event>
<event>
 7    1  0.4430431E-010  0.4778729E+02  0.7816164E-02  0.1312668E+00
        -11   -1    0    0    0    0  0.00000000000E+00  0.00000000000E+00  0.45593999997E+02  0.45594000000E+02  0.51100000000E-03 0.  1.
         11   -1    0    0    0    0 -0.00000000000E+00 -0.00000000000E+00 -0.45593999997E+02  0.45594000000E+02  0.51100000000E-03 0. -1.
    9900012    2    1    2    0    0 -0.17938343026E+02 -0.23468510129E+01 -0.39450345616E+02  0.47787289989E+02  0.20000086377E+02 0.  0.
        -12    1    1    2    0    0  0.17938343026E+02  0.23468510129E+01  0.39450345616E+02  0.43400710011E+02  0.00000000000E+00 0.  1.
         11    1    3    3    0    0 -0.51237713296E+01 -0.70346363783E+00 -0.20565646743E+02  0.21205983117E+02  0.51100000000E-03 0. -1.
        -11    1    3    3    0    0 -0.37453432846E+00  0.34773587024E+01 -0.96491939241E+01  0.10263490788E+02  0.51100000000E-03 0.  1.
        -12    1    3    3    0    0 -0.12440037368E+02 -0.51207460774E+01 -0.92355049492E+01  0.16317816085E+02  0.00000000000E+00 0.  1.
</event>
<event>
 7    1  0.4430431E-010  0.4778727E+02  0.7816164E-02  0.1312668E+00
        -11   -1    0    0    0    0  0.00000000000E+00  0.00000000000E+00  0.45593999997E+02  0.45594000000E+02  0.51100000000E-03 0.  1.
         11   -1    0    0    0    0 -0.00000000000E+00 -0.00000000000E+00 -0.45593999997E+02  0.45594000000E+02  0.51100000000E-03 0. -1.
    9900012    2    1    2    0    0  0.34967078019E+02 -0.21724014655E+02  0.13747506680E+02  0.47787270768E+02  0.19999998740E+02 0.  0.
        -12    1    1    2    0    0 -0.34967078019E+02  0.21724014655E+02 -0.13747506680E+02  0.43400729232E+02  0.00000000000E+00 0.  1.
         11    1    3    3    0    0  0.16717603589E+02 -0.25699433398E+01  0.89586877036E+01  0.19140035637E+02  0.51100000000E-03 0. -1.
        -11    1    3    3    0    0 -0.10323386686E+00  0.55729650196E+00  0.13900026212E+01  0.15011143096E+01  0.51100000000E-03 0.  1.
        -12    1    3    3    0    0  0.18352708297E+02 -0.19711367817E+02  0.33988163555E+01  0.27146120822E+02  0.00000000000E+00 0.  1.
</event>
<event>
 7    1  0.4430431E-010  0.4778728E+02  0.7816164E-02  0.1312668E+00
        -11   -1    0    0    0    0  0.00000000000E+00  0.00000000000E+00  0.45593999997E+02  0.45594000000E+02  0.51100000000E-03 0. -1.
         11   -1    0    0    0    0 -0.00000000000E+00 -0.00000000000E+00 -0.45593999997E+02  0.45594000000E+02  0.51100000000E-03 0.  1.
    9900012    2    1    2    0    0 -0.31506794375E+02 -0.23937419333E+02  0.17831003465E+02  0.47787276265E+02  0.20000023804E+02 0.  0.
        -12    1    1    2    0    0  0.31506794375E+02  0.23937419333E+02 -0.17831003465E+02  0.43400723735E+02  0.00000000000E+00 0.  1.
         11    1    3    3    0    0 -0.18329957910E+02 -0.11280401029E+02  0.94194835702E+00  0.21543492552E+02  0.51100000000E-03 0. -1.
        -11    1    3    3    0    0 -0.58049034624E+01 -0.45594438821E+00  0.45408467135E+01  0.73840421606E+01  0.51100000000E-03 0.  1.
         12    1    3    3    0    0 -0.73719330026E+01 -0.12201073916E+02  0.12348208394E+02  0.18859741553E+02  0.00000000000E+00 0. -1.
</event>
<event>
 7    1  0.4430431E-010  0.4778724E+02  0.7816164E-02  0.1312668E+00
        -11   -1    0    0    0    0  0.00000000000E+00  0.00000000000E+00  0.45593999997E+02  0.45594000000E+02  0.51100000000E-03 0. -1.
         11   -1    0    0    0    0 -0.00000000000E+00 -0.00000000000E+00 -0.45593999997E+02  0.45594000000E+02  0.51100000000E-03 0.  1.
    9900012    2    1    2    0    0 -0.36937804190E+02  0.14748660973E+02  0.17369556244E+02  0.47787241217E+02  0.19999864003E+02 0.  0.
        -12    1    1    2    0    0  0.36937804190E+02 -0.14748660973E+02 -0.17369556244E+02  0.43400758783E+02  0.00000000000E+00 0.  1.
         11    1    3    3    0    0 -0.50508824090E+00  0.14050207328E+01 -0.15190462096E+01  0.21299528255E+01  0.51100000000E-03 0.  1.
        -11    1    3    3    0    0 -0.13974454595E+02 -0.37603178751E+00  0.12074355995E+02  0.18472056032E+02  0.51100000000E-03 0. -1.
         12    1    3    3    0    0 -0.22458261354E+02  0.13719672028E+02  0.68142464589E+01  0.27185232359E+02  0.00000000000E+00 0. -1.
</event>
<event>
 7    1  0.4430431E-010  0.4778727E+02  0.7816164E-02  0.1312668E+00
        -11   -1    0    0    0    0  0.00000000000E+00  0.00000000000E+00  0.45593999997E+02  0.45594000000E+02  0.51100000000E-03 0.  1.
         11   -1    0    0    0    0 -0.00000000000E+00 -0.00000000000E+00 -0.45593999997E+02  0.45594000000E+02  0.51100000000E-03 0. -1.
    9900012    2    1    2    0    0  0.33171077448E+02 -0.19105757250E+02 -0.20451719552E+02  0.47787272221E+02  0.20000005364E+02 0.  0.
        -12    1    1    2    0    0 -0.33171077448E+02  0.19105757250E+02  0.20451719552E+02  0.43400727779E+02  0.00000000000E+00 0.  1.
         11    1    3    3    0    0  0.11757539181E+02 -0.14472518367E+01 -0.82107139195E+00  0.11874696795E+02  0.51100000000E-03 0. -1.
        -11    1    3    3    0    0  0.47940807213E+01 -0.11415893621E+01  0.58930891791E+00  0.49632369977E+01  0.51100000000E-03 0.  1.
        -12    1    3    3    0    0  0.16619457545E+02 -0.16516916051E+02 -0.20219957078E+02  0.30949338429E+02  0.00000000000E+00 0.  1.
</event>
<event>
 7    1  0.4430431E-010  0.4778727E+02  0.7816164E-02  0.1312668E+00
        -11   -1    0    0    0    0  0.00000000000E+00  0.00000000000E+00  0.45593999997E+02  0.45594000000E+02  0.51100000000E-03 0. -1.
         11   -1    0    0    0    0 -0.00000000000E+00 -0.00000000000E+00 -0.45593999997E+02  0.45594000000E+02  0.51100000000E-03 0.  1.
    9900012    2    1    2    0    0  0.47358651533E+00 -0.41466900555E+02 -0.12802152838E+02  0.47787271398E+02  0.20000001614E+02 0.  0.
        -12    1    1    2    0    0 -0.47358651533E+00  0.41466900555E+02  0.12802152838E+02  0.43400728602E+02  0.00000000000E+00 0.  1.
         11    1    3    3    0    0  0.24369663127E+01 -0.18102066117E+02  0.33424188842E+01  0.18568666262E+02  0.51100000000E-03 0. -1.
        -11    1    3    3    0    0 -0.11703471055E+01 -0.11876736270E+02 -0.42640476253E+01  0.12673147959E+02  0.51100000000E-03 0.  1.
        -12    1    3    3    0    0 -0.79303269182E+00 -0.11488098169E+02 -0.11880524097E+02  0.16545457178E+02  0.00000000000E+00 0.  1.
</event>
<event>
 7    1  0.4430431E-010  0.4778727E+02  0.7816164E-02  0.1312668E+00
        -11   -1    0    0    0    0  0.00000000000E+00  0.00000000000E+00  0.45593999997E+02  0.45594000000E+02  0.51100000000E-03 0. -1.
         11   -1    0    0    0    0 -0.00000000000E+00 -0.00000000000E+00 -0.45593999997E+02  0.45594000000E+02  0.51100000000E-03 0.  1.
    9900012    2    1    2    0    0  0.20132052322E+02 -0.42600873564E+01  0.38212243876E+02  0.47787268934E+02  0.19999990379E+02 0.  0.
        -12    1    1    2    0    0 -0.20132052322E+02  0.42600873564E+01 -0.38212243876E+02  0.43400731066E+02  0.00000000000E+00 0.  1.
         11    1    3    3    0    0 -0.42097785771E+00 -0.33731887190E+01  0.18822885068E+02  0.19127378990E+02  0.51100000000E-03 0. -1.
        -11    1    3    3    0    0  0.43845432815E+01 -0.18296618432E+01  0.30039214243E+01  0.56209809137E+01  0.51100000000E-03 0.  1.
         12    1    3    3    0    0  0.16168486898E+02  0.94276320586E+00  0.16385437384E+02  0.23038909031E+02  0.00000000000E+00 0. -1.
</event>
<event>
 7    1  0.4430431E-010  0.4778727E+02  0.7816164E-02  0.1312668E+00
        -11   -1    0    0    0    0  0.00000000000E+00  0.00000000000E+00  0.45593999997E+02  0.45594000000E+02  0.51100000000E-03 0. -1.
         11   -1    0    0    0    0 -0.00000000000E+00 -0.00000000000E+00 -0.45593999997E+02  0.45594000000E+02  0.51100000000E-03 0.  1.
    9900012    2    1    2    0    0  0.35347710711E+02  0.22924321376E+02  0.10422976686E+02  0.47787267218E+02  0.19999982552E+02 0.  0.
        -12    1    1    2    0    0 -0.35347710711E+02 -0.22924321376E+02 -0.10422976686E+02  0.43400732782E+02  0.00000000000E+00 0.  1.
         11    1    3    3    0    0  0.49373612315E+01  0.63563377001E+01  0.62128619940E+01  0.10167606370E+02  0.51100000000E-03 0. -1.
        -11    1    3    3    0    0  0.13564158423E+02  0.72426154530E+01  0.89474549735E+01  0.17790413798E+02  0.51100000000E-03 0.  1.
        -12    1    3    3    0    0  0.16846191056E+02  0.93253682229E+01 -0.47373402819E+01  0.19829247049E+02  0.00000000000E+00 0.  1.
</event>
<event>
 7    1  0.4430431E-010  0.4778727E+02  0.7816164E-02  0.1312668E+00
        -11   -1    0    0    0    0  0.00000000000E+00  0.00000000000E+00  0.45593999997E+02  0.45594000000E+02  0.51100000000E-03 0.  1.
         11   -1    0    0    0    0 -0.00000000000E+00 -0.00000000000E+00 -0.45593999997E+02  0.45594000000E+02  0.51100000000E-03 0. -1.
    9900012    2    1    2    0    0  0.31769912615E+02  0.28041028637E+02 -0.93806548583E+01  0.47787270511E+02  0.19999997570E+02 0.  0.
        -12    1    1    2    0    0 -0.31769912615E+02 -0.28041028637E+02  0.93806548583E+01  0.43400729489E+02  0.00000000000E+00 0.  1.
         11    1    3    3    0    0  0.40628540564E+00 -0.23689872878E+00 -0.27467333948E+01  0.27867065582E+01  0.51100000000E-03 0.  1.
        -11    1    3    3    0    0  0.23172962810E+02  0.11648986276E+02 -0.29752835827E+01  0.26106271264E+02  0.51100000000E-03 0. -1.
         12    1    3    3    0    0  0.81906643987E+01  0.16628941090E+02 -0.36586378808E+01  0.18894292689E+02  0.00000000000E+00 0. -1.
</event>
<event>
 7    1  0.4430431E-010  0.4778727E+02  0.7816164E-02  0.1312668E+00
        -11   -1    0    0    0    0  0.00000000000E+00  0.00000000000E+00  0.45593999997E+02  0.45594000000E+02  0.51100000000E-03 0.  1.
         11   -1    0    0    0    0 -0.00000000000E+00 -0.00000000000E+00 -0.45593999997E+02  0.45594000000E+02  0.51100000000E-03 0. -1.
    9900012    2    1    2    0    0  0.35994790688E+02 -0.23628855064E+02 -0.54475351515E+01  0.47787269735E+02  0.19999994031E+02 0.  0.
        -12    1    1    2    0    0 -0.35994790688E+02  0.23628855064E+02  0.54475351515E+01  0.43400730265E+02  0.00000000000E+00 0.  1.
         11    1    3    3    0    0  0.13910381433E+02 -0.46291539964E+01 -0.61916771628E+01  0.15914290580E+02  0.51100000000E-03 0. -1.
        -11    1    3    3    0    0  0.21207799369E+02 -0.11550812450E+02  0.21396350107E+01  0.24243969571E+02  0.51100000000E-03 0.  1.
         12    1    3    3    0    0  0.87660988637E+00 -0.74488886169E+01 -0.13954929994E+01  0.76290095839E+01  0.00000000000E+00 0. -1.
</event>
<event>
 7    1  0.4430431E-010  0.4778727E+02  0.7816164E-02  0.1312668E+00
        -11   -1    0    0    0    0  0.00000000000E+00  0.00000000000E+00  0.45593999997E+02  0.45594000000E+02  0.51100000000E-03 0.  1.
         11   -1    0    0    0    0 -0.00000000000E+00 -0.00000000000E+00 -0.45593999997E+02  0.45594000000E+02  0.51100000000E-03 0. -1.
    9900012    2    1    2    0    0  0.40514373391E+02  0.15297081668E+02 -0.28650145261E+01  0.47787268819E+02  0.19999989851E+02 0.  0.
        -12    1    1    2    0    0 -0.40514373391E+02 -0.15297081668E+02  0.28650145261E+01  0.43400731181E+02  0.00000000000E+00 0.  1.
         11    1    3    3    0    0  0.29005495157E+02  0.84745132221E+01 -0.10238235004E+01  0.30235481450E+02  0.51100000000E-03 0. -1.
        -11    1    3    3    0    0  0.12266825492E+02  0.71605095500E+01  0.13374248172E+01  0.14266625742E+02  0.51100000000E-03 0.  1.
        -12    1    3    3    0    0 -0.75794725817E+00 -0.33794110365E+00 -0.31786158429E+01  0.32851616265E+01  0.00000000000E+00 0.  1.
</event>
<event>
 7    1  0.4430431E-010  0.4778727E+02  0.7816164E-02  0.1312668E+00
        -11   -1    0    0    0    0  0.00000000000E+00  0.00000000000E+00  0.45593999997E+02  0.45594000000E+02  0.51100000000E-03 0. -1.
         11   -1    0    0    0    0 -0.00000000000E+00 -0.00000000000E+00 -0.45593999997E+02  0.45594000000E+02  0.51100000000E-03 0.  1.
    9900012    2    1    2    0    0  0.35636359217E+02  0.17370216687E+02  0.17662071844E+02  0.47787270653E+02  0.19999998217E+02 0.  0.
        -12    1    1    2    0    0 -0.35636359217E+02 -0.17370216687E+02 -0.17662071844E+02  0.43400729347E+02  0.00000000000E+00 0.  1.
         11    1    3    3    0    0  0.22684801307E+02  0.62856424673E+01  0.13865416224E+02  0.27319576843E+02  0.51100000000E-03 0. -1.
        -11    1    3    3    0    0  0.49031982803E+01  0.34779348727E+01  0.67177625677E+01  0.90147500537E+01  0.51100000000E-03 0.  1.
         12    1    3    3    0    0  0.80483596296E+01  0.76066393474E+01 -0.29211069476E+01  0.11452943756E+02  0.00000000000E+00 0. -1.
</event>
<event>
 7    1  0.4430431E-010  0.4778727E+02  0.7816164E-02  0.1312668E+00
        -11   -1    0    0    0    0  0.00000000000E+00  0.00000000000E+00  0.45593999997E+02  0.45594000000E+02  0.51100000000E-03 0.  1.
         11   -1    0    0    0    0 -0.00000000000E+00 -0.00000000000E+00 -0.45593999997E+02  0.45594000000E+02  0.51100000000E-03 0. -1.
    9900012    2    1    2    0    0 -0.27545120345E+02  0.26393633169E+01 -0.33435360152E+02  0.47787271872E+02  0.20000003775E+02 0.  0.
        -12    1    1    2    0    0  0.27545120345E+02 -0.26393633169E+01  0.33435360152E+02  0.43400728128E+02  0.00000000000E+00 0.  1.
         11    1    3    3    0    0 -0.24363482922E+02 -0.15638839903E+01 -0.24999467284E+02  0.34942787496E+02  0.51100000000E-03 0. -1.
        -11    1    3    3    0    0 -0.18400815784E+01 -0.18119788758E+01 -0.53750392737E+01  0.59632386433E+01  0.51100000000E-03 0.  1.
        -12    1    3    3    0    0 -0.13415558441E+01  0.60152261830E+01 -0.30608535942E+01  0.68812457332E+01  0.00000000000E+00 0.  1.
</event>
<event>
 7    1  0.4430431E-010  0.4778727E+02  0.7816164E-02  0.1312668E+00
        -11   -1    0    0    0    0  0.00000000000E+00  0.00000000000E+00  0.45593999997E+02  0.45594000000E+02  0.51100000000E-03 0.  1.
         11   -1    0    0    0    0 -0.00000000000E+00 -0.00000000000E+00 -0.45593999997E+02  0.45594000000E+02  0.51100000000E-03 0. -1.
    9900012    2    1    2    0    0  0.21648862248E+02  0.43966075853E+01 -0.37357992146E+02  0.47787274522E+02  0.20000015855E+02 0.  0.
        -12    1    1    2    0    0 -0.21648862248E+02 -0.43966075853E+01  0.37357992146E+02  0.43400725478E+02  0.00000000000E+00 0.  1.
         11    1    3    3    0    0  0.31706216508E+00  0.38061590476E+01 -0.64261737567E+01  0.74754989482E+01  0.51100000000E-03 0. -1.
        -11    1    3    3    0    0  0.17188453535E+01 -0.31018325042E+01 -0.13022681188E+02  0.13496889264E+02  0.51100000000E-03 0.  1.
         12    1    3    3    0    0  0.19612954729E+02  0.36922810419E+01 -0.17909137201E+02  0.26814886310E+02  0.00000000000E+00 0. -1.
</event>
<event>
 7    1  0.4430431E-010  0.4778727E+02  0.7816164E-02  0.1312668E+00
        -11   -1    0    0    0    0  0.00000000000E+00  0.00000000000E+00  0.45593999997E+02  0.45594000000E+02  0.51100000000E-03 0.  1.
         11   -1    0    0    0    0 -0.00000000000E+00 -0.00000000000E+00 -0.45593999997E+02  0.45594000000E+02  0.51100000000E-03 0. -1.
    9900012    2    1    2    0    0 -0.36868828746E+02 -0.21808602666E+02 -0.69783535795E+01  0.47787273024E+02  0.20000009028E+02 0.  0.
        -12    1    1    2    0    0  0.36868828746E+02  0.21808602666E+02  0.69783535795E+01  0.43400726976E+02  0.00000000000E+00 0.  1.
         11    1    3    3    0    0 -0.46693205936E+01 -0.17075846533E+01  0.34829094653E+01  0.60703425569E+01  0.51100000000E-03 0. -1.
        -11    1    3    3    0    0 -0.12947700246E+02 -0.57494405073E+00 -0.35835304310E+01  0.13446753992E+02  0.51100000000E-03 0.  1.
         12    1    3    3    0    0 -0.19251807906E+02 -0.19526073962E+02 -0.68777326139E+01  0.28270176475E+02  0.00000000000E+00 0. -1.
</event>
<event>
 7    1  0.4430431E-010  0.4778729E+02  0.7816164E-02  0.1312668E+00
        -11   -1    0    0    0    0  0.00000000000E+00  0.00000000000E+00  0.45593999997E+02  0.45594000000E+02  0.51100000000E-03 0. -1.
         11   -1    0    0    0    0 -0.00000000000E+00 -0.00000000000E+00 -0.45593999997E+02  0.45594000000E+02  0.51100000000E-03 0.  1.
    9900012    2    1    2    0    0  0.11258636023E+02  0.45516146257E+01  0.41667106322E+02  0.47787287678E+02  0.20000075838E+02 0.  0.
        -12    1    1    2    0    0 -0.11258636023E+02 -0.45516146257E+01 -0.41667106322E+02  0.43400712322E+02  0.00000000000E+00 0.  1.
         11    1    3    3    0    0  0.96563992890E+01 -0.33943248405E+01  0.14675461347E+02  0.17892363018E+02  0.51100000000E-03 0. -1.
        -11    1    3    3    0    0  0.54043478919E+01  0.50534442240E+01  0.11423802026E+02  0.13610566764E+02  0.51100000000E-03 0.  1.
         12    1    3    3    0    0 -0.38021111575E+01  0.28924952422E+01  0.15567842949E+02  0.16284357896E+02  0.00000000000E+00 0. -1.
</event>
<event>
 7    1  0.4430431E-010  0.4778727E+02  0.7816164E-02  0.1312668E+00
        -11   -1    0    0    0    0  0.00000000000E+00  0.00000000000E+00  0.45593999997E+02  0.45594000000E+02  0.51100000000E-03 0.  1.
         11   -1    0    0    0    0 -0.00000000000E+00 -0.00000000000E+00 -0.45593999997E+02  0.45594000000E+02  0.51100000000E-03 0. -1.
    9900012    2    1    2    0    0  0.34994766958E+01 -0.36623024573E+02 -0.23024583970E+02  0.47787265754E+02  0.19999975880E+02 0.  0.
        -12    1    1    2    0    0 -0.34994766958E+01  0.36623024573E+02  0.23024583970E+02  0.43400734246E+02  0.00000000000E+00 0.  1.
         11    1    3    3    0    0  0.45497422319E+01 -0.14195754407E+02 -0.12243035812E+02  0.19290192423E+02  0.51100000000E-03 0. -1.
        -11    1    3    3    0    0  0.51016386149E+01 -0.12159314861E+02 -0.99111247576E+01  0.16495637262E+02  0.51100000000E-03 0.  1.
        -12    1    3    3    0    0 -0.61519041511E+01 -0.10267955305E+02 -0.87042340076E+00  0.12001436070E+02  0.00000000000E+00 0.  1.
</event>
<event>
 7    1  0.5119443E-010  0.4778727E+02  0.7816164E-02  0.1312668E+00
        -11   -1    0    0    0    0  0.00000000000E+00  0.00000000000E+00  0.45593999997E+02  0.45594000000E+02  0.51100000000E-03 0. -1.
         11   -1    0    0    0    0 -0.00000000000E+00 -0.00000000000E+00 -0.45593999997E+02  0.45594000000E+02  0.51100000000E-03 0.  1.
    9900012    2    1    2    0    0 -0.10079697845E+02  0.32999341343E+02  0.26326153682E+02  0.47787271833E+02  0.20000003597E+02 0.  0.
        -12    1    1    2    0    0  0.10079697845E+02 -0.32999341343E+02 -0.26326153682E+02  0.43400728167E+02  0.00000000000E+00 0.  1.
         11    1    3    3    0    0 -0.11564827404E+02  0.22858916341E+02  0.16439058583E+02  0.30438757145E+02  0.51100000000E-03 0.  1.
        -11    1    3    3    0    0 -0.36629935056E+01  0.21639668682E+01  0.53246075577E+01  0.68155498629E+01  0.51100000000E-03 0. -1.
        -12    1    3    3    0    0  0.51481230651E+01  0.79764581334E+01  0.45624875411E+01  0.10532964825E+02  0.00000000000E+00 0.  1.
</event>
<event>
 7    1  0.4430431E-010  0.4778727E+02  0.7816164E-02  0.1312668E+00
        -11   -1    0    0    0    0  0.00000000000E+00  0.00000000000E+00  0.45593999997E+02  0.45594000000E+02  0.51100000000E-03 0. -1.
         11   -1    0    0    0    0 -0.00000000000E+00 -0.00000000000E+00 -0.45593999997E+02  0.45594000000E+02  0.51100000000E-03 0.  1.
    9900012    2    1    2    0    0  0.20900944477E+02 -0.35512130642E+02 -0.13625796023E+02  0.47787271665E+02  0.20000002828E+02 0.  0.
        -12    1    1    2    0    0 -0.20900944477E+02  0.35512130642E+02  0.13625796023E+02  0.43400728335E+02  0.00000000000E+00 0.  1.
         11    1    3    3    0    0  0.12418179269E+02 -0.18678746912E+02 -0.54233123764E+00  0.22436597023E+02  0.51100000000E-03 0. -1.
        -11    1    3    3    0    0  0.21707525877E+01 -0.64522262127E+01  0.85421139809E+00  0.68609815093E+01  0.51100000000E-03 0.  1.
        -12    1    3    3    0    0  0.63120126204E+01 -0.10381157518E+02 -0.13937676184E+02  0.18489693132E+02  0.00000000000E+00 0.  1.
</event>
<event>
 7    1  0.4430431E-010  0.4778728E+02  0.7816164E-02  0.1312668E+00
        -11   -1    0    0    0    0  0.00000000000E+00  0.00000000000E+00  0.45593999997E+02  0.45594000000E+02  0.51100000000E-03 0. -1.
         11   -1    0    0    0    0 -0.00000000000E+00 -0.00000000000E+00 -0.45593999997E+02  0.45594000000E+02  0.51100000000E-03 0.  1.
    9900012    2    1    2    0    0  0.50909914362E+01 -0.43096718249E+02  0.61420796504E+00  0.47787279164E+02  0.20000037021E+02 0.  0.
        -12    1    1    2    0    0 -0.50909914362E+01  0.43096718249E+02 -0.61420796504E+00  0.43400720836E+02  0.00000000000E+00 0.  1.
         11    1    3    3    0    0 -0.21166952305E+00 -0.16796266050E+02  0.44659670500E+01  0.17381145508E+02  0.51100000000E-03 0. -1.
        -11    1    3    3    0    0 -0.31823742518E+00 -0.18769757017E+02  0.26787935226E+01  0.18962620824E+02  0.51100000000E-03 0.  1.
         12    1    3    3    0    0  0.56208983845E+01 -0.75306951822E+01 -0.65305526076E+01  0.11443512832E+02  0.00000000000E+00 0. -1.
</event>
<event>
 7    1  0.4430431E-010  0.4778727E+02  0.7816164E-02  0.1312668E+00
        -11   -1    0    0    0    0  0.00000000000E+00  0.00000000000E+00  0.45593999997E+02  0.45594000000E+02  0.51100000000E-03 0.  1.
         11   -1    0    0    0    0 -0.00000000000E+00 -0.00000000000E+00 -0.45593999997E+02  0.45594000000E+02  0.51100000000E-03 0. -1.
    9900012    2    1    2    0    0 -0.23158660492E+02  0.58613223234E+01 -0.36234581689E+02  0.47787267687E+02  0.19999984693E+02 0.  0.
        -12    1    1    2    0    0  0.23158660492E+02 -0.58613223234E+01  0.36234581689E+02  0.43400732313E+02  0.00000000000E+00 0.  1.
         11    1    3    3    0    0 -0.35301525449E+01 -0.13751943536E+01 -0.51278122470E+00  0.38230983961E+01  0.51100000000E-03 0. -1.
        -11    1    3    3    0    0 -0.54665326370E+01  0.77138765292E+01 -0.64561794310E+01  0.11448542409E+02  0.51100000000E-03 0.  1.
         12    1    3    3    0    0 -0.14161975310E+02 -0.47735985224E+00 -0.29265621033E+02  0.32515626882E+02  0.00000000000E+00 0. -1.
</event>
<event>
 7    1  0.4430431E-010  0.4778728E+02  0.7816164E-02  0.1312668E+00
        -11   -1    0    0    0    0  0.00000000000E+00  0.00000000000E+00  0.45593999997E+02  0.45594000000E+02  0.51100000000E-03 0.  1.
         11   -1    0    0    0    0 -0.00000000000E+00 -0.00000000000E+00 -0.45593999997E+02  0.45594000000E+02  0.51100000000E-03 0. -1.
    9900012    2    1    2    0    0 -0.35938093167E+01 -0.10488449278E+02 -0.41960688025E+02  0.47787281421E+02  0.20000047309E+02 0.  0.
        -12    1    1    2    0    0  0.35938093167E+01  0.10488449278E+02  0.41960688025E+02  0.43400718579E+02  0.00000000000E+00 0.  1.
         11    1    3    3    0    0 -0.22347360364E+01 -0.53376950894E+01 -0.90598608418E+01  0.10750168034E+02  0.51100000000E-03 0. -1.
        -11    1    3    3    0    0 -0.15232710695E+01  0.14322998469E+01  0.11288415154E+01  0.23761567773E+01  0.51100000000E-03 0.  1.
        -12    1    3    3    0    0  0.16419778920E+00 -0.65830540355E+01 -0.34029668699E+02  0.34660956610E+02  0.00000000000E+00 0.  1.
</event>
<event>
 7    1  0.4430431E-010  0.4778727E+02  0.7816164E-02  0.1312668E+00
        -11   -1    0    0    0    0  0.00000000000E+00  0.00000000000E+00  0.45593999997E+02  0.45594000000E+02  0.51100000000E-03 0.  1.
         11   -1    0    0    0    0 -0.00000000000E+00 -0.00000000000E+00 -0.45593999997E+02  0.45594000000E+02  0.51100000000E-03 0. -1.
    9900012    2    1    2    0    0  0.18153533781E+02  0.36434698637E+02 -0.15052742919E+02  0.47787272784E+02  0.20000007932E+02 0.  0.
        -12    1    1    2    0    0 -0.18153533781E+02 -0.36434698637E+02  0.15052742919E+02  0.43400727216E+02  0.00000000000E+00 0.  1.
         11    1    3    3    0    0  0.57899395976E+01  0.11877147663E+02 -0.83467589998E+01  0.15628769088E+02  0.51100000000E-03 0. -1.
        -11    1    3    3    0    0 -0.37947276341E+00  0.72839558467E+01 -0.77824523266E+01  0.10666141609E+02  0.51100000000E-03 0.  1.
         12    1    3    3    0    0  0.12743066946E+02  0.17273595127E+02  0.10764684075E+01  0.21492362086E+02  0.00000000000E+00 0. -1.
</event>
<event>
 7    1  0.4430431E-010  0.4778727E+02  0.7816164E-02  0.1312668E+00
        -11   -1    0    0    0    0  0.00000000000E+00  0.00000000000E+00  0.45593999997E+02  0.45594000000E+02  0.51100000000E-03 0. -1.
         11   -1    0    0    0    0 -0.00000000000E+00 -0.00000000000E+00 -0.45593999997E+02  0.45594000000E+02  0.51100000000E-03 0.  1.
    9900012    2    1    2    0    0 -0.24965827217E+02  0.33041335241E+02  0.12984647733E+02  0.47787269132E+02  0.19999991279E+02 0.  0.
        -12    1    1    2    0    0  0.24965827217E+02 -0.33041335241E+02 -0.12984647733E+02  0.43400730868E+02  0.00000000000E+00 0.  1.
         11    1    3    3    0    0 -0.12874827748E+02  0.39645711575E+01  0.35763262132E+01  0.13938045897E+02  0.51100000000E-03 0. -1.
        -11    1    3    3    0    0 -0.91156369841E+01  0.13653434958E+02  0.74214718053E+01  0.18016363889E+02  0.51100000000E-03 0.  1.
        -12    1    3    3    0    0 -0.29753624855E+01  0.15423329126E+02  0.19868497146E+01  0.15832859345E+02  0.00000000000E+00 0.  1.
</event>
<event>
 7    1  0.4430431E-010  0.4778727E+02  0.7816164E-02  0.1312668E+00
        -11   -1    0    0    0    0  0.00000000000E+00  0.00000000000E+00  0.45593999997E+02  0.45594000000E+02  0.51100000000E-03 0.  1.
         11   -1    0    0    0    0 -0.00000000000E+00 -0.00000000000E+00 -0.45593999997E+02  0.45594000000E+02  0.51100000000E-03 0. -1.
    9900012    2    1    2    0    0 -0.21345436081E+02 -0.37287237569E+02 -0.61366085734E+01  0.47787266230E+02  0.19999978049E+02 0.  0.
        -12    1    1    2    0    0  0.21345436081E+02  0.37287237569E+02  0.61366085734E+01  0.43400733770E+02  0.00000000000E+00 0.  1.
         11    1    3    3    0    0 -0.17305892403E+01 -0.15722894176E+02 -0.51485603939E+01  0.16634663050E+02  0.51100000000E-03 0. -1.
        -11    1    3    3    0    0  0.13655992427E+01 -0.67025634485E+00  0.82206277711E-01  0.15234378861E+01  0.51100000000E-03 0.  1.
        -12    1    3    3    0    0 -0.20980446084E+02 -0.20894087048E+02 -0.10702544572E+01  0.29629165294E+02  0.00000000000E+00 0.  1.
</event>
<event>
 7    1  0.4430431E-010  0.4778729E+02  0.7816164E-02  0.1312668E+00
        -11   -1    0    0    0    0  0.00000000000E+00  0.00000000000E+00  0.45593999997E+02  0.45594000000E+02  0.51100000000E-03 0. -1.
         11   -1    0    0    0    0 -0.00000000000E+00 -0.00000000000E+00 -0.45593999997E+02  0.45594000000E+02  0.51100000000E-03 0.  1.
    9900012    2    1    2    0    0 -0.38842147608E+02 -0.11273553181E+02  0.15742171788E+02  0.47787292579E+02  0.20000098182E+02 0.  0.
        -12    1    1    2    0    0  0.38842147608E+02  0.11273553181E+02 -0.15742171788E+02  0.43400707421E+02  0.00000000000E+00 0.  1.
         11    1    3    3    0    0 -0.28444771936E+02 -0.41034371956E+01  0.14061161486E+02  0.31994679400E+02  0.51100000000E-03 0. -1.
        -11    1    3    3    0    0 -0.59052630223E+01 -0.48843711426E+01  0.55303442446E+01  0.94506042424E+01  0.51100000000E-03 0.  1.
        -12    1    3    3    0    0 -0.44921126499E+01 -0.22857448424E+01 -0.38493339432E+01  0.63420089365E+01  0.00000000000E+00 0.  1.
</event>
<event>
 7    1  0.4430431E-010  0.4778729E+02  0.7816164E-02  0.1312668E+00
        -11   -1    0    0    0    0  0.00000000000E+00  0.00000000000E+00  0.45593999997E+02  0.45594000000E+02  0.51100000000E-03 0.  1.
         11   -1    0    0    0    0 -0.00000000000E+00 -0.00000000000E+00 -0.45593999997E+02  0.45594000000E+02  0.51100000000E-03 0. -1.
    9900012    2    1    2    0    0 -0.21953731507E+02 -0.35301086122E+01 -0.37271892000E+02  0.47787286559E+02  0.20000070739E+02 0.  0.
        -12    1    1    2    0    0  0.21953731507E+02  0.35301086122E+01  0.37271892000E+02  0.43400713441E+02  0.00000000000E+00 0.  1.
         11    1    3    3    0    0 -0.80477039158E+01 -0.28822837791E+00 -0.58031237946E+01  0.99259689678E+01  0.51100000000E-03 0. -1.
        -11    1    3    3    0    0  0.22577849110E+01 -0.30847873132E+01 -0.21608455428E+01  0.43912138633E+01  0.51100000000E-03 0.  1.
        -12    1    3    3    0    0 -0.16163812503E+02 -0.15709292115E+00 -0.29307922662E+02  0.33470103728E+02  0.00000000000E+00 0.  1.
</event>
<event>
 7    1  0.4430431E-010  0.4778724E+02  0.7816164E-02  0.1312668E+00
        -11   -1    0    0    0    0  0.00000000000E+00  0.00000000000E+00  0.45593999997E+02  0.45594000000E+02  0.51100000000E-03 0.  1.
         11   -1    0    0    0    0 -0.00000000000E+00 -0.00000000000E+00 -0.45593999997E+02  0.45594000000E+02  0.51100000000E-03 0. -1.
    9900012    2    1    2    0    0  0.20908807798E+02 -0.31096841676E+02 -0.21895988799E+02  0.47787238126E+02  0.19999849911E+02 0.  0.
        -12    1    1    2    0    0 -0.20908807798E+02  0.31096841676E+02  0.21895988799E+02  0.43400761874E+02  0.00000000000E+00 0.  1.
         11    1    3    3    0    0  0.91658486883E+01 -0.15367930724E+02 -0.94668456640E+01  0.20243696401E+02  0.51100000000E-03 0. -1.
        -11    1    3    3    0    0  0.10372885862E+02 -0.90937504507E+01 -0.14924731547E+02  0.20323402038E+02  0.51100000000E-03 0.  1.
        -12    1    3    3    0    0  0.13700732473E+01 -0.66351605014E+01  0.24955884115E+01  0.72201396871E+01  0.00000000000E+00 0.  1.
</event>
<event>
 7    1  0.4430431E-010  0.4778727E+02  0.7816164E-02  0.1312668E+00
        -11   -1    0    0    0    0  0.00000000000E+00  0.00000000000E+00  0.45593999997E+02  0.45594000000E+02  0.51100000000E-03 0.  1.
         11   -1    0    0    0    0 -0.00000000000E+00 -0.00000000000E+00 -0.45593999997E+02  0.45594000000E+02  0.51100000000E-03 0. -1.
    9900012    2    1    2    0    0  0.38925651206E+02 -0.16168762040E+02 -0.10343518801E+02  0.47787267646E+02  0.19999984503E+02 0.  0.
        -12    1    1    2    0    0 -0.38925651206E+02  0.16168762040E+02  0.10343518801E+02  0.43400732354E+02  0.00000000000E+00 0.  1.
         11    1    3    3    0    0  0.26684834010E+02 -0.18822866297E+02 -0.41663082487E+01  0.32920188129E+02  0.51100000000E-03 0. -1.
        -11    1    3    3    0    0  0.66314381972E+01  0.37203292790E+00 -0.65952216257E+00  0.66745300065E+01  0.51100000000E-03 0.  1.
        -12    1    3    3    0    0  0.56093789993E+01  0.22820713293E+01 -0.55176883901E+01  0.81925495104E+01  0.00000000000E+00 0.  1.
</event>
<event>
 7    1  0.4430431E-010  0.4778727E+02  0.7816164E-02  0.1312668E+00
        -11   -1    0    0    0    0  0.00000000000E+00  0.00000000000E+00  0.45593999997E+02  0.45594000000E+02  0.51100000000E-03 0. -1.
         11   -1    0    0    0    0 -0.00000000000E+00 -0.00000000000E+00 -0.45593999997E+02  0.45594000000E+02  0.51100000000E-03 0.  1.
    9900012    2    1    2    0    0  0.31555284749E+02  0.20359746253E+02  0.21757020242E+02  0.47787271977E+02  0.20000004254E+02 0.  0.
        -12    1    1    2    0    0 -0.31555284749E+02 -0.20359746253E+02 -0.21757020242E+02  0.43400728023E+02  0.00000000000E+00 0.  1.
         11    1    3    3    0    0  0.18390505619E+02  0.79840394634E+01  0.89460041516E+01  0.21954192621E+02  0.51100000000E-03 0. -1.
        -11    1    3    3    0    0  0.15277070049E+02  0.12900698202E+02  0.12627274495E+02  0.23648783157E+02  0.51100000000E-03 0.  1.
        -12    1    3    3    0    0 -0.21122909196E+01 -0.52499141279E+00  0.18374159574E+00  0.21842961993E+01  0.00000000000E+00 0.  1.
</event>
<event>
 7    1  0.4430431E-010  0.4778727E+02  0.7816164E-02  0.1312668E+00
        -11   -1    0    0    0    0  0.00000000000E+00  0.00000000000E+00  0.45593999997E+02  0.45594000000E+02  0.51100000000E-03 0.  1.
         11   -1    0    0    0    0 -0.00000000000E+00 -0.00000000000E+00 -0.45593999997E+02  0.45594000000E+02  0.51100000000E-03 0. -1.
    9900012    2    1    2    0    0 -0.23335794044E+02  0.31196282174E+02  0.19127366050E+02  0.47787269163E+02  0.19999991423E+02 0.  0.
        -12    1    1    2    0    0  0.23335794044E+02 -0.31196282174E+02 -0.19127366050E+02  0.43400730837E+02  0.00000000000E+00 0.  1.
         11    1    3    3    0    0 -0.10790477831E+02  0.20384868992E+02  0.92002314085E+00  0.23082975079E+02  0.51100000000E-03 0. -1.
        -11    1    3    3    0    0 -0.38718007284E+01  0.34821704096E+01  0.43248498431E+01  0.67690972861E+01  0.51100000000E-03 0.  1.
         12    1    3    3    0    0 -0.86735154842E+01  0.73292427726E+01  0.13882493066E+02  0.17935196799E+02  0.00000000000E+00 0. -1.
</event>
<event>
 7    1  0.4430431E-010  0.4778727E+02  0.7816164E-02  0.1312668E+00
        -11   -1    0    0    0    0  0.00000000000E+00  0.00000000000E+00  0.45593999997E+02  0.45594000000E+02  0.51100000000E-03 0.  1.
         11   -1    0    0    0    0 -0.00000000000E+00 -0.00000000000E+00 -0.45593999997E+02  0.45594000000E+02  0.51100000000E-03 0. -1.
    9900012    2    1    2    0    0 -0.30526565594E+02 -0.29210565762E+02 -0.99244663646E+01  0.47787269687E+02  0.19999993809E+02 0.  0.
        -12    1    1    2    0    0  0.30526565594E+02  0.29210565762E+02  0.99244663646E+01  0.43400730313E+02  0.00000000000E+00 0.  1.
         11    1    3    3    0    0 -0.21466552775E+02 -0.27608131966E+02 -0.44432518974E+01  0.35252862669E+02  0.51100000000E-03 0. -1.
        -11    1    3    3    0    0  0.45657098634E+00 -0.16851717906E+01 -0.66596435007E+00  0.18686277869E+01  0.51100000000E-03 0.  1.
        -12    1    3    3    0    0 -0.95165838060E+01  0.82737994129E-01 -0.48152501171E+01  0.10665779231E+02  0.00000000000E+00 0.  1.
</event>
<event>
 7    1  0.4430431E-010  0.4778727E+02  0.7816164E-02  0.1312668E+00
        -11   -1    0    0    0    0  0.00000000000E+00  0.00000000000E+00  0.45593999997E+02  0.45594000000E+02  0.51100000000E-03 0.  1.
         11   -1    0    0    0    0 -0.00000000000E+00 -0.00000000000E+00 -0.45593999997E+02  0.45594000000E+02  0.51100000000E-03 0. -1.
    9900012    2    1    2    0    0 -0.17470737599E+02  0.22797016692E+02 -0.32537557100E+02  0.47787271155E+02  0.20000000502E+02 0.  0.
        -12    1    1    2    0    0  0.17470737599E+02 -0.22797016692E+02  0.32537557100E+02  0.43400728845E+02  0.00000000000E+00 0.  1.
         11    1    3    3    0    0  0.12034806383E+01  0.47380759481E+01 -0.64996186118E+01  0.81328206483E+01  0.51100000000E-03 0. -1.
        -11    1    3    3    0    0 -0.40629095540E+01  0.11811131647E+02 -0.54008657720E+01  0.13608064380E+02  0.51100000000E-03 0.  1.
         12    1    3    3    0    0 -0.14611308683E+02  0.62478090970E+01 -0.20637072716E+02  0.26046386126E+02  0.00000000000E+00 0. -1.
</event>
<event>
 7    1  0.4430431E-010  0.4778726E+02  0.7816164E-02  0.1312668E+00
        -11   -1    0    0    0    0  0.00000000000E+00  0.00000000000E+00  0.45593999997E+02  0.45594000000E+02  0.51100000000E-03 0. -1.
         11   -1    0    0    0    0 -0.00000000000E+00 -0.00000000000E+00 -0.45593999997E+02  0.45594000000E+02  0.51100000000E-03 0.  1.
    9900012    2    1    2    0    0  0.38583558794E+02  0.13446176491E+02  0.14633289977E+02  0.47787264441E+02  0.19999969894E+02 0.  0.
        -12    1    1    2    0    0 -0.38583558794E+02 -0.13446176491E+02 -0.14633289977E+02  0.43400735559E+02  0.00000000000E+00 0.  1.
         11    1    3    3    0    0  0.42571106565E+01 -0.24594837648E+01  0.33592927065E+01  0.59545696134E+01  0.51100000000E-03 0. -1.
        -11    1    3    3    0    0 -0.88535049728E+00  0.20752493194E+01 -0.28855023462E+00  0.22745915545E+01  0.51100000000E-03 0.  1.
         12    1    3    3    0    0  0.35211798635E+02  0.13830410936E+02  0.11562547505E+02  0.39558103274E+02  0.00000000000E+00 0. -1.
</event>
<event>
 7    1  0.4430431E-010  0.4778727E+02  0.7816164E-02  0.1312668E+00
        -11   -1    0    0    0    0  0.00000000000E+00  0.00000000000E+00  0.45593999997E+02  0.45594000000E+02  0.51100000000E-03 0.  1.
         11   -1    0    0    0    0 -0.00000000000E+00 -0.00000000000E+00 -0.45593999997E+02  0.45594000000E+02  0.51100000000E-03 0. -1.
    9900012    2    1    2    0    0 -0.30122610649E+02  0.22287801652E+02 -0.21897621643E+02  0.47787267191E+02  0.19999982429E+02 0.  0.
        -12    1    1    2    0    0  0.30122610649E+02 -0.22287801652E+02  0.21897621643E+02  0.43400732809E+02  0.00000000000E+00 0.  1.
         11    1    3    3    0    0 -0.72962772902E+01  0.65448576468E+01 -0.26047642931E+01  0.10141776038E+02  0.51100000000E-03 0. -1.
        -11    1    3    3    0    0 -0.60920220121E+01  0.13865298543E+02 -0.64188834137E+01  0.16448747685E+02  0.51100000000E-03 0.  1.
         12    1    3    3    0    0 -0.16734311346E+02  0.18776454622E+01 -0.12873973937E+02  0.21196743468E+02  0.00000000000E+00 0. -1.
</event>
<event>
 7    1  0.4430431E-010  0.4778727E+02  0.7816164E-02  0.1312668E+00
        -11   -1    0    0    0    0  0.00000000000E+00  0.00000000000E+00  0.45593999997E+02  0.45594000000E+02  0.51100000000E-03 0.  1.
         11   -1    0    0    0    0 -0.00000000000E+00 -0.00000000000E+00 -0.45593999997E+02  0.45594000000E+02  0.51100000000E-03 0. -1.
    9900012    2    1    2    0    0  0.13333652801E+02 -0.20271422915E+02 -0.35984807954E+02  0.47787270888E+02  0.19999999286E+02 0.  0.
        -12    1    1    2    0    0 -0.13333652801E+02  0.20271422915E+02  0.35984807954E+02  0.43400729112E+02  0.00000000000E+00 0.  1.
         11    1    3    3    0    0 -0.37479183060E+00  0.70169462764E+00 -0.25054715745E+01  0.26287320781E+01  0.51100000000E-03 0. -1.
        -11    1    3    3    0    0 -0.31079446904E+01 -0.17307441115E+00 -0.14627926221E+01  0.34393367771E+01  0.51100000000E-03 0.  1.
         12    1    3    3    0    0  0.16816389322E+02 -0.20800043131E+02 -0.32016543757E+02  0.41719202033E+02  0.00000000000E+00 0. -1.
</event>
<event>
 7    1  0.4430431E-010  0.4778727E+02  0.7816164E-02  0.1312668E+00
        -11   -1    0    0    0    0  0.00000000000E+00  0.00000000000E+00  0.45593999997E+02  0.45594000000E+02  0.51100000000E-03 0.  1.
         11   -1    0    0    0    0 -0.00000000000E+00 -0.00000000000E+00 -0.45593999997E+02  0.45594000000E+02  0.51100000000E-03 0. -1.
    9900012    2    1    2    0    0 -0.26789770976E+02 -0.17340403145E+02 -0.29414995024E+02  0.47787270254E+02  0.19999996397E+02 0.  0.
        -12    1    1    2    0    0  0.26789770976E+02  0.17340403145E+02  0.29414995024E+02  0.43400729746E+02  0.00000000000E+00 0.  1.
         11    1    3    3    0    0 -0.91771628830E+01 -0.19074940941E+01 -0.44624446573E+01  0.10381342152E+02  0.51100000000E-03 0. -1.
        -11    1    3    3    0    0 -0.70024286633E+01 -0.72723875939E+01 -0.12336408732E+01  0.10170717702E+02  0.51100000000E-03 0.  1.
         12    1    3    3    0    0 -0.10610179430E+02 -0.81605214570E+01 -0.23718909494E+02  0.27235210400E+02  0.00000000000E+00 0. -1.
</event>
<event>
 7    1  0.4430431E-010  0.4778726E+02  0.7816164E-02  0.1312668E+00
        -11   -1    0    0    0    0  0.00000000000E+00  0.00000000000E+00  0.45593999997E+02  0.45594000000E+02  0.51100000000E-03 0.  1.
         11   -1    0    0    0    0 -0.00000000000E+00 -0.00000000000E+00 -0.45593999997E+02  0.45594000000E+02  0.51100000000E-03 0. -1.
    9900012    2    1    2    0    0  0.97792219357E+01  0.17007437643E+02 -0.38713537492E+02  0.47787261505E+02  0.19999956504E+02 0.  0.
        -12    1    1    2    0    0 -0.97792219357E+01 -0.17007437643E+02  0.38713537492E+02  0.43400738495E+02  0.00000000000E+00 0.  1.
         11    1    3    3    0    0  0.45190337012E+01  0.15908593043E+02 -0.18961220899E+02  0.25160145000E+02  0.51100000000E-03 0. -1.
        -11    1    3    3    0    0 -0.22793686239E+00 -0.20932455632E+01 -0.25364007063E+00  0.21208408115E+01  0.51100000000E-03 0.  1.
         12    1    3    3    0    0  0.54881250969E+01  0.31920901630E+01 -0.19498676522E+02  0.20506275693E+02  0.00000000000E+00 0. -1.
</event>
<event>
 7    1  0.4430431E-010  0.4778728E+02  0.7816164E-02  0.1312668E+00
        -11   -1    0    0    0    0  0.00000000000E+00  0.00000000000E+00  0.45593999997E+02  0.45594000000E+02  0.51100000000E-03 0.  1.
         11   -1    0    0    0    0 -0.00000000000E+00 -0.00000000000E+00 -0.45593999997E+02  0.45594000000E+02  0.51100000000E-03 0. -1.
    9900012    2    1    2    0    0  0.17815689025E+02 -0.23313225568E+02 -0.31979957259E+02  0.47787275028E+02  0.20000018163E+02 0.  0.
        -12    1    1    2    0    0 -0.17815689025E+02  0.23313225568E+02  0.31979957259E+02  0.43400724972E+02  0.00000000000E+00 0.  1.
         11    1    3    3    0    0  0.11323019511E+02 -0.14084966401E+02 -0.91730855782E+01  0.20266784369E+02  0.51100000000E-03 0. -1.
        -11    1    3    3    0    0  0.68971079958E+01 -0.11733837688E+01 -0.77577299868E+01  0.10446497163E+02  0.51100000000E-03 0.  1.
        -12    1    3    3    0    0 -0.40443848219E+00 -0.80548753978E+01 -0.15049141694E+02  0.17073993496E+02  0.00000000000E+00 0.  1.
</event>
<event>
 7    1  0.4430431E-010  0.4778727E+02  0.7816164E-02  0.1312668E+00
        -11   -1    0    0    0    0  0.00000000000E+00  0.00000000000E+00  0.45593999997E+02  0.45594000000E+02  0.51100000000E-03 0. -1.
         11   -1    0    0    0    0 -0.00000000000E+00 -0.00000000000E+00 -0.45593999997E+02  0.45594000000E+02  0.51100000000E-03 0.  1.
    9900012    2    1    2    0    0  0.21008708253E+02 -0.33501971528E+00  0.37975591677E+02  0.47787267012E+02  0.19999981614E+02 0.  0.
        -12    1    1    2    0    0 -0.21008708253E+02  0.33501971528E+00 -0.37975591677E+02  0.43400732988E+02  0.00000000000E+00 0.  1.
         11    1    3    3    0    0 -0.61734255061E+00 -0.44922668852E+00  0.12259896974E+00  0.77327046431E+00  0.51100000000E-03 0.  1.
        -11    1    3    3    0    0 -0.24072750890E+01 -0.27785221061E+01  0.50012462423E+01  0.62070623233E+01  0.51100000000E-03 0. -1.
         12    1    3    3    0    0  0.24033325892E+02  0.28927290793E+01  0.32851746465E+02  0.40806934224E+02  0.00000000000E+00 0. -1.
</event>
<event>
 7    1  0.4430431E-010  0.4778727E+02  0.7816164E-02  0.1312668E+00
        -11   -1    0    0    0    0  0.00000000000E+00  0.00000000000E+00  0.45593999997E+02  0.45594000000E+02  0.51100000000E-03 0. -1.
         11   -1    0    0    0    0 -0.00000000000E+00 -0.00000000000E+00 -0.45593999997E+02  0.45594000000E+02  0.51100000000E-03 0.  1.
    9900012    2    1    2    0    0 -0.78486418356E+01  0.19032757899E+02  0.38207017746E+02  0.47787271239E+02  0.20000000887E+02 0.  0.
        -12    1    1    2    0    0  0.78486418356E+01 -0.19032757899E+02 -0.38207017746E+02  0.43400728761E+02  0.00000000000E+00 0.  1.
         11    1    3    3    0    0 -0.30430958971E+01 -0.96203144709E+00  0.17593491629E+02  0.17880628768E+02  0.51100000000E-03 0. -1.
        -11    1    3    3    0    0  0.33764266172E+00  0.56654463858E+01  0.94671690651E+01  0.11038051263E+02  0.51100000000E-03 0.  1.
         12    1    3    3    0    0 -0.51431886003E+01  0.14329342961E+02  0.11146357052E+02  0.18868591208E+02  0.00000000000E+00 0. -1.
</event>
<event>
 7    1  0.4430431E-010  0.4778726E+02  0.7816164E-02  0.1312668E+00
        -11   -1    0    0    0    0  0.00000000000E+00  0.00000000000E+00  0.45593999997E+02  0.45594000000E+02  0.51100000000E-03 0. -1.
         11   -1    0    0    0    0 -0.00000000000E+00 -0.00000000000E+00 -0.45593999997E+02  0.45594000000E+02  0.51100000000E-03 0.  1.
    9900012    2    1    2    0    0  0.21180794892E+02  0.37846427500E+02 -0.16266379296E+01  0.47787261553E+02  0.19999956725E+02 0.  0.
        -12    1    1    2    0    0 -0.21180794892E+02 -0.37846427500E+02  0.16266379296E+01  0.43400738447E+02  0.00000000000E+00 0.  1.
         11    1    3    3    0    0 -0.91398466062E+00 -0.39754451154E+00  0.21725618142E+01  0.23902792088E+01  0.51100000000E-03 0.  1.
        -11    1    3    3    0    0  0.10346780143E+02  0.12525032044E+02  0.24769694726E+01  0.16433735578E+02  0.51100000000E-03 0. -1.
         12    1    3    3    0    0  0.11747999409E+02  0.25718939968E+02 -0.62761692163E+01  0.28963246766E+02  0.00000000000E+00 0. -1.
</event>
<event>
 7    1  0.4430431E-010  0.4778727E+02  0.7816164E-02  0.1312668E+00
        -11   -1    0    0    0    0  0.00000000000E+00  0.00000000000E+00  0.45593999997E+02  0.45594000000E+02  0.51100000000E-03 0.  1.
         11   -1    0    0    0    0 -0.00000000000E+00 -0.00000000000E+00 -0.45593999997E+02  0.45594000000E+02  0.51100000000E-03 0. -1.
    9900012    2    1    2    0    0  0.32786019606E+02 -0.27521939414E+02  0.71584539444E+01  0.47787266209E+02  0.19999977953E+02 0.  0.
        -12    1    1    2    0    0 -0.32786019606E+02  0.27521939414E+02 -0.71584539444E+01  0.43400733791E+02  0.00000000000E+00 0.  1.
         11    1    3    3    0    0  0.25475991598E+02 -0.16004287276E+02  0.11661260566E+02  0.32266830606E+02  0.51100000000E-03 0.  1.
        -11    1    3    3    0    0  0.36876177215E+01 -0.60469072204E+01  0.74078140253E+00  0.71212617379E+01  0.51100000000E-03 0. -1.
        -12    1    3    3    0    0  0.36224102865E+01 -0.54707449177E+01 -0.52435880245E+01  0.83991738646E+01  0.00000000000E+00 0.  1.
</event>
<event>
 7    1  0.4430431E-010  0.4778727E+02  0.7816164E-02  0.1312668E+00
        -11   -1    0    0    0    0  0.00000000000E+00  0.00000000000E+00  0.45593999997E+02  0.45594000000E+02  0.51100000000E-03 0.  1.
         11   -1    0    0    0    0 -0.00000000000E+00 -0.00000000000E+00 -0.45593999997E+02  0.45594000000E+02  0.51100000000E-03 0. -1.
    9900012    2    1    2    0    0 -0.27586390544E+02  0.92246359227E+01 -0.32210565086E+02  0.47787270118E+02  0.19999995775E+02 0.  0.
        -12    1    1    2    0    0  0.27586390544E+02 -0.92246359227E+01  0.32210565086E+02  0.43400729882E+02  0.00000000000E+00 0.  1.
         11    1    3    3    0    0 -0.22125847808E+02  0.11271892584E+02 -0.26592195498E+02  0.36383424321E+02  0.51100000000E-03 0. -1.
        -11    1    3    3    0    0 -0.25890798753E+01  0.10889728346E+00 -0.70705469234E+01  0.75304599644E+01  0.51100000000E-03 0.  1.
        -12    1    3    3    0    0 -0.28714628609E+01 -0.21561539450E+01  0.14521773352E+01  0.38733858327E+01  0.00000000000E+00 0.  1.
</event>
<event>
 7    1  0.4430431E-010  0.4778727E+02  0.7816164E-02  0.1312668E+00
        -11   -1    0    0    0    0  0.00000000000E+00  0.00000000000E+00  0.45593999997E+02  0.45594000000E+02  0.51100000000E-03 0.  1.
         11   -1    0    0    0    0 -0.00000000000E+00 -0.00000000000E+00 -0.45593999997E+02  0.45594000000E+02  0.51100000000E-03 0. -1.
    9900012    2    1    2    0    0  0.22626453582E+02 -0.10939127947E+02 -0.35383643268E+02  0.47787272669E+02  0.20000007408E+02 0.  0.
        -12    1    1    2    0    0 -0.22626453582E+02  0.10939127947E+02  0.35383643268E+02  0.43400727331E+02  0.00000000000E+00 0.  1.
         11    1    3    3    0    0  0.89449331361E+01 -0.68060179441E+01 -0.70929232255E+01  0.13290721170E+02  0.51100000000E-03 0. -1.
        -11    1    3    3    0    0  0.15491858554E+02 -0.62755881164E+01 -0.22180493873E+02  0.27773278459E+02  0.51100000000E-03 0.  1.
        -12    1    3    3    0    0 -0.18103381085E+01  0.21424781133E+01 -0.61102261696E+01  0.67232730404E+01  0.00000000000E+00 0.  1.
</event>
<event>
 7    1  0.4430431E-010  0.4778727E+02  0.7816164E-02  0.1312668E+00
        -11   -1    0    0    0    0  0.00000000000E+00  0.00000000000E+00  0.45593999997E+02  0.45594000000E+02  0.51100000000E-03 0.  1.
         11   -1    0    0    0    0 -0.00000000000E+00 -0.00000000000E+00 -0.45593999997E+02  0.45594000000E+02  0.51100000000E-03 0. -1.
    9900012    2    1    2    0    0  0.30807411101E+02 -0.12324699525E+02 -0.27975497595E+02  0.47787271172E+02  0.20000000580E+02 0.  0.
        -12    1    1    2    0    0 -0.30807411101E+02  0.12324699525E+02  0.27975497595E+02  0.43400728828E+02  0.00000000000E+00 0.  1.
         11    1    3    3    0    0  0.14585140248E+01  0.27345709376E+01 -0.30972587576E+01  0.43815697468E+01  0.51100000000E-03 0.  1.
        -11    1    3    3    0    0  0.13468743567E+02 -0.29366746913E+01 -0.36614566782E+01  0.14263147506E+02  0.51100000000E-03 0. -1.
        -12    1    3    3    0    0  0.15880153510E+02 -0.12122595771E+02 -0.21216782159E+02  0.29142553919E+02  0.00000000000E+00 0.  1.
</event>
<event>
 7    1  0.4430431E-010  0.4778727E+02  0.7816164E-02  0.1312668E+00
        -11   -1    0    0    0    0  0.00000000000E+00  0.00000000000E+00  0.45593999997E+02  0.45594000000E+02  0.51100000000E-03 0.  1.
         11   -1    0    0    0    0 -0.00000000000E+00 -0.00000000000E+00 -0.45593999997E+02  0.45594000000E+02  0.51100000000E-03 0. -1.
    9900012    2    1    2    0    0 -0.19602687821E+02  0.26698711650E+02 -0.28045268855E+02  0.47787266380E+02  0.19999978735E+02 0.  0.
        -12    1    1    2    0    0  0.19602687821E+02 -0.26698711650E+02  0.28045268855E+02  0.43400733620E+02  0.00000000000E+00 0.  1.
         11    1    3    3    0    0 -0.10996359442E+02  0.34440475956E+01 -0.14959107874E+02  0.18882698257E+02  0.51100000000E-03 0. -1.
        -11    1    3    3    0    0 -0.24951026988E+01  0.19863570486E+01  0.13059118922E-01  0.31892511039E+01  0.51100000000E-03 0.  1.
        -12    1    3    3    0    0 -0.61112256804E+01  0.21268307006E+02 -0.13099220100E+02  0.25715317020E+02  0.00000000000E+00 0.  1.
</event>
<event>
 7    1  0.4430431E-010  0.4778727E+02  0.7816164E-02  0.1312668E+00
        -11   -1    0    0    0    0  0.00000000000E+00  0.00000000000E+00  0.45593999997E+02  0.45594000000E+02  0.51100000000E-03 0.  1.
         11   -1    0    0    0    0 -0.00000000000E+00 -0.00000000000E+00 -0.45593999997E+02  0.45594000000E+02  0.51100000000E-03 0. -1.
    9900012    2    1    2    0    0  0.79081681465E+00 -0.10135858952E+02 -0.42193154231E+02  0.47787270837E+02  0.19999999055E+02 0.  0.
        -12    1    1    2    0    0 -0.79081681465E+00  0.10135858952E+02  0.42193154231E+02  0.43400729163E+02  0.00000000000E+00 0.  1.
         11    1    3    3    0    0 -0.58236288218E+01 -0.43829105466E+01 -0.21409255065E+02  0.22615940401E+02  0.51100000000E-03 0. -1.
        -11    1    3    3    0    0 -0.91939175383E-01  0.25095505642E+01 -0.99226323628E+00  0.27001635946E+01  0.51100000000E-03 0.  1.
         12    1    3    3    0    0  0.67063848118E+01 -0.82624989699E+01 -0.19791635929E+02  0.22471166841E+02  0.00000000000E+00 0. -1.
</event>
<event>
 7    1  0.4430431E-010  0.4778727E+02  0.7816164E-02  0.1312668E+00
        -11   -1    0    0    0    0  0.00000000000E+00  0.00000000000E+00  0.45593999997E+02  0.45594000000E+02  0.51100000000E-03 0. -1.
         11   -1    0    0    0    0 -0.00000000000E+00 -0.00000000000E+00 -0.45593999997E+02  0.45594000000E+02  0.51100000000E-03 0.  1.
    9900012    2    1    2    0    0  0.81743904292E+01 -0.39847227486E+02 -0.15132793500E+02  0.47787266869E+02  0.19999980962E+02 0.  0.
        -12    1    1    2    0    0 -0.81743904292E+01  0.39847227486E+02  0.15132793500E+02  0.43400733131E+02  0.00000000000E+00 0.  1.
         11    1    3    3    0    0 -0.12061425605E+01 -0.15831119735E+01 -0.74388885729E+00  0.21247104014E+01  0.51100000000E-03 0. -1.
        -11    1    3    3    0    0  0.37868297527E+01 -0.37325512041E+02 -0.13738527298E+02  0.39953486222E+02  0.51100000000E-03 0.  1.
        -12    1    3    3    0    0  0.55937032370E+01 -0.93860347156E+00 -0.65037734460E+00  0.57090702458E+01  0.00000000000E+00 0.  1.
</event>
<event>
 7    1  0.4430431E-010  0.4778728E+02  0.7816164E-02  0.1312668E+00
        -11   -1    0    0    0    0  0.00000000000E+00  0.00000000000E+00  0.45593999997E+02  0.45594000000E+02  0.51100000000E-03 0. -1.
         11   -1    0    0    0    0 -0.00000000000E+00 -0.00000000000E+00 -0.45593999997E+02  0.45594000000E+02  0.51100000000E-03 0.  1.
    9900012    2    1    2    0    0  0.31873206249E+02 -0.29175059990E+02  0.40666047085E+01  0.47787277934E+02  0.20000031411E+02 0.  0.
        -12    1    1    2    0    0 -0.31873206249E+02  0.29175059990E+02 -0.40666047085E+01  0.43400722066E+02  0.00000000000E+00 0.  1.
         11    1    3    3    0    0  0.85622576720E+01 -0.13080338371E+02  0.87030451237E+01  0.17892750013E+02  0.51100000000E-03 0. -1.
        -11    1    3    3    0    0  0.12537711603E+02 -0.12205220808E+02  0.10572710283E+00  0.17497794310E+02  0.51100000000E-03 0.  1.
         12    1    3    3    0    0  0.10773236974E+02 -0.38895008110E+01 -0.47421675180E+01  0.12396733611E+02  0.00000000000E+00 0. -1.
</event>
<event>
 7    1  0.4430431E-010  0.4778727E+02  0.7816164E-02  0.1312668E+00
        -11   -1    0    0    0    0  0.00000000000E+00  0.00000000000E+00  0.45593999997E+02  0.45594000000E+02  0.51100000000E-03 0.  1.
         11   -1    0    0    0    0 -0.00000000000E+00 -0.00000000000E+00 -0.45593999997E+02  0.45594000000E+02  0.51100000000E-03 0. -1.
    9900012    2    1    2    0    0  0.24736477524E+01 -0.32544050964E+01 -0.43207791047E+02  0.47787270825E+02  0.19999999001E+02 0.  0.
        -12    1    1    2    0    0 -0.24736477524E+01  0.32544050964E+01  0.43207791047E+02  0.43400729175E+02  0.00000000000E+00 0.  1.
         11    1    3    3    0    0  0.30709489536E+01 -0.39726177213E+01 -0.29921866185E+02  0.30340245472E+02  0.51100000000E-03 0. -1.
        -11    1    3    3    0    0  0.59663119854E+00  0.18747672468E+01 -0.14959443935E+02  0.15088263124E+02  0.51100000000E-03 0.  1.
        -12    1    3    3    0    0 -0.11939323997E+01 -0.11565546218E+01  0.16735190726E+01  0.23587622294E+01  0.00000000000E+00 0.  1.
</event>
<event>
 7    1  0.4430431E-010  0.4778727E+02  0.7816164E-02  0.1312668E+00
        -11   -1    0    0    0    0  0.00000000000E+00  0.00000000000E+00  0.45593999997E+02  0.45594000000E+02  0.51100000000E-03 0.  1.
         11   -1    0    0    0    0 -0.00000000000E+00 -0.00000000000E+00 -0.45593999997E+02  0.45594000000E+02  0.51100000000E-03 0. -1.
    9900012    2    1    2    0    0 -0.31826678725E+01  0.16910522301E+02 -0.39843794994E+02  0.47787272601E+02  0.20000007096E+02 0.  0.
        -12    1    1    2    0    0  0.31826678725E+01 -0.16910522301E+02  0.39843794994E+02  0.43400727399E+02  0.00000000000E+00 0.  1.
         11    1    3    3    0    0 -0.66886171282E+01  0.13925591316E+02 -0.28762601339E+02  0.32648842685E+02  0.51100000000E-03 0.  1.
        -11    1    3    3    0    0  0.18315601471E+01 -0.19079099252E+01 -0.93001828762E+01  0.96689262406E+01  0.51100000000E-03 0. -1.
        -12    1    3    3    0    0  0.16743891086E+01  0.48928409105E+01 -0.17810107780E+01  0.54695036753E+01  0.00000000000E+00 0.  1.
</event>
<event>
 7    1  0.4430431E-010  0.4778727E+02  0.7816164E-02  0.1312668E+00
        -11   -1    0    0    0    0  0.00000000000E+00  0.00000000000E+00  0.45593999997E+02  0.45594000000E+02  0.51100000000E-03 0. -1.
         11   -1    0    0    0    0 -0.00000000000E+00 -0.00000000000E+00 -0.45593999997E+02  0.45594000000E+02  0.51100000000E-03 0.  1.
    9900012    2    1    2    0    0 -0.37454809551E+02 -0.17662956783E+02  0.12991559662E+02  0.47787269323E+02  0.19999992152E+02 0.  0.
        -12    1    1    2    0    0  0.37454809551E+02  0.17662956783E+02 -0.12991559662E+02  0.43400730677E+02  0.00000000000E+00 0.  1.
         11    1    3    3    0    0 -0.27469534448E+02 -0.70581992554E+01  0.11580272756E+02  0.30634885619E+02  0.51100000000E-03 0. -1.
        -11    1    3    3    0    0 -0.11004065713E+02 -0.63535805965E+01  0.72463640876E+00  0.12727236417E+02  0.51100000000E-03 0.  1.
        -12    1    3    3    0    0  0.10187906108E+01 -0.42511769310E+01  0.68665049738E+00  0.44251472872E+01  0.00000000000E+00 0.  1.
</event>
<event>
 7    1  0.4430431E-010  0.4778726E+02  0.7816164E-02  0.1312668E+00
        -11   -1    0    0    0    0  0.00000000000E+00  0.00000000000E+00  0.45593999997E+02  0.45594000000E+02  0.51100000000E-03 0.  1.
         11   -1    0    0    0    0 -0.00000000000E+00 -0.00000000000E+00 -0.45593999997E+02  0.45594000000E+02  0.51100000000E-03 0. -1.
    9900012    2    1    2    0    0 -0.37003959539E+02 -0.16390123390E+02 -0.15674658889E+02  0.47787261555E+02  0.19999956735E+02 0.  0.
        -12    1    1    2    0    0  0.37003959539E+02  0.16390123390E+02  0.15674658889E+02  0.43400738445E+02  0.00000000000E+00 0.  1.
         11    1    3    3    0    0 -0.86351708203E+00 -0.44599776341E+01  0.26731531895E+01  0.52709401897E+01  0.51100000000E-03 0. -1.
        -11    1    3    3    0    0 -0.96046423763E+01 -0.23153918989E+01 -0.26874038467E+01  0.10238766260E+02  0.51100000000E-03 0.  1.
         12    1    3    3    0    0 -0.26535800080E+02 -0.96147538569E+01 -0.15660408232E+02  0.32277555106E+02  0.00000000000E+00 0. -1.
</event>
<event>
 7    1  0.4430431E-010  0.4778727E+02  0.7816164E-02  0.1312668E+00
        -11   -1    0    0    0    0  0.00000000000E+00  0.00000000000E+00  0.45593999997E+02  0.45594000000E+02  0.51100000000E-03 0.  1.
         11   -1    0    0    0    0 -0.00000000000E+00 -0.00000000000E+00 -0.45593999997E+02  0.45594000000E+02  0.51100000000E-03 0. -1.
    9900012    2    1    2    0    0  0.37300272262E+02 -0.17764321103E+02 -0.13294430055E+02  0.47787270910E+02  0.19999999387E+02 0.  0.
        -12    1    1    2    0    0 -0.37300272262E+02  0.17764321103E+02  0.13294430055E+02  0.43400729090E+02  0.00000000000E+00 0.  1.
         11    1    3    3    0    0  0.17385434909E+02 -0.15337651281E+02 -0.46638264128E+01  0.23648428507E+02  0.51100000000E-03 0. -1.
        -11    1    3    3    0    0  0.13492385970E+02 -0.63958600992E+01 -0.48815486761E+01  0.15709265524E+02  0.51100000000E-03 0.  1.
        -12    1    3    3    0    0  0.64224513829E+01  0.39691902766E+01 -0.37490549656E+01  0.84295768787E+01  0.00000000000E+00 0.  1.
</event>
<event>
 7    1  0.4430431E-010  0.4778727E+02  0.7816164E-02  0.1312668E+00
        -11   -1    0    0    0    0  0.00000000000E+00  0.00000000000E+00  0.45593999997E+02  0.45594000000E+02  0.51100000000E-03 0. -1.
         11   -1    0    0    0    0 -0.00000000000E+00 -0.00000000000E+00 -0.45593999997E+02  0.45594000000E+02  0.51100000000E-03 0.  1.
    9900012    2    1    2    0    0 -0.25017243721E+00 -0.37261789152E+02  0.22251289818E+02  0.47787269411E+02  0.19999992555E+02 0.  0.
        -12    1    1    2    0    0  0.25017243721E+00  0.37261789152E+02 -0.22251289818E+02  0.43400730589E+02  0.00000000000E+00 0.  1.
         11    1    3    3    0    0 -0.47529622440E+01 -0.13049034409E+02  0.69737742406E+01  0.15540317774E+02  0.51100000000E-03 0. -1.
        -11    1    3    3    0    0  0.13389194454E+01 -0.17077833952E+02  0.25529904419E+01  0.17319436429E+02  0.51100000000E-03 0.  1.
         12    1    3    3    0    0  0.31638703614E+01 -0.71349207905E+01  0.12724525136E+02  0.14927515208E+02  0.00000000000E+00 0. -1.
</event>
<event>
 7    1  0.4430431E-010  0.4778728E+02  0.7816164E-02  0.1312668E+00
        -11   -1    0    0    0    0  0.00000000000E+00  0.00000000000E+00  0.45593999997E+02  0.45594000000E+02  0.51100000000E-03 0.  1.
         11   -1    0    0    0    0 -0.00000000000E+00 -0.00000000000E+00 -0.45593999997E+02  0.45594000000E+02  0.51100000000E-03 0. -1.
    9900012    2    1    2    0    0  0.12138517172E+02  0.13572541879E+02 -0.39396256672E+02  0.47787279592E+02  0.20000038972E+02 0.  0.
        -12    1    1    2    0    0 -0.12138517172E+02 -0.13572541879E+02  0.39396256672E+02  0.43400720408E+02  0.00000000000E+00 0.  1.
         11    1    3    3    0    0  0.32191804629E+01  0.51566454138E+01 -0.13417679106E+02  0.14730520277E+02  0.51100000000E-03 0. -1.
        -11    1    3    3    0    0 -0.18709504554E+01 -0.36395914093E+01 -0.36562932602E+01  0.54877647452E+01  0.51100000000E-03 0.  1.
        -12    1    3    3    0    0  0.10790287165E+02  0.12055487874E+02 -0.22322284305E+02  0.27568994570E+02  0.00000000000E+00 0.  1.
</event>
<event>
 7    1  0.4430431E-010  0.4778727E+02  0.7816164E-02  0.1312668E+00
        -11   -1    0    0    0    0  0.00000000000E+00  0.00000000000E+00  0.45593999997E+02  0.45594000000E+02  0.51100000000E-03 0.  1.
         11   -1    0    0    0    0 -0.00000000000E+00 -0.00000000000E+00 -0.45593999997E+02  0.45594000000E+02  0.51100000000E-03 0. -1.
    9900012    2    1    2    0    0  0.27081120572E+02 -0.64618614781E+01 -0.33293855482E+02  0.47787267770E+02  0.19999985072E+02 0.  0.
        -12    1    1    2    0    0 -0.27081120572E+02  0.64618614781E+01  0.33293855482E+02  0.43400732230E+02  0.00000000000E+00 0.  1.
         11    1    3    3    0    0  0.19887103803E+02 -0.73987167391E+00 -0.25158587170E+02  0.32078011416E+02  0.51100000000E-03 0. -1.
        -11    1    3    3    0    0  0.96072215535E+01 -0.49019723056E+01 -0.73135365642E+01  0.13031341289E+02  0.51100000000E-03 0.  1.
         12    1    3    3    0    0 -0.24132047842E+01 -0.82001749863E+00 -0.82173174743E+00  0.26779150646E+01  0.00000000000E+00 0. -1.
</event>
<event>
 7    1  0.4430431E-010  0.4778727E+02  0.7816164E-02  0.1312668E+00
        -11   -1    0    0    0    0  0.00000000000E+00  0.00000000000E+00  0.45593999997E+02  0.45594000000E+02  0.51100000000E-03 0.  1.
         11   -1    0    0    0    0 -0.00000000000E+00 -0.00000000000E+00 -0.45593999997E+02  0.45594000000E+02  0.51100000000E-03 0. -1.
    9900012    2    1    2    0    0  0.10543626489E+02 -0.24284286242E+02 -0.34390822308E+02  0.47787271010E+02  0.19999999842E+02 0.  0.
        -12    1    1    2    0    0 -0.10543626489E+02  0.24284286242E+02  0.34390822308E+02  0.43400728990E+02  0.00000000000E+00 0.  1.
         11    1    3    3    0    0 -0.11621284849E+00  0.99144094872E+00 -0.19805708908E+00  0.10176873059E+01  0.51100000000E-03 0. -1.
        -11    1    3    3    0    0 -0.11253278451E+01  0.11640192844E+01  0.39523641966E+00  0.16665880541E+01  0.51100000000E-03 0.  1.
         12    1    3    3    0    0  0.11785167183E+02 -0.26439746475E+02 -0.34588001639E+02  0.45102995650E+02  0.00000000000E+00 0. -1.
</event>
<event>
 7    1  0.5282735E-010  0.4778727E+02  0.7816164E-02  0.1312668E+00
        -11   -1    0    0    0    0  0.00000000000E+00  0.00000000000E+00  0.45593999997E+02  0.45594000000E+02  0.51100000000E-03 0. -1.
         11   -1    0    0    0    0 -0.00000000000E+00 -0.00000000000E+00 -0.45593999997E+02  0.45594000000E+02  0.51100000000E-03 0.  1.
    9900012    2    1    2    0    0  0.11125548503E+02  0.32739107397E+02  0.26229685651E+02  0.47787269684E+02  0.19999993795E+02 0.  0.
        -12    1    1    2    0    0 -0.11125548503E+02 -0.32739107397E+02 -0.26229685651E+02  0.43400730316E+02  0.00000000000E+00 0.  1.
         11    1    3    3    0    0  0.17172742949E+01  0.18239948602E+02  0.14621812855E+02  0.23440182752E+02  0.51100000000E-03 0. -1.
        -11    1    3    3    0    0 -0.27889476877E+01  0.53410953318E+01  0.21363854651E+01  0.63929392039E+01  0.51100000000E-03 0.  1.
         12    1    3    3    0    0  0.12197221896E+02  0.91580634629E+01  0.94714873309E+01  0.17954147728E+02  0.00000000000E+00 0. -1.
</event>
<event>
 7    1  0.4430431E-010  0.4778730E+02  0.7816164E-02  0.1312668E+00
        -11   -1    0    0    0    0  0.00000000000E+00  0.00000000000E+00  0.45593999997E+02  0.45594000000E+02  0.51100000000E-03 0.  1.
         11   -1    0    0    0    0 -0.00000000000E+00 -0.00000000000E+00 -0.45593999997E+02  0.45594000000E+02  0.51100000000E-03 0. -1.
    9900012    2    1    2    0    0  0.34228265553E+01  0.43143773285E+02 -0.32434561096E+01  0.47787298135E+02  0.20000123515E+02 0.  0.
        -12    1    1    2    0    0 -0.34228265553E+01 -0.43143773285E+02  0.32434561096E+01  0.43400701865E+02  0.00000000000E+00 0.  1.
         11    1    3    3    0    0 -0.36614757456E+01  0.11291731977E+02 -0.12674545001E+01  0.11938008915E+02  0.51100000000E-03 0. -1.
        -11    1    3    3    0    0  0.18995494827E+01  0.43214163243E+01  0.51056897829E+01  0.69534880244E+01  0.51100000000E-03 0.  1.
         12    1    3    3    0    0  0.51847528183E+01  0.27530624983E+02 -0.70816913924E+01  0.28895801195E+02  0.00000000000E+00 0. -1.
</event>
<event>
 7    1  0.4430431E-010  0.4778727E+02  0.7816164E-02  0.1312668E+00
        -11   -1    0    0    0    0  0.00000000000E+00  0.00000000000E+00  0.45593999997E+02  0.45594000000E+02  0.51100000000E-03 0.  1.
         11   -1    0    0    0    0 -0.00000000000E+00 -0.00000000000E+00 -0.45593999997E+02  0.45594000000E+02  0.51100000000E-03 0. -1.
    9900012    2    1    2    0    0  0.44177080995E+01  0.11482506613E+02 -0.41620417569E+02  0.47787271186E+02  0.20000000646E+02 0.  0.
        -12    1    1    2    0    0 -0.44177080995E+01 -0.11482506613E+02  0.41620417569E+02  0.43400728814E+02  0.00000000000E+00 0.  1.
         11    1    3    3    0    0  0.48174866908E+01  0.24351485719E+01 -0.12834779564E+02  0.13923709754E+02  0.51100000000E-03 0. -1.
        -11    1    3    3    0    0  0.23721955998E+01  0.74710518920E+01 -0.38649198116E+01  0.87396529535E+01  0.51100000000E-03 0.  1.
         12    1    3    3    0    0 -0.27719741911E+01  0.15763061488E+01 -0.24920718193E+02  0.25123908479E+02  0.00000000000E+00 0. -1.
</event>
<event>
 7    1  0.4430431E-010  0.4778727E+02  0.7816164E-02  0.1312668E+00
        -11   -1    0    0    0    0  0.00000000000E+00  0.00000000000E+00  0.45593999997E+02  0.45594000000E+02  0.51100000000E-03 0.  1.
         11   -1    0    0    0    0 -0.00000000000E+00 -0.00000000000E+00 -0.45593999997E+02  0.45594000000E+02  0.51100000000E-03 0. -1.
    9900012    2    1    2    0    0 -0.18905428300E+02 -0.24154712747E+02 -0.30704361171E+02  0.47787272333E+02  0.20000005875E+02 0.  0.
        -12    1    1    2    0    0  0.18905428300E+02  0.24154712747E+02  0.30704361171E+02  0.43400727667E+02  0.00000000000E+00 0.  1.
         11    1    3    3    0    0 -0.12608062093E+02 -0.14370276192E+02 -0.18637170269E+02  0.26698542722E+02  0.51100000000E-03 0. -1.
        -11    1    3    3    0    0 -0.95433058363E+01 -0.10136018312E+02 -0.87997165139E+01  0.16469625511E+02  0.51100000000E-03 0.  1.
        -12    1    3    3    0    0  0.32459396294E+01  0.35158175598E+00 -0.32674743880E+01  0.46191040998E+01  0.00000000000E+00 0.  1.
</event>
<event>
 7    1  0.4430431E-010  0.4778728E+02  0.7816164E-02  0.1312668E+00
        -11   -1    0    0    0    0  0.00000000000E+00  0.00000000000E+00  0.45593999997E+02  0.45594000000E+02  0.51100000000E-03 0. -1.
         11   -1    0    0    0    0 -0.00000000000E+00 -0.00000000000E+00 -0.45593999997E+02  0.45594000000E+02  0.51100000000E-03 0.  1.
    9900012    2    1    2    0    0  0.24644922896E+02 -0.13843682323E+02  0.32933311801E+02  0.47787276608E+02  0.20000025365E+02 0.  0.
        -12    1    1    2    0    0 -0.24644922896E+02  0.13843682323E+02 -0.32933311801E+02  0.43400723392E+02  0.00000000000E+00 0.  1.
         11    1    3    3    0    0  0.73637197720E+01 -0.75803606002E+01  0.99651408471E+01  0.14525504056E+02  0.51100000000E-03 0. -1.
        -11    1    3    3    0    0 -0.29693570718E+01 -0.91887854575E+00  0.32265541911E+01  0.44801865375E+01  0.51100000000E-03 0.  1.
        -12    1    3    3    0    0  0.20250560196E+02 -0.53444431771E+01  0.19741616762E+02  0.28781586014E+02  0.00000000000E+00 0.  1.
</event>
<event>
 7    1  0.4430431E-010  0.4778727E+02  0.7816164E-02  0.1312668E+00
        -11   -1    0    0    0    0  0.00000000000E+00  0.00000000000E+00  0.45593999997E+02  0.45594000000E+02  0.51100000000E-03 0.  1.
         11   -1    0    0    0    0 -0.00000000000E+00 -0.00000000000E+00 -0.45593999997E+02  0.45594000000E+02  0.51100000000E-03 0. -1.
    9900012    2    1    2    0    0 -0.13584052724E+02  0.38578292647E+02 -0.14519371261E+02  0.47787270815E+02  0.19999998956E+02 0.  0.
        -12    1    1    2    0    0  0.13584052724E+02 -0.38578292647E+02  0.14519371261E+02  0.43400729185E+02  0.00000000000E+00 0.  1.
         11    1    3    3    0    0 -0.84327105490E+01  0.21492663545E+02 -0.97127797614E+01  0.25047620334E+02  0.51100000000E-03 0. -1.
        -11    1    3    3    0    0 -0.76535054818E+01  0.16681870271E+02 -0.12821428985E+01  0.18398500824E+02  0.51100000000E-03 0.  1.
         12    1    3    3    0    0  0.25021633068E+01  0.40375883109E+00 -0.35244486007E+01  0.43411496572E+01  0.00000000000E+00 0. -1.
</event>
<event>
 7    1  0.4430431E-010  0.4778727E+02  0.7816164E-02  0.1312668E+00
        -11   -1    0    0    0    0  0.00000000000E+00  0.00000000000E+00  0.45593999997E+02  0.45594000000E+02  0.51100000000E-03 0. -1.
         11   -1    0    0    0    0 -0.00000000000E+00 -0.00000000000E+00 -0.45593999997E+02  0.45594000000E+02  0.51100000000E-03 0.  1.
    9900012    2    1    2    0    0 -0.24915461660E+02  0.99552481883E+01  0.34113575830E+02  0.47787271295E+02  0.20000001141E+02 0.  0.
        -12    1    1    2    0    0  0.24915461660E+02 -0.99552481883E+01 -0.34113575830E+02  0.43400728705E+02  0.00000000000E+00 0.  1.
         11    1    3    3    0    0 -0.12761987942E+02  0.10594444275E+02  0.28773753091E+02  0.33212037772E+02  0.51100000000E-03 0. -1.
        -11    1    3    3    0    0 -0.72173200060E+00 -0.17819613559E+01  0.15751327492E+01  0.24854228601E+01  0.51100000000E-03 0.  1.
         12    1    3    3    0    0 -0.11431741717E+02  0.11427652697E+01  0.37646899896E+01  0.12089810663E+02  0.00000000000E+00 0. -1.
</event>
<event>
 7    1  0.4430431E-010  0.4778727E+02  0.7816164E-02  0.1312668E+00
        -11   -1    0    0    0    0  0.00000000000E+00  0.00000000000E+00  0.45593999997E+02  0.45594000000E+02  0.51100000000E-03 0.  1.
         11   -1    0    0    0    0 -0.00000000000E+00 -0.00000000000E+00 -0.45593999997E+02  0.45594000000E+02  0.51100000000E-03 0. -1.
    9900012    2    1    2    0    0 -0.18605459793E+02 -0.16240782386E+01 -0.39176816926E+02  0.47787265575E+02  0.19999975061E+02 0.  0.
        -12    1    1    2    0    0  0.18605459793E+02  0.16240782386E+01  0.39176816926E+02  0.43400734425E+02  0.00000000000E+00 0.  1.
         11    1    3    3    0    0 -0.87928073315E+01 -0.36960769179E+01 -0.18543636349E+02  0.20852839008E+02  0.51100000000E-03 0. -1.
        -11    1    3    3    0    0 -0.45283734141E+00 -0.39983774916E+01 -0.12491054474E+02  0.13123205643E+02  0.51100000000E-03 0.  1.
        -12    1    3    3    0    0 -0.93598151202E+01  0.60703761708E+01 -0.81421261021E+01  0.13811220924E+02  0.00000000000E+00 0.  1.
</event>
<event>
 7    1  0.4430431E-010  0.4778724E+02  0.7816164E-02  0.1312668E+00
        -11   -1    0    0    0    0  0.00000000000E+00  0.00000000000E+00  0.45593999997E+02  0.45594000000E+02  0.51100000000E-03 0. -1.
         11   -1    0    0    0    0 -0.00000000000E+00 -0.00000000000E+00 -0.45593999997E+02  0.45594000000E+02  0.51100000000E-03 0.  1.
    9900012    2    1    2    0    0  0.31617707608E+00  0.42070637019E+02 -0.10657725484E+02  0.47787244480E+02  0.19999878884E+02 0.  0.
        -12    1    1    2    0    0 -0.31617707608E+00 -0.42070637019E+02  0.10657725484E+02  0.43400755520E+02  0.00000000000E+00 0.  1.
         11    1    3    3    0    0 -0.44277395792E+01  0.31115709435E+01 -0.26630642772E+01  0.60314727160E+01  0.51100000000E-03 0.  1.
        -11    1    3    3    0    0 -0.10675283552E+01  0.19044755292E+02 -0.87747737414E+01  0.20996165731E+02  0.51100000000E-03 0. -1.
         12    1    3    3    0    0  0.58114450104E+01  0.19914310784E+02  0.78011253432E+00  0.20759606034E+02  0.00000000000E+00 0. -1.
</event>
<event>
 7    1  0.4430431E-010  0.4778727E+02  0.7816164E-02  0.1312668E+00
        -11   -1    0    0    0    0  0.00000000000E+00  0.00000000000E+00  0.45593999997E+02  0.45594000000E+02  0.51100000000E-03 0.  1.
         11   -1    0    0    0    0 -0.00000000000E+00 -0.00000000000E+00 -0.45593999997E+02  0.45594000000E+02  0.51100000000E-03 0. -1.
    9900012    2    1    2    0    0 -0.39606563799E+02 -0.13777000748E+02 -0.11186486849E+02  0.47787272660E+02  0.20000007366E+02 0.  0.
        -12    1    1    2    0    0  0.39606563799E+02  0.13777000748E+02  0.11186486849E+02  0.43400727340E+02  0.00000000000E+00 0.  1.
         11    1    3    3    0    0 -0.13770231727E+02 -0.74272864642E+01 -0.46161285871E+01  0.16312342242E+02  0.51100000000E-03 0. -1.
        -11    1    3    3    0    0 -0.12734826347E+01 -0.24592517736E+01 -0.59898774255E+01  0.65991142694E+01  0.51100000000E-03 0.  1.
         12    1    3    3    0    0 -0.24562849438E+02 -0.38904625101E+01 -0.58048083653E+00  0.24875816148E+02  0.00000000000E+00 0. -1.
</event>
<event>
 7    1  0.4430431E-010  0.4778727E+02  0.7816164E-02  0.1312668E+00
        -11   -1    0    0    0    0  0.00000000000E+00  0.00000000000E+00  0.45593999997E+02  0.45594000000E+02  0.51100000000E-03 0.  1.
         11   -1    0    0    0    0 -0.00000000000E+00 -0.00000000000E+00 -0.45593999997E+02  0.45594000000E+02  0.51100000000E-03 0. -1.
    9900012    2    1    2    0    0 -0.36635566589E+02 -0.85984335773E+01 -0.21622339087E+02  0.47787270203E+02  0.19999996165E+02 0.  0.
        -12    1    1    2    0    0  0.36635566589E+02  0.85984335773E+01  0.21622339087E+02  0.43400729797E+02  0.00000000000E+00 0.  1.
         11    1    3    3    0    0 -0.17522596913E+01  0.44148172856E+00 -0.72499587734E+01  0.74717616812E+01  0.51100000000E-03 0. -1.
        -11    1    3    3    0    0 -0.66429272867E+01 -0.24999596907E+01  0.15176977475E+01  0.72582152149E+01  0.51100000000E-03 0.  1.
         12    1    3    3    0    0 -0.28240379611E+02 -0.65399556151E+01 -0.15890078061E+02  0.33057293307E+02  0.00000000000E+00 0. -1.
</event>
<event>
 7    1  0.4430431E-010  0.4778728E+02  0.7816164E-02  0.1312668E+00
        -11   -1    0    0    0    0  0.00000000000E+00  0.00000000000E+00  0.45593999997E+02  0.45594000000E+02  0.51100000000E-03 0. -1.
         11   -1    0    0    0    0 -0.00000000000E+00 -0.00000000000E+00 -0.45593999997E+02  0.45594000000E+02  0.51100000000E-03 0.  1.
    9900012    2    1    2    0    0 -0.15799233897E+02  0.13979536357E+01  0.40398667715E+02  0.47787280890E+02  0.20000044889E+02 0.  0.
        -12    1    1    2    0    0  0.15799233897E+02 -0.13979536357E+01 -0.40398667715E+02  0.43400719110E+02  0.00000000000E+00 0.  1.
         11    1    3    3    0    0 -0.44663551563E+01  0.57294909777E+01  0.20268404006E+02  0.21530991535E+02  0.51100000000E-03 0. -1.
        -11    1    3    3    0    0 -0.10035880711E+02  0.18866812091E-01  0.19137568330E+02  0.21609391001E+02  0.51100000000E-03 0.  1.
        -12    1    3    3    0    0 -0.12969980299E+01 -0.43504041541E+01  0.99269537899E+00  0.46468983537E+01  0.00000000000E+00 0.  1.
</event>
<event>
 7    1  0.4430431E-010  0.4778727E+02  0.7816164E-02  0.1312668E+00
        -11   -1    0    0    0    0  0.00000000000E+00  0.00000000000E+00  0.45593999997E+02  0.45594000000E+02  0.51100000000E-03 0. -1.
         11   -1    0    0    0    0 -0.00000000000E+00 -0.00000000000E+00 -0.45593999997E+02  0.45594000000E+02  0.51100000000E-03 0.  1.
    9900012    2    1    2    0    0  0.40725758942E+02 -0.14999903955E+02  0.19683331103E+00  0.47787270704E+02  0.19999998447E+02 0.  0.
        -12    1    1    2    0    0 -0.40725758942E+02  0.14999903955E+02 -0.19683331103E+00  0.43400729296E+02  0.00000000000E+00 0.  1.
         11    1    3    3    0    0  0.10020829392E+02 -0.95182233091E+00  0.46663292023E+00  0.10076742231E+02  0.51100000000E-03 0. -1.
        -11    1    3    3    0    0  0.92399954464E+01 -0.17192031994E+01  0.72165560431E+01  0.11849550914E+02  0.51100000000E-03 0.  1.
         12    1    3    3    0    0  0.21464934104E+02 -0.12328878425E+02 -0.74863556523E+01  0.25860977558E+02  0.00000000000E+00 0. -1.
</event>
<event>
 7    1  0.4430431E-010  0.4778727E+02  0.7816164E-02  0.1312668E+00
        -11   -1    0    0    0    0  0.00000000000E+00  0.00000000000E+00  0.45593999997E+02  0.45594000000E+02  0.51100000000E-03 0. -1.
         11   -1    0    0    0    0 -0.00000000000E+00 -0.00000000000E+00 -0.45593999997E+02  0.45594000000E+02  0.51100000000E-03 0.  1.
    9900012    2    1    2    0    0 -0.55596062012E+01  0.26733924967E+02  0.33734423178E+02  0.47787271061E+02  0.20000000078E+02 0.  0.
        -12    1    1    2    0    0  0.55596062012E+01 -0.26733924967E+02 -0.33734423178E+02  0.43400728939E+02  0.00000000000E+00 0.  1.
         11    1    3    3    0    0 -0.33590989761E+01  0.24661084107E+01  0.61497026400E+01  0.74285987538E+01  0.51100000000E-03 0. -1.
        -11    1    3    3    0    0 -0.42607801273E+01 -0.22100619230E+00  0.15045568203E+01  0.45240228245E+01  0.51100000000E-03 0.  1.
         12    1    3    3    0    0  0.20602729022E+01  0.24488822748E+02  0.26080163718E+02  0.35834649483E+02  0.00000000000E+00 0. -1.
</event>
<event>
 7    1  0.4430431E-010  0.4778727E+02  0.7816164E-02  0.1312668E+00
        -11   -1    0    0    0    0  0.00000000000E+00  0.00000000000E+00  0.45593999997E+02  0.45594000000E+02  0.51100000000E-03 0.  1.
         11   -1    0    0    0    0 -0.00000000000E+00 -0.00000000000E+00 -0.45593999997E+02  0.45594000000E+02  0.51100000000E-03 0. -1.
    9900012    2    1    2    0    0 -0.18521119317E+02 -0.52719466040E+01 -0.38894704980E+02  0.47787270084E+02  0.19999995619E+02 0.  0.
        -12    1    1    2    0    0  0.18521119317E+02  0.52719466040E+01  0.38894704980E+02  0.43400729916E+02  0.00000000000E+00 0.  1.
         11    1    3    3    0    0  0.97618443414E+00 -0.10485850599E+00 -0.32017468121E+01  0.33488974701E+01  0.51100000000E-03 0. -1.
        -11    1    3    3    0    0 -0.55990418537E+00 -0.16963455456E+01  0.16453334136E+01  0.24286216687E+01  0.51100000000E-03 0.  1.
         12    1    3    3    0    0 -0.18937399566E+02 -0.34707425524E+01 -0.37338291582E+02  0.42009750945E+02  0.00000000000E+00 0. -1.
</event>
<event>
 7    1  0.4430431E-010  0.4778727E+02  0.7816164E-02  0.1312668E+00
        -11   -1    0    0    0    0  0.00000000000E+00  0.00000000000E+00  0.45593999997E+02  0.45594000000E+02  0.51100000000E-03 0. -1.
         11   -1    0    0    0    0 -0.00000000000E+00 -0.00000000000E+00 -0.45593999997E+02  0.45594000000E+02  0.51100000000E-03 0.  1.
    9900012    2    1    2    0    0 -0.19209170803E+02  0.38492326066E+02 -0.57421339899E+01  0.47787268304E+02  0.19999987507E+02 0.  0.
        -12    1    1    2    0    0  0.19209170803E+02 -0.38492326066E+02  0.57421339899E+01  0.43400731696E+02  0.00000000000E+00 0.  1.
         11    1    3    3    0    0 -0.14381571113E+02  0.31884601114E+02 -0.40866464450E+01  0.35215877886E+02  0.51100000000E-03 0. -1.
        -11    1    3    3    0    0  0.12980234414E+01  0.59586823969E+01  0.30776966628E+00  0.61061840121E+01  0.51100000000E-03 0.  1.
        -12    1    3    3    0    0 -0.61256231322E+01  0.64904255532E+00 -0.19632572111E+01  0.64652064061E+01  0.00000000000E+00 0.  1.
</event>
<event>
 7    1  0.4430431E-010  0.4778727E+02  0.7816164E-02  0.1312668E+00
        -11   -1    0    0    0    0  0.00000000000E+00  0.00000000000E+00  0.45593999997E+02  0.45594000000E+02  0.51100000000E-03 0. -1.
         11   -1    0    0    0    0 -0.00000000000E+00 -0.00000000000E+00 -0.45593999997E+02  0.45594000000E+02  0.51100000000E-03 0.  1.
    9900012    2    1    2    0    0 -0.25822265470E+02 -0.16417383128E+02 -0.30778302764E+02  0.47787265170E+02  0.19999973216E+02 0.  0.
        -12    1    1    2    0    0  0.25822265470E+02  0.16417383128E+02  0.30778302764E+02  0.43400734830E+02  0.00000000000E+00 0.  1.
         11    1    3    3    0    0  0.11447383892E+01 -0.89180615715E+00  0.42935306870E-01  0.14517533893E+01  0.51100000000E-03 0. -1.
        -11    1    3    3    0    0 -0.38468333940E+01 -0.10098267527E+02 -0.85780414001E+01  0.13796953604E+02  0.51100000000E-03 0.  1.
        -12    1    3    3    0    0 -0.23120170465E+02 -0.54273094435E+01 -0.22243196670E+02  0.32538558177E+02  0.00000000000E+00 0.  1.
</event>
<event>
 7    1  0.4430431E-010  0.4778727E+02  0.7816164E-02  0.1312668E+00
        -11   -1    0    0    0    0  0.00000000000E+00  0.00000000000E+00  0.45593999997E+02  0.45594000000E+02  0.51100000000E-03 0.  1.
         11   -1    0    0    0    0 -0.00000000000E+00 -0.00000000000E+00 -0.45593999997E+02  0.45594000000E+02  0.51100000000E-03 0. -1.
    9900012    2    1    2    0    0  0.40001578520E+01 -0.87401529198E+01 -0.42322945320E+02  0.47787271475E+02  0.20000001965E+02 0.  0.
        -12    1    1    2    0    0 -0.40001578520E+01  0.87401529198E+01  0.42322945320E+02  0.43400728525E+02  0.00000000000E+00 0.  1.
         11    1    3    3    0    0 -0.49995299959E+01 -0.65453019312E+01 -0.28318087332E+02  0.29491530105E+02  0.51100000000E-03 0. -1.
        -11    1    3    3    0    0  0.20122042587E+01  0.21068057111E+01 -0.67151902648E+01  0.73199301114E+01  0.51100000000E-03 0.  1.
        -12    1    3    3    0    0  0.69874835892E+01 -0.43016566997E+01 -0.72896677233E+01  0.10975811259E+02  0.00000000000E+00 0.  1.
</event>
<event>
 7    1  0.4430431E-010  0.4778727E+02  0.7816164E-02  0.1312668E+00
        -11   -1    0    0    0    0  0.00000000000E+00  0.00000000000E+00  0.45593999997E+02  0.45594000000E+02  0.51100000000E-03 0.  1.
         11   -1    0    0    0    0 -0.00000000000E+00 -0.00000000000E+00 -0.45593999997E+02  0.45594000000E+02  0.51100000000E-03 0. -1.
    9900012    2    1    2    0    0  0.34285461768E+02 -0.20832123848E+02 -0.16557567258E+02  0.47787270673E+02  0.19999998306E+02 0.  0.
        -12    1    1    2    0    0 -0.34285461768E+02  0.20832123848E+02  0.16557567258E+02  0.43400729327E+02  0.00000000000E+00 0.  1.
         11    1    3    3    0    0  0.54290984124E+01 -0.50865860288E+01 -0.22210979499E+01  0.77641318487E+01  0.51100000000E-03 0. -1.
        -11    1    3    3    0    0  0.45401657959E+01 -0.65902605901E+01 -0.11324064839E+02  0.13866473410E+02  0.51100000000E-03 0.  1.
        -12    1    3    3    0    0  0.24316197559E+02 -0.91552772287E+01 -0.30124044690E+01  0.26156665414E+02  0.00000000000E+00 0.  1.
</event>
<event>
 7    1  0.4430431E-010  0.4778727E+02  0.7816164E-02  0.1312668E+00
        -11   -1    0    0    0    0  0.00000000000E+00  0.00000000000E+00  0.45593999997E+02  0.45594000000E+02  0.51100000000E-03 0.  1.
         11   -1    0    0    0    0 -0.00000000000E+00 -0.00000000000E+00 -0.45593999997E+02  0.45594000000E+02  0.51100000000E-03 0. -1.
    9900012    2    1    2    0    0  0.32822035319E+02  0.14292995935E+02 -0.24536660967E+02  0.47787268822E+02  0.19999989869E+02 0.  0.
        -12    1    1    2    0    0 -0.32822035319E+02 -0.14292995935E+02  0.24536660967E+02  0.43400731178E+02  0.00000000000E+00 0.  1.
         11    1    3    3    0    0  0.18374019819E+02  0.14387573724E+01 -0.13817587571E+02  0.23034764023E+02  0.51100000000E-03 0. -1.
        -11    1    3    3    0    0  0.95010296939E+01  0.59691342144E+01 -0.11708471550E+02  0.16216918166E+02  0.51100000000E-03 0.  1.
        -12    1    3    3    0    0  0.49469858067E+01  0.68851043485E+01  0.98939815327E+00  0.85355866329E+01  0.00000000000E+00 0.  1.
</event>
<event>
 7    1  0.4430431E-010  0.4778727E+02  0.7816164E-02  0.1312668E+00
        -11   -1    0    0    0    0  0.00000000000E+00  0.00000000000E+00  0.45593999997E+02  0.45594000000E+02  0.51100000000E-03 0. -1.
         11   -1    0    0    0    0 -0.00000000000E+00 -0.00000000000E+00 -0.45593999997E+02  0.45594000000E+02  0.51100000000E-03 0.  1.
    9900012    2    1    2    0    0 -0.37507182815E+02 -0.15315423618E+02  0.15565102253E+02  0.47787269920E+02  0.19999994874E+02 0.  0.
        -12    1    1    2    0    0  0.37507182815E+02  0.15315423618E+02 -0.15565102253E+02  0.43400730080E+02  0.00000000000E+00 0.  1.
         11    1    3    3    0    0 -0.10376864365E+02  0.21954868002E+01  0.41502962473E+01  0.11389663540E+02  0.51100000000E-03 0. -1.
        -11    1    3    3    0    0 -0.37509839350E+01 -0.27530622497E+01 -0.26747895469E+01  0.53669108072E+01  0.51100000000E-03 0.  1.
         12    1    3    3    0    0 -0.23379334515E+02 -0.14757848168E+02  0.14089595553E+02  0.31030695573E+02  0.00000000000E+00 0. -1.
</event>
<event>
 7    1  0.4430431E-010  0.4778727E+02  0.7816164E-02  0.1312668E+00
        -11   -1    0    0    0    0  0.00000000000E+00  0.00000000000E+00  0.45593999997E+02  0.45594000000E+02  0.51100000000E-03 0. -1.
         11   -1    0    0    0    0 -0.00000000000E+00 -0.00000000000E+00 -0.45593999997E+02  0.45594000000E+02  0.51100000000E-03 0.  1.
    9900012    2    1    2    0    0 -0.23696219261E+02  0.18954521144E+01  0.36311429299E+02  0.47787269088E+02  0.19999991079E+02 0.  0.
        -12    1    1    2    0    0  0.23696219261E+02 -0.18954521144E+01 -0.36311429299E+02  0.43400730912E+02  0.00000000000E+00 0.  1.
         11    1    3    3    0    0 -0.16404173933E+02  0.96019259394E+00  0.20374752105E+02  0.26175358944E+02  0.51100000000E-03 0. -1.
        -11    1    3    3    0    0 -0.97357448393E+01 -0.27404122111E+01  0.12037269256E+02  0.15722291120E+02  0.51100000000E-03 0.  1.
        -12    1    3    3    0    0  0.24436995113E+01  0.36756717315E+01  0.38994079377E+01  0.58896190237E+01  0.00000000000E+00 0.  1.
</event>
<event>
 7    1  0.4430431E-010  0.4778727E+02  0.7816164E-02  0.1312668E+00
        -11   -1    0    0    0    0  0.00000000000E+00  0.00000000000E+00  0.45593999997E+02  0.45594000000E+02  0.51100000000E-03 0.  1.
         11   -1    0    0    0    0 -0.00000000000E+00 -0.00000000000E+00 -0.45593999997E+02  0.45594000000E+02  0.51100000000E-03 0. -1.
    9900012    2    1    2    0    0  0.82449890736E+01  0.12696556662E+02 -0.40674821095E+02  0.47787268819E+02  0.19999989855E+02 0.  0.
        -12    1    1    2    0    0 -0.82449890736E+01 -0.12696556662E+02  0.40674821095E+02  0.43400731181E+02  0.00000000000E+00 0.  1.
         11    1    3    3    0    0  0.17056105914E+01 -0.34438045576E+01 -0.11433096858E+02  0.12061699771E+02  0.51100000000E-03 0. -1.
        -11    1    3    3    0    0  0.56027443838E+01  0.28952032152E+01 -0.48573835054E+01  0.79603467932E+01  0.51100000000E-03 0.  1.
         12    1    3    3    0    0  0.93663409835E+00  0.13245158005E+02 -0.24384340731E+02  0.27765222255E+02  0.00000000000E+00 0. -1.
</event>
<event>
 7    1  0.4430431E-010  0.4778727E+02  0.7816164E-02  0.1312668E+00
        -11   -1    0    0    0    0  0.00000000000E+00  0.00000000000E+00  0.45593999997E+02  0.45594000000E+02  0.51100000000E-03 0.  1.
         11   -1    0    0    0    0 -0.00000000000E+00 -0.00000000000E+00 -0.45593999997E+02  0.45594000000E+02  0.51100000000E-03 0. -1.
    9900012    2    1    2    0    0  0.25388188818E-01 -0.46089909459E+01 -0.43155300681E+02  0.47787269373E+02  0.19999992378E+02 0.  0.
        -12    1    1    2    0    0 -0.25388188818E-01  0.46089909459E+01  0.43155300681E+02  0.43400730627E+02  0.00000000000E+00 0.  1.
         11    1    3    3    0    0 -0.42547198922E+01 -0.16258994178E+01 -0.86520054419E+01  0.97776985382E+01  0.51100000000E-03 0. -1.
        -11    1    3    3    0    0 -0.50553395466E+01 -0.39425433090E+00 -0.57416248241E+01  0.76601664662E+01  0.51100000000E-03 0.  1.
         12    1    3    3    0    0  0.93354476276E+01 -0.25888371972E+01 -0.28761670415E+02  0.30349404368E+02  0.00000000000E+00 0. -1.
</event>
<event>
 7    1  0.4430431E-010  0.4778727E+02  0.7816164E-02  0.1312668E+00
        -11   -1    0    0    0    0  0.00000000000E+00  0.00000000000E+00  0.45593999997E+02  0.45594000000E+02  0.51100000000E-03 0.  1.
         11   -1    0    0    0    0 -0.00000000000E+00 -0.00000000000E+00 -0.45593999997E+02  0.45594000000E+02  0.51100000000E-03 0. -1.
    9900012    2    1    2    0    0  0.15749582552E+02 -0.10814657504E+02 -0.38969442732E+02  0.47787266892E+02  0.19999981068E+02 0.  0.
        -12    1    1    2    0    0 -0.15749582552E+02  0.10814657504E+02  0.38969442732E+02  0.43400733108E+02  0.00000000000E+00 0.  1.
         11    1    3    3    0    0  0.15498213226E+02 -0.48114388200E+01 -0.12848943643E+02  0.20698790055E+02  0.51100000000E-03 0. -1.
        -11    1    3    3    0    0  0.66300539089E+00 -0.14323231004E+00 -0.61624454787E+00  0.91643289274E+00  0.51100000000E-03 0.  1.
        -12    1    3    3    0    0 -0.41163606551E+00 -0.58599863740E+01 -0.25504254541E+02  0.26172043945E+02  0.00000000000E+00 0.  1.
</event>
<event>
 7    1  0.4430431E-010  0.4778727E+02  0.7816164E-02  0.1312668E+00
        -11   -1    0    0    0    0  0.00000000000E+00  0.00000000000E+00  0.45593999997E+02  0.45594000000E+02  0.51100000000E-03 0. -1.
         11   -1    0    0    0    0 -0.00000000000E+00 -0.00000000000E+00 -0.45593999997E+02  0.45594000000E+02  0.51100000000E-03 0.  1.
    9900012    2    1    2    0    0 -0.26399388887E+02  0.24079347046E+02  0.24634949065E+02  0.47787269555E+02  0.19999993209E+02 0.  0.
        -12    1    1    2    0    0  0.26399388887E+02 -0.24079347046E+02 -0.24634949065E+02  0.43400730445E+02  0.00000000000E+00 0.  1.
         11    1    3    3    0    0 -0.96942745570E+01  0.94894397379E+01 -0.10806504338E+01  0.13608682205E+02  0.51100000000E-03 0.  1.
        -11    1    3    3    0    0 -0.56103271774E+01  0.48861290871E+01  0.11527773617E+02  0.13720043489E+02  0.51100000000E-03 0. -1.
        -12    1    3    3    0    0 -0.11094787152E+02  0.97037782205E+01  0.14187825881E+02  0.20458543862E+02  0.00000000000E+00 0.  1.
</event>
<event>
 7    1  0.4430431E-010  0.4778727E+02  0.7816164E-02  0.1312668E+00
        -11   -1    0    0    0    0  0.00000000000E+00  0.00000000000E+00  0.45593999997E+02  0.45594000000E+02  0.51100000000E-03 0.  1.
         11   -1    0    0    0    0 -0.00000000000E+00 -0.00000000000E+00 -0.45593999997E+02  0.45594000000E+02  0.51100000000E-03 0. -1.
    9900012    2    1    2    0    0 -0.45539870227E+01  0.52933395342E+01 -0.42835322962E+02  0.47787272650E+02  0.20000007322E+02 0.  0.
        -12    1    1    2    0    0  0.45539870227E+01 -0.52933395342E+01  0.42835322962E+02  0.43400727350E+02  0.00000000000E+00 0.  1.
         11    1    3    3    0    0 -0.27186639567E+00  0.15080988266E+01 -0.24727866735E+02  0.24775303569E+02  0.51100000000E-03 0.  1.
        -11    1    3    3    0    0  0.41499880136E+01  0.31239390879E+01 -0.10136154302E+02  0.11389601408E+02  0.51100000000E-03 0. -1.
        -12    1    3    3    0    0 -0.84321086407E+01  0.66130161976E+00 -0.79713019249E+01  0.11622367674E+02  0.00000000000E+00 0.  1.
</event>
<event>
 7    1  0.4430431E-010  0.4778724E+02  0.7816164E-02  0.1312668E+00
        -11   -1    0    0    0    0  0.00000000000E+00  0.00000000000E+00  0.45593999997E+02  0.45594000000E+02  0.51100000000E-03 0.  1.
         11   -1    0    0    0    0 -0.00000000000E+00 -0.00000000000E+00 -0.45593999997E+02  0.45594000000E+02  0.51100000000E-03 0. -1.
    9900012    2    1    2    0    0  0.30447413991E+01  0.32248976420E+02 -0.28885270167E+02  0.47787242369E+02  0.19999869256E+02 0.  0.
        -12    1    1    2    0    0 -0.30447413991E+01 -0.32248976420E+02  0.28885270167E+02  0.43400757631E+02  0.00000000000E+00 0.  1.
         11    1    3    3    0    0  0.42632189157E+01  0.15491938193E+02 -0.15936967076E+02  0.22630998748E+02  0.51100000000E-03 0. -1.
        -11    1    3    3    0    0 -0.51110913489E+01  0.14122033275E+02 -0.13780231210E+02  0.20382586957E+02  0.51100000000E-03 0.  1.
        -12    1    3    3    0    0  0.38926138323E+01  0.26350049521E+01  0.83192811932E+00  0.47736566635E+01  0.00000000000E+00 0.  1.
</event>
<event>
 7    1  0.4430431E-010  0.4778727E+02  0.7816164E-02  0.1312668E+00
        -11   -1    0    0    0    0  0.00000000000E+00  0.00000000000E+00  0.45593999997E+02  0.45594000000E+02  0.51100000000E-03 0. -1.
         11   -1    0    0    0    0 -0.00000000000E+00 -0.00000000000E+00 -0.45593999997E+02  0.45594000000E+02  0.51100000000E-03 0.  1.
    9900012    2    1    2    0    0  0.38615611607E+01 -0.42407378956E+02 -0.83860455275E+01  0.47787271848E+02  0.20000003665E+02 0.  0.
        -12    1    1    2    0    0 -0.38615611607E+01  0.42407378956E+02  0.83860455275E+01  0.43400728152E+02  0.00000000000E+00 0.  1.
         11    1    3    3    0    0  0.30236400785E+01  0.28503188009E+00 -0.69568384157E+00  0.31157051795E+01  0.51100000000E-03 0. -1.
        -11    1    3    3    0    0 -0.23533627020E+01 -0.13236009193E+02  0.17918048866E+01  0.13562478401E+02  0.51100000000E-03 0.  1.
         12    1    3    3    0    0  0.31912837842E+01 -0.29456401643E+02 -0.94821665725E+01  0.31109088268E+02  0.00000000000E+00 0. -1.
</event>
<event>
 7    1  0.4430431E-010  0.4778728E+02  0.7816164E-02  0.1312668E+00
        -11   -1    0    0    0    0  0.00000000000E+00  0.00000000000E+00  0.45593999997E+02  0.45594000000E+02  0.51100000000E-03 0.  1.
         11   -1    0    0    0    0 -0.00000000000E+00 -0.00000000000E+00 -0.45593999997E+02  0.45594000000E+02  0.51100000000E-03 0. -1.
    9900012    2    1    2    0    0  0.22800268574E+02  0.14214667895E+02 -0.34083921984E+02  0.47787276870E+02  0.20000026560E+02 0.  0.
        -12    1    1    2    0    0 -0.22800268574E+02 -0.14214667895E+02  0.34083921984E+02  0.43400723130E+02  0.00000000000E+00 0.  1.
         11    1    3    3    0    0  0.24243013682E+02  0.10231184744E+02 -0.34174039315E+02  0.43130798938E+02  0.51100000000E-03 0. -1.
        -11    1    3    3    0    0  0.24247591840E+00  0.19259955714E+01 -0.31389090939E+00  0.19664133025E+01  0.51100000000E-03 0.  1.
         12    1    3    3    0    0 -0.16852210269E+01  0.20574875805E+01  0.40400824038E+00  0.26900646296E+01  0.00000000000E+00 0. -1.
</event>
<event>
 7    1  0.4430431E-010  0.4778727E+02  0.7816164E-02  0.1312668E+00
        -11   -1    0    0    0    0  0.00000000000E+00  0.00000000000E+00  0.45593999997E+02  0.45594000000E+02  0.51100000000E-03 0. -1.
         11   -1    0    0    0    0 -0.00000000000E+00 -0.00000000000E+00 -0.45593999997E+02  0.45594000000E+02  0.51100000000E-03 0.  1.
    9900012    2    1    2    0    0  0.40769079452E+02 -0.10908528861E+02 -0.10124705357E+02  0.47787268442E+02  0.19999988134E+02 0.  0.
        -12    1    1    2    0    0 -0.40769079452E+02  0.10908528861E+02  0.10124705357E+02  0.43400731558E+02  0.00000000000E+00 0.  1.
         11    1    3    3    0    0  0.10630515587E+02 -0.33810211972E+01  0.12819709811E+01  0.11228651560E+02  0.51100000000E-03 0. -1.
        -11    1    3    3    0    0  0.10216045730E+02  0.38143573238E+01  0.10601065187E+00  0.10905418409E+02  0.51100000000E-03 0.  1.
         12    1    3    3    0    0  0.19922518134E+02 -0.11341864987E+02 -0.11512686989E+02  0.25653198473E+02  0.00000000000E+00 0. -1.
</event>
<event>
 7    1  0.4430431E-010  0.4778727E+02  0.7816164E-02  0.1312668E+00
        -11   -1    0    0    0    0  0.00000000000E+00  0.00000000000E+00  0.45593999997E+02  0.45594000000E+02  0.51100000000E-03 0. -1.
         11   -1    0    0    0    0 -0.00000000000E+00 -0.00000000000E+00 -0.45593999997E+02  0.45594000000E+02  0.51100000000E-03 0.  1.
    9900012    2    1    2    0    0  0.59569418832E+00 -0.36308957196E+02  0.23768217550E+02  0.47787269710E+02  0.19999993915E+02 0.  0.
        -12    1    1    2    0    0 -0.59569418832E+00  0.36308957196E+02 -0.23768217550E+02  0.43400730290E+02  0.00000000000E+00 0.  1.
         11    1    3    3    0    0 -0.50445898397E+01 -0.13617430326E+02  0.82697624122E+01  0.16711411250E+02  0.51100000000E-03 0.  1.
        -11    1    3    3    0    0 -0.38748538901E+01 -0.10227066526E+02  0.40587899401E+01  0.11665382910E+02  0.51100000000E-03 0. -1.
        -12    1    3    3    0    0  0.95151379180E+01 -0.12464460343E+02  0.11439665197E+02  0.19410475550E+02  0.00000000000E+00 0.  1.
</event>
<event>
 7    1  0.4430431E-010  0.4778727E+02  0.7816164E-02  0.1312668E+00
        -11   -1    0    0    0    0  0.00000000000E+00  0.00000000000E+00  0.45593999997E+02  0.45594000000E+02  0.51100000000E-03 0. -1.
         11   -1    0    0    0    0 -0.00000000000E+00 -0.00000000000E+00 -0.45593999997E+02  0.45594000000E+02  0.51100000000E-03 0.  1.
    9900012    2    1    2    0    0  0.34127323308E+02 -0.26631064989E+01  0.26680650745E+02  0.47787268939E+02  0.19999990402E+02 0.  0.
        -12    1    1    2    0    0 -0.34127323308E+02  0.26631064989E+01 -0.26680650745E+02  0.43400731061E+02  0.00000000000E+00 0.  1.
         11    1    3    3    0    0  0.41066339298E+01 -0.11124426023E+01  0.88157639202E+01  0.97887519396E+01  0.51100000000E-03 0. -1.
        -11    1    3    3    0    0 -0.19689115853E+00 -0.14703507746E+01 -0.14989085705E+01  0.21088918162E+01  0.51100000000E-03 0.  1.
         12    1    3    3    0    0  0.30217580537E+02 -0.80313122036E-01  0.19363795396E+02  0.35889625184E+02  0.00000000000E+00 0. -1.
</event>
<event>
 7    1  0.4430431E-010  0.4778727E+02  0.7816164E-02  0.1312668E+00
        -11   -1    0    0    0    0  0.00000000000E+00  0.00000000000E+00  0.45593999997E+02  0.45594000000E+02  0.51100000000E-03 0.  1.
         11   -1    0    0    0    0 -0.00000000000E+00 -0.00000000000E+00 -0.45593999997E+02  0.45594000000E+02  0.51100000000E-03 0. -1.
    9900012    2    1    2    0    0 -0.15777237606E+02  0.43322740582E+01 -0.40198675261E+02  0.47787270539E+02  0.19999997696E+02 0.  0.
        -12    1    1    2    0    0  0.15777237606E+02 -0.43322740582E+01  0.40198675261E+02  0.43400729461E+02  0.00000000000E+00 0.  1.
         11    1    3    3    0    0  0.94873512193E+00  0.30971163600E+01 -0.75265565091E+01  0.81939783515E+01  0.51100000000E-03 0. -1.
        -11    1    3    3    0    0 -0.38295599477E+01  0.13774965608E+01  0.40581087241E+00  0.40899521872E+01  0.51100000000E-03 0.  1.
         12    1    3    3    0    0 -0.12896412780E+02 -0.14233886257E+00 -0.33077929624E+02  0.35503340000E+02  0.00000000000E+00 0. -1.
</event>
<event>
 7    1  0.4430431E-010  0.4778727E+02  0.7816164E-02  0.1312668E+00
        -11   -1    0    0    0    0  0.00000000000E+00  0.00000000000E+00  0.45593999997E+02  0.45594000000E+02  0.51100000000E-03 0.  1.
         11   -1    0    0    0    0 -0.00000000000E+00 -0.00000000000E+00 -0.45593999997E+02  0.45594000000E+02  0.51100000000E-03 0. -1.
    9900012    2    1    2    0    0  0.23390666340E+02  0.36185359134E+02 -0.52076707591E+01  0.47787270487E+02  0.19999997459E+02 0.  0.
        -12    1    1    2    0    0 -0.23390666340E+02 -0.36185359134E+02  0.52076707591E+01  0.43400729513E+02  0.00000000000E+00 0.  1.
         11    1    3    3    0    0 -0.18381053559E+01  0.66670308324E+00  0.85995191167E+00  0.21360341411E+01  0.51100000000E-03 0. -1.
        -11    1    3    3    0    0 -0.26488194353E+00  0.21847343678E+01  0.19342839857E+01  0.29299627131E+01  0.51100000000E-03 0.  1.
         12    1    3    3    0    0  0.25493653640E+02  0.33333921683E+02 -0.80019066565E+01  0.42721273633E+02  0.00000000000E+00 0. -1.
</event>
<event>
 7    1  0.4430431E-010  0.4778727E+02  0.7816164E-02  0.1312668E+00
        -11   -1    0    0    0    0  0.00000000000E+00  0.00000000000E+00  0.45593999997E+02  0.45594000000E+02  0.51100000000E-03 0. -1.
         11   -1    0    0    0    0 -0.00000000000E+00 -0.00000000000E+00 -0.45593999997E+02  0.45594000000E+02  0.51100000000E-03 0.  1.
    9900012    2    1    2    0    0  0.26920707622E+02  0.56051146712E+01  0.33577988687E+02  0.47787272660E+02  0.20000007367E+02 0.  0.
        -12    1    1    2    0    0 -0.26920707622E+02 -0.56051146712E+01 -0.33577988687E+02  0.43400727340E+02  0.00000000000E+00 0.  1.
         11    1    3    3    0    0  0.56993047454E+01  0.43299471050E+01  0.83887831842E+01  0.11027338758E+02  0.51100000000E-03 0. -1.
        -11    1    3    3    0    0  0.51726902170E+01  0.76068494523E+01  0.11559911483E+02  0.14773369163E+02  0.51100000000E-03 0.  1.
         12    1    3    3    0    0  0.16048712660E+02 -0.63316818862E+01  0.13629294020E+02  0.21986564739E+02  0.00000000000E+00 0. -1.
</event>
<event>
 7    1  0.4430431E-010  0.4778727E+02  0.7816164E-02  0.1312668E+00
        -11   -1    0    0    0    0  0.00000000000E+00  0.00000000000E+00  0.45593999997E+02  0.45594000000E+02  0.51100000000E-03 0. -1.
         11   -1    0    0    0    0 -0.00000000000E+00 -0.00000000000E+00 -0.45593999997E+02  0.45594000000E+02  0.51100000000E-03 0.  1.
    9900012    2    1    2    0    0 -0.30376271501E+01 -0.20311716680E+02  0.38233888300E+02  0.47787271576E+02  0.20000002425E+02 0.  0.
        -12    1    1    2    0    0  0.30376271501E+01  0.20311716680E+02 -0.38233888300E+02  0.43400728424E+02  0.00000000000E+00 0.  1.
         11    1    3    3    0    0 -0.62482006739E+01 -0.84734418077E+01  0.14507484180E+02  0.17925019532E+02  0.51100000000E-03 0. -1.
        -11    1    3    3    0    0  0.28770374780E+01  0.60121513227E+00 -0.14426614347E+00  0.29427227641E+01  0.51100000000E-03 0.  1.
         12    1    3    3    0    0  0.33353604576E+00 -0.12439490005E+02  0.23870670263E+02  0.26919529280E+02  0.00000000000E+00 0. -1.
</event>
<event>
 7    1  0.4430431E-010  0.4778727E+02  0.7816164E-02  0.1312668E+00
        -11   -1    0    0    0    0  0.00000000000E+00  0.00000000000E+00  0.45593999997E+02  0.45594000000E+02  0.51100000000E-03 0.  1.
         11   -1    0    0    0    0 -0.00000000000E+00 -0.00000000000E+00 -0.45593999997E+02  0.45594000000E+02  0.51100000000E-03 0. -1.
    9900012    2    1    2    0    0  0.15862384458E+02  0.26829151447E+01 -0.40308934253E+02  0.47787268958E+02  0.19999990485E+02 0.  0.
        -12    1    1    2    0    0 -0.15862384458E+02 -0.26829151447E+01  0.40308934253E+02  0.43400731042E+02  0.00000000000E+00 0.  1.
         11    1    3    3    0    0  0.39165299615E+00  0.25856455119E+01 -0.14400786395E+02  0.14636311142E+02  0.51100000000E-03 0.  1.
        -11    1    3    3    0    0  0.11650838477E+02  0.42433279230E+01 -0.24312717188E+02  0.27292051707E+02  0.51100000000E-03 0. -1.
         12    1    3    3    0    0  0.38198929849E+01 -0.41460582902E+01 -0.15954306703E+01  0.58589061083E+01  0.00000000000E+00 0. -1.
</event>
<event>
 7    1  0.4430431E-010  0.4778727E+02  0.7816164E-02  0.1312668E+00
        -11   -1    0    0    0    0  0.00000000000E+00  0.00000000000E+00  0.45593999997E+02  0.45594000000E+02  0.51100000000E-03 0.  1.
         11   -1    0    0    0    0 -0.00000000000E+00 -0.00000000000E+00 -0.45593999997E+02  0.45594000000E+02  0.51100000000E-03 0. -1.
    9900012    2    1    2    0    0 -0.32592291346E+02 -0.17261309671E+01 -0.28607452053E+02  0.47787270786E+02  0.19999998824E+02 0.  0.
        -12    1    1    2    0    0  0.32592291346E+02  0.17261309671E+01  0.28607452053E+02  0.43400729214E+02  0.00000000000E+00 0.  1.
         11    1    3    3    0    0 -0.20912075082E+02 -0.23005404988E+01 -0.15559759868E+02  0.26167030749E+02  0.51100000000E-03 0. -1.
        -11    1    3    3    0    0 -0.66655081430E+01  0.81984646180E+00  0.91919944884E+00  0.67783534072E+01  0.51100000000E-03 0.  1.
         12    1    3    3    0    0 -0.50147081214E+01 -0.24543693013E+00 -0.13966891634E+02  0.14841886630E+02  0.00000000000E+00 0. -1.
</event>
<event>
 7    1  0.4430431E-010  0.4778727E+02  0.7816164E-02  0.1312668E+00
        -11   -1    0    0    0    0  0.00000000000E+00  0.00000000000E+00  0.45593999997E+02  0.45594000000E+02  0.51100000000E-03 0.  1.
         11   -1    0    0    0    0 -0.00000000000E+00 -0.00000000000E+00 -0.45593999997E+02  0.45594000000E+02  0.51100000000E-03 0. -1.
    9900012    2    1    2    0    0  0.32672220526E+02 -0.22809991201E+02 -0.17200403046E+02  0.47787267775E+02  0.19999985094E+02 0.  0.
        -12    1    1    2    0    0 -0.32672220526E+02  0.22809991201E+02  0.17200403046E+02  0.43400732225E+02  0.00000000000E+00 0.  1.
         11    1    3    3    0    0  0.12893467071E+02 -0.15246686814E+02 -0.11847616433E+02  0.23217858801E+02  0.51100000000E-03 0. -1.
        -11    1    3    3    0    0 -0.67419872762E+00 -0.27849586267E+01 -0.14303994518E+01  0.32025897848E+01  0.51100000000E-03 0.  1.
        -12    1    3    3    0    0  0.20452952183E+02 -0.47783457598E+01 -0.39223871617E+01  0.21366819189E+02  0.00000000000E+00 0.  1.
</event>
<event>
 7    1  0.4430431E-010  0.4778728E+02  0.7816164E-02  0.1312668E+00
        -11   -1    0    0    0    0  0.00000000000E+00  0.00000000000E+00  0.45593999997E+02  0.45594000000E+02  0.51100000000E-03 0.  1.
         11   -1    0    0    0    0 -0.00000000000E+00 -0.00000000000E+00 -0.45593999997E+02  0.45594000000E+02  0.51100000000E-03 0. -1.
    9900012    2    1    2    0    0  0.24402207422E+02  0.32683225209E+02 -0.14831113155E+02  0.47787275875E+02  0.20000022026E+02 0.  0.
        -12    1    1    2    0    0 -0.24402207422E+02 -0.32683225209E+02  0.14831113155E+02  0.43400724125E+02  0.00000000000E+00 0.  1.
         11    1    3    3    0    0  0.49381664953E+01  0.28675460840E+01 -0.31817904547E+01  0.65369793971E+01  0.51100000000E-03 0. -1.
        -11    1    3    3    0    0  0.61406331591E+01  0.47662359520E+00  0.16730232215E+01  0.63822842782E+01  0.51100000000E-03 0.  1.
         12    1    3    3    0    0  0.13323407767E+02  0.29339055530E+02 -0.13322345922E+02  0.34868012200E+02  0.00000000000E+00 0. -1.
</event>
<event>
 7    1  0.4430431E-010  0.4778727E+02  0.7816164E-02  0.1312668E+00
        -11   -1    0    0    0    0  0.00000000000E+00  0.00000000000E+00  0.45593999997E+02  0.45594000000E+02  0.51100000000E-03 0. -1.
         11   -1    0    0    0    0 -0.00000000000E+00 -0.00000000000E+00 -0.45593999997E+02  0.45594000000E+02  0.51100000000E-03 0.  1.
    9900012    2    1    2    0    0  0.40015286681E+02 -0.24187484048E+01  0.16629794678E+02  0.47787267483E+02  0.19999983761E+02 0.  0.
        -12    1    1    2    0    0 -0.40015286681E+02  0.24187484048E+01 -0.16629794678E+02  0.43400732517E+02  0.00000000000E+00 0.  1.
         11    1    3    3    0    0  0.32075944729E+02  0.35034206840E+01  0.18400090630E+02  0.37144360570E+02  0.51100000000E-03 0. -1.
        -11    1    3    3    0    0  0.15800236290E+01 -0.69999762070E+00  0.95519589452E+00  0.19745558475E+01  0.51100000000E-03 0.  1.
        -12    1    3    3    0    0  0.63593183232E+01 -0.52221714681E+01 -0.27254918467E+01  0.86683510649E+01  0.00000000000E+00 0.  1.
</event>
<event>
 7    1  0.4430431E-010  0.4778727E+02  0.7816164E-02  0.1312668E+00
        -11   -1    0    0    0    0  0.00000000000E+00  0.00000000000E+00  0.45593999997E+02  0.45594000000E+02  0.51100000000E-03 0. -1.
         11   -1    0    0    0    0 -0.00000000000E+00 -0.00000000000E+00 -0.45593999997E+02  0.45594000000E+02  0.51100000000E-03 0.  1.
    9900012    2    1    2    0    0 -0.30707411442E+02  0.18766299158E+02  0.24259106017E+02  0.47787270440E+02  0.19999997245E+02 0.  0.
        -12    1    1    2    0    0  0.30707411442E+02 -0.18766299158E+02 -0.24259106017E+02  0.43400729560E+02  0.00000000000E+00 0.  1.
         11    1    3    3    0    0  0.29005499677E-01  0.32574223814E-01 -0.81287609662E+00  0.81404558143E+00  0.51100000000E-03 0. -1.
        -11    1    3    3    0    0  0.17779256956E+01 -0.62102184183E-01 -0.66423081476E-01  0.17802496306E+01  0.51100000000E-03 0.  1.
         12    1    3    3    0    0 -0.32514342637E+02  0.18795827118E+02  0.25138405195E+02  0.45192975228E+02  0.00000000000E+00 0. -1.
</event>
<event>
 7    1  0.4430431E-010  0.4778727E+02  0.7816164E-02  0.1312668E+00
        -11   -1    0    0    0    0  0.00000000000E+00  0.00000000000E+00  0.45593999997E+02  0.45594000000E+02  0.51100000000E-03 0. -1.
         11   -1    0    0    0    0 -0.00000000000E+00 -0.00000000000E+00 -0.45593999997E+02  0.45594000000E+02  0.51100000000E-03 0.  1.
    9900012    2    1    2    0    0 -0.20707895040E+02 -0.27473761492E+02  0.26457485934E+02  0.47787273630E+02  0.20000011788E+02 0.  0.
        -12    1    1    2    0    0  0.20707895040E+02  0.27473761492E+02 -0.26457485934E+02  0.43400726370E+02  0.00000000000E+00 0.  1.
         11    1    3    3    0    0 -0.51400387157E+01 -0.11568377731E+02  0.12455500880E+02  0.17759134657E+02  0.51100000000E-03 0. -1.
        -11    1    3    3    0    0  0.22690290138E+01 -0.22076247261E+01 -0.58877480596E+00  0.32200552216E+01  0.51100000000E-03 0.  1.
         12    1    3    3    0    0 -0.17836885338E+02 -0.13697759035E+02  0.14590759860E+02  0.26808083751E+02  0.00000000000E+00 0. -1.
</event>
<event>
 7    1  0.4430431E-010  0.4778727E+02  0.7816164E-02  0.1312668E+00
        -11   -1    0    0    0    0  0.00000000000E+00  0.00000000000E+00  0.45593999997E+02  0.45594000000E+02  0.51100000000E-03 0.  1.
         11   -1    0    0    0    0 -0.00000000000E+00 -0.00000000000E+00 -0.45593999997E+02  0.45594000000E+02  0.51100000000E-03 0. -1.
    9900012    2    1    2    0    0 -0.31603691521E+01  0.41870975747E+02 -0.10975262617E+02  0.47787274975E+02  0.20000017921E+02 0.  0.
        -12    1    1    2    0    0  0.31603691521E+01 -0.41870975747E+02  0.10975262617E+02  0.43400725025E+02  0.00000000000E+00 0.  1.
         11    1    3    3    0    0  0.30152154602E+00  0.23342641508E+02  0.65253958603E+00  0.23353707115E+02  0.51100000000E-03 0. -1.
        -11    1    3    3    0    0 -0.60587986402E+01  0.81173476551E+01 -0.27203295900E+01  0.10488115525E+02  0.51100000000E-03 0.  1.
        -12    1    3    3    0    0  0.25969079421E+01  0.10410986584E+02 -0.89074726126E+01  0.13945452336E+02  0.00000000000E+00 0.  1.
</event>
<event>
 7    1  0.4430431E-010  0.4778727E+02  0.7816164E-02  0.1312668E+00
        -11   -1    0    0    0    0  0.00000000000E+00  0.00000000000E+00  0.45593999997E+02  0.45594000000E+02  0.51100000000E-03 0. -1.
         11   -1    0    0    0    0 -0.00000000000E+00 -0.00000000000E+00 -0.45593999997E+02  0.45594000000E+02  0.51100000000E-03 0.  1.
    9900012    2    1    2    0    0  0.27273765380E+02  0.23068638900E+02  0.24649599553E+02  0.47787272623E+02  0.20000007199E+02 0.  0.
        -12    1    1    2    0    0 -0.27273765380E+02 -0.23068638900E+02 -0.24649599553E+02  0.43400727377E+02  0.00000000000E+00 0.  1.
         11    1    3    3    0    0  0.25054737931E+02  0.12514663055E+02  0.13563039995E+02  0.31117723862E+02  0.51100000000E-03 0. -1.
        -11    1    3    3    0    0  0.43335730742E+01  0.72456806892E+01  0.66663116081E+01  0.10757297753E+02  0.51100000000E-03 0.  1.
        -12    1    3    3    0    0 -0.21145456257E+01  0.33082951560E+01  0.44202479499E+01  0.59122510079E+01  0.00000000000E+00 0.  1.
</event>
<event>
 7    1  0.4430431E-010  0.4778727E+02  0.7816164E-02  0.1312668E+00
        -11   -1    0    0    0    0  0.00000000000E+00  0.00000000000E+00  0.45593999997E+02  0.45594000000E+02  0.51100000000E-03 0.  1.
         11   -1    0    0    0    0 -0.00000000000E+00 -0.00000000000E+00 -0.45593999997E+02  0.45594000000E+02  0.51100000000E-03 0. -1.
    9900012    2    1    2    0    0  0.41002202038E+02 -0.14159456503E+02 -0.13974975894E+01  0.47787265215E+02  0.19999973420E+02 0.  0.
        -12    1    1    2    0    0 -0.41002202038E+02  0.14159456503E+02  0.13974975894E+01  0.43400734785E+02  0.00000000000E+00 0.  1.
         11    1    3    3    0    0  0.76610482481E+00 -0.17882808144E+00 -0.27846355997E+01  0.28936295149E+01  0.51100000000E-03 0. -1.
        -11    1    3    3    0    0  0.30805856411E+01 -0.56731911742E+01 -0.17589739726E+01  0.66909712067E+01  0.51100000000E-03 0.  1.
         12    1    3    3    0    0  0.37155511572E+02 -0.83074372472E+01  0.31461119829E+01  0.38202664493E+02  0.00000000000E+00 0. -1.
</event>
<event>
 7    1  0.4430431E-010  0.4778727E+02  0.7816164E-02  0.1312668E+00
        -11   -1    0    0    0    0  0.00000000000E+00  0.00000000000E+00  0.45593999997E+02  0.45594000000E+02  0.51100000000E-03 0.  1.
         11   -1    0    0    0    0 -0.00000000000E+00 -0.00000000000E+00 -0.45593999997E+02  0.45594000000E+02  0.51100000000E-03 0. -1.
    9900012    2    1    2    0    0 -0.23566813412E+02  0.55469488948E+01 -0.36020271016E+02  0.47787271199E+02  0.20000000703E+02 0.  0.
        -12    1    1    2    0    0  0.23566813412E+02 -0.55469488948E+01  0.36020271016E+02  0.43400728801E+02  0.00000000000E+00 0.  1.
         11    1    3    3    0    0 -0.39518613139E+01  0.29813077482E+01 -0.71959572074E+01  0.87342546405E+01  0.51100000000E-03 0. -1.
        -11    1    3    3    0    0 -0.18325465697E+02 -0.42144572085E+01 -0.24591223007E+02  0.30956624360E+02  0.51100000000E-03 0.  1.
         12    1    3    3    0    0 -0.12894864016E+01  0.67800983551E+01 -0.42330908014E+01  0.80963921976E+01  0.00000000000E+00 0. -1.
</event>
<event>
 7    1  0.4430431E-010  0.4778727E+02  0.7816164E-02  0.1312668E+00
        -11   -1    0    0    0    0  0.00000000000E+00  0.00000000000E+00  0.45593999997E+02  0.45594000000E+02  0.51100000000E-03 0.  1.
         11   -1    0    0    0    0 -0.00000000000E+00 -0.00000000000E+00 -0.45593999997E+02  0.45594000000E+02  0.51100000000E-03 0. -1.
    9900012    2    1    2    0    0 -0.28173147308E+02 -0.23591292685E+02 -0.23094324543E+02  0.47787272519E+02  0.20000006721E+02 0.  0.
        -12    1    1    2    0    0  0.28173147308E+02  0.23591292685E+02  0.23094324543E+02  0.43400727481E+02  0.00000000000E+00 0.  1.
         11    1    3    3    0    0 -0.30279061063E+01 -0.11008751605E+02 -0.73378778002E+01  0.13572224510E+02  0.51100000000E-03 0. -1.
        -11    1    3    3    0    0 -0.84818554076E+01 -0.80896308125E+01 -0.14744180032E+01  0.11813462936E+02  0.51100000000E-03 0.  1.
        -12    1    3    3    0    0 -0.16663385794E+02 -0.44929102676E+01 -0.14282028740E+02  0.22401585072E+02  0.00000000000E+00 0.  1.
</event>
<event>
 7    1  0.4430431E-010  0.4778727E+02  0.7816164E-02  0.1312668E+00
        -11   -1    0    0    0    0  0.00000000000E+00  0.00000000000E+00  0.45593999997E+02  0.45594000000E+02  0.51100000000E-03 0.  1.
         11   -1    0    0    0    0 -0.00000000000E+00 -0.00000000000E+00 -0.45593999997E+02  0.45594000000E+02  0.51100000000E-03 0. -1.
    9900012    2    1    2    0    0 -0.30653680661E+02  0.30568453154E+02 -0.30895254532E+01  0.47787266897E+02  0.19999981092E+02 0.  0.
        -12    1    1    2    0    0  0.30653680661E+02 -0.30568453154E+02  0.30895254532E+01  0.43400733103E+02  0.00000000000E+00 0.  1.
         11    1    3    3    0    0 -0.16852227935E+02  0.19873439048E+02 -0.60786578103E+01  0.26756330970E+02  0.51100000000E-03 0. -1.
        -11    1    3    3    0    0 -0.31177252926E+01  0.88422443078E+01 -0.11047453855E+01  0.94406545338E+01  0.51100000000E-03 0.  1.
        -12    1    3    3    0    0 -0.10683727434E+02  0.18527697987E+01  0.40938777427E+01  0.11590281393E+02  0.00000000000E+00 0.  1.
</event>
<event>
 7    1  0.4430431E-010  0.4778728E+02  0.7816164E-02  0.1312668E+00
        -11   -1    0    0    0    0  0.00000000000E+00  0.00000000000E+00  0.45593999997E+02  0.45594000000E+02  0.51100000000E-03 0.  1.
         11   -1    0    0    0    0 -0.00000000000E+00 -0.00000000000E+00 -0.45593999997E+02  0.45594000000E+02  0.51100000000E-03 0. -1.
    9900012    2    1    2    0    0  0.36430574852E+02 -0.10975811499E+02 -0.20879819568E+02  0.47787284714E+02  0.20000062327E+02 0.  0.
        -12    1    1    2    0    0 -0.36430574852E+02  0.10975811499E+02  0.20879819568E+02  0.43400715286E+02  0.00000000000E+00 0.  1.
         11    1    3    3    0    0  0.25380966520E+02 -0.20216023880E+01 -0.87986255873E+01  0.26938748118E+02  0.51100000000E-03 0.  1.
        -11    1    3    3    0    0  0.81259843146E+01 -0.53279022532E+01 -0.22564092777E+01  0.99754471875E+01  0.51100000000E-03 0. -1.
        -12    1    3    3    0    0  0.29236240174E+01 -0.36263068578E+01 -0.98247847035E+01  0.10873089409E+02  0.00000000000E+00 0.  1.
</event>
<event>
 7    1  0.4430431E-010  0.4778726E+02  0.7816164E-02  0.1312668E+00
        -11   -1    0    0    0    0  0.00000000000E+00  0.00000000000E+00  0.45593999997E+02  0.45594000000E+02  0.51100000000E-03 0.  1.
         11   -1    0    0    0    0 -0.00000000000E+00 -0.00000000000E+00 -0.45593999997E+02  0.45594000000E+02  0.51100000000E-03 0. -1.
    9900012    2    1    2    0    0 -0.57821581035E+01 -0.88474558563E+00 -0.43004748790E+02  0.47787256394E+02  0.19999933203E+02 0.  0.
        -12    1    1    2    0    0  0.57821581035E+01  0.88474558563E+00  0.43004748790E+02  0.43400743606E+02  0.00000000000E+00 0.  1.
         11    1    3    3    0    0 -0.20029448492E+01 -0.61759908398E+01 -0.14724410756E+02  0.16092324981E+02  0.51100000000E-03 0. -1.
        -11    1    3    3    0    0  0.10894599996E+01 -0.14337879143E+01  0.39356806858E+00  0.18432490227E+01  0.51100000000E-03 0.  1.
         12    1    3    3    0    0 -0.48686732539E+01  0.67250331685E+01 -0.28673906103E+02  0.29851682391E+02  0.00000000000E+00 0. -1.
</event>
<event>
 7    1  0.4430431E-010  0.4778725E+02  0.7816164E-02  0.1312668E+00
        -11   -1    0    0    0    0  0.00000000000E+00  0.00000000000E+00  0.45593999997E+02  0.45594000000E+02  0.51100000000E-03 0.  1.
         11   -1    0    0    0    0 -0.00000000000E+00 -0.00000000000E+00 -0.45593999997E+02  0.45594000000E+02  0.51100000000E-03 0. -1.
    9900012    2    1    2    0    0  0.16611710840E+02  0.39410843928E+02  0.73797782260E+01  0.47787254812E+02  0.19999925992E+02 0.  0.
        -12    1    1    2    0    0 -0.16611710840E+02 -0.39410843928E+02 -0.73797782260E+01  0.43400745188E+02  0.00000000000E+00 0.  1.
         11    1    3    3    0    0 -0.12334017585E+01  0.17991872557E+01 -0.19275969932E+01  0.29110110113E+01  0.51100000000E-03 0. -1.
        -11    1    3    3    0    0  0.41384337621E+01  0.46183438333E+01  0.65852453020E+01  0.90455066036E+01  0.51100000000E-03 0.  1.
         12    1    3    3    0    0  0.13706678836E+02  0.32993312839E+02  0.27221299172E+01  0.35830737198E+02  0.00000000000E+00 0. -1.
</event>
<event>
 7    1  0.4430431E-010  0.4778727E+02  0.7816164E-02  0.1312668E+00
        -11   -1    0    0    0    0  0.00000000000E+00  0.00000000000E+00  0.45593999997E+02  0.45594000000E+02  0.51100000000E-03 0.  1.
         11   -1    0    0    0    0 -0.00000000000E+00 -0.00000000000E+00 -0.45593999997E+02  0.45594000000E+02  0.51100000000E-03 0. -1.
    9900012    2    1    2    0    0  0.18480713124E+02  0.34590415422E+02 -0.18590044862E+02  0.47787269999E+02  0.19999995235E+02 0.  0.
        -12    1    1    2    0    0 -0.18480713124E+02 -0.34590415422E+02  0.18590044862E+02  0.43400730001E+02  0.00000000000E+00 0.  1.
         11    1    3    3    0    0  0.53431809313E+01  0.20235374021E+02 -0.14117097846E+02  0.25245046961E+02  0.51100000000E-03 0. -1.
        -11    1    3    3    0    0 -0.18211177061E+01  0.18567295627E+01 -0.48036774571E+00  0.26447434282E+01  0.51100000000E-03 0.  1.
         12    1    3    3    0    0  0.14958649899E+02  0.12498311838E+02 -0.39925792702E+01  0.19897479610E+02  0.00000000000E+00 0. -1.
</event>
<event>
 7    1  0.4430431E-010  0.4778724E+02  0.7816164E-02  0.1312668E+00
        -11   -1    0    0    0    0  0.00000000000E+00  0.00000000000E+00  0.45593999997E+02  0.45594000000E+02  0.51100000000E-03 0.  1.
         11   -1    0    0    0    0 -0.00000000000E+00 -0.00000000000E+00 -0.45593999997E+02  0.45594000000E+02  0.51100000000E-03 0. -1.
    9900012    2    1    2    0    0 -0.27176603447E+02  0.16236624061E+02 -0.29688891956E+02  0.47787239161E+02  0.19999854630E+02 0.  0.
        -12    1    1    2    0    0  0.27176603447E+02 -0.16236624061E+02  0.29688891956E+02  0.43400760839E+02  0.00000000000E+00 0.  1.
         11    1    3    3    0    0 -0.62969588001E+01  0.51719425749E+01 -0.46836206691E+01  0.93987756097E+01  0.51100000000E-03 0. -1.
        -11    1    3    3    0    0 -0.74491996330E+01 -0.38941489083E+01 -0.39848769377E+01  0.93023768663E+01  0.51100000000E-03 0.  1.
        -12    1    3    3    0    0 -0.13430445014E+02  0.14958830395E+02 -0.21020394349E+02  0.29086086685E+02  0.00000000000E+00 0.  1.
</event>
<event>
 7    1  0.4430431E-010  0.4778727E+02  0.7816164E-02  0.1312668E+00
        -11   -1    0    0    0    0  0.00000000000E+00  0.00000000000E+00  0.45593999997E+02  0.45594000000E+02  0.51100000000E-03 0.  1.
         11   -1    0    0    0    0 -0.00000000000E+00 -0.00000000000E+00 -0.45593999997E+02  0.45594000000E+02  0.51100000000E-03 0. -1.
    9900012    2    1    2    0    0  0.12332299294E+02 -0.14964848555E+02 -0.38827708869E+02  0.47787271041E+02  0.19999999983E+02 0.  0.
        -12    1    1    2    0    0 -0.12332299294E+02  0.14964848555E+02  0.38827708869E+02  0.43400728959E+02  0.00000000000E+00 0.  1.
         11    1    3    3    0    0  0.72858308580E+01 -0.14163733200E+02 -0.17806689184E+02  0.23890852839E+02  0.51100000000E-03 0. -1.
        -11    1    3    3    0    0  0.15028479384E+00  0.45711320303E-01  0.11574946000E+01  0.11681048986E+01  0.51100000000E-03 0.  1.
        -12    1    3    3    0    0  0.48961836419E+01 -0.84682667587E+00 -0.22178514286E+02  0.22728313303E+02  0.00000000000E+00 0.  1.
</event>
<event>
 7    1  0.4430431E-010  0.4778728E+02  0.7816164E-02  0.1312668E+00
        -11   -1    0    0    0    0  0.00000000000E+00  0.00000000000E+00  0.45593999997E+02  0.45594000000E+02  0.51100000000E-03 0.  1.
         11   -1    0    0    0    0 -0.00000000000E+00 -0.00000000000E+00 -0.45593999997E+02  0.45594000000E+02  0.51100000000E-03 0. -1.
    9900012    2    1    2    0    0 -0.36886757231E+02 -0.10023751411E+02 -0.20555136949E+02  0.47787284495E+02  0.20000061325E+02 0.  0.
        -12    1    1    2    0    0  0.36886757231E+02  0.10023751411E+02  0.20555136949E+02  0.43400715505E+02  0.00000000000E+00 0.  1.
         11    1    3    3    0    0 -0.11066480343E+02  0.51026281135E+00 -0.89135723360E+01  0.14218970686E+02  0.51100000000E-03 0. -1.
        -11    1    3    3    0    0 -0.24243861952E+02 -0.11522023844E+02 -0.14229597630E+02  0.30380969780E+02  0.51100000000E-03 0.  1.
        -12    1    3    3    0    0 -0.15764149354E+01  0.98800962181E+00  0.25880330162E+01  0.31873440282E+01  0.00000000000E+00 0.  1.
</event>
<event>
 7    1  0.4430431E-010  0.4778731E+02  0.7816164E-02  0.1312668E+00
        -11   -1    0    0    0    0  0.00000000000E+00  0.00000000000E+00  0.45593999997E+02  0.45594000000E+02  0.51100000000E-03 0.  1.
         11   -1    0    0    0    0 -0.00000000000E+00 -0.00000000000E+00 -0.45593999997E+02  0.45594000000E+02  0.51100000000E-03 0. -1.
    9900012    2    1    2    0    0  0.13653528316E+02  0.32577386308E+02 -0.25217359793E+02  0.47787306813E+02  0.20000163085E+02 0.  0.
        -12    1    1    2    0    0 -0.13653528316E+02 -0.32577386308E+02  0.25217359793E+02  0.43400693187E+02  0.00000000000E+00 0.  1.
         11    1    3    3    0    0  0.23921409350E+01  0.14784195970E+02 -0.62991585155E+01  0.16247282450E+02  0.51100000000E-03 0. -1.
        -11    1    3    3    0    0  0.11864958076E+02  0.15728877962E+02 -0.94880781899E+01  0.21867749315E+02  0.51100000000E-03 0.  1.
        -12    1    3    3    0    0 -0.60357069550E+00  0.20643123757E+01 -0.94301230878E+01  0.96722750488E+01  0.00000000000E+00 0.  1.
</event>
<event>
 7    1  0.4430431E-010  0.4778726E+02  0.7816164E-02  0.1312668E+00
        -11   -1    0    0    0    0  0.00000000000E+00  0.00000000000E+00  0.45593999997E+02  0.45594000000E+02  0.51100000000E-03 0. -1.
         11   -1    0    0    0    0 -0.00000000000E+00 -0.00000000000E+00 -0.45593999997E+02  0.45594000000E+02  0.51100000000E-03 0.  1.
    9900012    2    1    2    0    0  0.33714544797E+01  0.37888906039E+02  0.20897078663E+02  0.47787264952E+02  0.19999972220E+02 0.  0.
        -12    1    1    2    0    0 -0.33714544797E+01 -0.37888906039E+02 -0.20897078663E+02  0.43400735048E+02  0.00000000000E+00 0.  1.
         11    1    3    3    0    0  0.26264059622E+01  0.97380585391E+01  0.12737120366E+02  0.16246908256E+02  0.51100000000E-03 0. -1.
        -11    1    3    3    0    0  0.47844718342E+01  0.21239394350E+02  0.88580886804E+01  0.23504654399E+02  0.51100000000E-03 0.  1.
        -12    1    3    3    0    0 -0.40394233167E+01  0.69114531499E+01 -0.69813038389E+00  0.80357022971E+01  0.00000000000E+00 0.  1.
</event>
<event>
 7    1  0.4430431E-010  0.4778727E+02  0.7816164E-02  0.1312668E+00
        -11   -1    0    0    0    0  0.00000000000E+00  0.00000000000E+00  0.45593999997E+02  0.45594000000E+02  0.51100000000E-03 0.  1.
         11   -1    0    0    0    0 -0.00000000000E+00 -0.00000000000E+00 -0.45593999997E+02  0.45594000000E+02  0.51100000000E-03 0. -1.
    9900012    2    1    2    0    0 -0.32097545259E+02  0.96486635558E+01 -0.27573068719E+02  0.47787271450E+02  0.20000001850E+02 0.  0.
        -12    1    1    2    0    0  0.32097545259E+02 -0.96486635558E+01  0.27573068719E+02  0.43400728550E+02  0.00000000000E+00 0.  1.
         11    1    3    3    0    0 -0.52304884808E+01  0.72390438574E+01 -0.10914513007E+02  0.14102778455E+02  0.51100000000E-03 0. -1.
        -11    1    3    3    0    0 -0.47855330665E-01 -0.20760473925E+01 -0.13955515649E+01  0.25019646959E+01  0.51100000000E-03 0.  1.
         12    1    3    3    0    0 -0.26819201447E+02  0.44856670909E+01 -0.15263004148E+02  0.31182528299E+02  0.00000000000E+00 0. -1.
</event>
<event>
 7    1  0.4430431E-010  0.4778727E+02  0.7816164E-02  0.1312668E+00
        -11   -1    0    0    0    0  0.00000000000E+00  0.00000000000E+00  0.45593999997E+02  0.45594000000E+02  0.51100000000E-03 0.  1.
         11   -1    0    0    0    0 -0.00000000000E+00 -0.00000000000E+00 -0.45593999997E+02  0.45594000000E+02  0.51100000000E-03 0. -1.
    9900012    2    1    2    0    0  0.66681200405E+01 -0.41335799631E+02 -0.11424141149E+02  0.47787272391E+02  0.20000006139E+02 0.  0.
        -12    1    1    2    0    0 -0.66681200405E+01  0.41335799631E+02  0.11424141149E+02  0.43400727609E+02  0.00000000000E+00 0.  1.
         11    1    3    3    0    0  0.72989864545E+01 -0.30444474110E+02 -0.29104999832E+01  0.31442204399E+02  0.51100000000E-03 0. -1.
        -11    1    3    3    0    0  0.26749729589E+01 -0.10238570180E+02 -0.65339004676E+01  0.12436866778E+02  0.51100000000E-03 0.  1.
        -12    1    3    3    0    0 -0.33058393729E+01 -0.65275534146E+00 -0.19797406985E+01  0.39082012139E+01  0.00000000000E+00 0.  1.
</event>
<event>
 7    1  0.4430431E-010  0.4778727E+02  0.7816164E-02  0.1312668E+00
        -11   -1    0    0    0    0  0.00000000000E+00  0.00000000000E+00  0.45593999997E+02  0.45594000000E+02  0.51100000000E-03 0. -1.
         11   -1    0    0    0    0 -0.00000000000E+00 -0.00000000000E+00 -0.45593999997E+02  0.45594000000E+02  0.51100000000E-03 0.  1.
    9900012    2    1    2    0    0 -0.38422978171E+02  0.20147075155E+02  0.11804238158E+01  0.47787270867E+02  0.19999999193E+02 0.  0.
        -12    1    1    2    0    0  0.38422978171E+02 -0.20147075155E+02 -0.11804238158E+01  0.43400729133E+02  0.00000000000E+00 0.  1.
         11    1    3    3    0    0 -0.10579365354E+01 -0.15588924056E+01  0.96395335746E+00  0.21162659525E+01  0.51100000000E-03 0. -1.
        -11    1    3    3    0    0 -0.15019241687E+02  0.95959685695E+00 -0.15416128893E+01  0.15128615850E+02  0.51100000000E-03 0.  1.
         12    1    3    3    0    0 -0.22345799949E+02  0.20746370704E+02  0.17580833477E+01  0.30542389065E+02  0.00000000000E+00 0. -1.
</event>
<event>
 7    1  0.4430431E-010  0.4778727E+02  0.7816164E-02  0.1312668E+00
        -11   -1    0    0    0    0  0.00000000000E+00  0.00000000000E+00  0.45593999997E+02  0.45594000000E+02  0.51100000000E-03 0.  1.
         11   -1    0    0    0    0 -0.00000000000E+00 -0.00000000000E+00 -0.45593999997E+02  0.45594000000E+02  0.51100000000E-03 0. -1.
    9900012    2    1    2    0    0  0.26487883962E+02 -0.27492772540E+02 -0.20643704046E+02  0.47787273560E+02  0.20000011471E+02 0.  0.
        -12    1    1    2    0    0 -0.26487883962E+02  0.27492772540E+02  0.20643704046E+02  0.43400726440E+02  0.00000000000E+00 0.  1.
         11    1    3    3    0    0  0.52277435508E+01 -0.49644452337E+01  0.10652144561E+01  0.72876403047E+01  0.51100000000E-03 0. -1.
        -11    1    3    3    0    0  0.92375687666E+01 -0.32878861172E+01 -0.11318505535E+01  0.98703575301E+01  0.51100000000E-03 0.  1.
         12    1    3    3    0    0  0.12022571645E+02 -0.19240441189E+02 -0.20577067949E+02  0.30629275726E+02  0.00000000000E+00 0. -1.
</event>
<event>
 7    1  0.4430431E-010  0.4778726E+02  0.7816164E-02  0.1312668E+00
        -11   -1    0    0    0    0  0.00000000000E+00  0.00000000000E+00  0.45593999997E+02  0.45594000000E+02  0.51100000000E-03 0.  1.
         11   -1    0    0    0    0 -0.00000000000E+00 -0.00000000000E+00 -0.45593999997E+02  0.45594000000E+02  0.51100000000E-03 0. -1.
    9900012    2    1    2    0    0 -0.46410652965E+01 -0.13092331694E+02 -0.41117825362E+02  0.47787260389E+02  0.19999951418E+02 0.  0.
        -12    1    1    2    0    0  0.46410652965E+01  0.13092331694E+02  0.41117825362E+02  0.43400739611E+02  0.00000000000E+00 0.  1.
         11    1    3    3    0    0 -0.14292394052E+01  0.33925149922E+00  0.45121787991E+00  0.15366895241E+01  0.51100000000E-03 0. -1.
        -11    1    3    3    0    0  0.30757277085E+01 -0.41516198709E+01 -0.27654594285E+01  0.58603595966E+01  0.51100000000E-03 0.  1.
         12    1    3    3    0    0 -0.62875535998E+01 -0.92799633223E+01 -0.38803583813E+02  0.40390211268E+02  0.00000000000E+00 0. -1.
</event>
<event>
 7    1  0.4430431E-010  0.4778727E+02  0.7816164E-02  0.1312668E+00
        -11   -1    0    0    0    0  0.00000000000E+00  0.00000000000E+00  0.45593999997E+02  0.45594000000E+02  0.51100000000E-03 0.  1.
         11   -1    0    0    0    0 -0.00000000000E+00 -0.00000000000E+00 -0.45593999997E+02  0.45594000000E+02  0.51100000000E-03 0. -1.
    9900012    2    1    2    0    0 -0.43187690499E+02  0.11631798487E+01  0.41344477825E+01  0.47787271245E+02  0.20000000915E+02 0.  0.
        -12    1    1    2    0    0  0.43187690499E+02 -0.11631798487E+01 -0.41344477825E+01  0.43400728755E+02  0.00000000000E+00 0.  1.
         11    1    3    3    0    0 -0.15894253474E+02 -0.30410870878E+00 -0.44117875876E+01  0.16497989138E+02  0.51100000000E-03 0. -1.
        -11    1    3    3    0    0 -0.22980896653E+01  0.29200798014E+01 -0.18838176689E+01  0.41661554732E+01  0.51100000000E-03 0.  1.
         12    1    3    3    0    0 -0.24995347359E+02 -0.14527912440E+01  0.10430053039E+02  0.27123126634E+02  0.00000000000E+00 0. -1.
</event>
<event>
 7    1  0.4430431E-010  0.4778727E+02  0.7816164E-02  0.1312668E+00
        -11   -1    0    0    0    0  0.00000000000E+00  0.00000000000E+00  0.45593999997E+02  0.45594000000E+02  0.51100000000E-03 0. -1.
         11   -1    0    0    0    0 -0.00000000000E+00 -0.00000000000E+00 -0.45593999997E+02  0.45594000000E+02  0.51100000000E-03 0.  1.
    9900012    2    1    2    0    0 -0.27218221108E+02 -0.33700060283E+02 -0.26641092154E+01  0.47787273033E+02  0.20000009067E+02 0.  0.
        -12    1    1    2    0    0  0.27218221108E+02  0.33700060283E+02  0.26641092154E+01  0.43400726967E+02  0.00000000000E+00 0.  1.
         11    1    3    3    0    0 -0.26035128352E+02 -0.25048647767E+02 -0.85419185791E+01  0.37124480286E+02  0.51100000000E-03 0. -1.
        -11    1    3    3    0    0 -0.14049409703E+01 -0.74840941025E+01  0.45068280977E+01  0.88485605286E+01  0.51100000000E-03 0.  1.
         12    1    3    3    0    0  0.22184821467E+00 -0.11673184138E+01  0.13709812660E+01  0.18142322181E+01  0.00000000000E+00 0. -1.
</event>
<event>
 7    1  0.4430431E-010  0.4778727E+02  0.7816164E-02  0.1312668E+00
        -11   -1    0    0    0    0  0.00000000000E+00  0.00000000000E+00  0.45593999997E+02  0.45594000000E+02  0.51100000000E-03 0.  1.
         11   -1    0    0    0    0 -0.00000000000E+00 -0.00000000000E+00 -0.45593999997E+02  0.45594000000E+02  0.51100000000E-03 0. -1.
    9900012    2    1    2    0    0 -0.34449006252E+02  0.23407025166E+02 -0.12206591451E+02  0.47787265746E+02  0.19999975844E+02 0.  0.
        -12    1    1    2    0    0  0.34449006252E+02 -0.23407025166E+02  0.12206591451E+02  0.43400734254E+02  0.00000000000E+00 0.  1.
         11    1    3    3    0    0 -0.18199430968E+02  0.11138832359E+02 -0.28125646491E+01  0.21522160534E+02  0.51100000000E-03 0. -1.
        -11    1    3    3    0    0 -0.16619216660E+02  0.13469766665E+02 -0.11135678677E+02  0.24117137397E+02  0.51100000000E-03 0.  1.
         12    1    3    3    0    0  0.36964137519E+00 -0.12015738571E+01  0.17416518754E+01  0.21479678152E+01  0.00000000000E+00 0. -1.
</event>
<event>
 7    1  0.4430431E-010  0.4778727E+02  0.7816164E-02  0.1312668E+00
        -11   -1    0    0    0    0  0.00000000000E+00  0.00000000000E+00  0.45593999997E+02  0.45594000000E+02  0.51100000000E-03 0.  1.
         11   -1    0    0    0    0 -0.00000000000E+00 -0.00000000000E+00 -0.45593999997E+02  0.45594000000E+02  0.51100000000E-03 0. -1.
    9900012    2    1    2    0    0 -0.98476989759E+01  0.27013907560E+02 -0.32509926457E+02  0.47787266193E+02  0.19999977880E+02 0.  0.
        -12    1    1    2    0    0  0.98476989759E+01 -0.27013907560E+02  0.32509926457E+02  0.43400733807E+02  0.00000000000E+00 0.  1.
         11    1    3    3    0    0 -0.48165347886E+01  0.43644713595E+00 -0.38699326227E+01  0.61940190699E+01  0.51100000000E-03 0.  1.
        -11    1    3    3    0    0 -0.30929353106E+01  0.20563475493E+01 -0.10188219852E+02  0.10844106146E+02  0.51100000000E-03 0. -1.
         12    1    3    3    0    0 -0.19382288767E+01  0.24521112874E+02 -0.18451773982E+02  0.30749140978E+02  0.00000000000E+00 0. -1.
</event>
<event>
 7    1  0.4430431E-010  0.4778724E+02  0.7816164E-02  0.1312668E+00
        -11   -1    0    0    0    0  0.00000000000E+00  0.00000000000E+00  0.45593999997E+02  0.45594000000E+02  0.51100000000E-03 0.  1.
         11   -1    0    0    0    0 -0.00000000000E+00 -0.00000000000E+00 -0.45593999997E+02  0.45594000000E+02  0.51100000000E-03 0. -1.
    9900012    2    1    2    0    0  0.55213843809E+01  0.36457009250E+01 -0.42893459815E+02  0.47787242914E+02  0.19999871742E+02 0.  0.
        -12    1    1    2    0    0 -0.55213843809E+01 -0.36457009250E+01  0.42893459815E+02  0.43400757086E+02  0.00000000000E+00 0.  1.
         11    1    3    3    0    0  0.71705139494E+01 -0.26158232026E+01 -0.19114977771E+02  0.20582545440E+02  0.51100000000E-03 0. -1.
        -11    1    3    3    0    0  0.12688731004E+01 -0.29736683638E+01 -0.87242164479E+01  0.93040150136E+01  0.51100000000E-03 0.  1.
        -12    1    3    3    0    0 -0.29180026689E+01  0.92351924914E+01 -0.15054265596E+02  0.17900682461E+02  0.00000000000E+00 0.  1.
</event>
<event>
 7    1  0.4430431E-010  0.4778727E+02  0.7816164E-02  0.1312668E+00
        -11   -1    0    0    0    0  0.00000000000E+00  0.00000000000E+00  0.45593999997E+02  0.45594000000E+02  0.51100000000E-03 0.  1.
         11   -1    0    0    0    0 -0.00000000000E+00 -0.00000000000E+00 -0.45593999997E+02  0.45594000000E+02  0.51100000000E-03 0. -1.
    9900012    2    1    2    0    0  0.78826174964E+01 -0.28368581389E+02 -0.31885908611E+02  0.47787271474E+02  0.20000001960E+02 0.  0.
        -12    1    1    2    0    0 -0.78826174964E+01  0.28368581389E+02  0.31885908611E+02  0.43400728526E+02  0.00000000000E+00 0.  1.
         11    1    3    3    0    0  0.59042873717E+01 -0.23324730427E+01 -0.29719481192E+01  0.70095303514E+01  0.51100000000E-03 0. -1.
        -11    1    3    3    0    0  0.43429793147E+01 -0.14342356983E+02 -0.87621650136E+01  0.17359153469E+02  0.51100000000E-03 0.  1.
         12    1    3    3    0    0 -0.23646491900E+01 -0.11693751364E+02 -0.20151795478E+02  0.23418587654E+02  0.00000000000E+00 0. -1.
</event>
<event>
 7    1  0.4430431E-010  0.4778731E+02  0.7816164E-02  0.1312668E+00
        -11   -1    0    0    0    0  0.00000000000E+00  0.00000000000E+00  0.45593999997E+02  0.45594000000E+02  0.51100000000E-03 0. -1.
         11   -1    0    0    0    0 -0.00000000000E+00 -0.00000000000E+00 -0.45593999997E+02  0.45594000000E+02  0.51100000000E-03 0.  1.
    9900012    2    1    2    0    0  0.37639142178E+02 -0.10570779257E+02  0.18846036049E+02  0.47787314835E+02  0.20000199660E+02 0.  0.
        -12    1    1    2    0    0 -0.37639142178E+02  0.10570779257E+02 -0.18846036049E+02  0.43400685165E+02  0.00000000000E+00 0.  1.
         11    1    3    3    0    0  0.15917073083E+02 -0.29125054020E+01  0.21956212387E+01  0.16329625107E+02  0.51100000000E-03 0. -1.
        -11    1    3    3    0    0  0.92453151400E+01 -0.21154791541E+01 -0.54690183507E+00  0.95000108404E+01  0.51100000000E-03 0.  1.
         12    1    3    3    0    0  0.12476753954E+02 -0.55427947011E+01  0.17197316645E+02  0.21957678888E+02  0.00000000000E+00 0. -1.
</event>
<event>
 7    1  0.4430431E-010  0.4778727E+02  0.7816164E-02  0.1312668E+00
        -11   -1    0    0    0    0  0.00000000000E+00  0.00000000000E+00  0.45593999997E+02  0.45594000000E+02  0.51100000000E-03 0.  1.
         11   -1    0    0    0    0 -0.00000000000E+00 -0.00000000000E+00 -0.45593999997E+02  0.45594000000E+02  0.51100000000E-03 0. -1.
    9900012    2    1    2    0    0  0.72065358002E+01  0.28347670806E+02 -0.32063980768E+02  0.47787268888E+02  0.19999990167E+02 0.  0.
        -12    1    1    2    0    0 -0.72065358002E+01 -0.28347670806E+02  0.32063980768E+02  0.43400731112E+02  0.00000000000E+00 0.  1.
         11    1    3    3    0    0  0.93133847601E+01  0.89755882587E+01 -0.11498918271E+02  0.17306803343E+02  0.51100000000E-03 0. -1.
        -11    1    3    3    0    0 -0.11481078102E+01  0.18875086549E+02 -0.13259415451E+02  0.23095435526E+02  0.51100000000E-03 0.  1.
         12    1    3    3    0    0 -0.95874114963E+00  0.49699599780E+00 -0.73056470464E+01  0.73850300189E+01  0.00000000000E+00 0. -1.
</event>
<event>
 7    1  0.4430431E-010  0.4778727E+02  0.7816164E-02  0.1312668E+00
        -11   -1    0    0    0    0  0.00000000000E+00  0.00000000000E+00  0.45593999997E+02  0.45594000000E+02  0.51100000000E-03 0.  1.
         11   -1    0    0    0    0 -0.00000000000E+00 -0.00000000000E+00 -0.45593999997E+02  0.45594000000E+02  0.51100000000E-03 0. -1.
    9900012    2    1    2    0    0  0.38929774257E+01  0.15372745777E+02 -0.40399834121E+02  0.47787272092E+02  0.20000004776E+02 0.  0.
        -12    1    1    2    0    0 -0.38929774257E+01 -0.15372745777E+02  0.40399834121E+02  0.43400727908E+02  0.00000000000E+00 0.  1.
         11    1    3    3    0    0  0.26345013809E+01  0.14299332747E+02 -0.19799977833E+02  0.24565232280E+02  0.51100000000E-03 0. -1.
        -11    1    3    3    0    0 -0.34006115159E+01  0.18843126610E+01 -0.27647558927E+01  0.47706046046E+01  0.51100000000E-03 0.  1.
         12    1    3    3    0    0  0.46590875606E+01 -0.81089963063E+00 -0.17835100395E+02  0.18451435207E+02  0.00000000000E+00 0. -1.
</event>
<event>
 7    1  0.4430431E-010  0.4778727E+02  0.7816164E-02  0.1312668E+00
        -11   -1    0    0    0    0  0.00000000000E+00  0.00000000000E+00  0.45593999997E+02  0.45594000000E+02  0.51100000000E-03 0.  1.
         11   -1    0    0    0    0 -0.00000000000E+00 -0.00000000000E+00 -0.45593999997E+02  0.45594000000E+02  0.51100000000E-03 0. -1.
    9900012    2    1    2    0    0  0.25700897737E+02 -0.67474718769E+01 -0.34315575122E+02  0.47787271698E+02  0.20000002981E+02 0.  0.
        -12    1    1    2    0    0 -0.25700897737E+02  0.67474718769E+01  0.34315575122E+02  0.43400728302E+02  0.00000000000E+00 0.  1.
         11    1    3    3    0    0  0.17081643492E+02  0.15089012403E+01 -0.26505764632E+02  0.31569207882E+02  0.51100000000E-03 0.  1.
        -11    1    3    3    0    0  0.64814938871E+01 -0.95570516645E+00 -0.29051913794E+01  0.71668174656E+01  0.51100000000E-03 0. -1.
        -12    1    3    3    0    0  0.21377603570E+01 -0.73006679507E+01 -0.49046191107E+01  0.90512463502E+01  0.00000000000E+00 0.  1.
</event>
<event>
 7    1  0.4430431E-010  0.4778727E+02  0.7816164E-02  0.1312668E+00
        -11   -1    0    0    0    0  0.00000000000E+00  0.00000000000E+00  0.45593999997E+02  0.45594000000E+02  0.51100000000E-03 0.  1.
         11   -1    0    0    0    0 -0.00000000000E+00 -0.00000000000E+00 -0.45593999997E+02  0.45594000000E+02  0.51100000000E-03 0. -1.
    9900012    2    1    2    0    0  0.31009177885E+02 -0.74215690087E+01 -0.29444429367E+02  0.47787271661E+02  0.20000002809E+02 0.  0.
        -12    1    1    2    0    0 -0.31009177885E+02  0.74215690087E+01  0.29444429367E+02  0.43400728339E+02  0.00000000000E+00 0.  1.
         11    1    3    3    0    0  0.84263708941E+01  0.16588021947E+01 -0.10667146310E+02  0.13694647196E+02  0.51100000000E-03 0. -1.
        -11    1    3    3    0    0  0.51101997451E+00  0.13022871919E+01 -0.67560387520E+01  0.68993588995E+01  0.51100000000E-03 0.  1.
         12    1    3    3    0    0  0.22071787016E+02 -0.10382658395E+02 -0.12021244305E+02  0.27193265565E+02  0.00000000000E+00 0. -1.
</event>
<event>
 7    1  0.4430431E-010  0.4778726E+02  0.7816164E-02  0.1312668E+00
        -11   -1    0    0    0    0  0.00000000000E+00  0.00000000000E+00  0.45593999997E+02  0.45594000000E+02  0.51100000000E-03 0.  1.
         11   -1    0    0    0    0 -0.00000000000E+00 -0.00000000000E+00 -0.45593999997E+02  0.45594000000E+02  0.51100000000E-03 0. -1.
    9900012    2    1    2    0    0  0.32940267554E+02 -0.21996682467E+02 -0.17740029063E+02  0.47787263862E+02  0.19999967255E+02 0.  0.
        -12    1    1    2    0    0 -0.32940267554E+02  0.21996682467E+02  0.17740029063E+02  0.43400736138E+02  0.00000000000E+00 0.  1.
         11    1    3    3    0    0  0.22475148252E+02 -0.16788859418E+02 -0.72034017829E+01  0.28963547556E+02  0.51100000000E-03 0. -1.
        -11    1    3    3    0    0  0.10708110197E+02 -0.11991093428E+01 -0.47394061372E+01  0.11771298059E+02  0.51100000000E-03 0.  1.
        -12    1    3    3    0    0 -0.24299089464E+00 -0.40087137068E+01 -0.57972211431E+01  0.70524182477E+01  0.00000000000E+00 0.  1.
</event>
<event>
 7    1  0.4430431E-010  0.4778727E+02  0.7816164E-02  0.1312668E+00
        -11   -1    0    0    0    0  0.00000000000E+00  0.00000000000E+00  0.45593999997E+02  0.45594000000E+02  0.51100000000E-03 0.  1.
         11   -1    0    0    0    0 -0.00000000000E+00 -0.00000000000E+00 -0.45593999997E+02  0.45594000000E+02  0.51100000000E-03 0. -1.
    9900012    2    1    2    0    0 -0.89235634625E+01  0.40094252980E+02  0.14015865284E+02  0.47787267442E+02  0.19999983575E+02 0.  0.
        -12    1    1    2    0    0  0.89235634625E+01 -0.40094252980E+02 -0.14015865284E+02  0.43400732558E+02  0.00000000000E+00 0.  1.
         11    1    3    3    0    0 -0.82890389072E+01  0.19277759582E+02  0.34336786241E+01  0.21263356501E+02  0.51100000000E-03 0. -1.
        -11    1    3    3    0    0 -0.42620370691E+01  0.19100253192E+01  0.40876663222E+01  0.62066233107E+01  0.51100000000E-03 0.  1.
         12    1    3    3    0    0  0.36275125138E+01  0.18906468079E+02  0.64945203380E+01  0.20317287631E+02  0.00000000000E+00 0. -1.
</event>
<event>
 7    1  0.4430431E-010  0.4778727E+02  0.7816164E-02  0.1312668E+00
        -11   -1    0    0    0    0  0.00000000000E+00  0.00000000000E+00  0.45593999997E+02  0.45594000000E+02  0.51100000000E-03 0.  1.
         11   -1    0    0    0    0 -0.00000000000E+00 -0.00000000000E+00 -0.45593999997E+02  0.45594000000E+02  0.51100000000E-03 0. -1.
    9900012    2    1    2    0    0 -0.73651768935E+01  0.24722565883E+02 -0.34902324230E+02  0.47787270384E+02  0.19999996989E+02 0.  0.
        -12    1    1    2    0    0  0.73651768935E+01 -0.24722565883E+02  0.34902324230E+02  0.43400729616E+02  0.00000000000E+00 0.  1.
         11    1    3    3    0    0 -0.13539588943E+02  0.10745482373E+02 -0.20134714000E+02  0.26536626920E+02  0.51100000000E-03 0. -1.
        -11    1    3    3    0    0  0.12676254785E+01  0.30263804531E+01 -0.31929477144E+01  0.45782931720E+01  0.51100000000E-03 0.  1.
         12    1    3    3    0    0  0.49067865713E+01  0.10950703057E+02 -0.11574662516E+02  0.16672350292E+02  0.00000000000E+00 0. -1.
</event>
<event>
 7    1  0.4430431E-010  0.4778727E+02  0.7816164E-02  0.1312668E+00
        -11   -1    0    0    0    0  0.00000000000E+00  0.00000000000E+00  0.45593999997E+02  0.45594000000E+02  0.51100000000E-03 0.  1.
         11   -1    0    0    0    0 -0.00000000000E+00 -0.00000000000E+00 -0.45593999997E+02  0.45594000000E+02  0.51100000000E-03 0. -1.
    9900012    2    1    2    0    0 -0.24801596270E+02 -0.31356299834E+02 -0.16890426549E+02  0.47787271598E+02  0.20000002524E+02 0.  0.
        -12    1    1    2    0    0  0.24801596270E+02  0.31356299834E+02  0.16890426549E+02  0.43400728402E+02  0.00000000000E+00 0.  1.
         11    1    3    3    0    0 -0.14263746909E+02 -0.27445300046E+02 -0.13722969747E+02  0.33838127452E+02  0.51100000000E-03 0.  1.
        -11    1    3    3    0    0  0.10338870549E+01 -0.30960020904E+00 -0.12956118142E+01  0.16862339594E+01  0.51100000000E-03 0. -1.
        -12    1    3    3    0    0 -0.11571736415E+02 -0.36013995792E+01 -0.18718449885E+01  0.12262910187E+02  0.00000000000E+00 0.  1.
</event>
<event>
 7    1  0.4430431E-010  0.4778728E+02  0.7816164E-02  0.1312668E+00
        -11   -1    0    0    0    0  0.00000000000E+00  0.00000000000E+00  0.45593999997E+02  0.45594000000E+02  0.51100000000E-03 0.  1.
         11   -1    0    0    0    0 -0.00000000000E+00 -0.00000000000E+00 -0.45593999997E+02  0.45594000000E+02  0.51100000000E-03 0. -1.
    9900012    2    1    2    0    0  0.37600439771E+02  0.54868102046E+01 -0.20969611796E+02  0.47787276780E+02  0.20000026150E+02 0.  0.
        -12    1    1    2    0    0 -0.37600439771E+02 -0.54868102046E+01  0.20969611796E+02  0.43400723220E+02  0.00000000000E+00 0.  1.
         11    1    3    3    0    0  0.36057279923E+00  0.36564176092E+00 -0.12011230476E+00  0.52738398511E+00  0.51100000000E-03 0. -1.
        -11    1    3    3    0    0  0.14544205877E+01 -0.24007878971E+01  0.25946777989E+01  0.38224959011E+01  0.51100000000E-03 0.  1.
         12    1    3    3    0    0  0.35785446384E+02  0.75219563409E+01 -0.23444177290E+02  0.43437396894E+02  0.00000000000E+00 0. -1.
</event>
<event>
 7    1  0.4430431E-010  0.4778727E+02  0.7816164E-02  0.1312668E+00
        -11   -1    0    0    0    0  0.00000000000E+00  0.00000000000E+00  0.45593999997E+02  0.45594000000E+02  0.51100000000E-03 0. -1.
         11   -1    0    0    0    0 -0.00000000000E+00 -0.00000000000E+00 -0.45593999997E+02  0.45594000000E+02  0.51100000000E-03 0.  1.
    9900012    2    1    2    0    0 -0.18206458750E+02  0.39071114358E+02  0.50592520295E+01  0.47787272489E+02  0.20000006588E+02 0.  0.
        -12    1    1    2    0    0  0.18206458750E+02 -0.39071114358E+02 -0.50592520295E+01  0.43400727511E+02  0.00000000000E+00 0.  1.
         11    1    3    3    0    0 -0.83072712387E+01  0.12780683550E+02  0.15094688000E+01  0.15317804143E+02  0.51100000000E-03 0. -1.
        -11    1    3    3    0    0 -0.60243797867E+01  0.18366038363E+01  0.44215416092E+01  0.76952125331E+01  0.51100000000E-03 0.  1.
        -12    1    3    3    0    0 -0.38748077245E+01  0.24453826972E+02 -0.87175837969E+00  0.24774255814E+02  0.00000000000E+00 0.  1.
</event>
<event>
 7    1  0.4430431E-010  0.4778727E+02  0.7816164E-02  0.1312668E+00
        -11   -1    0    0    0    0  0.00000000000E+00  0.00000000000E+00  0.45593999997E+02  0.45594000000E+02  0.51100000000E-03 0. -1.
         11   -1    0    0    0    0 -0.00000000000E+00 -0.00000000000E+00 -0.45593999997E+02  0.45594000000E+02  0.51100000000E-03 0.  1.
    9900012    2    1    2    0    0  0.23674422798E+02  0.35803228408E+02 -0.64244749746E+01  0.47787270306E+02  0.19999996632E+02 0.  0.
        -12    1    1    2    0    0 -0.23674422798E+02 -0.35803228408E+02  0.64244749746E+01  0.43400729694E+02  0.00000000000E+00 0.  1.
         11    1    3    3    0    0  0.11451033491E+02  0.11891016276E+02 -0.12714246257E+01  0.16557142173E+02  0.51100000000E-03 0. -1.
        -11    1    3    3    0    0  0.98062841015E+01  0.18580145154E+02  0.29691760098E+01  0.21217940717E+02  0.51100000000E-03 0.  1.
        -12    1    3    3    0    0  0.24171052058E+01  0.53320669781E+01 -0.81222263587E+01  0.10012187416E+02  0.00000000000E+00 0.  1.
</event>
<event>
 7    1  0.4430431E-010  0.4778727E+02  0.7816164E-02  0.1312668E+00
        -11   -1    0    0    0    0  0.00000000000E+00  0.00000000000E+00  0.45593999997E+02  0.45594000000E+02  0.51100000000E-03 0.  1.
         11   -1    0    0    0    0 -0.00000000000E+00 -0.00000000000E+00 -0.45593999997E+02  0.45594000000E+02  0.51100000000E-03 0. -1.
    9900012    2    1    2    0    0  0.28462915235E+02  0.32696305501E+02 -0.21065253395E+01  0.47787269752E+02  0.19999994108E+02 0.  0.
        -12    1    1    2    0    0 -0.28462915235E+02 -0.32696305501E+02  0.21065253395E+01  0.43400730248E+02  0.00000000000E+00 0.  1.
         11    1    3    3    0    0  0.18759624667E+02  0.28364684820E+02 -0.11921041931E+01  0.34027929341E+02  0.51100000000E-03 0. -1.
        -11    1    3    3    0    0  0.96802494610E+01  0.54450601005E+01  0.13965428269E+01  0.11194027035E+02  0.51100000000E-03 0.  1.
         12    1    3    3    0    0  0.23041106764E-01 -0.11134394196E+01 -0.23109639733E+01  0.25653133765E+01  0.00000000000E+00 0. -1.
</event>
<event>
 7    1  0.4430431E-010  0.4778728E+02  0.7816164E-02  0.1312668E+00
        -11   -1    0    0    0    0  0.00000000000E+00  0.00000000000E+00  0.45593999997E+02  0.45594000000E+02  0.51100000000E-03 0.  1.
         11   -1    0    0    0    0 -0.00000000000E+00 -0.00000000000E+00 -0.45593999997E+02  0.45594000000E+02  0.51100000000E-03 0. -1.
    9900012    2    1    2    0    0 -0.19555287870E+02  0.67138074777E+00 -0.38739680049E+02  0.47787275972E+02  0.20000022469E+02 0.  0.
        -12    1    1    2    0    0  0.19555287870E+02 -0.67138074777E+00  0.38739680049E+02  0.43400724028E+02  0.00000000000E+00 0.  1.
         11    1    3    3    0    0 -0.92568022316E+01  0.12556647861E+01 -0.95336820525E+01  0.13347515700E+02  0.51100000000E-03 0. -1.
        -11    1    3    3    0    0  0.55199593186E+00  0.32932331705E+01 -0.33691223370E+00  0.33561278788E+01  0.51100000000E-03 0.  1.
         12    1    3    3    0    0 -0.10850481570E+02 -0.38775172089E+01 -0.28869085763E+02  0.31083632394E+02  0.00000000000E+00 0. -1.
</event>
<event>
 7    1  0.4430431E-010  0.4778726E+02  0.7816164E-02  0.1312668E+00
        -11   -1    0    0    0    0  0.00000000000E+00  0.00000000000E+00  0.45593999997E+02  0.45594000000E+02  0.51100000000E-03 0. -1.
         11   -1    0    0    0    0 -0.00000000000E+00 -0.00000000000E+00 -0.45593999997E+02  0.45594000000E+02  0.51100000000E-03 0.  1.
    9900012    2    1    2    0    0 -0.11824559727E+02  0.34519890706E+02  0.23498528097E+02  0.47787263948E+02  0.19999967645E+02 0.  0.
        -12    1    1    2    0    0  0.11824559727E+02 -0.34519890706E+02 -0.23498528097E+02  0.43400736052E+02  0.00000000000E+00 0.  1.
         11    1    3    3    0    0  0.21732899538E+01  0.44442326386E+01 -0.14847060572E+00  0.49493875127E+01  0.51100000000E-03 0. -1.
        -11    1    3    3    0    0 -0.91331511796E+00  0.37478373596E+00 -0.14893936899E+01  0.17868690993E+01  0.51100000000E-03 0.  1.
         12    1    3    3    0    0 -0.13084534563E+02  0.29700874331E+02  0.25136392393E+02  0.41051007336E+02  0.00000000000E+00 0. -1.
</event>
<event>
 7    1  0.4430431E-010  0.4778726E+02  0.7816164E-02  0.1312668E+00
        -11   -1    0    0    0    0  0.00000000000E+00  0.00000000000E+00  0.45593999997E+02  0.45594000000E+02  0.51100000000E-03 0.  1.
         11   -1    0    0    0    0 -0.00000000000E+00 -0.00000000000E+00 -0.45593999997E+02  0.45594000000E+02  0.51100000000E-03 0. -1.
    9900012    2    1    2    0    0  0.11832602361E+02 -0.32073524176E+02 -0.26737661640E+02  0.47787262890E+02  0.19999962820E+02 0.  0.
        -12    1    1    2    0    0 -0.11832602361E+02  0.32073524176E+02  0.26737661640E+02  0.43400737110E+02  0.00000000000E+00 0.  1.
         11    1    3    3    0    0  0.55154111425E+01 -0.19062113549E+02 -0.13637350599E+02  0.24078232175E+02  0.51100000000E-03 0. -1.
        -11    1    3    3    0    0  0.69535595571E+01 -0.12625996127E+02 -0.45339300864E+01  0.15110403403E+02  0.51100000000E-03 0.  1.
         12    1    3    3    0    0 -0.63636833867E+00 -0.38541450039E+00 -0.85663809544E+01  0.85986273123E+01  0.00000000000E+00 0. -1.
</event>
<event>
 7    1  0.4430431E-010  0.4778728E+02  0.7816164E-02  0.1312668E+00
        -11   -1    0    0    0    0  0.00000000000E+00  0.00000000000E+00  0.45593999997E+02  0.45594000000E+02  0.51100000000E-03 0.  1.
         11   -1    0    0    0    0 -0.00000000000E+00 -0.00000000000E+00 -0.45593999997E+02  0.45594000000E+02  0.51100000000E-03 0. -1.
    9900012    2    1    2    0    0 -0.40190278863E+02 -0.14594389410E+02  0.74409544634E+01  0.47787279722E+02  0.20000039564E+02 0.  0.
        -12    1    1    2    0    0  0.40190278863E+02  0.14594389410E+02 -0.74409544634E+01  0.43400720278E+02  0.00000000000E+00 0.  1.
         11    1    3    3    0    0 -0.15767530418E+02 -0.80473537263E+01  0.69314479209E+01  0.19011046473E+02  0.51100000000E-03 0. -1.
        -11    1    3    3    0    0 -0.11328611361E+02 -0.39766385241E+01  0.70419321801E+01  0.13919048043E+02  0.51100000000E-03 0.  1.
        -12    1    3    3    0    0 -0.13094137084E+02 -0.25703971600E+01 -0.65324256377E+01  0.14857185206E+02  0.00000000000E+00 0.  1.
</event>
<event>
 7    1  0.4430431E-010  0.4778726E+02  0.7816164E-02  0.1312668E+00
        -11   -1    0    0    0    0  0.00000000000E+00  0.00000000000E+00  0.45593999997E+02  0.45594000000E+02  0.51100000000E-03 0.  1.
         11   -1    0    0    0    0 -0.00000000000E+00 -0.00000000000E+00 -0.45593999997E+02  0.45594000000E+02  0.51100000000E-03 0. -1.
    9900012    2    1    2    0    0 -0.18252117342E+02  0.96279330654E+01 -0.38180976005E+02  0.47787264853E+02  0.19999971772E+02 0.  0.
        -12    1    1    2    0    0  0.18252117342E+02 -0.96279330654E+01  0.38180976005E+02  0.43400735147E+02  0.00000000000E+00 0.  1.
         11    1    3    3    0    0 -0.41160943279E+01  0.59352993413E+01 -0.15064140343E+02  0.16706236420E+02  0.51100000000E-03 0. -1.
        -11    1    3    3    0    0 -0.17517051212E+01  0.74495656003E+01 -0.10624577851E+02  0.13093744813E+02  0.51100000000E-03 0.  1.
        -12    1    3    3    0    0 -0.12384317893E+02 -0.37569318763E+01 -0.12492257811E+02  0.17987283620E+02  0.00000000000E+00 0.  1.
</event>
<event>
 7    1  0.4430431E-010  0.4778727E+02  0.7816164E-02  0.1312668E+00
        -11   -1    0    0    0    0  0.00000000000E+00  0.00000000000E+00  0.45593999997E+02  0.45594000000E+02  0.51100000000E-03 0.  1.
         11   -1    0    0    0    0 -0.00000000000E+00 -0.00000000000E+00 -0.45593999997E+02  0.45594000000E+02  0.51100000000E-03 0. -1.
    9900012    2    1    2    0    0  0.28921617471E+01 -0.20862954006E+02 -0.37947273241E+02  0.47787274248E+02  0.20000014604E+02 0.  0.
        -12    1    1    2    0    0 -0.28921617471E+01  0.20862954006E+02  0.37947273241E+02  0.43400725752E+02  0.00000000000E+00 0.  1.
         11    1    3    3    0    0  0.61462546587E+01 -0.39990789638E+01 -0.73540368092E+01  0.10385130550E+02  0.51100000000E-03 0. -1.
        -11    1    3    3    0    0  0.16553047035E+01  0.11966714969E+01 -0.69716735802E+01  0.72647291142E+01  0.51100000000E-03 0.  1.
         12    1    3    3    0    0 -0.49093976150E+01 -0.18060546539E+02 -0.23621562852E+02  0.30137414583E+02  0.00000000000E+00 0. -1.
</event>
<event>
 7    1  0.4430431E-010  0.4778727E+02  0.7816164E-02  0.1312668E+00
        -11   -1    0    0    0    0  0.00000000000E+00  0.00000000000E+00  0.45593999997E+02  0.45594000000E+02  0.51100000000E-03 0. -1.
         11   -1    0    0    0    0 -0.00000000000E+00 -0.00000000000E+00 -0.45593999997E+02  0.45594000000E+02  0.51100000000E-03 0.  1.
    9900012    2    1    2    0    0  0.33605594593E+02  0.27463236851E+02 -0.24086579040E+00  0.47787269792E+02  0.19999994288E+02 0.  0.
        -12    1    1    2    0    0 -0.33605594593E+02 -0.27463236851E+02  0.24086579040E+00  0.43400730208E+02  0.00000000000E+00 0.  1.
         11    1    3    3    0    0  0.12481042303E+02  0.35798744758E+01 -0.11028036041E+01  0.13031043484E+02  0.51100000000E-03 0. -1.
        -11    1    3    3    0    0  0.11205072098E+02  0.54742688868E+01  0.50060168118E+01  0.13438060319E+02  0.51100000000E-03 0.  1.
        -12    1    3    3    0    0  0.99194801916E+01  0.18409093489E+02 -0.41440789981E+01  0.21318165988E+02  0.00000000000E+00 0.  1.
</event>
<event>
 7    1  0.4430431E-010  0.4778728E+02  0.7816164E-02  0.1312668E+00
        -11   -1    0    0    0    0  0.00000000000E+00  0.00000000000E+00  0.45593999997E+02  0.45594000000E+02  0.51100000000E-03 0. -1.
         11   -1    0    0    0    0 -0.00000000000E+00 -0.00000000000E+00 -0.45593999997E+02  0.45594000000E+02  0.51100000000E-03 0.  1.
    9900012    2    1    2    0    0 -0.24092098998E+02  0.28447834811E+02  0.22224179176E+02  0.47787277891E+02  0.20000031217E+02 0.  0.
        -12    1    1    2    0    0  0.24092098998E+02 -0.28447834811E+02 -0.22224179176E+02  0.43400722109E+02  0.00000000000E+00 0.  1.
         11    1    3    3    0    0 -0.28050160300E+01  0.16259054280E+01  0.14175145720E+01  0.35385069185E+01  0.51100000000E-03 0. -1.
        -11    1    3    3    0    0 -0.27819641196E+01  0.88593869800E+01  0.15269940956E+02  0.17871741915E+02  0.51100000000E-03 0.  1.
        -12    1    3    3    0    0 -0.18505118848E+02  0.17962542403E+02  0.55367236480E+01  0.26377029058E+02  0.00000000000E+00 0.  1.
</event>
<event>
 7    1  0.4430431E-010  0.4778727E+02  0.7816164E-02  0.1312668E+00
        -11   -1    0    0    0    0  0.00000000000E+00  0.00000000000E+00  0.45593999997E+02  0.45594000000E+02  0.51100000000E-03 0.  1.
         11   -1    0    0    0    0 -0.00000000000E+00 -0.00000000000E+00 -0.45593999997E+02  0.45594000000E+02  0.51100000000E-03 0. -1.
    9900012    2    1    2    0    0 -0.14982180984E+02 -0.22456695344E+02 -0.33983151331E+02  0.47787268587E+02  0.19999988797E+02 0.  0.
        -12    1    1    2    0    0  0.14982180984E+02  0.22456695344E+02  0.33983151331E+02  0.43400731413E+02  0.00000000000E+00 0.  1.
         11    1    3    3    0    0 -0.72676848777E+01 -0.60871275366E+01 -0.14987505289E+02  0.17734082445E+02  0.51100000000E-03 0. -1.
        -11    1    3    3    0    0 -0.21429776455E+01  0.25021149802E+01 -0.46644533386E+01  0.57105216725E+01  0.51100000000E-03 0.  1.
         12    1    3    3    0    0 -0.55715184613E+01 -0.18871682787E+02 -0.14331192704E+02  0.24342664470E+02  0.00000000000E+00 0. -1.
</event>
<event>
 7    1  0.4430431E-010  0.4778727E+02  0.7816164E-02  0.1312668E+00
        -11   -1    0    0    0    0  0.00000000000E+00  0.00000000000E+00  0.45593999997E+02  0.45594000000E+02  0.51100000000E-03 0.  1.
         11   -1    0    0    0    0 -0.00000000000E+00 -0.00000000000E+00 -0.45593999997E+02  0.45594000000E+02  0.51100000000E-03 0. -1.
    9900012    2    1    2    0    0 -0.41608265639E+01 -0.28676024982E+02 -0.32310931160E+02  0.47787272369E+02  0.20000006041E+02 0.  0.
        -12    1    1    2    0    0  0.41608265639E+01  0.28676024982E+02  0.32310931160E+02  0.43400727631E+02  0.00000000000E+00 0.  1.
         11    1    3    3    0    0  0.56584443414E+00 -0.38611160346E-01 -0.43775026365E+01  0.44140911113E+01  0.51100000000E-03 0. -1.
        -11    1    3    3    0    0  0.57138629241E+01 -0.13563344063E+02 -0.14328051748E+02  0.20540340768E+02  0.51100000000E-03 0.  1.
         12    1    3    3    0    0 -0.10440533922E+02 -0.15074069759E+02 -0.13605376775E+02  0.22832840490E+02  0.00000000000E+00 0. -1.
</event>
<event>
 7    1  0.4430431E-010  0.4778727E+02  0.7816164E-02  0.1312668E+00
        -11   -1    0    0    0    0  0.00000000000E+00  0.00000000000E+00  0.45593999997E+02  0.45594000000E+02  0.51100000000E-03 0. -1.
         11   -1    0    0    0    0 -0.00000000000E+00 -0.00000000000E+00 -0.45593999997E+02  0.45594000000E+02  0.51100000000E-03 0.  1.
    9900012    2    1    2    0    0 -0.28330798786E+02 -0.19159507774E+01  0.32822527384E+02  0.47787270385E+02  0.19999996996E+02 0.  0.
        -12    1    1    2    0    0  0.28330798786E+02  0.19159507774E+01 -0.32822527384E+02  0.43400729615E+02  0.00000000000E+00 0.  1.
         11    1    3    3    0    0 -0.23298672028E+02  0.21557893056E+01  0.17909188346E+02  0.29465481046E+02  0.51100000000E-03 0. -1.
        -11    1    3    3    0    0 -0.74091579201E+01 -0.27533216975E+01  0.10581266367E+02  0.13207558429E+02  0.51100000000E-03 0.  1.
        -12    1    3    3    0    0  0.23770311624E+01 -0.13184183855E+01  0.43320726702E+01  0.51142309105E+01  0.00000000000E+00 0.  1.
</event>
<event>
 7    1  0.4430431E-010  0.4778727E+02  0.7816164E-02  0.1312668E+00
        -11   -1    0    0    0    0  0.00000000000E+00  0.00000000000E+00  0.45593999997E+02  0.45594000000E+02  0.51100000000E-03 0.  1.
         11   -1    0    0    0    0 -0.00000000000E+00 -0.00000000000E+00 -0.45593999997E+02  0.45594000000E+02  0.51100000000E-03 0. -1.
    9900012    2    1    2    0    0  0.28635973607E+02 -0.11126441710E+02 -0.30656265271E+02  0.47787270860E+02  0.19999999157E+02 0.  0.
        -12    1    1    2    0    0 -0.28635973607E+02  0.11126441710E+02  0.30656265271E+02  0.43400729140E+02  0.00000000000E+00 0.  1.
         11    1    3    3    0    0  0.83310786098E+01 -0.42208904744E+01 -0.81300681364E+00  0.93746342616E+01  0.51100000000E-03 0. -1.
        -11    1    3    3    0    0 -0.64089725791E+00 -0.10340420583E+01  0.28741851921E+00  0.12500407753E+01  0.51100000000E-03 0.  1.
         12    1    3    3    0    0  0.20945792256E+02 -0.58715091777E+01 -0.30130676976E+02  0.37162595823E+02  0.00000000000E+00 0. -1.
</event>
<event>
 7    1  0.4430431E-010  0.4778727E+02  0.7816164E-02  0.1312668E+00
        -11   -1    0    0    0    0  0.00000000000E+00  0.00000000000E+00  0.45593999997E+02  0.45594000000E+02  0.51100000000E-03 0. -1.
         11   -1    0    0    0    0 -0.00000000000E+00 -0.00000000000E+00 -0.45593999997E+02  0.45594000000E+02  0.51100000000E-03 0.  1.
    9900012    2    1    2    0    0  0.12126207865E+02  0.18454553171E+02  0.37363188311E+02  0.47787270851E+02  0.19999999117E+02 0.  0.
        -12    1    1    2    0    0 -0.12126207865E+02 -0.18454553171E+02 -0.37363188311E+02  0.43400729149E+02  0.00000000000E+00 0.  1.
         11    1    3    3    0    0  0.55583423635E+01  0.82993291623E+01  0.19489301157E+02  0.21899929092E+02  0.51100000000E-03 0. -1.
        -11    1    3    3    0    0  0.66118098919E+01  0.13680323866E+02  0.14232542874E+02  0.20819043399E+02  0.51100000000E-03 0.  1.
        -12    1    3    3    0    0 -0.43944390172E-01 -0.35250998564E+01  0.36413442791E+01  0.50682983599E+01  0.00000000000E+00 0.  1.
</event>
<event>
 7    1  0.4430431E-010  0.4778726E+02  0.7816164E-02  0.1312668E+00
        -11   -1    0    0    0    0  0.00000000000E+00  0.00000000000E+00  0.45593999997E+02  0.45594000000E+02  0.51100000000E-03 0.  1.
         11   -1    0    0    0    0 -0.00000000000E+00 -0.00000000000E+00 -0.45593999997E+02  0.45594000000E+02  0.51100000000E-03 0. -1.
    9900012    2    1    2    0    0 -0.14059632009E+02 -0.34778234036E+02 -0.21827170661E+02  0.47787260444E+02  0.19999951669E+02 0.  0.
        -12    1    1    2    0    0  0.14059632009E+02  0.34778234036E+02  0.21827170661E+02  0.43400739556E+02  0.00000000000E+00 0.  1.
         11    1    3    3    0    0 -0.51201726665E+01 -0.54590330035E+01  0.15237569645E+01  0.76380000665E+01  0.51100000000E-03 0. -1.
        -11    1    3    3    0    0  0.12506091502E+01 -0.36715596498E+01  0.17814762293E+00  0.38827967170E+01  0.51100000000E-03 0.  1.
         12    1    3    3    0    0 -0.10190068492E+02 -0.25647641383E+02 -0.23529075249E+02  0.36266463661E+02  0.00000000000E+00 0. -1.
</event>
<event>
 7    1  0.4513732E-010  0.4778727E+02  0.7816164E-02  0.1312668E+00
        -11   -1    0    0    0    0  0.00000000000E+00  0.00000000000E+00  0.45593999997E+02  0.45594000000E+02  0.51100000000E-03 0. -1.
         11   -1    0    0    0    0 -0.00000000000E+00 -0.00000000000E+00 -0.45593999997E+02  0.45594000000E+02  0.51100000000E-03 0.  1.
    9900012    2    1    2    0    0 -0.40619762685E+02  0.14454683292E+02 -0.49719266709E+01  0.47787273687E+02  0.20000012049E+02 0.  0.
        -12    1    1    2    0    0  0.40619762685E+02 -0.14454683292E+02  0.49719266709E+01  0.43400726313E+02  0.00000000000E+00 0.  1.
         11    1    3    3    0    0 -0.18912837293E+02  0.94659722806E+01 -0.62821641541E+01  0.22062765747E+02  0.51100000000E-03 0. -1.
        -11    1    3    3    0    0  0.78198235011E+00  0.23605382314E+01 -0.15074060363E+01  0.29079048054E+01  0.51100000000E-03 0.  1.
        -12    1    3    3    0    0 -0.22488907742E+02  0.26281727798E+01  0.28176435195E+01  0.22816603135E+02  0.00000000000E+00 0.  1.
</event>
<event>
 7    1  0.4430431E-010  0.4778729E+02  0.7816164E-02  0.1312668E+00
        -11   -1    0    0    0    0  0.00000000000E+00  0.00000000000E+00  0.45593999997E+02  0.45594000000E+02  0.51100000000E-03 0. -1.
         11   -1    0    0    0    0 -0.00000000000E+00 -0.00000000000E+00 -0.45593999997E+02  0.45594000000E+02  0.51100000000E-03 0.  1.
    9900012    2    1    2    0    0  0.33241001233E+02 -0.27653644079E+02 -0.37327477323E+01  0.47787290334E+02  0.20000087950E+02 0.  0.
        -12    1    1    2    0    0 -0.33241001233E+02  0.27653644079E+02  0.37327477323E+01  0.43400709666E+02  0.00000000000E+00 0.  1.
         11    1    3    3    0    0  0.20695691705E+02 -0.68828088993E+01  0.33336789981E+01  0.22063502202E+02  0.51100000000E-03 0. -1.
        -11    1    3    3    0    0 -0.18940666289E+00 -0.21662630701E+01 -0.37899484893E+00  0.22073078465E+01  0.51100000000E-03 0.  1.
         12    1    3    3    0    0  0.12734716191E+02 -0.18604572110E+02 -0.66874318815E+01  0.23516480286E+02  0.00000000000E+00 0. -1.
</event>
<event>
 7    1  0.4430431E-010  0.4778727E+02  0.7816164E-02  0.1312668E+00
        -11   -1    0    0    0    0  0.00000000000E+00  0.00000000000E+00  0.45593999997E+02  0.45594000000E+02  0.51100000000E-03 0.  1.
         11   -1    0    0    0    0 -0.00000000000E+00 -0.00000000000E+00 -0.45593999997E+02  0.45594000000E+02  0.51100000000E-03 0. -1.
    9900012    2    1    2    0    0  0.51331268831E+01 -0.41203590838E+02 -0.12630844988E+02  0.47787272649E+02  0.20000007314E+02 0.  0.
        -12    1    1    2    0    0 -0.51331268831E+01  0.41203590838E+02  0.12630844988E+02  0.43400727351E+02  0.00000000000E+00 0.  1.
         11    1    3    3    0    0  0.43562867139E+01 -0.56847286109E+01  0.19138279683E+01  0.74132389052E+01  0.51100000000E-03 0. -1.
        -11    1    3    3    0    0  0.13260586157E+01 -0.20741970742E+02 -0.18167414728E+01  0.20863564690E+02  0.51100000000E-03 0.  1.
         12    1    3    3    0    0 -0.54921844651E+00 -0.14776891485E+02 -0.12727931483E+02  0.19510469054E+02  0.00000000000E+00 0. -1.
</event>
<event>
 7    1  0.4430431E-010  0.4778727E+02  0.7816164E-02  0.1312668E+00
        -11   -1    0    0    0    0  0.00000000000E+00  0.00000000000E+00  0.45593999997E+02  0.45594000000E+02  0.51100000000E-03 0.  1.
         11   -1    0    0    0    0 -0.00000000000E+00 -0.00000000000E+00 -0.45593999997E+02  0.45594000000E+02  0.51100000000E-03 0. -1.
    9900012    2    1    2    0    0  0.35688941019E+02  0.24046659902E+02 -0.56285844423E+01  0.47787270440E+02  0.19999997244E+02 0.  0.
        -12    1    1    2    0    0 -0.35688941019E+02 -0.24046659902E+02  0.56285844423E+01  0.43400729560E+02  0.00000000000E+00 0.  1.
         11    1    3    3    0    0  0.11117868169E+02  0.10994366047E+02 -0.25915110915E+00  0.15638102089E+02  0.51100000000E-03 0. -1.
        -11    1    3    3    0    0  0.90804561850E+01  0.73473247922E+01  0.49446807930E+01  0.12684152890E+02  0.51100000000E-03 0.  1.
        -12    1    3    3    0    0  0.15490616665E+02  0.57049690632E+01 -0.10314114126E+02  0.19465015461E+02  0.00000000000E+00 0.  1.
</event>
<event>
 7    1  0.4430431E-010  0.4778727E+02  0.7816164E-02  0.1312668E+00
        -11   -1    0    0    0    0  0.00000000000E+00  0.00000000000E+00  0.45593999997E+02  0.45594000000E+02  0.51100000000E-03 0.  1.
         11   -1    0    0    0    0 -0.00000000000E+00 -0.00000000000E+00 -0.45593999997E+02  0.45594000000E+02  0.51100000000E-03 0. -1.
    9900012    2    1    2    0    0 -0.32043815192E+02  0.20135468916E+01 -0.29202103871E+02  0.47787270356E+02  0.19999996860E+02 0.  0.
        -12    1    1    2    0    0  0.32043815192E+02 -0.20135468916E+01  0.29202103871E+02  0.43400729644E+02  0.00000000000E+00 0.  1.
         11    1    3    3    0    0 -0.24808560710E+02  0.58389103070E-02 -0.21483985202E+02  0.32818079454E+02  0.51100000000E-03 0. -1.
        -11    1    3    3    0    0 -0.84708898623E+01  0.33255146782E+01 -0.24856187678E+01  0.94336272904E+01  0.51100000000E-03 0.  1.
         12    1    3    3    0    0  0.12356353804E+01 -0.13178066970E+01 -0.52324999009E+01  0.55355636115E+01  0.00000000000E+00 0. -1.
</event>
<event>
 7    1  0.4430431E-010  0.4778727E+02  0.7816164E-02  0.1312668E+00
        -11   -1    0    0    0    0  0.00000000000E+00  0.00000000000E+00  0.45593999997E+02  0.45594000000E+02  0.51100000000E-03 0.  1.
         11   -1    0    0    0    0 -0.00000000000E+00 -0.00000000000E+00 -0.45593999997E+02  0.45594000000E+02  0.51100000000E-03 0. -1.
    9900012    2    1    2    0    0 -0.22420679900E+01  0.14850054409E+01 -0.43317329358E+02  0.47787272671E+02  0.20000007415E+02 0.  0.
        -12    1    1    2    0    0  0.22420679900E+01 -0.14850054409E+01  0.43317329358E+02  0.43400727329E+02  0.00000000000E+00 0.  1.
         11    1    3    3    0    0 -0.62909601644E+01 -0.62702534166E+01 -0.28532314935E+02  0.29882858857E+02  0.51100000000E-03 0. -1.
        -11    1    3    3    0    0  0.99010154038E+00  0.53710841845E+00 -0.61058003811E+01  0.62088312160E+01  0.51100000000E-03 0.  1.
        -12    1    3    3    0    0  0.30587906340E+01  0.72181504391E+01 -0.86792140420E+01  0.11695582597E+02  0.00000000000E+00 0.  1.
</event>
<event>
 7    1  0.4430431E-010  0.4778727E+02  0.7816164E-02  0.1312668E+00
        -11   -1    0    0    0    0  0.00000000000E+00  0.00000000000E+00  0.45593999997E+02  0.45594000000E+02  0.51100000000E-03 0.  1.
         11   -1    0    0    0    0 -0.00000000000E+00 -0.00000000000E+00 -0.45593999997E+02  0.45594000000E+02  0.51100000000E-03 0. -1.
    9900012    2    1    2    0    0 -0.73653117883E+01 -0.74545481124E+01 -0.42116565052E+02  0.47787272390E+02  0.20000006133E+02 0.  0.
        -12    1    1    2    0    0  0.73653117883E+01  0.74545481124E+01  0.42116565052E+02  0.43400727610E+02  0.00000000000E+00 0.  1.
         11    1    3    3    0    0  0.27805004618E+01 -0.33719771646E+01 -0.97222057817E+01  0.10659394839E+02  0.51100000000E-03 0. -1.
        -11    1    3    3    0    0 -0.66667004309E+00 -0.51460652778E+01 -0.25218152188E+01  0.57694010996E+01  0.51100000000E-03 0.  1.
         12    1    3    3    0    0 -0.94791422070E+01  0.10634943299E+01 -0.29872544052E+02  0.31358476451E+02  0.00000000000E+00 0. -1.
</event>
<event>
 7    1  0.4430431E-010  0.4778727E+02  0.7816164E-02  0.1312668E+00
        -11   -1    0    0    0    0  0.00000000000E+00  0.00000000000E+00  0.45593999997E+02  0.45594000000E+02  0.51100000000E-03 0.  1.
         11   -1    0    0    0    0 -0.00000000000E+00 -0.00000000000E+00 -0.45593999997E+02  0.45594000000E+02  0.51100000000E-03 0. -1.
    9900012    2    1    2    0    0 -0.27992249919E+02 -0.65348129077E+01 -0.32516968201E+02  0.47787273551E+02  0.20000011430E+02 0.  0.
        -12    1    1    2    0    0  0.27992249919E+02  0.65348129077E+01  0.32516968201E+02  0.43400726449E+02  0.00000000000E+00 0.  1.
         11    1    3    3    0    0 -0.31670837511E+01 -0.60463790308E+01 -0.10544602289E+02  0.12560961610E+02  0.51100000000E-03 0. -1.
        -11    1    3    3    0    0 -0.17778616141E+01 -0.21565821929E+01  0.67044598123E+00  0.28742193285E+01  0.51100000000E-03 0.  1.
         12    1    3    3    0    0 -0.23047304554E+02  0.16681483160E+01 -0.22642811893E+02  0.32352092613E+02  0.00000000000E+00 0. -1.
</event>
<event>
 7    1  0.4430431E-010  0.4778727E+02  0.7816164E-02  0.1312668E+00
        -11   -1    0    0    0    0  0.00000000000E+00  0.00000000000E+00  0.45593999997E+02  0.45594000000E+02  0.51100000000E-03 0. -1.
         11   -1    0    0    0    0 -0.00000000000E+00 -0.00000000000E+00 -0.45593999997E+02  0.45594000000E+02  0.51100000000E-03 0.  1.
    9900012    2    1    2    0    0  0.27548306535E+02  0.19125710288E+02  0.27548532153E+02  0.47787267163E+02  0.19999982303E+02 0.  0.
        -12    1    1    2    0    0 -0.27548306535E+02 -0.19125710288E+02 -0.27548532153E+02  0.43400732837E+02  0.00000000000E+00 0.  1.
         11    1    3    3    0    0  0.94099924874E+01  0.46770372706E+01  0.11010909964E+02  0.15220472225E+02  0.51100000000E-03 0. -1.
        -11    1    3    3    0    0  0.72302576672E+01 -0.26016199866E+01  0.59867245755E+01  0.97409406062E+01  0.51100000000E-03 0.  1.
         12    1    3    3    0    0  0.10908056381E+02  0.17050293004E+02  0.10550897613E+02  0.22825854332E+02  0.00000000000E+00 0. -1.
</event>
<event>
 7    1  0.4430431E-010  0.4778728E+02  0.7816164E-02  0.1312668E+00
        -11   -1    0    0    0    0  0.00000000000E+00  0.00000000000E+00  0.45593999997E+02  0.45594000000E+02  0.51100000000E-03 0. -1.
         11   -1    0    0    0    0 -0.00000000000E+00 -0.00000000000E+00 -0.45593999997E+02  0.45594000000E+02  0.51100000000E-03 0.  1.
    9900012    2    1    2    0    0  0.94948654280E+00 -0.41469201426E+02  0.12768192365E+02  0.47787275031E+02  0.20000018177E+02 0.  0.
        -12    1    1    2    0    0 -0.94948654280E+00  0.41469201426E+02 -0.12768192365E+02  0.43400724969E+02  0.00000000000E+00 0.  1.
         11    1    3    3    0    0  0.47837630431E+01 -0.68630828056E+01  0.43713723742E+01  0.94390249043E+01  0.51100000000E-03 0.  1.
        -11    1    3    3    0    0  0.38689189823E+01 -0.74331776028E+01 -0.13131137737E+01  0.84820358058E+01  0.51100000000E-03 0. -1.
        -12    1    3    3    0    0 -0.77031954826E+01 -0.27172941017E+02  0.97099337642E+01  0.29866214321E+02  0.00000000000E+00 0.  1.
</event>
<event>
 7    1  0.4430431E-010  0.4778727E+02  0.7816164E-02  0.1312668E+00
        -11   -1    0    0    0    0  0.00000000000E+00  0.00000000000E+00  0.45593999997E+02  0.45594000000E+02  0.51100000000E-03 0.  1.
         11   -1    0    0    0    0 -0.00000000000E+00 -0.00000000000E+00 -0.45593999997E+02  0.45594000000E+02  0.51100000000E-03 0. -1.
    9900012    2    1    2    0    0  0.49787420461E+01 -0.21001290245E+01 -0.43063032248E+02  0.47787272348E+02  0.20000005945E+02 0.  0.
        -12    1    1    2    0    0 -0.49787420461E+01  0.21001290245E+01  0.43063032248E+02  0.43400727652E+02  0.00000000000E+00 0.  1.
         11    1    3    3    0    0 -0.21465070781E+01  0.14431798268E+01 -0.16135282137E+02  0.16341284850E+02  0.51100000000E-03 0. -1.
        -11    1    3    3    0    0  0.16651496765E+01  0.51960856269E+01 -0.13180699750E+02  0.14265443402E+02  0.51100000000E-03 0.  1.
         12    1    3    3    0    0  0.54600994477E+01 -0.87393944781E+01 -0.13747050362E+02  0.17180544097E+02  0.00000000000E+00 0. -1.
</event>
<event>
 7    1  0.4430431E-010  0.4778727E+02  0.7816164E-02  0.1312668E+00
        -11   -1    0    0    0    0  0.00000000000E+00  0.00000000000E+00  0.45593999997E+02  0.45594000000E+02  0.51100000000E-03 0. -1.
         11   -1    0    0    0    0 -0.00000000000E+00 -0.00000000000E+00 -0.45593999997E+02  0.45594000000E+02  0.51100000000E-03 0.  1.
    9900012    2    1    2    0    0  0.34756918015E+02 -0.25223869068E+02 -0.62718633092E+01  0.47787272010E+02  0.20000004402E+02 0.  0.
        -12    1    1    2    0    0 -0.34756918015E+02  0.25223869068E+02  0.62718633092E+01  0.43400727990E+02  0.00000000000E+00 0.  1.
         11    1    3    3    0    0  0.19608355412E+02 -0.11498138243E+02  0.34474636094E+01  0.22990863198E+02  0.51100000000E-03 0. -1.
        -11    1    3    3    0    0  0.27463592030E+01 -0.74337753606E+01 -0.17030288174E+00  0.79266959268E+01  0.51100000000E-03 0.  1.
        -12    1    3    3    0    0  0.12402203401E+02 -0.62919554649E+01 -0.95490240369E+01  0.16869712885E+02  0.00000000000E+00 0.  1.
</event>
<event>
 7    1  0.4430431E-010  0.4778727E+02  0.7816164E-02  0.1312668E+00
        -11   -1    0    0    0    0  0.00000000000E+00  0.00000000000E+00  0.45593999997E+02  0.45594000000E+02  0.51100000000E-03 0.  1.
         11   -1    0    0    0    0 -0.00000000000E+00 -0.00000000000E+00 -0.45593999997E+02  0.45594000000E+02  0.51100000000E-03 0. -1.
    9900012    2    1    2    0    0  0.97833239144E+01  0.48484376422E+01 -0.42004792316E+02  0.47787270146E+02  0.19999995902E+02 0.  0.
        -12    1    1    2    0    0 -0.97833239144E+01 -0.48484376422E+01  0.42004792316E+02  0.43400729854E+02  0.00000000000E+00 0.  1.
         11    1    3    3    0    0 -0.13868859146E+01 -0.29038122660E+01 -0.12979781032E+02  0.13372744450E+02  0.51100000000E-03 0. -1.
        -11    1    3    3    0    0  0.54096191245E+01 -0.21231584476E+01 -0.44807762215E+01  0.73381970997E+01  0.51100000000E-03 0.  1.
         12    1    3    3    0    0  0.57605907045E+01  0.98754083559E+01 -0.24544235062E+02  0.27076328596E+02  0.00000000000E+00 0. -1.
</event>
<event>
 7    1  0.4430431E-010  0.4778727E+02  0.7816164E-02  0.1312668E+00
        -11   -1    0    0    0    0  0.00000000000E+00  0.00000000000E+00  0.45593999997E+02  0.45594000000E+02  0.51100000000E-03 0.  1.
         11   -1    0    0    0    0 -0.00000000000E+00 -0.00000000000E+00 -0.45593999997E+02  0.45594000000E+02  0.51100000000E-03 0. -1.
    9900012    2    1    2    0    0 -0.11702392428E+01 -0.53262037676E+01 -0.43056766202E+02  0.47787273943E+02  0.20000013216E+02 0.  0.
        -12    1    1    2    0    0  0.11702392428E+01  0.53262037676E+01  0.43056766202E+02  0.43400726057E+02  0.00000000000E+00 0.  1.
         11    1    3    3    0    0 -0.97088992891E+01 -0.21202681772E+01 -0.20269137123E+02  0.22574237141E+02  0.51100000000E-03 0. -1.
        -11    1    3    3    0    0  0.29035417036E+00  0.51696710373E+00 -0.69268523144E+01  0.69521826628E+01  0.51100000000E-03 0.  1.
         12    1    3    3    0    0  0.82483058760E+01 -0.37229026941E+01 -0.15860776765E+02  0.18260854139E+02  0.00000000000E+00 0. -1.
</event>
<event>
 7    1  0.4430431E-010  0.4778727E+02  0.7816164E-02  0.1312668E+00
        -11   -1    0    0    0    0  0.00000000000E+00  0.00000000000E+00  0.45593999997E+02  0.45594000000E+02  0.51100000000E-03 0.  1.
         11   -1    0    0    0    0 -0.00000000000E+00 -0.00000000000E+00 -0.45593999997E+02  0.45594000000E+02  0.51100000000E-03 0. -1.
    9900012    2    1    2    0    0 -0.11948354280E+02  0.19626522431E+02 -0.36819287484E+02  0.47787268629E+02  0.19999988986E+02 0.  0.
        -12    1    1    2    0    0  0.11948354280E+02 -0.19626522431E+02  0.36819287484E+02  0.43400731371E+02  0.00000000000E+00 0.  1.
         11    1    3    3    0    0 -0.28549154969E+01  0.89880008776E+01 -0.28743170145E+02  0.30250694744E+02  0.51100000000E-03 0. -1.
        -11    1    3    3    0    0 -0.10426359925E+01  0.56821533964E+01 -0.48629649375E+01  0.75513167910E+01  0.51100000000E-03 0.  1.
         12    1    3    3    0    0 -0.80508027904E+01  0.49563681565E+01 -0.32131524022E+01  0.99852570939E+01  0.00000000000E+00 0. -1.
</event>
<event>
 7    1  0.4430431E-010  0.4778727E+02  0.7816164E-02  0.1312668E+00
        -11   -1    0    0    0    0  0.00000000000E+00  0.00000000000E+00  0.45593999997E+02  0.45594000000E+02  0.51100000000E-03 0.  1.
         11   -1    0    0    0    0 -0.00000000000E+00 -0.00000000000E+00 -0.45593999997E+02  0.45594000000E+02  0.51100000000E-03 0. -1.
    9900012    2    1    2    0    0  0.38657249882E+02  0.18672749224E+02 -0.63693485453E+01  0.47787272669E+02  0.20000007405E+02 0.  0.
        -12    1    1    2    0    0 -0.38657249882E+02 -0.18672749224E+02  0.63693485453E+01  0.43400727331E+02  0.00000000000E+00 0.  1.
         11    1    3    3    0    0  0.40172759516E+01  0.69110247257E+01 -0.38887932145E+01  0.88895152712E+01  0.51100000000E-03 0. -1.
        -11    1    3    3    0    0  0.43730845861E+01 -0.25355547132E+01  0.12767277742E+01  0.52137261696E+01  0.51100000000E-03 0.  1.
        -12    1    3    3    0    0  0.30266889344E+02  0.14297279211E+02 -0.37572831050E+01  0.33684031228E+02  0.00000000000E+00 0.  1.
</event>
<event>
 7    1  0.4430431E-010  0.4778727E+02  0.7816164E-02  0.1312668E+00
        -11   -1    0    0    0    0  0.00000000000E+00  0.00000000000E+00  0.45593999997E+02  0.45594000000E+02  0.51100000000E-03 0.  1.
         11   -1    0    0    0    0 -0.00000000000E+00 -0.00000000000E+00 -0.45593999997E+02  0.45594000000E+02  0.51100000000E-03 0. -1.
    9900012    2    1    2    0    0  0.36400841579E+02 -0.10014899002E+02 -0.21408032628E+02  0.47787270390E+02  0.19999997015E+02 0.  0.
        -12    1    1    2    0    0 -0.36400841579E+02  0.10014899002E+02  0.21408032628E+02  0.43400729610E+02  0.00000000000E+00 0.  1.
         11    1    3    3    0    0  0.88335670558E+01 -0.58164015645E+01  0.21450078459E+01  0.10791825286E+02  0.51100000000E-03 0. -1.
        -11    1    3    3    0    0  0.84957911602E+01  0.55509768890E+00 -0.45376925178E+01  0.96476553902E+01  0.51100000000E-03 0.  1.
         12    1    3    3    0    0  0.19071483363E+02 -0.47535951267E+01 -0.19015347956E+02  0.27347789713E+02  0.00000000000E+00 0. -1.
</event>
<event>
 7    1  0.4430431E-010  0.4778729E+02  0.7816164E-02  0.1312668E+00
        -11   -1    0    0    0    0  0.00000000000E+00  0.00000000000E+00  0.45593999997E+02  0.45594000000E+02  0.51100000000E-03 0.  1.
         11   -1    0    0    0    0 -0.00000000000E+00 -0.00000000000E+00 -0.45593999997E+02  0.45594000000E+02  0.51100000000E-03 0. -1.
    9900012    2    1    2    0    0 -0.34859432538E+02  0.10627559955E+02 -0.23568983055E+02  0.47787285378E+02  0.20000065352E+02 0.  0.
        -12    1    1    2    0    0  0.34859432538E+02 -0.10627559955E+02  0.23568983055E+02  0.43400714622E+02  0.00000000000E+00 0.  1.
         11    1    3    3    0    0 -0.60146064664E+00  0.10840578316E+00  0.10793296009E-01  0.61124747823E+00  0.51100000000E-03 0. -1.
        -11    1    3    3    0    0  0.12027974597E+01  0.37291337794E+01 -0.56192251633E+01  0.68504636464E+01  0.51100000000E-03 0.  1.
         12    1    3    3    0    0 -0.35460769351E+02  0.67900203921E+01 -0.17960551188E+02  0.40325574253E+02  0.00000000000E+00 0. -1.
</event>
<event>
 7    1  0.4430431E-010  0.4778727E+02  0.7816164E-02  0.1312668E+00
        -11   -1    0    0    0    0  0.00000000000E+00  0.00000000000E+00  0.45593999997E+02  0.45594000000E+02  0.51100000000E-03 0. -1.
         11   -1    0    0    0    0 -0.00000000000E+00 -0.00000000000E+00 -0.45593999997E+02  0.45594000000E+02  0.51100000000E-03 0.  1.
    9900012    2    1    2    0    0 -0.38173560058E+02 -0.12678494627E+02  0.16299028550E+02  0.47787271375E+02  0.20000001508E+02 0.  0.
        -12    1    1    2    0    0  0.38173560058E+02  0.12678494627E+02 -0.16299028550E+02  0.43400728625E+02  0.00000000000E+00 0.  1.
         11    1    3    3    0    0 -0.11848668754E+02 -0.78034826169E+01  0.83655166617E+01  0.16470190086E+02  0.51100000000E-03 0. -1.
        -11    1    3    3    0    0 -0.59833963052E+01 -0.76109007979E+01  0.14274407781E+01  0.97859301927E+01  0.51100000000E-03 0.  1.
         12    1    3    3    0    0 -0.20341494999E+02  0.27358887877E+01  0.65060711102E+01  0.21531151097E+02  0.00000000000E+00 0. -1.
</event>
<event>
 7    1  0.4430431E-010  0.4778727E+02  0.7816164E-02  0.1312668E+00
        -11   -1    0    0    0    0  0.00000000000E+00  0.00000000000E+00  0.45593999997E+02  0.45594000000E+02  0.51100000000E-03 0. -1.
         11   -1    0    0    0    0 -0.00000000000E+00 -0.00000000000E+00 -0.45593999997E+02  0.45594000000E+02  0.51100000000E-03 0.  1.
    9900012    2    1    2    0    0 -0.35099030031E+02 -0.13649259006E+02 -0.21572647104E+02  0.47787270932E+02  0.19999999488E+02 0.  0.
        -12    1    1    2    0    0  0.35099030031E+02  0.13649259006E+02  0.21572647104E+02  0.43400729068E+02  0.00000000000E+00 0.  1.
         11    1    3    3    0    0  0.42167116684E+00  0.99198232737E+00 -0.24624153306E+01  0.26879964718E+01  0.51100000000E-03 0. -1.
        -11    1    3    3    0    0 -0.37943753634E+01  0.26729467238E+01 -0.30116566674E+01  0.55328116478E+01  0.51100000000E-03 0.  1.
         12    1    3    3    0    0 -0.31726325835E+02 -0.17314188057E+02 -0.16098575106E+02  0.39566462812E+02  0.00000000000E+00 0. -1.
</event>
<event>
 7    1  0.4430431E-010  0.4778727E+02  0.7816164E-02  0.1312668E+00
        -11   -1    0    0    0    0  0.00000000000E+00  0.00000000000E+00  0.45593999997E+02  0.45594000000E+02  0.51100000000E-03 0.  1.
         11   -1    0    0    0    0 -0.00000000000E+00 -0.00000000000E+00 -0.45593999997E+02  0.45594000000E+02  0.51100000000E-03 0. -1.
    9900012    2    1    2    0    0  0.95677553558E+01 -0.14573808580E+02 -0.39745254663E+02  0.47787272963E+02  0.20000008748E+02 0.  0.
        -12    1    1    2    0    0 -0.95677553558E+01  0.14573808580E+02  0.39745254663E+02  0.43400727037E+02  0.00000000000E+00 0.  1.
         11    1    3    3    0    0  0.54530693434E+00  0.32295088849E+01 -0.19708731003E+01  0.38224898076E+01  0.51100000000E-03 0. -1.
        -11    1    3    3    0    0  0.53823074432E+01 -0.56229858394E+01 -0.62793919842E+01  0.10000898315E+02  0.51100000000E-03 0.  1.
         12    1    3    3    0    0  0.36401409782E+01 -0.12180331626E+02 -0.31494989579E+02  0.33963884840E+02  0.00000000000E+00 0. -1.
</event>
<event>
 7    1  0.4430431E-010  0.4778727E+02  0.7816164E-02  0.1312668E+00
        -11   -1    0    0    0    0  0.00000000000E+00  0.00000000000E+00  0.45593999997E+02  0.45594000000E+02  0.51100000000E-03 0. -1.
         11   -1    0    0    0    0 -0.00000000000E+00 -0.00000000000E+00 -0.45593999997E+02  0.45594000000E+02  0.51100000000E-03 0.  1.
    9900012    2    1    2    0    0 -0.22801246050E+02 -0.14251273268E+02  0.34067986684E+02  0.47787270422E+02  0.19999997162E+02 0.  0.
        -12    1    1    2    0    0  0.22801246050E+02  0.14251273268E+02 -0.34067986684E+02  0.43400729578E+02  0.00000000000E+00 0.  1.
         11    1    3    3    0    0 -0.12058470250E+00 -0.17917589729E+01  0.10004743963E+02  0.10164636881E+02  0.51100000000E-03 0. -1.
        -11    1    3    3    0    0  0.20122454160E+00 -0.32758720850E+01  0.16623467199E+00  0.32862537122E+01  0.51100000000E-03 0.  1.
        -12    1    3    3    0    0 -0.22881885889E+02 -0.91836422106E+01  0.23897008049E+02  0.34336379829E+02  0.00000000000E+00 0.  1.
</event>
<event>
 7    1  0.4430431E-010  0.4778727E+02  0.7816164E-02  0.1312668E+00
        -11   -1    0    0    0    0  0.00000000000E+00  0.00000000000E+00  0.45593999997E+02  0.45594000000E+02  0.51100000000E-03 0.  1.
         11   -1    0    0    0    0 -0.00000000000E+00 -0.00000000000E+00 -0.45593999997E+02  0.45594000000E+02  0.51100000000E-03 0. -1.
    9900012    2    1    2    0    0 -0.40376458280E+02 -0.15410686223E+02  0.39844088597E+01  0.47787272505E+02  0.20000006660E+02 0.  0.
        -12    1    1    2    0    0  0.40376458280E+02  0.15410686223E+02 -0.39844088597E+01  0.43400727495E+02  0.00000000000E+00 0.  1.
         11    1    3    3    0    0 -0.80193884607E+01 -0.11416854029E+02 -0.55448075925E+00  0.13962900715E+02  0.51100000000E-03 0. -1.
        -11    1    3    3    0    0 -0.31152814464E+01  0.19545871504E+01  0.52234982600E+00  0.37145980968E+01  0.51100000000E-03 0.  1.
         12    1    3    3    0    0 -0.29241788373E+02 -0.59484193444E+01  0.40165397929E+01  0.30109773693E+02  0.00000000000E+00 0. -1.
</event>
<event>
 7    1  0.4430431E-010  0.4778728E+02  0.7816164E-02  0.1312668E+00
        -11   -1    0    0    0    0  0.00000000000E+00  0.00000000000E+00  0.45593999997E+02  0.45594000000E+02  0.51100000000E-03 0.  1.
         11   -1    0    0    0    0 -0.00000000000E+00 -0.00000000000E+00 -0.45593999997E+02  0.45594000000E+02  0.51100000000E-03 0. -1.
    9900012    2    1    2    0    0  0.26691205249E+02 -0.19842556568E+02 -0.27883241426E+02  0.47787278333E+02  0.20000033232E+02 0.  0.
        -12    1    1    2    0    0 -0.26691205249E+02  0.19842556568E+02  0.27883241426E+02  0.43400721667E+02  0.00000000000E+00 0.  1.
         11    1    3    3    0    0  0.99773402686E+01 -0.30064370902E+01 -0.17103581268E+02  0.20027942362E+02  0.51100000000E-03 0. -1.
        -11    1    3    3    0    0  0.28102000223E+01  0.31013533759E+00 -0.35336877716E+01  0.45255229114E+01  0.51100000000E-03 0.  1.
        -12    1    3    3    0    0  0.13903664958E+02 -0.17146254815E+02 -0.72459723866E+01  0.23233813060E+02  0.00000000000E+00 0.  1.
</event>
<event>
 7    1  0.4430431E-010  0.4778727E+02  0.7816164E-02  0.1312668E+00
        -11   -1    0    0    0    0  0.00000000000E+00  0.00000000000E+00  0.45593999997E+02  0.45594000000E+02  0.51100000000E-03 0.  1.
         11   -1    0    0    0    0 -0.00000000000E+00 -0.00000000000E+00 -0.45593999997E+02  0.45594000000E+02  0.51100000000E-03 0. -1.
    9900012    2    1    2    0    0  0.12529583599E+02 -0.25989343067E+02 -0.32422014115E+02  0.47787269390E+02  0.19999992457E+02 0.  0.
        -12    1    1    2    0    0 -0.12529583599E+02  0.25989343067E+02  0.32422014115E+02  0.43400730610E+02  0.00000000000E+00 0.  1.
         11    1    3    3    0    0  0.23354814936E+01 -0.56750156339E+01 -0.11908525563E+02  0.13396762952E+02  0.51100000000E-03 0. -1.
        -11    1    3    3    0    0  0.39755113405E+01 -0.15751658281E+01 -0.12271549103E+02  0.12995258960E+02  0.51100000000E-03 0.  1.
         12    1    3    3    0    0  0.62185907646E+01 -0.18739161605E+02 -0.82419394499E+01  0.21395247478E+02  0.00000000000E+00 0. -1.
</event>
<event>
 7    1  0.4430431E-010  0.4778727E+02  0.7816164E-02  0.1312668E+00
        -11   -1    0    0    0    0  0.00000000000E+00  0.00000000000E+00  0.45593999997E+02  0.45594000000E+02  0.51100000000E-03 0. -1.
         11   -1    0    0    0    0 -0.00000000000E+00 -0.00000000000E+00 -0.45593999997E+02  0.45594000000E+02  0.51100000000E-03 0.  1.
    9900012    2    1    2    0    0 -0.17531543277E+01  0.15187834056E+02  0.40618704773E+02  0.47787273844E+02  0.20000012766E+02 0.  0.
        -12    1    1    2    0    0  0.17531543277E+01 -0.15187834056E+02 -0.40618704773E+02  0.43400726156E+02  0.00000000000E+00 0.  1.
         11    1    3    3    0    0 -0.71217496790E+01  0.86411289453E+01  0.21993589196E+02  0.24680080914E+02  0.51100000000E-03 0. -1.
        -11    1    3    3    0    0 -0.25256860198E+01  0.44367869497E+01  0.45831872645E+01  0.68607415102E+01  0.51100000000E-03 0.  1.
         12    1    3    3    0    0  0.78942813711E+01  0.21099181609E+01  0.14041928313E+02  0.16246451420E+02  0.00000000000E+00 0. -1.
</event>
<event>
 7    1  0.4430431E-010  0.4778727E+02  0.7816164E-02  0.1312668E+00
        -11   -1    0    0    0    0  0.00000000000E+00  0.00000000000E+00  0.45593999997E+02  0.45594000000E+02  0.51100000000E-03 0. -1.
         11   -1    0    0    0    0 -0.00000000000E+00 -0.00000000000E+00 -0.45593999997E+02  0.45594000000E+02  0.51100000000E-03 0.  1.
    9900012    2    1    2    0    0 -0.12564457158E+02  0.41297541004E+02  0.45022987804E+01  0.47787272230E+02  0.20000005404E+02 0.  0.
        -12    1    1    2    0    0  0.12564457158E+02 -0.41297541004E+02 -0.45022987804E+01  0.43400727770E+02  0.00000000000E+00 0.  1.
         11    1    3    3    0    0 -0.49846616197E+01  0.27730772207E+02  0.56300021088E+01  0.28732203234E+02  0.51100000000E-03 0. -1.
        -11    1    3    3    0    0 -0.27389146231E+00  0.57073505038E+01  0.41837376308E+01  0.70818448959E+01  0.51100000000E-03 0.  1.
        -12    1    3    3    0    0 -0.73059040763E+01  0.78594182932E+01 -0.53114409592E+01  0.11973224100E+02  0.00000000000E+00 0.  1.
</event>
<event>
 7    1  0.4430431E-010  0.4778730E+02  0.7816164E-02  0.1312668E+00
        -11   -1    0    0    0    0  0.00000000000E+00  0.00000000000E+00  0.45593999997E+02  0.45594000000E+02  0.51100000000E-03 0. -1.
         11   -1    0    0    0    0 -0.00000000000E+00 -0.00000000000E+00 -0.45593999997E+02  0.45594000000E+02  0.51100000000E-03 0.  1.
    9900012    2    1    2    0    0 -0.27968006826E+02 -0.30144744410E+02  0.13881850038E+02  0.47787299754E+02  0.20000130896E+02 0.  0.
        -12    1    1    2    0    0  0.27968006826E+02  0.30144744410E+02 -0.13881850038E+02  0.43400700246E+02  0.00000000000E+00 0.  1.
         11    1    3    3    0    0 -0.11377501625E+02 -0.20355180794E+02  0.14722795971E+02  0.27577919607E+02  0.51100000000E-03 0. -1.
        -11    1    3    3    0    0 -0.71188564290E+01 -0.46298337312E+01  0.26114830825E+01  0.88844426605E+01  0.51100000000E-03 0.  1.
        -12    1    3    3    0    0 -0.94716487724E+01 -0.51597298848E+01 -0.34524290153E+01  0.11324937486E+02  0.00000000000E+00 0.  1.
</event>
<event>
 7    1  0.4430431E-010  0.4778728E+02  0.7816164E-02  0.1312668E+00
        -11   -1    0    0    0    0  0.00000000000E+00  0.00000000000E+00  0.45593999997E+02  0.45594000000E+02  0.51100000000E-03 0.  1.
         11   -1    0    0    0    0 -0.00000000000E+00 -0.00000000000E+00 -0.45593999997E+02  0.45594000000E+02  0.51100000000E-03 0. -1.
    9900012    2    1    2    0    0  0.36176616548E+02  0.97501446614E+01 -0.21904565820E+02  0.47787275242E+02  0.20000019140E+02 0.  0.
        -12    1    1    2    0    0 -0.36176616548E+02 -0.97501446614E+01  0.21904565820E+02  0.43400724758E+02  0.00000000000E+00 0.  1.
         11    1    3    3    0    0  0.60771065738E+01 -0.34947518928E+00 -0.68011308838E+01  0.91273620930E+01  0.51100000000E-03 0. -1.
        -11    1    3    3    0    0  0.32480394043E+01 -0.35730580107E+01 -0.48166019517E+01  0.68202755180E+01  0.51100000000E-03 0.  1.
         12    1    3    3    0    0  0.26851470569E+02  0.13672677861E+02 -0.10286832984E+02  0.31839637631E+02  0.00000000000E+00 0. -1.
</event>
<event>
 7    1  0.4430431E-010  0.4778727E+02  0.7816164E-02  0.1312668E+00
        -11   -1    0    0    0    0  0.00000000000E+00  0.00000000000E+00  0.45593999997E+02  0.45594000000E+02  0.51100000000E-03 0. -1.
         11   -1    0    0    0    0 -0.00000000000E+00 -0.00000000000E+00 -0.45593999997E+02  0.45594000000E+02  0.51100000000E-03 0.  1.
    9900012    2    1    2    0    0  0.75526030651E+01 -0.18446237042E+02  0.38552791317E+02  0.47787271983E+02  0.20000004280E+02 0.  0.
        -12    1    1    2    0    0 -0.75526030651E+01  0.18446237042E+02 -0.38552791317E+02  0.43400728017E+02  0.00000000000E+00 0.  1.
         11    1    3    3    0    0  0.40920366220E+01 -0.54885045275E+01  0.66229707723E+01  0.95253444964E+01  0.51100000000E-03 0.  1.
        -11    1    3    3    0    0  0.43766835840E+01 -0.16020725867E+02  0.20444921912E+02  0.26340346405E+02  0.51100000000E-03 0. -1.
         12    1    3    3    0    0 -0.91611714087E+00  0.30629933519E+01  0.11484898632E+02  0.11921581082E+02  0.00000000000E+00 0. -1.
</event>
<event>
 7    1  0.4430431E-010  0.4778727E+02  0.7816164E-02  0.1312668E+00
        -11   -1    0    0    0    0  0.00000000000E+00  0.00000000000E+00  0.45593999997E+02  0.45594000000E+02  0.51100000000E-03 0. -1.
         11   -1    0    0    0    0 -0.00000000000E+00 -0.00000000000E+00 -0.45593999997E+02  0.45594000000E+02  0.51100000000E-03 0.  1.
    9900012    2    1    2    0    0 -0.11218097941E+02 -0.41910432836E+02  0.11371392068E+01  0.47787272040E+02  0.20000004538E+02 0.  0.
        -12    1    1    2    0    0  0.11218097941E+02  0.41910432836E+02 -0.11371392068E+01  0.43400727960E+02  0.00000000000E+00 0.  1.
         11    1    3    3    0    0  0.21642860707E+00 -0.21142364185E+02 -0.48214163656E+01  0.21686227443E+02  0.51100000000E-03 0. -1.
        -11    1    3    3    0    0 -0.28837678625E+01 -0.61225737868E+00 -0.10226974909E+01  0.31203984684E+01  0.51100000000E-03 0.  1.
        -12    1    3    3    0    0 -0.85507586859E+01 -0.20155811272E+02  0.69812530633E+01  0.22980646129E+02  0.00000000000E+00 0.  1.
</event>
<event>
 7    1  0.4430431E-010  0.4778727E+02  0.7816164E-02  0.1312668E+00
        -11   -1    0    0    0    0  0.00000000000E+00  0.00000000000E+00  0.45593999997E+02  0.45594000000E+02  0.51100000000E-03 0.  1.
         11   -1    0    0    0    0 -0.00000000000E+00 -0.00000000000E+00 -0.45593999997E+02  0.45594000000E+02  0.51100000000E-03 0. -1.
    9900012    2    1    2    0    0 -0.23993513146E+02 -0.10089080941E+02 -0.34729597540E+02  0.47787272211E+02  0.20000005319E+02 0.  0.
        -12    1    1    2    0    0  0.23993513146E+02  0.10089080941E+02  0.34729597540E+02  0.43400727789E+02  0.00000000000E+00 0.  1.
         11    1    3    3    0    0 -0.32011471058E+01 -0.70598553999E+01 -0.11363849244E+02  0.13755943114E+02  0.51100000000E-03 0. -1.
        -11    1    3    3    0    0 -0.14335402184E+02 -0.34584735148E+01 -0.23282297641E+02  0.27559575078E+02  0.51100000000E-03 0.  1.
        -12    1    3    3    0    0 -0.64569638563E+01  0.42924797338E+00 -0.83450655569E-01  0.64717540185E+01  0.00000000000E+00 0.  1.
</event>
<event>
 7    1  0.4430431E-010  0.4778727E+02  0.7816164E-02  0.1312668E+00
        -11   -1    0    0    0    0  0.00000000000E+00  0.00000000000E+00  0.45593999997E+02  0.45594000000E+02  0.51100000000E-03 0. -1.
         11   -1    0    0    0    0 -0.00000000000E+00 -0.00000000000E+00 -0.45593999997E+02  0.45594000000E+02  0.51100000000E-03 0.  1.
    9900012    2    1    2    0    0  0.32867760739E+01 -0.33105373459E+02  0.27872115650E+02  0.47787268674E+02  0.19999989192E+02 0.  0.
        -12    1    1    2    0    0 -0.32867760739E+01  0.33105373459E+02 -0.27872115650E+02  0.43400731326E+02  0.00000000000E+00 0.  1.
         11    1    3    3    0    0  0.88177269162E+00 -0.20007829246E+02  0.16693665988E+02  0.26072384598E+02  0.51100000000E-03 0. -1.
        -11    1    3    3    0    0  0.62232370891E+01 -0.11208376634E+02  0.11782585568E+02  0.17412228737E+02  0.51100000000E-03 0.  1.
        -12    1    3    3    0    0 -0.38182337068E+01 -0.18891675785E+01 -0.60413590604E+00  0.43026553397E+01  0.00000000000E+00 0.  1.
</event>
<event>
 7    1  0.4430431E-010  0.4778727E+02  0.7816164E-02  0.1312668E+00
        -11   -1    0    0    0    0  0.00000000000E+00  0.00000000000E+00  0.45593999997E+02  0.45594000000E+02  0.51100000000E-03 0.  1.
         11   -1    0    0    0    0 -0.00000000000E+00 -0.00000000000E+00 -0.45593999997E+02  0.45594000000E+02  0.51100000000E-03 0. -1.
    9900012    2    1    2    0    0 -0.12850759377E+02 -0.22072808060E+02 -0.35089494957E+02  0.47787268111E+02  0.19999986625E+02 0.  0.
        -12    1    1    2    0    0  0.12850759377E+02  0.22072808060E+02  0.35089494957E+02  0.43400731889E+02  0.00000000000E+00 0.  1.
         11    1    3    3    0    0 -0.46781077281E+01 -0.26226670879E+01 -0.30598443915E+01  0.61746030262E+01  0.51100000000E-03 0. -1.
        -11    1    3    3    0    0  0.19366908669E+01 -0.15295786196E+02 -0.21318605142E+02  0.26309594682E+02  0.51100000000E-03 0.  1.
        -12    1    3    3    0    0 -0.10109342515E+02 -0.41543547760E+01 -0.10711045423E+02  0.15303070403E+02  0.00000000000E+00 0.  1.
</event>
<event>
 7    1  0.4430431E-010  0.4778727E+02  0.7816164E-02  0.1312668E+00
        -11   -1    0    0    0    0  0.00000000000E+00  0.00000000000E+00  0.45593999997E+02  0.45594000000E+02  0.51100000000E-03 0.  1.
         11   -1    0    0    0    0 -0.00000000000E+00 -0.00000000000E+00 -0.45593999997E+02  0.45594000000E+02  0.51100000000E-03 0. -1.
    9900012    2    1    2    0    0 -0.18367896781E+02  0.14376129606E+02 -0.36600142095E+02  0.47787272634E+02  0.20000007246E+02 0.  0.
        -12    1    1    2    0    0  0.18367896781E+02 -0.14376129606E+02  0.36600142095E+02  0.43400727366E+02  0.00000000000E+00 0.  1.
         11    1    3    3    0    0 -0.12064013979E+02  0.86655054212E+01 -0.17726694015E+02  0.23127193917E+02  0.51100000000E-03 0. -1.
        -11    1    3    3    0    0 -0.30409970557E+01  0.52450932055E+01 -0.20212724738E+02  0.21102438424E+02  0.51100000000E-03 0.  1.
        -12    1    3    3    0    0 -0.32628857464E+01  0.46553097907E+00  0.13392766589E+01  0.35576402932E+01  0.00000000000E+00 0.  1.
</event>
<event>
 7    1  0.4430431E-010  0.4778727E+02  0.7816164E-02  0.1312668E+00
        -11   -1    0    0    0    0  0.00000000000E+00  0.00000000000E+00  0.45593999997E+02  0.45594000000E+02  0.51100000000E-03 0.  1.
         11   -1    0    0    0    0 -0.00000000000E+00 -0.00000000000E+00 -0.45593999997E+02  0.45594000000E+02  0.51100000000E-03 0. -1.
    9900012    2    1    2    0    0 -0.32126341246E+02 -0.85808084314E+01 -0.27890704933E+02  0.47787268476E+02  0.19999988288E+02 0.  0.
        -12    1    1    2    0    0  0.32126341246E+02  0.85808084314E+01  0.27890704933E+02  0.43400731524E+02  0.00000000000E+00 0.  1.
         11    1    3    3    0    0 -0.43461802054E+01 -0.29648681620E+00  0.19428375675E+00  0.43606115682E+01  0.51100000000E-03 0. -1.
        -11    1    3    3    0    0 -0.54377218628E+01 -0.30011512340E+01  0.10854656589E+01  0.63050744439E+01  0.51100000000E-03 0.  1.
         12    1    3    3    0    0 -0.22342439178E+02 -0.52831703812E+01 -0.29170454348E+02  0.37121582463E+02  0.00000000000E+00 0. -1.
</event>
<event>
 7    1  0.4430431E-010  0.4778727E+02  0.7816164E-02  0.1312668E+00
        -11   -1    0    0    0    0  0.00000000000E+00  0.00000000000E+00  0.45593999997E+02  0.45594000000E+02  0.51100000000E-03 0.  1.
         11   -1    0    0    0    0 -0.00000000000E+00 -0.00000000000E+00 -0.45593999997E+02  0.45594000000E+02  0.51100000000E-03 0. -1.
    9900012    2    1    2    0    0  0.16226444191E+02 -0.17611612219E+02 -0.36196089094E+02  0.47787271415E+02  0.20000001690E+02 0.  0.
        -12    1    1    2    0    0 -0.16226444191E+02  0.17611612219E+02  0.36196089094E+02  0.43400728585E+02  0.00000000000E+00 0.  1.
         11    1    3    3    0    0  0.11620315282E+02 -0.17706183554E+02 -0.25063299671E+02  0.32813254242E+02  0.51100000000E-03 0. -1.
        -11    1    3    3    0    0  0.47732549853E+00 -0.23302112724E+01 -0.96834431857E+01  0.99712986314E+01  0.51100000000E-03 0.  1.
        -12    1    3    3    0    0  0.41288034101E+01  0.24247826069E+01 -0.14493462364E+01  0.50027185413E+01  0.00000000000E+00 0.  1.
</event>
<event>
 7    1  0.4430431E-010  0.4778727E+02  0.7816164E-02  0.1312668E+00
        -11   -1    0    0    0    0  0.00000000000E+00  0.00000000000E+00  0.45593999997E+02  0.45594000000E+02  0.51100000000E-03 0. -1.
         11   -1    0    0    0    0 -0.00000000000E+00 -0.00000000000E+00 -0.45593999997E+02  0.45594000000E+02  0.51100000000E-03 0.  1.
    9900012    2    1    2    0    0 -0.28240976141E+01  0.20717629163E+02  0.38031930500E+02  0.47787269326E+02  0.19999992165E+02 0.  0.
        -12    1    1    2    0    0  0.28240976141E+01 -0.20717629163E+02 -0.38031930500E+02  0.43400730674E+02  0.00000000000E+00 0.  1.
         11    1    3    3    0    0 -0.64215020306E+01  0.85723369472E+01  0.22781381933E+02  0.25173637245E+02  0.51100000000E-03 0. -1.
        -11    1    3    3    0    0  0.39628836167E+01  0.47688615923E+01  0.13741369351E+02  0.15075533800E+02  0.51100000000E-03 0.  1.
        -12    1    3    3    0    0 -0.36547920023E+00  0.73764306240E+01  0.15091792151E+01  0.75380982814E+01  0.00000000000E+00 0.  1.
</event>
<event>
 7    1  0.4430431E-010  0.4778727E+02  0.7816164E-02  0.1312668E+00
        -11   -1    0    0    0    0  0.00000000000E+00  0.00000000000E+00  0.45593999997E+02  0.45594000000E+02  0.51100000000E-03 0.  1.
         11   -1    0    0    0    0 -0.00000000000E+00 -0.00000000000E+00 -0.45593999997E+02  0.45594000000E+02  0.51100000000E-03 0. -1.
    9900012    2    1    2    0    0  0.26304253726E+02  0.20839775128E+02 -0.27521143216E+02  0.47787270566E+02  0.19999997820E+02 0.  0.
        -12    1    1    2    0    0 -0.26304253726E+02 -0.20839775128E+02  0.27521143216E+02  0.43400729434E+02  0.00000000000E+00 0.  1.
         11    1    3    3    0    0  0.87158262547E+01  0.11502014476E+02 -0.46751100067E+01  0.15169661109E+02  0.51100000000E-03 0. -1.
        -11    1    3    3    0    0  0.54435441305E+01  0.16868622700E+01 -0.74220767261E-01  0.56994022495E+01  0.51100000000E-03 0.  1.
        -12    1    3    3    0    0  0.12144883341E+02  0.76508983817E+01 -0.22771812442E+02  0.26918207208E+02  0.00000000000E+00 0.  1.
</event>
<event>
 7    1  0.4430431E-010  0.4778726E+02  0.7816164E-02  0.1312668E+00
        -11   -1    0    0    0    0  0.00000000000E+00  0.00000000000E+00  0.45593999997E+02  0.45594000000E+02  0.51100000000E-03 0.  1.
         11   -1    0    0    0    0 -0.00000000000E+00 -0.00000000000E+00 -0.45593999997E+02  0.45594000000E+02  0.51100000000E-03 0. -1.
    9900012    2    1    2    0    0 -0.25359455280E+02  0.12385597977E+02 -0.32971488949E+02  0.47787261609E+02  0.19999956979E+02 0.  0.
        -12    1    1    2    0    0  0.25359455280E+02 -0.12385597977E+02  0.32971488949E+02  0.43400738391E+02  0.00000000000E+00 0.  1.
         11    1    3    3    0    0 -0.14621523486E+02  0.16313660599E+02 -0.20185990981E+02  0.29789238046E+02  0.51100000000E-03 0. -1.
        -11    1    3    3    0    0 -0.21849177358E+01 -0.28358381575E+01 -0.17254145228E+01  0.39740280704E+01  0.51100000000E-03 0.  1.
        -12    1    3    3    0    0 -0.85530140588E+01 -0.10922244638E+01 -0.11060083445E+02  0.14023995493E+02  0.00000000000E+00 0.  1.
</event>
<event>
 7    1  0.4430431E-010  0.4778727E+02  0.7816164E-02  0.1312668E+00
        -11   -1    0    0    0    0  0.00000000000E+00  0.00000000000E+00  0.45593999997E+02  0.45594000000E+02  0.51100000000E-03 0. -1.
         11   -1    0    0    0    0 -0.00000000000E+00 -0.00000000000E+00 -0.45593999997E+02  0.45594000000E+02  0.51100000000E-03 0.  1.
    9900012    2    1    2    0    0  0.23324214558E+02  0.15290130665E+02  0.33253814513E+02  0.47787271202E+02  0.20000000718E+02 0.  0.
        -12    1    1    2    0    0 -0.23324214558E+02 -0.15290130665E+02 -0.33253814513E+02  0.43400728798E+02  0.00000000000E+00 0.  1.
         11    1    3    3    0    0  0.16152831219E+02  0.11697060024E+02  0.13173083492E+02  0.23901156845E+02  0.51100000000E-03 0. -1.
        -11    1    3    3    0    0  0.76274872863E+00 -0.76606303399E+00 -0.97089486182E+00  0.14530228109E+01  0.51100000000E-03 0.  1.
        -12    1    3    3    0    0  0.64086346104E+01  0.43591336746E+01  0.21051625883E+02  0.22433091546E+02  0.00000000000E+00 0.  1.
</event>
<event>
 7    1  0.4430431E-010  0.4778727E+02  0.7816164E-02  0.1312668E+00
        -11   -1    0    0    0    0  0.00000000000E+00  0.00000000000E+00  0.45593999997E+02  0.45594000000E+02  0.51100000000E-03 0.  1.
         11   -1    0    0    0    0 -0.00000000000E+00 -0.00000000000E+00 -0.45593999997E+02  0.45594000000E+02  0.51100000000E-03 0. -1.
    9900012    2    1    2    0    0  0.13729091560E+02 -0.31488967921E+02 -0.26525090994E+02  0.47787268347E+02  0.19999987702E+02 0.  0.
        -12    1    1    2    0    0 -0.13729091560E+02  0.31488967921E+02  0.26525090994E+02  0.43400731653E+02  0.00000000000E+00 0.  1.
         11    1    3    3    0    0 -0.16950095486E+01 -0.16930285135E+00 -0.24007621906E+01  0.29437017821E+01  0.51100000000E-03 0. -1.
        -11    1    3    3    0    0  0.86755941545E+01 -0.10453745001E+02 -0.20697170411E+01  0.13741559132E+02  0.51100000000E-03 0.  1.
         12    1    3    3    0    0  0.67485069537E+01 -0.20865920069E+02 -0.22054611762E+02  0.31102007433E+02  0.00000000000E+00 0. -1.
</event>
<event>
 7    1  0.4430431E-010  0.4778728E+02  0.7816164E-02  0.1312668E+00
        -11   -1    0    0    0    0  0.00000000000E+00  0.00000000000E+00  0.45593999997E+02  0.45594000000E+02  0.51100000000E-03 0.  1.
         11   -1    0    0    0    0 -0.00000000000E+00 -0.00000000000E+00 -0.45593999997E+02  0.45594000000E+02  0.51100000000E-03 0. -1.
    9900012    2    1    2    0    0  0.27306376187E+02  0.30936515739E+02 -0.13450520059E+02  0.47787277928E+02  0.20000031386E+02 0.  0.
        -12    1    1    2    0    0 -0.27306376187E+02 -0.30936515739E+02  0.13450520059E+02  0.43400722072E+02  0.00000000000E+00 0.  1.
         11    1    3    3    0    0  0.80004631199E+01  0.49289312314E+01 -0.56619666028E+01  0.10970854082E+02  0.51100000000E-03 0. -1.
        -11    1    3    3    0    0  0.36439616560E+01 -0.17803683810E+01 -0.13577508199E+01  0.42768745215E+01  0.51100000000E-03 0.  1.
         12    1    3    3    0    0  0.15661951411E+02  0.27787952888E+02 -0.64308026360E+01  0.32539549325E+02  0.00000000000E+00 0. -1.
</event>
<event>
 7    1  0.4430431E-010  0.4778727E+02  0.7816164E-02  0.1312668E+00
        -11   -1    0    0    0    0  0.00000000000E+00  0.00000000000E+00  0.45593999997E+02  0.45594000000E+02  0.51100000000E-03 0.  1.
         11   -1    0    0    0    0 -0.00000000000E+00 -0.00000000000E+00 -0.45593999997E+02  0.45594000000E+02  0.51100000000E-03 0. -1.
    9900012    2    1    2    0    0  0.25597775186E+02  0.22685115608E+02 -0.26716336278E+02  0.47787272025E+02  0.20000004472E+02 0.  0.
        -12    1    1    2    0    0 -0.25597775186E+02 -0.22685115608E+02  0.26716336278E+02  0.43400727975E+02  0.00000000000E+00 0.  1.
         11    1    3    3    0    0  0.49775883345E+01  0.10079820296E+02 -0.15342932850E+02  0.19020640145E+02  0.51100000000E-03 0. -1.
        -11    1    3    3    0    0  0.85304939911E+01  0.27294365801E+01 -0.94795223887E+01  0.13041491355E+02  0.51100000000E-03 0.  1.
         12    1    3    3    0    0  0.12089692860E+02  0.98758587320E+01 -0.18938810394E+01  0.15725140525E+02  0.00000000000E+00 0. -1.
</event>
<event>
 7    1  0.4430431E-010  0.4778726E+02  0.7816164E-02  0.1312668E+00
        -11   -1    0    0    0    0  0.00000000000E+00  0.00000000000E+00  0.45593999997E+02  0.45594000000E+02  0.51100000000E-03 0.  1.
         11   -1    0    0    0    0 -0.00000000000E+00 -0.00000000000E+00 -0.45593999997E+02  0.45594000000E+02  0.51100000000E-03 0. -1.
    9900012    2    1    2    0    0 -0.27793221976E+02  0.34364463169E+01 -0.33156477736E+02  0.47787258452E+02  0.19999942584E+02 0.  0.
        -12    1    1    2    0    0  0.27793221976E+02 -0.34364463169E+01  0.33156477736E+02  0.43400741548E+02  0.00000000000E+00 0.  1.
         11    1    3    3    0    0 -0.24147233489E+01 -0.35369201297E+00 -0.12331855202E+02  0.12571023820E+02  0.51100000000E-03 0. -1.
        -11    1    3    3    0    0  0.82574598029E+00 -0.14392999651E+01 -0.15324467725E+01  0.22587240170E+01  0.51100000000E-03 0.  1.
        -12    1    3    3    0    0 -0.26204244607E+02  0.52294382950E+01 -0.19292175762E+02  0.32957510615E+02  0.00000000000E+00 0.  1.
</event>
<event>
 7    1  0.4430431E-010  0.4778727E+02  0.7816164E-02  0.1312668E+00
        -11   -1    0    0    0    0  0.00000000000E+00  0.00000000000E+00  0.45593999997E+02  0.45594000000E+02  0.51100000000E-03 0.  1.
         11   -1    0    0    0    0 -0.00000000000E+00 -0.00000000000E+00 -0.45593999997E+02  0.45594000000E+02  0.51100000000E-03 0. -1.
    9900012    2    1    2    0    0 -0.16514949765E+02  0.34616094813E+02 -0.20312698179E+02  0.47787270822E+02  0.19999998986E+02 0.  0.
        -12    1    1    2    0    0  0.16514949765E+02 -0.34616094813E+02  0.20312698179E+02  0.43400729178E+02  0.00000000000E+00 0.  1.
         11    1    3    3    0    0 -0.56214209694E+01  0.47858254645E+01  0.34459182207E+00  0.73907538775E+01  0.51100000000E-03 0. -1.
        -11    1    3    3    0    0 -0.68857456676E+01  0.18285903331E+02 -0.43486622817E+01  0.20017457829E+02  0.51100000000E-03 0.  1.
         12    1    3    3    0    0 -0.40077831284E+01  0.11544366018E+02 -0.16308627719E+02  0.20379059116E+02  0.00000000000E+00 0. -1.
</event>
<event>
 7    1  0.4430431E-010  0.4778728E+02  0.7816164E-02  0.1312668E+00
        -11   -1    0    0    0    0  0.00000000000E+00  0.00000000000E+00  0.45593999997E+02  0.45594000000E+02  0.51100000000E-03 0.  1.
         11   -1    0    0    0    0 -0.00000000000E+00 -0.00000000000E+00 -0.45593999997E+02  0.45594000000E+02  0.51100000000E-03 0. -1.
    9900012    2    1    2    0    0  0.20396653937E+01  0.28326478288E+02 -0.32818791365E+02  0.47787277958E+02  0.20000031524E+02 0.  0.
        -12    1    1    2    0    0 -0.20396653937E+01 -0.28326478288E+02  0.32818791365E+02  0.43400722042E+02  0.00000000000E+00 0.  1.
         11    1    3    3    0    0  0.13180635899E+01  0.80635029133E+01 -0.13394484174E+02  0.15689792141E+02  0.51100000000E-03 0. -1.
        -11    1    3    3    0    0  0.52518077683E+00  0.13304517354E+01 -0.11473455295E+02  0.11562270250E+02  0.51100000000E-03 0.  1.
        -12    1    3    3    0    0  0.19642102691E+00  0.18932523639E+02 -0.79508518956E+01  0.20535215568E+02  0.00000000000E+00 0.  1.
</event>
<event>
 7    1  0.4430431E-010  0.4778723E+02  0.7816164E-02  0.1312668E+00
        -11   -1    0    0    0    0  0.00000000000E+00  0.00000000000E+00  0.45593999997E+02  0.45594000000E+02  0.51100000000E-03 0.  1.
         11   -1    0    0    0    0 -0.00000000000E+00 -0.00000000000E+00 -0.45593999997E+02  0.45594000000E+02  0.51100000000E-03 0. -1.
    9900012    2    1    2    0    0 -0.40621502504E+02 -0.56981551759E+01  0.14179272281E+02  0.47787225808E+02  0.19999793747E+02 0.  0.
        -12    1    1    2    0    0  0.40621502504E+02  0.56981551759E+01 -0.14179272281E+02  0.43400774192E+02  0.00000000000E+00 0.  1.
         11    1    3    3    0    0 -0.21782703160E+02 -0.23826889638E+01  0.18142392619E+01  0.21987606237E+02  0.51100000000E-03 0. -1.
        -11    1    3    3    0    0 -0.21766625000E+01 -0.33526002434E+01 -0.13497854752E+01  0.42189701494E+01  0.51100000000E-03 0.  1.
        -12    1    3    3    0    0 -0.16662136844E+02  0.37134031372E-01  0.13714818494E+02  0.21580649422E+02  0.00000000000E+00 0.  1.
</event>
<event>
 7    1  0.4430431E-010  0.4778727E+02  0.7816164E-02  0.1312668E+00
        -11   -1    0    0    0    0  0.00000000000E+00  0.00000000000E+00  0.45593999997E+02  0.45594000000E+02  0.51100000000E-03 0. -1.
         11   -1    0    0    0    0 -0.00000000000E+00 -0.00000000000E+00 -0.45593999997E+02  0.45594000000E+02  0.51100000000E-03 0.  1.
    9900012    2    1    2    0    0  0.39155570448E+02 -0.14309285838E+02  0.12070994518E+02  0.47787271124E+02  0.20000000363E+02 0.  0.
        -12    1    1    2    0    0 -0.39155570448E+02  0.14309285838E+02 -0.12070994518E+02  0.43400728876E+02  0.00000000000E+00 0.  1.
         11    1    3    3    0    0  0.50087918593E+01  0.14490609047E+01  0.42203211754E+01  0.67081207860E+01  0.51100000000E-03 0. -1.
        -11    1    3    3    0    0  0.33774350041E+01 -0.71079525956E+01  0.41688911079E+01  0.89055999594E+01  0.51100000000E-03 0.  1.
         12    1    3    3    0    0  0.30769343585E+02 -0.86503941468E+01  0.36817822344E+01  0.32173550379E+02  0.00000000000E+00 0. -1.
</event>
<event>
 7    1  0.4430431E-010  0.4778727E+02  0.7816164E-02  0.1312668E+00
        -11   -1    0    0    0    0  0.00000000000E+00  0.00000000000E+00  0.45593999997E+02  0.45594000000E+02  0.51100000000E-03 0. -1.
         11   -1    0    0    0    0 -0.00000000000E+00 -0.00000000000E+00 -0.45593999997E+02  0.45594000000E+02  0.51100000000E-03 0.  1.
    9900012    2    1    2    0    0 -0.18578421285E+01  0.32802122003E+02  0.28358285991E+02  0.47787272246E+02  0.20000005477E+02 0.  0.
        -12    1    1    2    0    0  0.18578421285E+01 -0.32802122003E+02 -0.28358285991E+02  0.43400727754E+02  0.00000000000E+00 0.  1.
         11    1    3    3    0    0  0.14438620807E+01  0.10562386003E+02  0.28442291209E+01  0.11033511469E+02  0.51100000000E-03 0. -1.
        -11    1    3    3    0    0 -0.19040426783E+01  0.11572950679E+02  0.34803709888E+01  0.12234032386E+02  0.51100000000E-03 0.  1.
         12    1    3    3    0    0 -0.13976615309E+01  0.10666785321E+02  0.22033685881E+02  0.24519728391E+02  0.00000000000E+00 0. -1.
</event>
<event>
 7    1  0.4430431E-010  0.4778727E+02  0.7816164E-02  0.1312668E+00
        -11   -1    0    0    0    0  0.00000000000E+00  0.00000000000E+00  0.45593999997E+02  0.45594000000E+02  0.51100000000E-03 0.  1.
         11   -1    0    0    0    0 -0.00000000000E+00 -0.00000000000E+00 -0.45593999997E+02  0.45594000000E+02  0.51100000000E-03 0. -1.
    9900012    2    1    2    0    0 -0.12208930285E+02 -0.38349843991E+02 -0.16243600552E+02  0.47787273373E+02  0.20000010618E+02 0.  0.
        -12    1    1    2    0    0  0.12208930285E+02  0.38349843991E+02  0.16243600552E+02  0.43400726627E+02  0.00000000000E+00 0.  1.
         11    1    3    3    0    0 -0.60558022387E+01 -0.61648605199E+01 -0.49825229282E+01  0.99751581930E+01  0.51100000000E-03 0. -1.
        -11    1    3    3    0    0 -0.15758884358E+01 -0.24714910943E+01  0.32946769501E+01  0.44098286880E+01  0.51100000000E-03 0.  1.
         12    1    3    3    0    0 -0.45772396103E+01 -0.29713492377E+02 -0.14555754574E+02  0.33402286492E+02  0.00000000000E+00 0. -1.
</event>
<event>
 7    1  0.4430431E-010  0.4778727E+02  0.7816164E-02  0.1312668E+00
        -11   -1    0    0    0    0  0.00000000000E+00  0.00000000000E+00  0.45593999997E+02  0.45594000000E+02  0.51100000000E-03 0.  1.
         11   -1    0    0    0    0 -0.00000000000E+00 -0.00000000000E+00 -0.45593999997E+02  0.45594000000E+02  0.51100000000E-03 0. -1.
    9900012    2    1    2    0    0  0.21995800590E+02 -0.29340227190E+02 -0.23215485599E+02  0.47787274813E+02  0.20000017182E+02 0.  0.
        -12    1    1    2    0    0 -0.21995800590E+02  0.29340227190E+02  0.23215485599E+02  0.43400725187E+02  0.00000000000E+00 0.  1.
         11    1    3    3    0    0  0.60819108615E+00 -0.43383539151E+01 -0.35667005372E+01  0.56491206461E+01  0.51100000000E-03 0. -1.
        -11    1    3    3    0    0  0.18059167792E+02 -0.24270436052E+02 -0.22494259061E+02  0.37698531781E+02  0.51100000000E-03 0.  1.
        -12    1    3    3    0    0  0.33284417125E+01 -0.73143722256E+00  0.28454739993E+01  0.44396223854E+01  0.00000000000E+00 0.  1.
</event>
<event>
 7    1  0.4430431E-010  0.4778727E+02  0.7816164E-02  0.1312668E+00
        -11   -1    0    0    0    0  0.00000000000E+00  0.00000000000E+00  0.45593999997E+02  0.45594000000E+02  0.51100000000E-03 0. -1.
         11   -1    0    0    0    0 -0.00000000000E+00 -0.00000000000E+00 -0.45593999997E+02  0.45594000000E+02  0.51100000000E-03 0.  1.
    9900012    2    1    2    0    0  0.34877541605E+02 -0.59121818934E+01  0.25144121616E+02  0.47787266654E+02  0.19999979982E+02 0.  0.
        -12    1    1    2    0    0 -0.34877541605E+02  0.59121818934E+01 -0.25144121616E+02  0.43400733346E+02  0.00000000000E+00 0.  1.
         11    1    3    3    0    0  0.76135777424E+01  0.21545279012E+01  0.15785656504E+01  0.80684835187E+01  0.51100000000E-03 0. -1.
        -11    1    3    3    0    0  0.80286912151E+01  0.22547194829E+01  0.11296130737E+01  0.84154422659E+01  0.51100000000E-03 0.  1.
         12    1    3    3    0    0  0.19235272648E+02 -0.10321429277E+02  0.22435942891E+02  0.31303340869E+02  0.00000000000E+00 0. -1.
</event>
<event>
 7    1  0.4430431E-010  0.4778727E+02  0.7816164E-02  0.1312668E+00
        -11   -1    0    0    0    0  0.00000000000E+00  0.00000000000E+00  0.45593999997E+02  0.45594000000E+02  0.51100000000E-03 0.  1.
         11   -1    0    0    0    0 -0.00000000000E+00 -0.00000000000E+00 -0.45593999997E+02  0.45594000000E+02  0.51100000000E-03 0. -1.
    9900012    2    1    2    0    0  0.91841761037E+01  0.14843118365E+02 -0.39736079115E+02  0.47787271470E+02  0.20000001939E+02 0.  0.
        -12    1    1    2    0    0 -0.91841761037E+01 -0.14843118365E+02  0.39736079115E+02  0.43400728530E+02  0.00000000000E+00 0.  1.
         11    1    3    3    0    0  0.26872137841E+01  0.10885414304E+02 -0.12727832129E+02  0.16962048032E+02  0.51100000000E-03 0. -1.
        -11    1    3    3    0    0  0.81388060781E+00  0.74173359667E+01 -0.93981509708E+01  0.12000188183E+02  0.51100000000E-03 0.  1.
        -12    1    3    3    0    0  0.56830817118E+01 -0.34596319054E+01 -0.17610096016E+02  0.18825035255E+02  0.00000000000E+00 0.  1.
</event>
<event>
 7    1  0.4430431E-010  0.4778727E+02  0.7816164E-02  0.1312668E+00
        -11   -1    0    0    0    0  0.00000000000E+00  0.00000000000E+00  0.45593999997E+02  0.45594000000E+02  0.51100000000E-03 0. -1.
         11   -1    0    0    0    0 -0.00000000000E+00 -0.00000000000E+00 -0.45593999997E+02  0.45594000000E+02  0.51100000000E-03 0.  1.
    9900012    2    1    2    0    0  0.13461179730E+02  0.35889382769E+02 -0.20356127473E+02  0.47787273266E+02  0.20000010131E+02 0.  0.
        -12    1    1    2    0    0 -0.13461179730E+02 -0.35889382769E+02  0.20356127473E+02  0.43400726734E+02  0.00000000000E+00 0.  1.
         11    1    3    3    0    0  0.63561230816E+01  0.21050454777E+02 -0.21394795270E+01  0.22092969919E+02  0.51100000000E-03 0. -1.
        -11    1    3    3    0    0  0.42436025205E+01  0.26494247979E+01 -0.24784385687E+01  0.55830343104E+01  0.51100000000E-03 0.  1.
        -12    1    3    3    0    0  0.28614541279E+01  0.12189503194E+02 -0.15738209378E+02  0.20111269037E+02  0.00000000000E+00 0.  1.
</event>
<event>
 7    1  0.4430431E-010  0.4778727E+02  0.7816164E-02  0.1312668E+00
        -11   -1    0    0    0    0  0.00000000000E+00  0.00000000000E+00  0.45593999997E+02  0.45594000000E+02  0.51100000000E-03 0.  1.
         11   -1    0    0    0    0 -0.00000000000E+00 -0.00000000000E+00 -0.45593999997E+02  0.45594000000E+02  0.51100000000E-03 0. -1.
    9900012    2    1    2    0    0  0.85058414286E+01 -0.33487255578E+02 -0.26265516536E+02  0.47787274391E+02  0.20000015256E+02 0.  0.
        -12    1    1    2    0    0 -0.85058414286E+01  0.33487255578E+02  0.26265516536E+02  0.43400725609E+02  0.00000000000E+00 0.  1.
         11    1    3    3    0    0  0.10100116995E+02 -0.91642213871E+01 -0.77590442085E+01  0.15690700566E+02  0.51100000000E-03 0.  1.
        -11    1    3    3    0    0  0.25874421575E+01 -0.11175180721E+02 -0.12740025952E+02  0.17143155561E+02  0.51100000000E-03 0. -1.
        -12    1    3    3    0    0 -0.41817177241E+01 -0.13147853469E+02 -0.57664463750E+01  0.14953418264E+02  0.00000000000E+00 0.  1.
</event>
<event>
 7    1  0.4430431E-010  0.4778728E+02  0.7816164E-02  0.1312668E+00
        -11   -1    0    0    0    0  0.00000000000E+00  0.00000000000E+00  0.45593999997E+02  0.45594000000E+02  0.51100000000E-03 0. -1.
         11   -1    0    0    0    0 -0.00000000000E+00 -0.00000000000E+00 -0.45593999997E+02  0.45594000000E+02  0.51100000000E-03 0.  1.
    9900012    2    1    2    0    0  0.90379787031E+01 -0.61102635267E+01  0.42007168185E+02  0.47787279288E+02  0.20000037587E+02 0.  0.
        -12    1    1    2    0    0 -0.90379787031E+01  0.61102635267E+01 -0.42007168185E+02  0.43400720712E+02  0.00000000000E+00 0.  1.
         11    1    3    3    0    0  0.11216286860E+01 -0.23610259825E+01  0.22888205544E+01  0.34743624437E+01  0.51100000000E-03 0. -1.
        -11    1    3    3    0    0  0.11723989965E+02 -0.26206051530E+01  0.14714691599E+02  0.18995832732E+02  0.51100000000E-03 0.  1.
         12    1    3    3    0    0 -0.38076399474E+01 -0.11286323912E+01  0.25003656031E+02  0.25317084113E+02  0.00000000000E+00 0. -1.
</event>
<event>
 7    1  0.4430431E-010  0.4778727E+02  0.7816164E-02  0.1312668E+00
        -11   -1    0    0    0    0  0.00000000000E+00  0.00000000000E+00  0.45593999997E+02  0.45594000000E+02  0.51100000000E-03 0. -1.
         11   -1    0    0    0    0 -0.00000000000E+00 -0.00000000000E+00 -0.45593999997E+02  0.45594000000E+02  0.51100000000E-03 0.  1.
    9900012    2    1    2    0    0  0.30499962946E+02  0.23984934685E+02  0.19444753834E+02  0.47787270937E+02  0.19999999511E+02 0.  0.
        -12    1    1    2    0    0 -0.30499962946E+02 -0.23984934685E+02 -0.19444753834E+02  0.43400729063E+02  0.00000000000E+00 0.  1.
         11    1    3    3    0    0  0.53817337426E+01  0.12124933009E+02  0.36440028718E+01  0.13757027867E+02  0.51100000000E-03 0. -1.
        -11    1    3    3    0    0 -0.36392673330E+00 -0.97810546816E+00 -0.51247202671E+00  0.11626524904E+01  0.51100000000E-03 0.  1.
         12    1    3    3    0    0  0.25482155937E+02  0.12838107144E+02  0.16313222989E+02  0.32867590579E+02  0.00000000000E+00 0. -1.
</event>
<event>
 7    1  0.4430431E-010  0.4778727E+02  0.7816164E-02  0.1312668E+00
        -11   -1    0    0    0    0  0.00000000000E+00  0.00000000000E+00  0.45593999997E+02  0.45594000000E+02  0.51100000000E-03 0.  1.
         11   -1    0    0    0    0 -0.00000000000E+00 -0.00000000000E+00 -0.45593999997E+02  0.45594000000E+02  0.51100000000E-03 0. -1.
    9900012    2    1    2    0    0 -0.32405616263E+02 -0.11171699435E+02 -0.26621279729E+02  0.47787269960E+02  0.19999995054E+02 0.  0.
        -12    1    1    2    0    0  0.32405616263E+02  0.11171699435E+02  0.26621279729E+02  0.43400730040E+02  0.00000000000E+00 0.  1.
         11    1    3    3    0    0 -0.10080192612E+02  0.10358129000E+00 -0.65673242136E+01  0.12031240990E+02  0.51100000000E-03 0. -1.
        -11    1    3    3    0    0 -0.12590141084E+01 -0.43870524669E+01  0.15350234111E+01  0.48153549201E+01  0.51100000000E-03 0.  1.
         12    1    3    3    0    0 -0.21066409542E+02 -0.68882282582E+01 -0.21588978926E+02  0.30940674049E+02  0.00000000000E+00 0. -1.
</event>
<event>
 7    1  0.4430431E-010  0.4778727E+02  0.7816164E-02  0.1312668E+00
        -11   -1    0    0    0    0  0.00000000000E+00  0.00000000000E+00  0.45593999997E+02  0.45594000000E+02  0.51100000000E-03 0.  1.
         11   -1    0    0    0    0 -0.00000000000E+00 -0.00000000000E+00 -0.45593999997E+02  0.45594000000E+02  0.51100000000E-03 0. -1.
    9900012    2    1    2    0    0  0.22072972138E+00 -0.23260529187E+02 -0.36640443716E+02  0.47787273562E+02  0.20000011477E+02 0.  0.
        -12    1    1    2    0    0 -0.22072972138E+00  0.23260529187E+02  0.36640443716E+02  0.43400726438E+02  0.00000000000E+00 0.  1.
         11    1    3    3    0    0  0.35751592118E+00  0.11586371590E+01 -0.22624027692E+00  0.12334677232E+01  0.51100000000E-03 0. -1.
        -11    1    3    3    0    0  0.76725401548E+01 -0.10547398413E+02 -0.15146668004E+02  0.19988422589E+02  0.51100000000E-03 0.  1.
         12    1    3    3    0    0 -0.78093263546E+01 -0.13871767933E+02 -0.21267535435E+02  0.26565383249E+02  0.00000000000E+00 0. -1.
</event>
<event>
 7    1  0.4430431E-010  0.4778728E+02  0.7816164E-02  0.1312668E+00
        -11   -1    0    0    0    0  0.00000000000E+00  0.00000000000E+00  0.45593999997E+02  0.45594000000E+02  0.51100000000E-03 0. -1.
         11   -1    0    0    0    0 -0.00000000000E+00 -0.00000000000E+00 -0.45593999997E+02  0.45594000000E+02  0.51100000000E-03 0.  1.
    9900012    2    1    2    0    0  0.24204852220E+02 -0.14368681360E+02  0.33034659599E+02  0.47787278694E+02  0.20000034878E+02 0.  0.
        -12    1    1    2    0    0 -0.24204852220E+02  0.14368681360E+02 -0.33034659599E+02  0.43400721306E+02  0.00000000000E+00 0.  1.
         11    1    3    3    0    0  0.50370298300E+01 -0.58450980775E+01  0.12619034244E+02  0.14791107686E+02  0.51100000000E-03 0. -1.
        -11    1    3    3    0    0  0.13197883119E+02 -0.10078948150E+02  0.21030389156E+02  0.26796391230E+02  0.51100000000E-03 0.  1.
        -12    1    3    3    0    0  0.59699392708E+01  0.15553648675E+01 -0.61476380104E+00  0.61997797783E+01  0.00000000000E+00 0.  1.
</event>
<event>
 7    1  0.4430431E-010  0.4778728E+02  0.7816164E-02  0.1312668E+00
        -11   -1    0    0    0    0  0.00000000000E+00  0.00000000000E+00  0.45593999997E+02  0.45594000000E+02  0.51100000000E-03 0.  1.
         11   -1    0    0    0    0 -0.00000000000E+00 -0.00000000000E+00 -0.45593999997E+02  0.45594000000E+02  0.51100000000E-03 0. -1.
    9900012    2    1    2    0    0  0.30222195222E+00 -0.30090126045E+02 -0.31274842483E+02  0.47787276551E+02  0.20000025109E+02 0.  0.
        -12    1    1    2    0    0 -0.30222195222E+00  0.30090126045E+02  0.31274842483E+02  0.43400723449E+02  0.00000000000E+00 0.  1.
         11    1    3    3    0    0  0.32112249391E+01 -0.44663108612E+01 -0.11741439289E+02  0.12966159614E+02  0.51100000000E-03 0.  1.
        -11    1    3    3    0    0  0.13713077650E+01 -0.15583660632E+02 -0.17920463310E+02  0.23788105624E+02  0.51100000000E-03 0. -1.
         12    1    3    3    0    0 -0.42803107519E+01 -0.10040154552E+02 -0.16129398844E+01  0.11033011313E+02  0.00000000000E+00 0. -1.
</event>
<event>
 7    1  0.4430431E-010  0.4778727E+02  0.7816164E-02  0.1312668E+00
        -11   -1    0    0    0    0  0.00000000000E+00  0.00000000000E+00  0.45593999997E+02  0.45594000000E+02  0.51100000000E-03 0. -1.
         11   -1    0    0    0    0 -0.00000000000E+00 -0.00000000000E+00 -0.45593999997E+02  0.45594000000E+02  0.51100000000E-03 0.  1.
    9900012    2    1    2    0    0  0.15757339011E+02  0.23827688932E+02  0.32673709402E+02  0.47787265229E+02  0.19999973487E+02 0.  0.
        -12    1    1    2    0    0 -0.15757339011E+02 -0.23827688932E+02 -0.32673709402E+02  0.43400734771E+02  0.00000000000E+00 0.  1.
         11    1    3    3    0    0 -0.17022573303E+01  0.69078145029E+01  0.11652253717E+02  0.13652494211E+02  0.51100000000E-03 0. -1.
        -11    1    3    3    0    0  0.23404386861E+01  0.96298162054E+01  0.58411790795E+01  0.11503494543E+02  0.51100000000E-03 0.  1.
        -12    1    3    3    0    0  0.15119157655E+02  0.72900582233E+01  0.15180276605E+02  0.22631276476E+02  0.00000000000E+00 0.  1.
</event>
<event>
 7    1  0.4430431E-010  0.4778727E+02  0.7816164E-02  0.1312668E+00
        -11   -1    0    0    0    0  0.00000000000E+00  0.00000000000E+00  0.45593999997E+02  0.45594000000E+02  0.51100000000E-03 0.  1.
         11   -1    0    0    0    0 -0.00000000000E+00 -0.00000000000E+00 -0.45593999997E+02  0.45594000000E+02  0.51100000000E-03 0. -1.
    9900012    2    1    2    0    0  0.17027226832E+02  0.66887092321E+01 -0.39356802316E+02  0.47787272203E+02  0.20000005284E+02 0.  0.
        -12    1    1    2    0    0 -0.17027226832E+02 -0.66887092321E+01  0.39356802316E+02  0.43400727797E+02  0.00000000000E+00 0.  1.
         11    1    3    3    0    0  0.11890105863E+02  0.64361398649E+01 -0.22901368654E+02  0.26594570880E+02  0.51100000000E-03 0. -1.
        -11    1    3    3    0    0  0.73907650053E+01 -0.35422210171E+01 -0.13775611810E+02  0.16029292502E+02  0.51100000000E-03 0.  1.
        -12    1    3    3    0    0 -0.22536440369E+01  0.37947903843E+01 -0.26798218520E+01  0.51634088221E+01  0.00000000000E+00 0.  1.
</event>
<event>
 7    1  0.4430431E-010  0.4778728E+02  0.7816164E-02  0.1312668E+00
        -11   -1    0    0    0    0  0.00000000000E+00  0.00000000000E+00  0.45593999997E+02  0.45594000000E+02  0.51100000000E-03 0.  1.
         11   -1    0    0    0    0 -0.00000000000E+00 -0.00000000000E+00 -0.45593999997E+02  0.45594000000E+02  0.51100000000E-03 0. -1.
    9900012    2    1    2    0    0  0.15476669012E+02 -0.30855359504E+02 -0.26306691198E+02  0.47787280011E+02  0.20000040880E+02 0.  0.
        -12    1    1    2    0    0 -0.15476669012E+02  0.30855359504E+02  0.26306691198E+02  0.43400719989E+02  0.00000000000E+00 0.  1.
         11    1    3    3    0    0  0.31097184068E+01  0.22067985790E+01 -0.33010945039E+00  0.38274379222E+01  0.51100000000E-03 0. -1.
        -11    1    3    3    0    0  0.43657095167E+01 -0.91093477844E+01 -0.59022881871E+01  0.11699429163E+02  0.51100000000E-03 0.  1.
        -12    1    3    3    0    0  0.80012410883E+01 -0.23952810298E+02 -0.20074293561E+02  0.32260412925E+02  0.00000000000E+00 0.  1.
</event>
<event>
 7    1  0.4430431E-010  0.4778724E+02  0.7816164E-02  0.1312668E+00
        -11   -1    0    0    0    0  0.00000000000E+00  0.00000000000E+00  0.45593999997E+02  0.45594000000E+02  0.51100000000E-03 0. -1.
         11   -1    0    0    0    0 -0.00000000000E+00 -0.00000000000E+00 -0.45593999997E+02  0.45594000000E+02  0.51100000000E-03 0.  1.
    9900012    2    1    2    0    0 -0.43115659828E+01  0.27919188186E+01  0.43095726369E+02  0.47787239141E+02  0.19999854538E+02 0.  0.
        -12    1    1    2    0    0  0.43115659828E+01 -0.27919188186E+01 -0.43095726369E+02  0.43400760859E+02  0.00000000000E+00 0.  1.
         11    1    3    3    0    0 -0.10330297234E+01 -0.31867277482E+01  0.64613922656E+00  0.34117268812E+01  0.51100000000E-03 0. -1.
        -11    1    3    3    0    0  0.36447318379E+01  0.28913077078E+00  0.82970614061E+01  0.90669120989E+01  0.51100000000E-03 0.  1.
         12    1    3    3    0    0 -0.69232680973E+01  0.56895157960E+01  0.34152525736E+02  0.35308600161E+02  0.00000000000E+00 0. -1.
</event>
<event>
 7    1  0.4430431E-010  0.4778727E+02  0.7816164E-02  0.1312668E+00
        -11   -1    0    0    0    0  0.00000000000E+00  0.00000000000E+00  0.45593999997E+02  0.45594000000E+02  0.51100000000E-03 0. -1.
         11   -1    0    0    0    0 -0.00000000000E+00 -0.00000000000E+00 -0.45593999997E+02  0.45594000000E+02  0.51100000000E-03 0.  1.
    9900012    2    1    2    0    0 -0.27607547844E+02 -0.32499582048E+02 -0.80761109274E+01  0.47787273060E+02  0.20000009188E+02 0.  0.
        -12    1    1    2    0    0  0.27607547844E+02  0.32499582048E+02  0.80761109274E+01  0.43400726940E+02  0.00000000000E+00 0.  1.
         11    1    3    3    0    0 -0.28833420926E+02 -0.31620699535E+02 -0.74860529530E+01  0.43442787555E+02  0.51100000000E-03 0. -1.
        -11    1    3    3    0    0  0.52984538450E+00 -0.19379989827E+01 -0.17213358028E+01  0.26456706892E+01  0.51100000000E-03 0.  1.
        -12    1    3    3    0    0  0.69602769823E+00  0.10591164701E+01  0.11312778284E+01  0.16988148159E+01  0.00000000000E+00 0.  1.
</event>
<event>
 7    1  0.4430431E-010  0.4778727E+02  0.7816164E-02  0.1312668E+00
        -11   -1    0    0    0    0  0.00000000000E+00  0.00000000000E+00  0.45593999997E+02  0.45594000000E+02  0.51100000000E-03 0. -1.
         11   -1    0    0    0    0 -0.00000000000E+00 -0.00000000000E+00 -0.45593999997E+02  0.45594000000E+02  0.51100000000E-03 0.  1.
    9900012    2    1    2    0    0  0.21560778932E+02  0.30535975332E+02  0.22052447159E+02  0.47787269553E+02  0.19999993200E+02 0.  0.
        -12    1    1    2    0    0 -0.21560778932E+02 -0.30535975332E+02 -0.22052447159E+02  0.43400730447E+02  0.00000000000E+00 0.  1.
         11    1    3    3    0    0  0.95614839141E+00  0.74812341472E+01 -0.20123543948E+00  0.75447717046E+01  0.51100000000E-03 0. -1.
        -11    1    3    3    0    0  0.22752047952E+01  0.28807254914E+01 -0.16161915739E+01  0.40108866453E+01  0.51100000000E-03 0.  1.
         12    1    3    3    0    0  0.18329425745E+02  0.20174015693E+02  0.23869874173E+02  0.36231611203E+02  0.00000000000E+00 0. -1.
</event>
<event>
 7    1  0.4430431E-010  0.4778728E+02  0.7816164E-02  0.1312668E+00
        -11   -1    0    0    0    0  0.00000000000E+00  0.00000000000E+00  0.45593999997E+02  0.45594000000E+02  0.51100000000E-03 0.  1.
         11   -1    0    0    0    0 -0.00000000000E+00 -0.00000000000E+00 -0.45593999997E+02  0.45594000000E+02  0.51100000000E-03 0. -1.
    9900012    2    1    2    0    0 -0.17287166544E+02 -0.16934400798E+02 -0.36027804780E+02  0.47787276795E+02  0.20000026217E+02 0.  0.
        -12    1    1    2    0    0  0.17287166544E+02  0.16934400798E+02  0.36027804780E+02  0.43400723205E+02  0.00000000000E+00 0.  1.
         11    1    3    3    0    0 -0.33837288622E+01 -0.62044529257E+01 -0.24353624332E+02  0.25358309791E+02  0.51100000000E-03 0. -1.
        -11    1    3    3    0    0 -0.24461963870E+01 -0.31947130262E+01 -0.67506070626E+01  0.78588016935E+01  0.51100000000E-03 0.  1.
        -12    1    3    3    0    0 -0.11457241295E+02 -0.75352348457E+01 -0.49235733854E+01  0.14570165310E+02  0.00000000000E+00 0.  1.
</event>
<event>
 7    1  0.4430431E-010  0.4778727E+02  0.7816164E-02  0.1312668E+00
        -11   -1    0    0    0    0  0.00000000000E+00  0.00000000000E+00  0.45593999997E+02  0.45594000000E+02  0.51100000000E-03 0.  1.
         11   -1    0    0    0    0 -0.00000000000E+00 -0.00000000000E+00 -0.45593999997E+02  0.45594000000E+02  0.51100000000E-03 0. -1.
    9900012    2    1    2    0    0  0.34731736494E+00  0.10075843045E+02 -0.42213508249E+02  0.47787268196E+02  0.19999987013E+02 0.  0.
        -12    1    1    2    0    0 -0.34731736494E+00 -0.10075843045E+02  0.42213508249E+02  0.43400731804E+02  0.00000000000E+00 0.  1.
         11    1    3    3    0    0 -0.93214079085E+00  0.70451175417E+01 -0.12506377763E+02  0.14384437863E+02  0.51100000000E-03 0.  1.
        -11    1    3    3    0    0 -0.13903525761E+01  0.84223602627E+01 -0.22184650893E+02  0.23770316956E+02  0.51100000000E-03 0. -1.
        -12    1    3    3    0    0  0.26698107319E+01 -0.53916347599E+01 -0.75224795936E+01  0.96325133773E+01  0.00000000000E+00 0.  1.
</event>
<event>
 7    1  0.4430431E-010  0.4778727E+02  0.7816164E-02  0.1312668E+00
        -11   -1    0    0    0    0  0.00000000000E+00  0.00000000000E+00  0.45593999997E+02  0.45594000000E+02  0.51100000000E-03 0.  1.
         11   -1    0    0    0    0 -0.00000000000E+00 -0.00000000000E+00 -0.45593999997E+02  0.45594000000E+02  0.51100000000E-03 0. -1.
    9900012    2    1    2    0    0 -0.15122419540E+02 -0.39660861307E+02 -0.90527111503E+01  0.47787273376E+02  0.20000010630E+02 0.  0.
        -12    1    1    2    0    0  0.15122419540E+02  0.39660861307E+02  0.90527111503E+01  0.43400726624E+02  0.00000000000E+00 0.  1.
         11    1    3    3    0    0 -0.97717892570E+01 -0.16371449936E+02  0.14668626179E+01  0.19122340978E+02  0.51100000000E-03 0. -1.
        -11    1    3    3    0    0 -0.30998725490E+01 -0.19146281510E+02 -0.27681846838E+01  0.19592145166E+02  0.51100000000E-03 0.  1.
        -12    1    3    3    0    0 -0.22507577337E+01 -0.41431298603E+01 -0.77513890844E+01  0.90727872318E+01  0.00000000000E+00 0.  1.
</event>
<event>
 7    1  0.4430431E-010  0.4778731E+02  0.7816164E-02  0.1312668E+00
        -11   -1    0    0    0    0  0.00000000000E+00  0.00000000000E+00  0.45593999997E+02  0.45594000000E+02  0.51100000000E-03 0. -1.
         11   -1    0    0    0    0 -0.00000000000E+00 -0.00000000000E+00 -0.45593999997E+02  0.45594000000E+02  0.51100000000E-03 0.  1.
    9900012    2    1    2    0    0 -0.31905658715E+02  0.15163406885E+02 -0.25213482696E+02  0.47787312494E+02  0.20000188982E+02 0.  0.
        -12    1    1    2    0    0  0.31905658715E+02 -0.15163406885E+02  0.25213482696E+02  0.43400687506E+02  0.00000000000E+00 0.  1.
         11    1    3    3    0    0 -0.95765723555E+01  0.10208812833E+01 -0.91021219922E+01  0.13251473944E+02  0.51100000000E-03 0. -1.
        -11    1    3    3    0    0 -0.10508951402E+02 -0.60719357994E+00 -0.14737220003E+01  0.10629139213E+02  0.51100000000E-03 0.  1.
        -12    1    3    3    0    0 -0.11820134957E+02  0.14749719182E+02 -0.14637638703E+02  0.23906699336E+02  0.00000000000E+00 0.  1.
</event>
<event>
 7    1  0.4430431E-010  0.4778727E+02  0.7816164E-02  0.1312668E+00
        -11   -1    0    0    0    0  0.00000000000E+00  0.00000000000E+00  0.45593999997E+02  0.45594000000E+02  0.51100000000E-03 0. -1.
         11   -1    0    0    0    0 -0.00000000000E+00 -0.00000000000E+00 -0.45593999997E+02  0.45594000000E+02  0.51100000000E-03 0.  1.
    9900012    2    1    2    0    0 -0.21423995828E+02 -0.57741713966E+01  0.37300060776E+02  0.47787272052E+02  0.20000004593E+02 0.  0.
        -12    1    1    2    0    0  0.21423995828E+02  0.57741713966E+01 -0.37300060776E+02  0.43400727948E+02  0.00000000000E+00 0.  1.
         11    1    3    3    0    0  0.11480538113E+01 -0.35066030646E+01  0.17371089135E+01  0.40782153260E+01  0.51100000000E-03 0.  1.
        -11    1    3    3    0    0 -0.11056588621E+02 -0.66628668061E+01  0.15612332361E+02  0.20258007504E+02  0.51100000000E-03 0. -1.
         12    1    3    3    0    0 -0.11515461019E+02  0.43952984741E+01  0.19950619501E+02  0.23451049222E+02  0.00000000000E+00 0. -1.
</event>
<event>
 7    1  0.4430431E-010  0.4778727E+02  0.7816164E-02  0.1312668E+00
        -11   -1    0    0    0    0  0.00000000000E+00  0.00000000000E+00  0.45593999997E+02  0.45594000000E+02  0.51100000000E-03 0.  1.
         11   -1    0    0    0    0 -0.00000000000E+00 -0.00000000000E+00 -0.45593999997E+02  0.45594000000E+02  0.51100000000E-03 0. -1.
    9900012    2    1    2    0    0 -0.86725373859E+01 -0.23587382546E+02 -0.35384261251E+02  0.47787268850E+02  0.19999989993E+02 0.  0.
        -12    1    1    2    0    0  0.86725373859E+01  0.23587382546E+02  0.35384261251E+02  0.43400731150E+02  0.00000000000E+00 0.  1.
         11    1    3    3    0    0 -0.80568454912E+01 -0.10704888329E+02 -0.16368908469E+02  0.21152979888E+02  0.51100000000E-03 0. -1.
        -11    1    3    3    0    0 -0.51835212950E+00 -0.95638687740E+01 -0.20775138698E+02  0.22876683830E+02  0.51100000000E-03 0.  1.
         12    1    3    3    0    0 -0.97339765155E-01 -0.33186254430E+01  0.17597859155E+01  0.37576051322E+01  0.00000000000E+00 0. -1.
</event>
<event>
 7    1  0.4430431E-010  0.4778727E+02  0.7816164E-02  0.1312668E+00
        -11   -1    0    0    0    0  0.00000000000E+00  0.00000000000E+00  0.45593999997E+02  0.45594000000E+02  0.51100000000E-03 0. -1.
         11   -1    0    0    0    0 -0.00000000000E+00 -0.00000000000E+00 -0.45593999997E+02  0.45594000000E+02  0.51100000000E-03 0.  1.
    9900012    2    1    2    0    0 -0.37074181735E+02  0.10416255494E+02  0.20015743558E+02  0.47787270513E+02  0.19999997577E+02 0.  0.
        -12    1    1    2    0    0  0.37074181735E+02 -0.10416255494E+02 -0.20015743558E+02  0.43400729487E+02  0.00000000000E+00 0.  1.
         11    1    3    3    0    0 -0.10773963776E+02  0.57256307239E+01 -0.14787711726E+00  0.12201762599E+02  0.51100000000E-03 0. -1.
        -11    1    3    3    0    0 -0.74113036884E+01 -0.31807349031E+01  0.22090974757E+01  0.83620935658E+01  0.51100000000E-03 0.  1.
         12    1    3    3    0    0 -0.18888914271E+02  0.78713596731E+01  0.17954523200E+02  0.27223414348E+02  0.00000000000E+00 0. -1.
</event>
<event>
 7    1  0.4430431E-010  0.4778727E+02  0.7816164E-02  0.1312668E+00
        -11   -1    0    0    0    0  0.00000000000E+00  0.00000000000E+00  0.45593999997E+02  0.45594000000E+02  0.51100000000E-03 0.  1.
         11   -1    0    0    0    0 -0.00000000000E+00 -0.00000000000E+00 -0.45593999997E+02  0.45594000000E+02  0.51100000000E-03 0. -1.
    9900012    2    1    2    0    0  0.41303476466E+02  0.72293519608E+01  0.11197432661E+02  0.47787271940E+02  0.20000004082E+02 0.  0.
        -12    1    1    2    0    0 -0.41303476466E+02 -0.72293519608E+01 -0.11197432661E+02  0.43400728060E+02  0.00000000000E+00 0.  1.
         11    1    3    3    0    0  0.70025002137E+01 -0.27801080603E+01  0.25578863301E+00  0.75385302385E+01  0.51100000000E-03 0. -1.
        -11    1    3    3    0    0  0.11910072650E+02 -0.33266666664E+01  0.59110774021E+01  0.13706107323E+02  0.51100000000E-03 0.  1.
         12    1    3    3    0    0  0.22390903602E+02  0.13336126688E+02  0.50305666257E+01  0.26542634378E+02  0.00000000000E+00 0. -1.
</event>
<event>
 7    1  0.4430431E-010  0.4778727E+02  0.7816164E-02  0.1312668E+00
        -11   -1    0    0    0    0  0.00000000000E+00  0.00000000000E+00  0.45593999997E+02  0.45594000000E+02  0.51100000000E-03 0. -1.
         11   -1    0    0    0    0 -0.00000000000E+00 -0.00000000000E+00 -0.45593999997E+02  0.45594000000E+02  0.51100000000E-03 0.  1.
    9900012    2    1    2    0    0  0.38620891563E+02 -0.19783378638E+02  0.81738354443E+00  0.47787269000E+02  0.19999990678E+02 0.  0.
        -12    1    1    2    0    0 -0.38620891563E+02  0.19783378638E+02 -0.81738354443E+00  0.43400731000E+02  0.00000000000E+00 0.  1.
         11    1    3    3    0    0  0.33985268867E+02 -0.19231167060E+02  0.36289241000E+01  0.39217411654E+02  0.51100000000E-03 0. -1.
        -11    1    3    3    0    0  0.36382601609E+01 -0.32959177005E+01 -0.68198948752E+00  0.49563212577E+01  0.51100000000E-03 0.  1.
        -12    1    3    3    0    0  0.99736253543E+00  0.27437061221E+01 -0.21295510681E+01  0.36135360885E+01  0.00000000000E+00 0.  1.
</event>
<event>
 7    1  0.4430431E-010  0.4778727E+02  0.7816164E-02  0.1312668E+00
        -11   -1    0    0    0    0  0.00000000000E+00  0.00000000000E+00  0.45593999997E+02  0.45594000000E+02  0.51100000000E-03 0. -1.
         11   -1    0    0    0    0 -0.00000000000E+00 -0.00000000000E+00 -0.45593999997E+02  0.45594000000E+02  0.51100000000E-03 0.  1.
    9900012    2    1    2    0    0 -0.31159150287E+02  0.26310950084E+02  0.14848045471E+02  0.47787271950E+02  0.20000004131E+02 0.  0.
        -12    1    1    2    0    0  0.31159150287E+02 -0.26310950084E+02 -0.14848045471E+02  0.43400728050E+02  0.00000000000E+00 0.  1.
         11    1    3    3    0    0 -0.12856344959E+02  0.88837852266E+01  0.48667178398E+01  0.16367412393E+02  0.51100000000E-03 0.  1.
        -11    1    3    3    0    0 -0.17879303453E+02  0.20041231176E+02  0.10274305556E+02  0.28755552401E+02  0.51100000000E-03 0. -1.
        -12    1    3    3    0    0 -0.42350187584E+00 -0.26140663187E+01 -0.29297792474E+00  0.26643071560E+01  0.00000000000E+00 0.  1.
</event>
<event>
 7    1  0.4430431E-010  0.4778727E+02  0.7816164E-02  0.1312668E+00
        -11   -1    0    0    0    0  0.00000000000E+00  0.00000000000E+00  0.45593999997E+02  0.45594000000E+02  0.51100000000E-03 0.  1.
         11   -1    0    0    0    0 -0.00000000000E+00 -0.00000000000E+00 -0.45593999997E+02  0.45594000000E+02  0.51100000000E-03 0. -1.
    9900012    2    1    2    0    0  0.30758763046E+02  0.16979859169E+02 -0.25479532756E+02  0.47787266009E+02  0.19999977039E+02 0.  0.
        -12    1    1    2    0    0 -0.30758763046E+02 -0.16979859169E+02  0.25479532756E+02  0.43400733991E+02  0.00000000000E+00 0.  1.
         11    1    3    3    0    0  0.11666514644E+02  0.93808034616E+01 -0.92343366424E+00  0.14998658858E+02  0.51100000000E-03 0. -1.
        -11    1    3    3    0    0  0.41295855524E+01 -0.23801506024E+00 -0.19603389078E+01  0.45774509170E+01  0.51100000000E-03 0.  1.
         12    1    3    3    0    0  0.14962662849E+02  0.78370707678E+01 -0.22595760184E+02  0.28211156234E+02  0.00000000000E+00 0. -1.
</event>
<event>
 7    1  0.4430431E-010  0.4778727E+02  0.7816164E-02  0.1312668E+00
        -11   -1    0    0    0    0  0.00000000000E+00  0.00000000000E+00  0.45593999997E+02  0.45594000000E+02  0.51100000000E-03 0. -1.
         11   -1    0    0    0    0 -0.00000000000E+00 -0.00000000000E+00 -0.45593999997E+02  0.45594000000E+02  0.51100000000E-03 0.  1.
    9900012    2    1    2    0    0  0.18136838801E+02  0.38990711306E+02 -0.58653905304E+01  0.47787270791E+02  0.19999998843E+02 0.  0.
        -12    1    1    2    0    0 -0.18136838801E+02 -0.38990711306E+02  0.58653905304E+01  0.43400729209E+02  0.00000000000E+00 0.  1.
         11    1    3    3    0    0  0.94777179051E+01  0.19513377342E+02 -0.32513546528E+01  0.21935595258E+02  0.51100000000E-03 0. -1.
        -11    1    3    3    0    0  0.82286110708E+01  0.12661198214E+02 -0.80598517205E+01  0.17116576480E+02  0.51100000000E-03 0.  1.
        -12    1    3    3    0    0  0.43050982497E+00  0.68161357495E+01  0.54458158429E+01  0.87350990526E+01  0.00000000000E+00 0.  1.
</event>
<event>
 7    1  0.4430431E-010  0.4778728E+02  0.7816164E-02  0.1312668E+00
        -11   -1    0    0    0    0  0.00000000000E+00  0.00000000000E+00  0.45593999997E+02  0.45594000000E+02  0.51100000000E-03 0.  1.
         11   -1    0    0    0    0 -0.00000000000E+00 -0.00000000000E+00 -0.45593999997E+02  0.45594000000E+02  0.51100000000E-03 0. -1.
    9900012    2    1    2    0    0 -0.93127678242E+01 -0.31180159475E+02 -0.28717464427E+02  0.47787277050E+02  0.20000027383E+02 0.  0.
        -12    1    1    2    0    0  0.93127678242E+01  0.31180159475E+02  0.28717464427E+02  0.43400722950E+02  0.00000000000E+00 0.  1.
         11    1    3    3    0    0 -0.56754746410E+01 -0.10711256678E+02 -0.16421316322E+02  0.20410822179E+02  0.51100000000E-03 0. -1.
        -11    1    3    3    0    0  0.10337970863E+01 -0.63409766425E+00 -0.58933034551E+01  0.60167966675E+01  0.51100000000E-03 0.  1.
        -12    1    3    3    0    0 -0.46710902696E+01 -0.19834805133E+02 -0.64028446503E+01  0.21359658204E+02  0.00000000000E+00 0.  1.
</event>
<event>
 7    1  0.4430431E-010  0.4778727E+02  0.7816164E-02  0.1312668E+00
        -11   -1    0    0    0    0  0.00000000000E+00  0.00000000000E+00  0.45593999997E+02  0.45594000000E+02  0.51100000000E-03 0. -1.
         11   -1    0    0    0    0 -0.00000000000E+00 -0.00000000000E+00 -0.45593999997E+02  0.45594000000E+02  0.51100000000E-03 0.  1.
    9900012    2    1    2    0    0 -0.35945744127E+02  0.24275581776E+02 -0.14910724318E+01  0.47787266269E+02  0.19999978225E+02 0.  0.
        -12    1    1    2    0    0  0.35945744127E+02 -0.24275581776E+02  0.14910724318E+01  0.43400733731E+02  0.00000000000E+00 0.  1.
         11    1    3    3    0    0 -0.94125145845E+01  0.27824719422E+01 -0.23412136379E+01  0.10090533310E+02  0.51100000000E-03 0. -1.
        -11    1    3    3    0    0 -0.73970144487E+01 -0.11854203744E+01  0.27065374438E+01  0.79653241876E+01  0.51100000000E-03 0.  1.
         12    1    3    3    0    0 -0.19136215094E+02  0.22678530208E+02 -0.18563962377E+01  0.29731408771E+02  0.00000000000E+00 0. -1.
</event>
<event>
 7    1  0.4430431E-010  0.4778727E+02  0.7816164E-02  0.1312668E+00
        -11   -1    0    0    0    0  0.00000000000E+00  0.00000000000E+00  0.45593999997E+02  0.45594000000E+02  0.51100000000E-03 0. -1.
         11   -1    0    0    0    0 -0.00000000000E+00 -0.00000000000E+00 -0.45593999997E+02  0.45594000000E+02  0.51100000000E-03 0.  1.
    9900012    2    1    2    0    0 -0.34798397196E+02 -0.23477280237E+02 -0.11023249267E+02  0.47787272366E+02  0.20000006027E+02 0.  0.
        -12    1    1    2    0    0  0.34798397196E+02  0.23477280237E+02  0.11023249267E+02  0.43400727634E+02  0.00000000000E+00 0.  1.
         11    1    3    3    0    0 -0.69863940997E+01 -0.26414378912E+01  0.15286192439E+01  0.76238818002E+01  0.51100000000E-03 0. -1.
        -11    1    3    3    0    0 -0.10145405163E+02  0.52969961575E-02 -0.68833683271E+01  0.12260099256E+02  0.51100000000E-03 0.  1.
         12    1    3    3    0    0 -0.17666597934E+02 -0.20841139342E+02 -0.56685001842E+01  0.27903291310E+02  0.00000000000E+00 0. -1.
</event>
<event>
 7    1  0.4430431E-010  0.4778727E+02  0.7816164E-02  0.1312668E+00
        -11   -1    0    0    0    0  0.00000000000E+00  0.00000000000E+00  0.45593999997E+02  0.45594000000E+02  0.51100000000E-03 0.  1.
         11   -1    0    0    0    0 -0.00000000000E+00 -0.00000000000E+00 -0.45593999997E+02  0.45594000000E+02  0.51100000000E-03 0. -1.
    9900012    2    1    2    0    0  0.72001142223E+01  0.40333597716E+02 -0.14317210916E+02  0.47787270998E+02  0.19999999787E+02 0.  0.
        -12    1    1    2    0    0 -0.72001142223E+01 -0.40333597716E+02  0.14317210916E+02  0.43400729002E+02  0.00000000000E+00 0.  1.
         11    1    3    3    0    0  0.11477758549E+01  0.35506642440E+02 -0.69706462841E+01  0.36202609804E+02  0.51100000000E-03 0. -1.
        -11    1    3    3    0    0  0.12842920748E+01  0.14023243544E+01  0.32036895471E+00  0.19283558429E+01  0.51100000000E-03 0.  1.
         12    1    3    3    0    0  0.47680462926E+01  0.34246309215E+01 -0.76669335870E+01  0.96563053506E+01  0.00000000000E+00 0. -1.
</event>
<event>
 7    1  0.4430431E-010  0.4778728E+02  0.7816164E-02  0.1312668E+00
        -11   -1    0    0    0    0  0.00000000000E+00  0.00000000000E+00  0.45593999997E+02  0.45594000000E+02  0.51100000000E-03 0.  1.
         11   -1    0    0    0    0 -0.00000000000E+00 -0.00000000000E+00 -0.45593999997E+02  0.45594000000E+02  0.51100000000E-03 0. -1.
    9900012    2    1    2    0    0 -0.71460232541E+01 -0.42799271960E+02 -0.88281876765E+00  0.47787277683E+02  0.20000030269E+02 0.  0.
        -12    1    1    2    0    0  0.71460232541E+01  0.42799271960E+02  0.88281876765E+00  0.43400722317E+02  0.00000000000E+00 0.  1.
         11    1    3    3    0    0  0.49163766324E-01 -0.15341703806E+02 -0.16067297826E+01  0.15425688756E+02  0.51100000000E-03 0. -1.
        -11    1    3    3    0    0  0.17849178442E+01 -0.87428965974E+01  0.62338390930E+01  0.10885077984E+02  0.51100000000E-03 0.  1.
        -12    1    3    3    0    0 -0.89801048647E+01 -0.18714671557E+02 -0.55099280780E+01  0.21476510943E+02  0.00000000000E+00 0.  1.
</event>
<event>
 7    1  0.4430431E-010  0.4778727E+02  0.7816164E-02  0.1312668E+00
        -11   -1    0    0    0    0  0.00000000000E+00  0.00000000000E+00  0.45593999997E+02  0.45594000000E+02  0.51100000000E-03 0.  1.
         11   -1    0    0    0    0 -0.00000000000E+00 -0.00000000000E+00 -0.45593999997E+02  0.45594000000E+02  0.51100000000E-03 0. -1.
    9900012    2    1    2    0    0 -0.31073286447E+01 -0.25817220156E+02 -0.34748219254E+02  0.47787273172E+02  0.20000009701E+02 0.  0.
        -12    1    1    2    0    0  0.31073286447E+01  0.25817220156E+02  0.34748219254E+02  0.43400726828E+02  0.00000000000E+00 0.  1.
         11    1    3    3    0    0 -0.34808643417E+00 -0.15080329908E+02 -0.12104953222E+02  0.19340822296E+02  0.51100000000E-03 0. -1.
        -11    1    3    3    0    0  0.32841843938E+01 -0.84252036215E+01 -0.18947981128E+02  0.20995140207E+02  0.51100000000E-03 0.  1.
        -12    1    3    3    0    0 -0.60434266044E+01 -0.23116866265E+01 -0.36952849034E+01  0.74513106699E+01  0.00000000000E+00 0.  1.
</event>
<event>
 7    1  0.4430431E-010  0.4778727E+02  0.7816164E-02  0.1312668E+00
        -11   -1    0    0    0    0  0.00000000000E+00  0.00000000000E+00  0.45593999997E+02  0.45594000000E+02  0.51100000000E-03 0.  1.
         11   -1    0    0    0    0 -0.00000000000E+00 -0.00000000000E+00 -0.45593999997E+02  0.45594000000E+02  0.51100000000E-03 0. -1.
    9900012    2    1    2    0    0 -0.37158037191E+02 -0.19191794884E+02 -0.11600802221E+02  0.47787270387E+02  0.19999997003E+02 0.  0.
        -12    1    1    2    0    0  0.37158037191E+02  0.19191794884E+02  0.11600802221E+02  0.43400729613E+02  0.00000000000E+00 0.  1.
         11    1    3    3    0    0  0.27178093698E+00 -0.51606322581E+00 -0.35708574919E+01  0.36181776656E+01  0.51100000000E-03 0. -1.
        -11    1    3    3    0    0 -0.55853321308E+01 -0.74339615355E+00  0.24582600207E+01  0.61474885476E+01  0.51100000000E-03 0.  1.
         12    1    3    3    0    0 -0.31844485998E+02 -0.17932335504E+02 -0.10488204749E+02  0.38021604174E+02  0.00000000000E+00 0. -1.
</event>
<event>
 7    1  0.4430431E-010  0.4778727E+02  0.7816164E-02  0.1312668E+00
        -11   -1    0    0    0    0  0.00000000000E+00  0.00000000000E+00  0.45593999997E+02  0.45594000000E+02  0.51100000000E-03 0. -1.
         11   -1    0    0    0    0 -0.00000000000E+00 -0.00000000000E+00 -0.45593999997E+02  0.45594000000E+02  0.51100000000E-03 0.  1.
    9900012    2    1    2    0    0  0.21583522368E+02  0.12224300402E+02  0.35613779861E+02  0.47787271042E+02  0.19999999988E+02 0.  0.
        -12    1    1    2    0    0 -0.21583522368E+02 -0.12224300402E+02 -0.35613779861E+02  0.43400728958E+02  0.00000000000E+00 0.  1.
         11    1    3    3    0    0  0.16516982584E+02  0.31481718436E+01  0.10031108578E+02  0.19579194039E+02  0.51100000000E-03 0. -1.
        -11    1    3    3    0    0  0.18356434033E+01  0.68513277687E+01  0.10855052139E+02  0.12966974825E+02  0.51100000000E-03 0.  1.
         12    1    3    3    0    0  0.32308963803E+01  0.22248007896E+01  0.14727619143E+02  0.15241102178E+02  0.00000000000E+00 0. -1.
</event>
<event>
 7    1  0.5155041E-010  0.4778727E+02  0.7816164E-02  0.1312668E+00
        -11   -1    0    0    0    0  0.00000000000E+00  0.00000000000E+00  0.45593999997E+02  0.45594000000E+02  0.51100000000E-03 0. -1.
         11   -1    0    0    0    0 -0.00000000000E+00 -0.00000000000E+00 -0.45593999997E+02  0.45594000000E+02  0.51100000000E-03 0.  1.
    9900012    2    1    2    0    0  0.86602009627E+01 -0.28707955402E+02  0.31376385825E+02  0.47787269920E+02  0.19999994871E+02 0.  0.
        -12    1    1    2    0    0 -0.86602009627E+01  0.28707955402E+02 -0.31376385825E+02  0.43400730080E+02  0.00000000000E+00 0.  1.
         11    1    3    3    0    0  0.41290400525E+01 -0.14374056539E+02  0.16741343098E+02  0.22448497548E+02  0.51100000000E-03 0.  1.
        -11    1    3    3    0    0  0.34889267596E+01 -0.15175251693E+02  0.61387366106E+01  0.16737531518E+02  0.51100000000E-03 0. -1.
        -12    1    3    3    0    0  0.10422341506E+01  0.84135283030E+00  0.84963061157E+01  0.86012408536E+01  0.00000000000E+00 0.  1.
</event>
<event>
 7    1  0.4430431E-010  0.4778726E+02  0.7816164E-02  0.1312668E+00
        -11   -1    0    0    0    0  0.00000000000E+00  0.00000000000E+00  0.45593999997E+02  0.45594000000E+02  0.51100000000E-03 0.  1.
         11   -1    0    0    0    0 -0.00000000000E+00 -0.00000000000E+00 -0.45593999997E+02  0.45594000000E+02  0.51100000000E-03 0. -1.
    9900012    2    1    2    0    0  0.13661195473E+02 -0.27818152868E+02 -0.30383318515E+02  0.47787263431E+02  0.19999965288E+02 0.  0.
        -12    1    1    2    0    0 -0.13661195473E+02  0.27818152868E+02  0.30383318515E+02  0.43400736569E+02  0.00000000000E+00 0.  1.
         11    1    3    3    0    0 -0.10081684234E+01 -0.61176221621E+01  0.14931050746E+01  0.63773872011E+01  0.51100000000E-03 0.  1.
        -11    1    3    3    0    0  0.21866380387E+01 -0.42407018311E+01 -0.79103600542E+01  0.92378966427E+01  0.51100000000E-03 0. -1.
        -12    1    3    3    0    0  0.12482725858E+02 -0.17459828875E+02 -0.23966063535E+02  0.32171979587E+02  0.00000000000E+00 0.  1.
</event>
<event>
 7    1  0.4430431E-010  0.4778727E+02  0.7816164E-02  0.1312668E+00
        -11   -1    0    0    0    0  0.00000000000E+00  0.00000000000E+00  0.45593999997E+02  0.45594000000E+02  0.51100000000E-03 0.  1.
         11   -1    0    0    0    0 -0.00000000000E+00 -0.00000000000E+00 -0.45593999997E+02  0.45594000000E+02  0.51100000000E-03 0. -1.
    9900012    2    1    2    0    0  0.16373435233E+02  0.10207624007E+02 -0.38875932429E+02  0.47787273146E+02  0.20000009582E+02 0.  0.
        -12    1    1    2    0    0 -0.16373435233E+02 -0.10207624007E+02  0.38875932429E+02  0.43400726854E+02  0.00000000000E+00 0.  1.
         11    1    3    3    0    0  0.69620192983E+01  0.60817573852E+01 -0.15093780779E+02  0.17699709152E+02  0.51100000000E-03 0. -1.
        -11    1    3    3    0    0 -0.86920424465E+00  0.49009659636E+01 -0.99399637757E+00  0.50757277759E+01  0.51100000000E-03 0.  1.
         12    1    3    3    0    0  0.10280620180E+02 -0.77509934154E+00 -0.22788155273E+02  0.25011836218E+02  0.00000000000E+00 0. -1.
</event>
<event>
 7    1  0.4430431E-010  0.4778727E+02  0.7816164E-02  0.1312668E+00
        -11   -1    0    0    0    0  0.00000000000E+00  0.00000000000E+00  0.45593999997E+02  0.45594000000E+02  0.51100000000E-03 0.  1.
         11   -1    0    0    0    0 -0.00000000000E+00 -0.00000000000E+00 -0.45593999997E+02  0.45594000000E+02  0.51100000000E-03 0. -1.
    9900012    2    1    2    0    0 -0.64414095689E+01  0.13550194896E+02 -0.40724974075E+02  0.47787273596E+02  0.20000011633E+02 0.  0.
        -12    1    1    2    0    0  0.64414095689E+01 -0.13550194896E+02  0.40724974075E+02  0.43400726404E+02  0.00000000000E+00 0.  1.
         11    1    3    3    0    0 -0.45381643819E+01  0.48982552438E+01 -0.20215737116E+02  0.21289994547E+02  0.51100000000E-03 0. -1.
        -11    1    3    3    0    0  0.15834824317E+01  0.85125243468E+01 -0.21235597129E+02  0.22932969128E+02  0.51100000000E-03 0.  1.
        -12    1    3    3    0    0 -0.34867276187E+01  0.13941530527E+00  0.72636016960E+00  0.35643099206E+01  0.00000000000E+00 0.  1.
</event>
<event>
 7    1  0.4430431E-010  0.4778727E+02  0.7816164E-02  0.1312668E+00
        -11   -1    0    0    0    0  0.00000000000E+00  0.00000000000E+00  0.45593999997E+02  0.45594000000E+02  0.51100000000E-03 0. -1.
         11   -1    0    0    0    0 -0.00000000000E+00 -0.00000000000E+00 -0.45593999997E+02  0.45594000000E+02  0.51100000000E-03 0.  1.
    9900012    2    1    2    0    0  0.30836651433E+02 -0.34509639257E+01  0.30344934595E+02  0.47787270984E+02  0.19999999723E+02 0.  0.
        -12    1    1    2    0    0 -0.30836651433E+02  0.34509639257E+01 -0.30344934595E+02  0.43400729016E+02  0.00000000000E+00 0.  1.
         11    1    3    3    0    0  0.15430849563E+02  0.25735157913E+01  0.64763392898E+01  0.16931540764E+02  0.51100000000E-03 0. -1.
        -11    1    3    3    0    0 -0.92985391192E+00 -0.19990903109E+01  0.89287155819E+00  0.23786992767E+01  0.51100000000E-03 0.  1.
         12    1    3    3    0    0  0.16335655781E+02 -0.40253894061E+01  0.22975723747E+02  0.28477030943E+02  0.00000000000E+00 0. -1.
</event>
<event>
 7    1  0.4430431E-010  0.4778726E+02  0.7816164E-02  0.1312668E+00
        -11   -1    0    0    0    0  0.00000000000E+00  0.00000000000E+00  0.45593999997E+02  0.45594000000E+02  0.51100000000E-03 0.  1.
         11   -1    0    0    0    0 -0.00000000000E+00 -0.00000000000E+00 -0.45593999997E+02  0.45594000000E+02  0.51100000000E-03 0. -1.
    9900012    2    1    2    0    0 -0.13399340398E+02 -0.28299465992E+02 -0.30053653442E+02  0.47787260562E+02  0.19999952208E+02 0.  0.
        -12    1    1    2    0    0  0.13399340398E+02  0.28299465992E+02  0.30053653442E+02  0.43400739438E+02  0.00000000000E+00 0.  1.
         11    1    3    3    0    0 -0.17189873520E+00  0.22456736039E+00  0.33631204274E+00  0.43941520880E+00  0.51100000000E-03 0. -1.
        -11    1    3    3    0    0 -0.19745113687E+01  0.67561639099E+00  0.15755288431E+01  0.26148506744E+01  0.51100000000E-03 0.  1.
         12    1    3    3    0    0 -0.11252930294E+02 -0.29199649743E+02 -0.31965494328E+02  0.44732994679E+02  0.00000000000E+00 0. -1.
</event>
<event>
 7    1  0.4430431E-010  0.4778727E+02  0.7816164E-02  0.1312668E+00
        -11   -1    0    0    0    0  0.00000000000E+00  0.00000000000E+00  0.45593999997E+02  0.45594000000E+02  0.51100000000E-03 0. -1.
         11   -1    0    0    0    0 -0.00000000000E+00 -0.00000000000E+00 -0.45593999997E+02  0.45594000000E+02  0.51100000000E-03 0.  1.
    9900012    2    1    2    0    0 -0.28134777803E+02 -0.22938163990E+02  0.23788613250E+02  0.47787271784E+02  0.20000003374E+02 0.  0.
        -12    1    1    2    0    0  0.28134777803E+02  0.22938163990E+02 -0.23788613250E+02  0.43400728216E+02  0.00000000000E+00 0.  1.
         11    1    3    3    0    0 -0.10779380901E+02 -0.36431784917E+01  0.98338736492E+01  0.15039044961E+02  0.51100000000E-03 0. -1.
        -11    1    3    3    0    0 -0.10220757842E+02 -0.13752357295E+01  0.55127771031E+01  0.11693839225E+02  0.51100000000E-03 0.  1.
        -12    1    3    3    0    0 -0.71346390597E+01 -0.17919749769E+02  0.84419624975E+01  0.21054387598E+02  0.00000000000E+00 0.  1.
</event>
<event>
 7    1  0.4430431E-010  0.4778729E+02  0.7816164E-02  0.1312668E+00
        -11   -1    0    0    0    0  0.00000000000E+00  0.00000000000E+00  0.45593999997E+02  0.45594000000E+02  0.51100000000E-03 0.  1.
         11   -1    0    0    0    0 -0.00000000000E+00 -0.00000000000E+00 -0.45593999997E+02  0.45594000000E+02  0.51100000000E-03 0. -1.
    9900012    2    1    2    0    0  0.71926010827E+00  0.11521434735E+02 -0.41837318728E+02  0.47787285354E+02  0.20000065243E+02 0.  0.
        -12    1    1    2    0    0 -0.71926010827E+00 -0.11521434735E+02  0.41837318728E+02  0.43400714646E+02  0.00000000000E+00 0.  1.
         11    1    3    3    0    0  0.13908881402E+00 -0.26707539872E+00  0.55746332726E+00  0.63359339417E+00  0.51100000000E-03 0. -1.
        -11    1    3    3    0    0  0.84547685808E+01  0.76931795431E+01 -0.19570743211E+02  0.22664556323E+02  0.51100000000E-03 0.  1.
         12    1    3    3    0    0 -0.78745972865E+01  0.40953305909E+01 -0.22824038844E+02  0.24489135637E+02  0.00000000000E+00 0. -1.
</event>
<event>
 7    1  0.4430431E-010  0.4778727E+02  0.7816164E-02  0.1312668E+00
        -11   -1    0    0    0    0  0.00000000000E+00  0.00000000000E+00  0.45593999997E+02  0.45594000000E+02  0.51100000000E-03 0.  1.
         11   -1    0    0    0    0 -0.00000000000E+00 -0.00000000000E+00 -0.45593999997E+02  0.45594000000E+02  0.51100000000E-03 0. -1.
    9900012    2    1    2    0    0  0.26315980974E+02  0.34425027141E+02 -0.24514956460E+01  0.47787272136E+02  0.20000004976E+02 0.  0.
        -12    1    1    2    0    0 -0.26315980974E+02 -0.34425027141E+02  0.24514956460E+01  0.43400727864E+02  0.00000000000E+00 0.  1.
         11    1    3    3    0    0  0.19388951860E+02  0.19112485172E+02 -0.72975268225E+01  0.28186387524E+02  0.51100000000E-03 0. -1.
        -11    1    3    3    0    0  0.47959900881E+01  0.58298840625E+01 -0.18820438550E+01  0.77801772757E+01  0.51100000000E-03 0.  1.
        -12    1    3    3    0    0  0.21310390260E+01  0.94826579060E+01  0.67280750315E+01  0.11820707336E+02  0.00000000000E+00 0.  1.
</event>
<event>
 7    1  0.4430431E-010  0.4778727E+02  0.7816164E-02  0.1312668E+00
        -11   -1    0    0    0    0  0.00000000000E+00  0.00000000000E+00  0.45593999997E+02  0.45594000000E+02  0.51100000000E-03 0.  1.
         11   -1    0    0    0    0 -0.00000000000E+00 -0.00000000000E+00 -0.45593999997E+02  0.45594000000E+02  0.51100000000E-03 0. -1.
    9900012    2    1    2    0    0  0.19199321410E+02 -0.16504338734E+02 -0.35250760224E+02  0.47787271481E+02  0.20000001989E+02 0.  0.
        -12    1    1    2    0    0 -0.19199321410E+02  0.16504338734E+02  0.35250760224E+02  0.43400728519E+02  0.00000000000E+00 0.  1.
         11    1    3    3    0    0  0.13767656784E+01 -0.12079034703E+02 -0.15928077005E+02  0.20037519818E+02  0.51100000000E-03 0. -1.
        -11    1    3    3    0    0  0.14134997612E+01 -0.25310299486E+00 -0.61010414865E+01  0.62677547959E+01  0.51100000000E-03 0.  1.
        -12    1    3    3    0    0  0.16409055970E+02 -0.41722010366E+01 -0.13221641732E+02  0.21481996867E+02  0.00000000000E+00 0.  1.
</event>
<event>
 7    1  0.4430431E-010  0.4778727E+02  0.7816164E-02  0.1312668E+00
        -11   -1    0    0    0    0  0.00000000000E+00  0.00000000000E+00  0.45593999997E+02  0.45594000000E+02  0.51100000000E-03 0. -1.
         11   -1    0    0    0    0 -0.00000000000E+00 -0.00000000000E+00 -0.45593999997E+02  0.45594000000E+02  0.51100000000E-03 0.  1.
    9900012    2    1    2    0    0  0.41228526062E+02  0.40510249458E+01  0.12939133208E+02  0.47787270369E+02  0.19999996921E+02 0.  0.
        -12    1    1    2    0    0 -0.41228526062E+02 -0.40510249458E+01 -0.12939133208E+02  0.43400729631E+02  0.00000000000E+00 0.  1.
         11    1    3    3    0    0  0.33471390208E+01 -0.17301040566E+01  0.22059460106E+01  0.43660963954E+01  0.51100000000E-03 0. -1.
        -11    1    3    3    0    0  0.23358271262E+02 -0.38669190437E+01  0.15799309146E+01  0.23728844919E+02  0.51100000000E-03 0.  1.
         12    1    3    3    0    0  0.14523115778E+02  0.96480480461E+01  0.91532562825E+01  0.19692329054E+02  0.00000000000E+00 0. -1.
</event>
<event>
 7    1  0.4430431E-010  0.4778728E+02  0.7816164E-02  0.1312668E+00
        -11   -1    0    0    0    0  0.00000000000E+00  0.00000000000E+00  0.45593999997E+02  0.45594000000E+02  0.51100000000E-03 0. -1.
         11   -1    0    0    0    0 -0.00000000000E+00 -0.00000000000E+00 -0.45593999997E+02  0.45594000000E+02  0.51100000000E-03 0.  1.
    9900012    2    1    2    0    0  0.40707522336E+02 -0.66911050000E+01  0.13481435543E+02  0.47787281513E+02  0.20000047733E+02 0.  0.
        -12    1    1    2    0    0 -0.40707522336E+02  0.66911050000E+01 -0.13481435543E+02  0.43400718487E+02  0.00000000000E+00 0.  1.
         11    1    3    3    0    0  0.22643619443E+02 -0.86329839745E+00  0.79229881276E+01  0.24005260397E+02  0.51100000000E-03 0. -1.
        -11    1    3    3    0    0  0.11176973756E+02  0.33321067044E+01  0.28448639519E+01  0.12005037634E+02  0.51100000000E-03 0.  1.
        -12    1    3    3    0    0  0.68869291366E+01 -0.91599133069E+01  0.27135834638E+01  0.11776983482E+02  0.00000000000E+00 0.  1.
</event>
<event>
 7    1  0.4430431E-010  0.4778727E+02  0.7816164E-02  0.1312668E+00
        -11   -1    0    0    0    0  0.00000000000E+00  0.00000000000E+00  0.45593999997E+02  0.45594000000E+02  0.51100000000E-03 0.  1.
         11   -1    0    0    0    0 -0.00000000000E+00 -0.00000000000E+00 -0.45593999997E+02  0.45594000000E+02  0.51100000000E-03 0. -1.
    9900012    2    1    2    0    0  0.36748803545E+02  0.10407898392E+02 -0.20611274291E+02  0.47787267992E+02  0.19999986084E+02 0.  0.
        -12    1    1    2    0    0 -0.36748803545E+02 -0.10407898392E+02  0.20611274291E+02  0.43400732008E+02  0.00000000000E+00 0.  1.
         11    1    3    3    0    0  0.79606658634E-01  0.47873589181E+00 -0.41458375907E+01  0.41741460041E+01  0.51100000000E-03 0. -1.
        -11    1    3    3    0    0  0.34540964697E+01 -0.15210669751E+01 -0.57574422236E+01  0.68842260555E+01  0.51100000000E-03 0.  1.
         12    1    3    3    0    0  0.33215100416E+02  0.11450229476E+02 -0.10707994477E+02  0.36728895933E+02  0.00000000000E+00 0. -1.
</event>
<event>
 7    1  0.4430431E-010  0.4778727E+02  0.7816164E-02  0.1312668E+00
        -11   -1    0    0    0    0  0.00000000000E+00  0.00000000000E+00  0.45593999997E+02  0.45594000000E+02  0.51100000000E-03 0.  1.
         11   -1    0    0    0    0 -0.00000000000E+00 -0.00000000000E+00 -0.45593999997E+02  0.45594000000E+02  0.51100000000E-03 0. -1.
    9900012    2    1    2    0    0 -0.25816346341E+02 -0.34423221423E+02 -0.56728364431E+01  0.47787274374E+02  0.20000015182E+02 0.  0.
        -12    1    1    2    0    0  0.25816346341E+02  0.34423221423E+02  0.56728364431E+01  0.43400725626E+02  0.00000000000E+00 0.  1.
         11    1    3    3    0    0 -0.22886697957E+01 -0.26836714758E+01 -0.62092205474E+01  0.71410448879E+01  0.51100000000E-03 0.  1.
        -11    1    3    3    0    0 -0.98345234029E+01 -0.20726103169E+02 -0.13004776797E+01  0.22977825084E+02  0.51100000000E-03 0. -1.
        -12    1    3    3    0    0 -0.13693153142E+02 -0.11013446778E+02  0.18368617840E+01  0.17668404402E+02  0.00000000000E+00 0.  1.
</event>
<event>
 7    1  0.4430431E-010  0.4778728E+02  0.7816164E-02  0.1312668E+00
        -11   -1    0    0    0    0  0.00000000000E+00  0.00000000000E+00  0.45593999997E+02  0.45594000000E+02  0.51100000000E-03 0.  1.
         11   -1    0    0    0    0 -0.00000000000E+00 -0.00000000000E+00 -0.45593999997E+02  0.45594000000E+02  0.51100000000E-03 0. -1.
    9900012    2    1    2    0    0  0.30535271160E+02 -0.26459111570E+02 -0.15847234774E+02  0.47787283187E+02  0.20000055363E+02 0.  0.
        -12    1    1    2    0    0 -0.30535271160E+02  0.26459111570E+02  0.15847234774E+02  0.43400716813E+02  0.00000000000E+00 0.  1.
         11    1    3    3    0    0  0.58076120015E+01 -0.20680666245E+00 -0.60663985250E+00  0.58428707266E+01  0.51100000000E-03 0.  1.
        -11    1    3    3    0    0  0.23853057118E+02 -0.17205229401E+02 -0.84557998220E+01  0.30602104560E+02  0.51100000000E-03 0. -1.
        -12    1    3    3    0    0  0.87460204008E+00 -0.90470755069E+01 -0.67847950999E+01  0.11342307900E+02  0.00000000000E+00 0.  1.
</event>
<event>
 7    1  0.4430431E-010  0.4778727E+02  0.7816164E-02  0.1312668E+00
        -11   -1    0    0    0    0  0.00000000000E+00  0.00000000000E+00  0.45593999997E+02  0.45594000000E+02  0.51100000000E-03 0. -1.
         11   -1    0    0    0    0 -0.00000000000E+00 -0.00000000000E+00 -0.45593999997E+02  0.45594000000E+02  0.51100000000E-03 0.  1.
    9900012    2    1    2    0    0  0.22402783984E+02 -0.19866543150E+02  0.31417500756E+02  0.47787267049E+02  0.19999981781E+02 0.  0.
        -12    1    1    2    0    0 -0.22402783984E+02  0.19866543150E+02 -0.31417500756E+02  0.43400732951E+02  0.00000000000E+00 0.  1.
         11    1    3    3    0    0 -0.56522919615E+00 -0.47485395115E+01  0.41030362590E+01  0.63010331169E+01  0.51100000000E-03 0. -1.
        -11    1    3    3    0    0  0.15745641726E+02 -0.15444890340E+02  0.26072900035E+02  0.34150636706E+02  0.51100000000E-03 0.  1.
        -12    1    3    3    0    0  0.72223714540E+01  0.32688670159E+00  0.12415644627E+01  0.73355972252E+01  0.00000000000E+00 0.  1.
</event>
<event>
 7    1  0.4430431E-010  0.4778726E+02  0.7816164E-02  0.1312668E+00
        -11   -1    0    0    0    0  0.00000000000E+00  0.00000000000E+00  0.45593999997E+02  0.45594000000E+02  0.51100000000E-03 0.  1.
         11   -1    0    0    0    0 -0.00000000000E+00 -0.00000000000E+00 -0.45593999997E+02  0.45594000000E+02  0.51100000000E-03 0. -1.
    9900012    2    1    2    0    0 -0.18162773064E+02  0.37403291166E+02 -0.12439106112E+02  0.47787264105E+02  0.19999968359E+02 0.  0.
        -12    1    1    2    0    0  0.18162773064E+02 -0.37403291166E+02  0.12439106112E+02  0.43400735895E+02  0.00000000000E+00 0.  1.
         11    1    3    3    0    0 -0.90988047216E+01  0.16007821204E+02 -0.66636313442E+00  0.18425054333E+02  0.51100000000E-03 0. -1.
        -11    1    3    3    0    0  0.35184184790E+00 -0.24603688592E+00  0.19938048517E+01  0.20395060390E+01  0.51100000000E-03 0.  1.
         12    1    3    3    0    0 -0.94158101898E+01  0.21641506848E+02 -0.13766547829E+02  0.27322703733E+02  0.00000000000E+00 0. -1.
</event>
<event>
 7    1  0.4430431E-010  0.4778731E+02  0.7816164E-02  0.1312668E+00
        -11   -1    0    0    0    0  0.00000000000E+00  0.00000000000E+00  0.45593999997E+02  0.45594000000E+02  0.51100000000E-03 0.  1.
         11   -1    0    0    0    0 -0.00000000000E+00 -0.00000000000E+00 -0.45593999997E+02  0.45594000000E+02  0.51100000000E-03 0. -1.
    9900012    2    1    2    0    0 -0.38499899268E+02 -0.97290586613E+01 -0.17513518660E+02  0.47787306895E+02  0.20000163458E+02 0.  0.
        -12    1    1    2    0    0  0.38499899268E+02  0.97290586613E+01  0.17513518660E+02  0.43400693105E+02  0.00000000000E+00 0.  1.
         11    1    3    3    0    0 -0.65946733561E+01  0.21906800498E+01 -0.24968233572E+01  0.73839639010E+01  0.51100000000E-03 0. -1.
        -11    1    3    3    0    0 -0.18275444897E+02 -0.31548897028E+00 -0.22490381566E+01  0.18416014562E+02  0.51100000000E-03 0.  1.
         12    1    3    3    0    0 -0.13629781015E+02 -0.11604249741E+02 -0.12767657146E+02  0.21987328432E+02  0.00000000000E+00 0. -1.
</event>
<event>
 7    1  0.4430431E-010  0.4778728E+02  0.7816164E-02  0.1312668E+00
        -11   -1    0    0    0    0  0.00000000000E+00  0.00000000000E+00  0.45593999997E+02  0.45594000000E+02  0.51100000000E-03 0.  1.
         11   -1    0    0    0    0 -0.00000000000E+00 -0.00000000000E+00 -0.45593999997E+02  0.45594000000E+02  0.51100000000E-03 0. -1.
    9900012    2    1    2    0    0 -0.36482508127E+02 -0.18848123417E+02  0.14049831503E+02  0.47787275112E+02  0.20000018544E+02 0.  0.
        -12    1    1    2    0    0  0.36482508127E+02  0.18848123417E+02 -0.14049831503E+02  0.43400724888E+02  0.00000000000E+00 0.  1.
         11    1    3    3    0    0 -0.20986282693E+02 -0.61210460002E+01  0.10497917763E+02  0.24250722526E+02  0.51100000000E-03 0.  1.
        -11    1    3    3    0    0 -0.10185387486E+02 -0.11186946634E+02  0.73581347984E+01  0.16823556140E+02  0.51100000000E-03 0. -1.
         12    1    3    3    0    0 -0.53108379481E+01 -0.15401307832E+01 -0.38062210581E+01  0.67129964460E+01  0.00000000000E+00 0. -1.
</event>
<event>
 7    1  0.4430431E-010  0.4778727E+02  0.7816164E-02  0.1312668E+00
        -11   -1    0    0    0    0  0.00000000000E+00  0.00000000000E+00  0.45593999997E+02  0.45594000000E+02  0.51100000000E-03 0.  1.
         11   -1    0    0    0    0 -0.00000000000E+00 -0.00000000000E+00 -0.45593999997E+02  0.45594000000E+02  0.51100000000E-03 0. -1.
    9900012    2    1    2    0    0  0.25133691877E+01 -0.27539901295E+02 -0.33449361807E+02  0.47787274277E+02  0.20000014737E+02 0.  0.
        -12    1    1    2    0    0 -0.25133691877E+01  0.27539901295E+02  0.33449361807E+02  0.43400725723E+02  0.00000000000E+00 0.  1.
         11    1    3    3    0    0  0.12779762652E+01 -0.17112114491E+01 -0.42700272415E+01  0.47743691586E+01  0.51100000000E-03 0. -1.
        -11    1    3    3    0    0  0.20256575353E+01 -0.31238812075E+01  0.21606367729E+01  0.43046804497E+01  0.51100000000E-03 0.  1.
         12    1    3    3    0    0 -0.79026461273E+00 -0.22704808638E+02 -0.31339971339E+02  0.38708224668E+02  0.00000000000E+00 0. -1.
</event>
<event>
 7    1  0.4430431E-010  0.4778726E+02  0.7816164E-02  0.1312668E+00
        -11   -1    0    0    0    0  0.00000000000E+00  0.00000000000E+00  0.45593999997E+02  0.45594000000E+02  0.51100000000E-03 0. -1.
         11   -1    0    0    0    0 -0.00000000000E+00 -0.00000000000E+00 -0.45593999997E+02  0.45594000000E+02  0.51100000000E-03 0.  1.
    9900012    2    1    2    0    0  0.59804262918E+01 -0.41390578390E+02  0.11605113686E+02  0.47787261046E+02  0.19999954412E+02 0.  0.
        -12    1    1    2    0    0 -0.59804262918E+01  0.41390578390E+02 -0.11605113686E+02  0.43400738954E+02  0.00000000000E+00 0.  1.
         11    1    3    3    0    0  0.22323278185E+01 -0.41095959869E+01 -0.17863059265E+01  0.50062916204E+01  0.51100000000E-03 0. -1.
        -11    1    3    3    0    0 -0.58446835547E+01 -0.15437953319E+02  0.30842700194E+01  0.16792958356E+02  0.51100000000E-03 0.  1.
         12    1    3    3    0    0  0.95927820280E+01 -0.21843029085E+02  0.10307149593E+02  0.25988011070E+02  0.00000000000E+00 0. -1.
</event>
<event>
 7    1  0.4430431E-010  0.4778727E+02  0.7816164E-02  0.1312668E+00
        -11   -1    0    0    0    0  0.00000000000E+00  0.00000000000E+00  0.45593999997E+02  0.45594000000E+02  0.51100000000E-03 0. -1.
         11   -1    0    0    0    0 -0.00000000000E+00 -0.00000000000E+00 -0.45593999997E+02  0.45594000000E+02  0.51100000000E-03 0.  1.
    9900012    2    1    2    0    0  0.19964397505E+02 -0.26892173290E+00  0.38535354378E+02  0.47787273927E+02  0.20000013141E+02 0.  0.
        -12    1    1    2    0    0 -0.19964397505E+02  0.26892173291E+00 -0.38535354378E+02  0.43400726073E+02  0.00000000000E+00 0.  1.
         11    1    3    3    0    0  0.37836052865E+01 -0.21221524900E+01  0.17043799485E+02  0.17587219828E+02  0.51100000000E-03 0. -1.
        -11    1    3    3    0    0 -0.20793672179E+01  0.14042119881E+01  0.87819450317E+00  0.26583463245E+01  0.51100000000E-03 0.  1.
         12    1    3    3    0    0  0.18260159437E+02  0.44901876898E+00  0.20613360390E+02  0.27541707774E+02  0.00000000000E+00 0. -1.
</event>
<event>
 7    1  0.4430431E-010  0.4778727E+02  0.7816164E-02  0.1312668E+00
        -11   -1    0    0    0    0  0.00000000000E+00  0.00000000000E+00  0.45593999997E+02  0.45594000000E+02  0.51100000000E-03 0.  1.
         11   -1    0    0    0    0 -0.00000000000E+00 -0.00000000000E+00 -0.45593999997E+02  0.45594000000E+02  0.51100000000E-03 0. -1.
    9900012    2    1    2    0    0 -0.49294070388E+01 -0.75279526542E+01 -0.42457672001E+02  0.47787273777E+02  0.20000012459E+02 0.  0.
        -12    1    1    2    0    0  0.49294070388E+01  0.75279526542E+01  0.42457672001E+02  0.43400726223E+02  0.00000000000E+00 0.  1.
         11    1    3    3    0    0 -0.40721534501E+01  0.19788658039E+01 -0.23701001041E+02  0.24129562660E+02  0.51100000000E-03 0. -1.
        -11    1    3    3    0    0  0.27676961600E+01 -0.52337536111E+01 -0.16649960377E+02  0.17671261973E+02  0.51100000000E-03 0.  1.
        -12    1    3    3    0    0 -0.36249497487E+01 -0.42730648469E+01 -0.21067105833E+01  0.59864491436E+01  0.00000000000E+00 0.  1.
</event>
<event>
 7    1  0.4430431E-010  0.4778726E+02  0.7816164E-02  0.1312668E+00
        -11   -1    0    0    0    0  0.00000000000E+00  0.00000000000E+00  0.45593999997E+02  0.45594000000E+02  0.51100000000E-03 0.  1.
         11   -1    0    0    0    0 -0.00000000000E+00 -0.00000000000E+00 -0.45593999997E+02  0.45594000000E+02  0.51100000000E-03 0. -1.
    9900012    2    1    2    0    0  0.35072862775E+02 -0.40627778699E+01 -0.25239111255E+02  0.47787255719E+02  0.19999930125E+02 0.  0.
        -12    1    1    2    0    0 -0.35072862775E+02  0.40627778699E+01  0.25239111255E+02  0.43400744281E+02  0.00000000000E+00 0.  1.
         11    1    3    3    0    0  0.21681383579E+02 -0.83177214407E-01 -0.23013598224E+02  0.31618270286E+02  0.51100000000E-03 0. -1.
        -11    1    3    3    0    0  0.77180531543E+01  0.16680568209E+01 -0.20664603474E+01  0.81621698512E+01  0.51100000000E-03 0.  1.
         12    1    3    3    0    0  0.56734260408E+01 -0.56476574764E+01 -0.15905268318E+00  0.80068155822E+01  0.00000000000E+00 0. -1.
</event>
<event>
 7    1  0.4430431E-010  0.4778727E+02  0.7816164E-02  0.1312668E+00
        -11   -1    0    0    0    0  0.00000000000E+00  0.00000000000E+00  0.45593999997E+02  0.45594000000E+02  0.51100000000E-03 0. -1.
         11   -1    0    0    0    0 -0.00000000000E+00 -0.00000000000E+00 -0.45593999997E+02  0.45594000000E+02  0.51100000000E-03 0.  1.
    9900012    2    1    2    0    0 -0.41713765870E+02 -0.75159475161E+01  0.93324907211E+01  0.47787272896E+02  0.20000008440E+02 0.  0.
        -12    1    1    2    0    0  0.41713765870E+02  0.75159475161E+01 -0.93324907211E+01  0.43400727104E+02  0.00000000000E+00 0.  1.
         11    1    3    3    0    0 -0.57731874940E+01 -0.35553161883E+01  0.33301711778E+01  0.75538074753E+01  0.51100000000E-03 0. -1.
        -11    1    3    3    0    0 -0.18686100915E+01 -0.53289008908E+01  0.14610098938E+01  0.58329613875E+01  0.51100000000E-03 0.  1.
        -12    1    3    3    0    0 -0.34071968285E+02  0.13682695629E+01  0.45413096496E+01  0.34400504033E+02  0.00000000000E+00 0.  1.
</event>
<event>
 7    1  0.4430431E-010  0.4778725E+02  0.7816164E-02  0.1312668E+00
        -11   -1    0    0    0    0  0.00000000000E+00  0.00000000000E+00  0.45593999997E+02  0.45594000000E+02  0.51100000000E-03 0.  1.
         11   -1    0    0    0    0 -0.00000000000E+00 -0.00000000000E+00 -0.45593999997E+02  0.45594000000E+02  0.51100000000E-03 0. -1.
    9900012    2    1    2    0    0 -0.41664047342E+02  0.72482678702E+01 -0.97567889283E+01  0.47787249335E+02  0.19999901019E+02 0.  0.
        -12    1    1    2    0    0  0.41664047342E+02 -0.72482678702E+01  0.97567889283E+01  0.43400750665E+02  0.00000000000E+00 0.  1.
         11    1    3    3    0    0 -0.12399468252E+01  0.97038302269E-01  0.17454859885E+01  0.21432699687E+01  0.51100000000E-03 0. -1.
        -11    1    3    3    0    0 -0.59637601400E+01 -0.16992368727E+00 -0.83656288677E+01  0.10275166942E+02  0.51100000000E-03 0.  1.
         12    1    3    3    0    0 -0.34460340377E+02  0.73211532552E+01 -0.31366460491E+01  0.35368812425E+02  0.00000000000E+00 0. -1.
</event>
<event>
 7    1  0.4430431E-010  0.4778727E+02  0.7816164E-02  0.1312668E+00
        -11   -1    0    0    0    0  0.00000000000E+00  0.00000000000E+00  0.45593999997E+02  0.45594000000E+02  0.51100000000E-03 0. -1.
         11   -1    0    0    0    0 -0.00000000000E+00 -0.00000000000E+00 -0.45593999997E+02  0.45594000000E+02  0.51100000000E-03 0.  1.
    9900012    2    1    2    0    0  0.30941154489E+02  0.11433520663E+02  0.28205369755E+02  0.47787270526E+02  0.19999997636E+02 0.  0.
        -12    1    1    2    0    0 -0.30941154489E+02 -0.11433520663E+02 -0.28205369755E+02  0.43400729474E+02  0.00000000000E+00 0.  1.
         11    1    3    3    0    0  0.10577790618E+02  0.80395968068E+01  0.32610135657E+01  0.13680606014E+02  0.51100000000E-03 0.  1.
        -11    1    3    3    0    0  0.15511296977E+02  0.64819138980E+01  0.14577419364E+02  0.22251217883E+02  0.51100000000E-03 0. -1.
        -12    1    3    3    0    0  0.48520668942E+01 -0.30879900418E+01  0.10366936825E+02  0.11855446629E+02  0.00000000000E+00 0.  1.
</event>
<event>
 7    1  0.4430431E-010  0.4778727E+02  0.7816164E-02  0.1312668E+00
        -11   -1    0    0    0    0  0.00000000000E+00  0.00000000000E+00  0.45593999997E+02  0.45594000000E+02  0.51100000000E-03 0. -1.
         11   -1    0    0    0    0 -0.00000000000E+00 -0.00000000000E+00 -0.45593999997E+02  0.45594000000E+02  0.51100000000E-03 0.  1.
    9900012    2    1    2    0    0  0.10461977142E+02 -0.40332491676E+02  0.12143336505E+02  0.47787268762E+02  0.19999989595E+02 0.  0.
        -12    1    1    2    0    0 -0.10461977142E+02  0.40332491676E+02 -0.12143336505E+02  0.43400731238E+02  0.00000000000E+00 0.  1.
         11    1    3    3    0    0  0.65198441793E+01 -0.20346292011E+02  0.36596600295E+01  0.21676555965E+02  0.51100000000E-03 0. -1.
        -11    1    3    3    0    0  0.25757331228E+01 -0.20630018536E+02  0.10736161109E+02  0.23398658541E+02  0.51100000000E-03 0.  1.
        -12    1    3    3    0    0  0.13663998397E+01  0.64381887101E+00 -0.22524846340E+01  0.27120542559E+01  0.00000000000E+00 0.  1.
</event>
<event>
 7    1  0.4430431E-010  0.4778726E+02  0.7816164E-02  0.1312668E+00
        -11   -1    0    0    0    0  0.00000000000E+00  0.00000000000E+00  0.45593999997E+02  0.45594000000E+02  0.51100000000E-03 0. -1.
         11   -1    0    0    0    0 -0.00000000000E+00 -0.00000000000E+00 -0.45593999997E+02  0.45594000000E+02  0.51100000000E-03 0.  1.
    9900012    2    1    2    0    0 -0.21866070147E+02 -0.80282507652E-01  0.37489905850E+02  0.47787256809E+02  0.19999935094E+02 0.  0.
        -12    1    1    2    0    0  0.21866070147E+02  0.80282507652E-01 -0.37489905850E+02  0.43400743191E+02  0.00000000000E+00 0.  1.
         11    1    3    3    0    0 -0.26259922378E+01  0.12339294095E+01  0.12644566493E+02  0.12973183074E+02  0.51100000000E-03 0. -1.
        -11    1    3    3    0    0 -0.31211105490E+01 -0.45092402779E+01  0.14232084303E+02  0.15252108143E+02  0.51100000000E-03 0.  1.
        -12    1    3    3    0    0 -0.16118967360E+02  0.31950283607E+01  0.10613255054E+02  0.19561965592E+02  0.00000000000E+00 0.  1.
</event>
<event>
 7    1  0.4430431E-010  0.4778727E+02  0.7816164E-02  0.1312668E+00
        -11   -1    0    0    0    0  0.00000000000E+00  0.00000000000E+00  0.45593999997E+02  0.45594000000E+02  0.51100000000E-03 0. -1.
         11   -1    0    0    0    0 -0.00000000000E+00 -0.00000000000E+00 -0.45593999997E+02  0.45594000000E+02  0.51100000000E-03 0.  1.
    9900012    2    1    2    0    0 -0.94751720351E+00  0.43167159757E+02  0.43956184676E+01  0.47787274982E+02  0.20000017953E+02 0.  0.
        -12    1    1    2    0    0  0.94751720351E+00 -0.43167159757E+02 -0.43956184676E+01  0.43400725018E+02  0.00000000000E+00 0.  1.
         11    1    3    3    0    0 -0.22703190950E+01  0.12644892757E+02  0.59391582402E+01  0.14153489411E+02  0.51100000000E-03 0. -1.
        -11    1    3    3    0    0  0.27817104696E+01  0.20525843018E+02  0.53627057442E+01  0.21396419278E+02  0.51100000000E-03 0.  1.
        -12    1    3    3    0    0 -0.14589085781E+01  0.99964239818E+01 -0.69062455168E+01  0.12237366293E+02  0.00000000000E+00 0.  1.
</event>
<event>
 7    1  0.4430431E-010  0.4778727E+02  0.7816164E-02  0.1312668E+00
        -11   -1    0    0    0    0  0.00000000000E+00  0.00000000000E+00  0.45593999997E+02  0.45594000000E+02  0.51100000000E-03 0.  1.
         11   -1    0    0    0    0 -0.00000000000E+00 -0.00000000000E+00 -0.45593999997E+02  0.45594000000E+02  0.51100000000E-03 0. -1.
    9900012    2    1    2    0    0 -0.33219476753E+02 -0.19211764090E+02 -0.20273077262E+02  0.47787272162E+02  0.20000005098E+02 0.  0.
        -12    1    1    2    0    0  0.33219476753E+02  0.19211764090E+02  0.20273077262E+02  0.43400727838E+02  0.00000000000E+00 0.  1.
         11    1    3    3    0    0 -0.12737584563E+01 -0.59331395081E+01 -0.30578155848E+01  0.67952072403E+01  0.51100000000E-03 0. -1.
        -11    1    3    3    0    0 -0.14521304272E+02 -0.66410905483E+01 -0.53927523314E+00  0.15976957767E+02  0.51100000000E-03 0.  1.
         12    1    3    3    0    0 -0.17424414024E+02 -0.66375340338E+01 -0.16675986444E+02  0.25015107156E+02  0.00000000000E+00 0. -1.
</event>
<event>
 7    1  0.4430431E-010  0.4778728E+02  0.7816164E-02  0.1312668E+00
        -11   -1    0    0    0    0  0.00000000000E+00  0.00000000000E+00  0.45593999997E+02  0.45594000000E+02  0.51100000000E-03 0.  1.
         11   -1    0    0    0    0 -0.00000000000E+00 -0.00000000000E+00 -0.45593999997E+02  0.45594000000E+02  0.51100000000E-03 0. -1.
    9900012    2    1    2    0    0 -0.27609854729E+02 -0.23058400066E+02 -0.24282272872E+02  0.47787278030E+02  0.20000031848E+02 0.  0.
        -12    1    1    2    0    0  0.27609854729E+02  0.23058400066E+02  0.24282272872E+02  0.43400721970E+02  0.00000000000E+00 0.  1.
         11    1    3    3    0    0 -0.22401345007E+02 -0.17571187041E+02 -0.20078070064E+02  0.34838136717E+02  0.51100000000E-03 0. -1.
        -11    1    3    3    0    0 -0.49911007913E+01 -0.81413511210E+01 -0.36859298427E+01  0.10236149874E+02  0.51100000000E-03 0.  1.
        -12    1    3    3    0    0 -0.21740893039E+00  0.26541380962E+01 -0.51827296494E+00  0.27129914381E+01  0.00000000000E+00 0.  1.
</event>
<event>
 7    1  0.4430431E-010  0.4778727E+02  0.7816164E-02  0.1312668E+00
        -11   -1    0    0    0    0  0.00000000000E+00  0.00000000000E+00  0.45593999997E+02  0.45594000000E+02  0.51100000000E-03 0. -1.
         11   -1    0    0    0    0 -0.00000000000E+00 -0.00000000000E+00 -0.45593999997E+02  0.45594000000E+02  0.51100000000E-03 0.  1.
    9900012    2    1    2    0    0  0.26005645153E+02 -0.11224818281E+02  0.32883629426E+02  0.47787271786E+02  0.20000003380E+02 0.  0.
        -12    1    1    2    0    0 -0.26005645153E+02  0.11224818281E+02 -0.32883629426E+02  0.43400728214E+02  0.00000000000E+00 0.  1.
         11    1    3    3    0    0  0.34441065248E+01  0.16345017614E+01  0.53188878290E+00  0.38492040347E+01  0.51100000000E-03 0. -1.
        -11    1    3    3    0    0  0.35699446028E+01  0.21065781607E+01  0.10723413865E+02  0.11496685662E+02  0.51100000000E-03 0.  1.
         12    1    3    3    0    0  0.18991594025E+02 -0.14965898203E+02  0.21628326778E+02  0.32441382089E+02  0.00000000000E+00 0. -1.
</event>
<event>
 7    1  0.4430431E-010  0.4778727E+02  0.7816164E-02  0.1312668E+00
        -11   -1    0    0    0    0  0.00000000000E+00  0.00000000000E+00  0.45593999997E+02  0.45594000000E+02  0.51100000000E-03 0. -1.
         11   -1    0    0    0    0 -0.00000000000E+00 -0.00000000000E+00 -0.45593999997E+02  0.45594000000E+02  0.51100000000E-03 0.  1.
    9900012    2    1    2    0    0 -0.20426508454E+02 -0.11235670525E+02  0.36607932313E+02  0.47787271342E+02  0.20000001357E+02 0.  0.
        -12    1    1    2    0    0  0.20426508454E+02  0.11235670525E+02 -0.36607932313E+02  0.43400728658E+02  0.00000000000E+00 0.  1.
         11    1    3    3    0    0 -0.11379633782E+01  0.71130927916E+00  0.12111241892E+02  0.12185364252E+02  0.51100000000E-03 0. -1.
        -11    1    3    3    0    0 -0.14136038381E+02 -0.65448094146E+01  0.23320057074E+02  0.28044378645E+02  0.51100000000E-03 0.  1.
        -12    1    3    3    0    0 -0.51525066954E+01 -0.54021703897E+01  0.11766333479E+01  0.75575284452E+01  0.00000000000E+00 0.  1.
</event>
<event>
 7    1  0.4430431E-010  0.4778727E+02  0.7816164E-02  0.1312668E+00
        -11   -1    0    0    0    0  0.00000000000E+00  0.00000000000E+00  0.45593999997E+02  0.45594000000E+02  0.51100000000E-03 0. -1.
         11   -1    0    0    0    0 -0.00000000000E+00 -0.00000000000E+00 -0.45593999997E+02  0.45594000000E+02  0.51100000000E-03 0.  1.
    9900012    2    1    2    0    0 -0.20015036094E+02 -0.26425701853E+02  0.28012563511E+02  0.47787273016E+02  0.20000008990E+02 0.  0.
        -12    1    1    2    0    0  0.20015036094E+02  0.26425701853E+02 -0.28012563511E+02  0.43400726984E+02  0.00000000000E+00 0.  1.
         11    1    3    3    0    0 -0.24585875806E+01 -0.11074478544E+02  0.49081172636E+01  0.12360353687E+02  0.51100000000E-03 0. -1.
        -11    1    3    3    0    0 -0.67845613800E+01 -0.11643436131E+02  0.57139644953E+01  0.14637256183E+02  0.51100000000E-03 0.  1.
         12    1    3    3    0    0 -0.10771887133E+02 -0.37077871777E+01  0.17390481752E+02  0.20789663146E+02  0.00000000000E+00 0. -1.
</event>
<event>
 7    1  0.4430431E-010  0.4778728E+02  0.7816164E-02  0.1312668E+00
        -11   -1    0    0    0    0  0.00000000000E+00  0.00000000000E+00  0.45593999997E+02  0.45594000000E+02  0.51100000000E-03 0. -1.
         11   -1    0    0    0    0 -0.00000000000E+00 -0.00000000000E+00 -0.45593999997E+02  0.45594000000E+02  0.51100000000E-03 0.  1.
    9900012    2    1    2    0    0 -0.35340153886E+01  0.39666555464E+02 -0.17253927458E+02  0.47787275353E+02  0.20000019645E+02 0.  0.
        -12    1    1    2    0    0  0.35340153886E+01 -0.39666555464E+02  0.17253927458E+02  0.43400724647E+02  0.00000000000E+00 0.  1.
         11    1    3    3    0    0  0.12140108701E+01 -0.82560838287E+00 -0.29691914401E+01  0.33123329639E+01  0.51100000000E-03 0. -1.
        -11    1    3    3    0    0 -0.20477806517E+01  0.14617455266E+01  0.64839945054E+00  0.25981777634E+01  0.51100000000E-03 0.  1.
         12    1    3    3    0    0 -0.27002456070E+01  0.39030418320E+02 -0.14933135469E+02  0.41876764626E+02  0.00000000000E+00 0. -1.
</event>
<event>
 7    1  0.4430431E-010  0.4778727E+02  0.7816164E-02  0.1312668E+00
        -11   -1    0    0    0    0  0.00000000000E+00  0.00000000000E+00  0.45593999997E+02  0.45594000000E+02  0.51100000000E-03 0.  1.
         11   -1    0    0    0    0 -0.00000000000E+00 -0.00000000000E+00 -0.45593999997E+02  0.45594000000E+02  0.51100000000E-03 0. -1.
    9900012    2    1    2    0    0 -0.42372570335E+02  0.42856378572E+01 -0.83559555427E+01  0.47787269572E+02  0.19999993287E+02 0.  0.
        -12    1    1    2    0    0  0.42372570335E+02 -0.42856378572E+01  0.83559555427E+01  0.43400730428E+02  0.00000000000E+00 0.  1.
         11    1    3    3    0    0 -0.31035684782E+02 -0.30917148270E+01 -0.89622800588E+01  0.32451423614E+02  0.51100000000E-03 0. -1.
        -11    1    3    3    0    0  0.70622350237E+00  0.74812573619E-01 -0.92777581374E+00  0.11683821199E+01  0.51100000000E-03 0.  1.
        -12    1    3    3    0    0 -0.12043109055E+02  0.73025401105E+01  0.15341003299E+01  0.14167463838E+02  0.00000000000E+00 0.  1.
</event>
<event>
 7    1  0.4430431E-010  0.4778727E+02  0.7816164E-02  0.1312668E+00
        -11   -1    0    0    0    0  0.00000000000E+00  0.00000000000E+00  0.45593999997E+02  0.45594000000E+02  0.51100000000E-03 0.  1.
         11   -1    0    0    0    0 -0.00000000000E+00 -0.00000000000E+00 -0.45593999997E+02  0.45594000000E+02  0.51100000000E-03 0. -1.
    9900012    2    1    2    0    0 -0.19714117988E+02 -0.34673090677E+02  0.17110055426E+02  0.47787266575E+02  0.19999979623E+02 0.  0.
        -12    1    1    2    0    0  0.19714117988E+02  0.34673090677E+02 -0.17110055426E+02  0.43400733425E+02  0.00000000000E+00 0.  1.
         11    1    3    3    0    0  0.13058275897E+01 -0.53430654995E+01  0.22246381798E+01  0.59331736801E+01  0.51100000000E-03 0. -1.
        -11    1    3    3    0    0  0.24062670340E+01 -0.34656186425E+01  0.14682050999E+01  0.44672430078E+01  0.51100000000E-03 0.  1.
         12    1    3    3    0    0 -0.23426212611E+02 -0.25864406535E+02  0.13417212146E+02  0.37386849887E+02  0.00000000000E+00 0. -1.
</event>
<event>
 7    1  0.4430431E-010  0.4778727E+02  0.7816164E-02  0.1312668E+00
        -11   -1    0    0    0    0  0.00000000000E+00  0.00000000000E+00  0.45593999997E+02  0.45594000000E+02  0.51100000000E-03 0.  1.
         11   -1    0    0    0    0 -0.00000000000E+00 -0.00000000000E+00 -0.45593999997E+02  0.45594000000E+02  0.51100000000E-03 0. -1.
    9900012    2    1    2    0    0  0.13293064492E+02  0.19812528121E+02 -0.36254399776E+02  0.47787270315E+02  0.19999996672E+02 0.  0.
        -12    1    1    2    0    0 -0.13293064492E+02 -0.19812528121E+02  0.36254399776E+02  0.43400729685E+02  0.00000000000E+00 0.  1.
         11    1    3    3    0    0  0.35534999765E+01  0.38031219290E+00 -0.37894050302E+01  0.52087993042E+01  0.51100000000E-03 0. -1.
        -11    1    3    3    0    0  0.47918931002E+00  0.14119106666E+02 -0.88714430544E+01  0.16681765421E+02  0.51100000000E-03 0.  1.
         12    1    3    3    0    0  0.92603752051E+01  0.53131092622E+01 -0.23593551691E+02  0.25896705589E+02  0.00000000000E+00 0. -1.
</event>
<event>
 7    1  0.4430431E-010  0.4778727E+02  0.7816164E-02  0.1312668E+00
        -11   -1    0    0    0    0  0.00000000000E+00  0.00000000000E+00  0.45593999997E+02  0.45594000000E+02  0.51100000000E-03 0. -1.
         11   -1    0    0    0    0 -0.00000000000E+00 -0.00000000000E+00 -0.45593999997E+02  0.45594000000E+02  0.51100000000E-03 0.  1.
    9900012    2    1    2    0    0  0.25046885291E+02  0.24776527619E+02 -0.25345625556E+02  0.47787268226E+02  0.19999987151E+02 0.  0.
        -12    1    1    2    0    0 -0.25046885291E+02 -0.24776527619E+02  0.25345625556E+02  0.43400731774E+02  0.00000000000E+00 0.  1.
         11    1    3    3    0    0  0.77583362350E+01  0.10327364816E+02 -0.56838198600E+01  0.14112124349E+02  0.51100000000E-03 0. -1.
        -11    1    3    3    0    0  0.12245014789E+02  0.17346630343E+02 -0.17333862863E+02  0.27410012284E+02  0.51100000000E-03 0.  1.
         12    1    3    3    0    0  0.50435342671E+01 -0.28974675390E+01 -0.23279428337E+01  0.62651315932E+01  0.00000000000E+00 0. -1.
</event>
<event>
 7    1  0.4430431E-010  0.4778727E+02  0.7816164E-02  0.1312668E+00
        -11   -1    0    0    0    0  0.00000000000E+00  0.00000000000E+00  0.45593999997E+02  0.45594000000E+02  0.51100000000E-03 0.  1.
         11   -1    0    0    0    0 -0.00000000000E+00 -0.00000000000E+00 -0.45593999997E+02  0.45594000000E+02  0.51100000000E-03 0. -1.
    9900012    2    1    2    0    0  0.23907873843E+02  0.36010313043E+02 -0.39108079192E+01  0.47787268489E+02  0.19999988349E+02 0.  0.
        -12    1    1    2    0    0 -0.23907873843E+02 -0.36010313043E+02  0.39108079192E+01  0.43400731511E+02  0.00000000000E+00 0.  1.
         11    1    3    3    0    0  0.61461922836E+01  0.14775707824E+02 -0.12818260450E+01  0.16054292247E+02  0.51100000000E-03 0.  1.
        -11    1    3    3    0    0  0.12070599148E+01  0.12334252968E+02 -0.36208816374E+01  0.12911296372E+02  0.51100000000E-03 0. -1.
        -12    1    3    3    0    0  0.16554621644E+02  0.89003522506E+01  0.99189976317E+00  0.18821679870E+02  0.00000000000E+00 0.  1.
</event>
<event>
 7    1  0.4430431E-010  0.4778725E+02  0.7816164E-02  0.1312668E+00
        -11   -1    0    0    0    0  0.00000000000E+00  0.00000000000E+00  0.45593999997E+02  0.45594000000E+02  0.51100000000E-03 0.  1.
         11   -1    0    0    0    0 -0.00000000000E+00 -0.00000000000E+00 -0.45593999997E+02  0.45594000000E+02  0.51100000000E-03 0. -1.
    9900012    2    1    2    0    0 -0.24401736582E+02  0.28144317891E+02 -0.22272805082E+02  0.47787248578E+02  0.19999897567E+02 0.  0.
        -12    1    1    2    0    0  0.24401736582E+02 -0.28144317891E+02  0.22272805082E+02  0.43400751422E+02  0.00000000000E+00 0.  1.
         11    1    3    3    0    0 -0.33447757410E+01  0.17297972556E+01 -0.15453743762E+01  0.40703692126E+01  0.51100000000E-03 0. -1.
        -11    1    3    3    0    0  0.23314481315E+01  0.69502252252E+01 -0.86972779908E+00  0.73822562795E+01  0.51100000000E-03 0.  1.
        -12    1    3    3    0    0 -0.23388408973E+02  0.19464295410E+02 -0.19857702907E+02  0.36334623086E+02  0.00000000000E+00 0.  1.
</event>
<event>
 7    1  0.4430431E-010  0.4778727E+02  0.7816164E-02  0.1312668E+00
        -11   -1    0    0    0    0  0.00000000000E+00  0.00000000000E+00  0.45593999997E+02  0.45594000000E+02  0.51100000000E-03 0.  1.
         11   -1    0    0    0    0 -0.00000000000E+00 -0.00000000000E+00 -0.45593999997E+02  0.45594000000E+02  0.51100000000E-03 0. -1.
    9900012    2    1    2    0    0  0.30389059869E+01  0.47032087434E+01 -0.43037985030E+02  0.47787271002E+02  0.19999999808E+02 0.  0.
        -12    1    1    2    0    0 -0.30389059869E+01 -0.47032087434E+01  0.43037985030E+02  0.43400728998E+02  0.00000000000E+00 0.  1.
         11    1    3    3    0    0  0.51465146991E+01  0.82511776149E+01 -0.15705330415E+02  0.18472302220E+02  0.51100000000E-03 0. -1.
        -11    1    3    3    0    0  0.36361763139E+01 -0.11948210257E+01 -0.15351010747E+02  0.15820964152E+02  0.51100000000E-03 0.  1.
         12    1    3    3    0    0 -0.57437850261E+01 -0.23531478458E+01 -0.11981643868E+02  0.13494004631E+02  0.00000000000E+00 0. -1.
</event>
<event>
 7    1  0.4430431E-010  0.4778727E+02  0.7816164E-02  0.1312668E+00
        -11   -1    0    0    0    0  0.00000000000E+00  0.00000000000E+00  0.45593999997E+02  0.45594000000E+02  0.51100000000E-03 0.  1.
         11   -1    0    0    0    0 -0.00000000000E+00 -0.00000000000E+00 -0.45593999997E+02  0.45594000000E+02  0.51100000000E-03 0. -1.
    9900012    2    1    2    0    0 -0.15428118948E+01  0.26755541643E+02 -0.34137721743E+02  0.47787270479E+02  0.19999997423E+02 0.  0.
        -12    1    1    2    0    0  0.15428118948E+01 -0.26755541643E+02  0.34137721743E+02  0.43400729521E+02  0.00000000000E+00 0.  1.
         11    1    3    3    0    0  0.54861306257E+01  0.10353498392E+02 -0.88660707432E+01  0.14693528129E+02  0.51100000000E-03 0. -1.
        -11    1    3    3    0    0 -0.29268429202E+00 -0.18323269700E+01 -0.14996137125E+01  0.23857761352E+01  0.51100000000E-03 0.  1.
         12    1    3    3    0    0 -0.67362582285E+01  0.18234370220E+02 -0.23772037287E+02  0.30707966215E+02  0.00000000000E+00 0. -1.
</event>
<event>
 7    1  0.4430431E-010  0.4778727E+02  0.7816164E-02  0.1312668E+00
        -11   -1    0    0    0    0  0.00000000000E+00  0.00000000000E+00  0.45593999997E+02  0.45594000000E+02  0.51100000000E-03 0.  1.
         11   -1    0    0    0    0 -0.00000000000E+00 -0.00000000000E+00 -0.45593999997E+02  0.45594000000E+02  0.51100000000E-03 0. -1.
    9900012    2    1    2    0    0 -0.27570332145E+02  0.92714113535E+01 -0.32210884171E+02  0.47787270258E+02  0.19999996414E+02 0.  0.
        -12    1    1    2    0    0  0.27570332145E+02 -0.92714113535E+01  0.32210884171E+02  0.43400729742E+02  0.00000000000E+00 0.  1.
         11    1    3    3    0    0 -0.10251354036E+02  0.92709849036E+01 -0.21314126493E+02  0.25403413335E+02  0.51100000000E-03 0. -1.
        -11    1    3    3    0    0 -0.65595123856E+01  0.43264579324E+01 -0.33131202509E+01  0.85277316465E+01  0.51100000000E-03 0.  1.
        -12    1    3    3    0    0 -0.10759465724E+02 -0.43260314825E+01 -0.75836374265E+01  0.13856125276E+02  0.00000000000E+00 0.  1.
</event>
<event>
 7    1  0.4430431E-010  0.4778727E+02  0.7816164E-02  0.1312668E+00
        -11   -1    0    0    0    0  0.00000000000E+00  0.00000000000E+00  0.45593999997E+02  0.45594000000E+02  0.51100000000E-03 0.  1.
         11   -1    0    0    0    0 -0.00000000000E+00 -0.00000000000E+00 -0.45593999997E+02  0.45594000000E+02  0.51100000000E-03 0. -1.
    9900012    2    1    2    0    0  0.20723676757E+02  0.31573569511E+02 -0.21383691025E+02  0.47787270607E+02  0.19999998006E+02 0.  0.
        -12    1    1    2    0    0 -0.20723676757E+02 -0.31573569511E+02  0.21383691025E+02  0.43400729393E+02  0.00000000000E+00 0.  1.
         11    1    3    3    0    0  0.51273014952E+01  0.50576516523E+01 -0.30999419032E+01  0.78408354735E+01  0.51100000000E-03 0. -1.
        -11    1    3    3    0    0  0.79493046724E+00  0.18810353222E+02 -0.99189653877E+01  0.21280206235E+02  0.51100000000E-03 0.  1.
        -12    1    3    3    0    0  0.14801444794E+02  0.77055646366E+01 -0.83647837346E+01  0.18666228899E+02  0.00000000000E+00 0.  1.
</event>
<event>
 7    1  0.4430431E-010  0.4778728E+02  0.7816164E-02  0.1312668E+00
        -11   -1    0    0    0    0  0.00000000000E+00  0.00000000000E+00  0.45593999997E+02  0.45594000000E+02  0.51100000000E-03 0. -1.
         11   -1    0    0    0    0 -0.00000000000E+00 -0.00000000000E+00 -0.45593999997E+02  0.45594000000E+02  0.51100000000E-03 0.  1.
    9900012    2    1    2    0    0  0.42134533907E+02  0.34344267041E+01  0.98238770777E+01  0.47787276559E+02  0.20000025142E+02 0.  0.
        -12    1    1    2    0    0 -0.42134533907E+02 -0.34344267041E+01 -0.98238770777E+01  0.43400723441E+02  0.00000000000E+00 0.  1.
         11    1    3    3    0    0  0.63348252174E+01  0.57101089264E+01  0.32531644719E+01  0.91278931758E+01  0.51100000000E-03 0. -1.
        -11    1    3    3    0    0  0.29779688660E+01  0.18057085136E+01 -0.25894287324E+01  0.43398183400E+01  0.51100000000E-03 0.  1.
         12    1    3    3    0    0  0.32821739824E+02 -0.40813907360E+01  0.91601413382E+01  0.34319565043E+02  0.00000000000E+00 0. -1.
</event>
<event>
 7    1  0.4430431E-010  0.4778727E+02  0.7816164E-02  0.1312668E+00
        -11   -1    0    0    0    0  0.00000000000E+00  0.00000000000E+00  0.45593999997E+02  0.45594000000E+02  0.51100000000E-03 0.  1.
         11   -1    0    0    0    0 -0.00000000000E+00 -0.00000000000E+00 -0.45593999997E+02  0.45594000000E+02  0.51100000000E-03 0. -1.
    9900012    2    1    2    0    0  0.26901625147E+02 -0.26286635981E+02 -0.21654991387E+02  0.47787270528E+02  0.19999997644E+02 0.  0.
        -12    1    1    2    0    0 -0.26901625147E+02  0.26286635981E+02  0.21654991387E+02  0.43400729472E+02  0.00000000000E+00 0.  1.
         11    1    3    3    0    0  0.61195250376E+01 -0.65719021423E+01 -0.17327568060E+01  0.91455415839E+01  0.51100000000E-03 0. -1.
        -11    1    3    3    0    0  0.12284870084E+02 -0.82442076215E+00 -0.87728126004E+01  0.15118199091E+02  0.51100000000E-03 0.  1.
         12    1    3    3    0    0  0.84972300255E+01 -0.18890313076E+02 -0.11149421980E+02  0.23523529853E+02  0.00000000000E+00 0. -1.
</event>
<event>
 7    1  0.4430431E-010  0.4778727E+02  0.7816164E-02  0.1312668E+00
        -11   -1    0    0    0    0  0.00000000000E+00  0.00000000000E+00  0.45593999997E+02  0.45594000000E+02  0.51100000000E-03 0.  1.
         11   -1    0    0    0    0 -0.00000000000E+00 -0.00000000000E+00 -0.45593999997E+02  0.45594000000E+02  0.51100000000E-03 0. -1.
    9900012    2    1    2    0    0 -0.16927189493E+02 -0.85547007014E+01 -0.39037299918E+02  0.47787269210E+02  0.19999991638E+02 0.  0.
        -12    1    1    2    0    0  0.16927189493E+02  0.85547007014E+01  0.39037299918E+02  0.43400730790E+02  0.00000000000E+00 0.  1.
         11    1    3    3    0    0 -0.88823543214E+01 -0.57479771178E+01 -0.10533716389E+02  0.14929656408E+02  0.51100000000E-03 0. -1.
        -11    1    3    3    0    0 -0.91012719033E+01 -0.70109026277E+01 -0.23993007031E+02  0.26601697175E+02  0.51100000000E-03 0.  1.
        -12    1    3    3    0    0  0.10564367316E+01  0.42041790440E+01 -0.45105764976E+01  0.62559156278E+01  0.00000000000E+00 0.  1.
</event>
<event>
 7    1  0.4430431E-010  0.4778727E+02  0.7816164E-02  0.1312668E+00
        -11   -1    0    0    0    0  0.00000000000E+00  0.00000000000E+00  0.45593999997E+02  0.45594000000E+02  0.51100000000E-03 0.  1.
         11   -1    0    0    0    0 -0.00000000000E+00 -0.00000000000E+00 -0.45593999997E+02  0.45594000000E+02  0.51100000000E-03 0. -1.
    9900012    2    1    2    0    0  0.40752310814E+02 -0.14447182486E+02 -0.37618368253E+01  0.47787270343E+02  0.19999996802E+02 0.  0.
        -12    1    1    2    0    0 -0.40752310814E+02  0.14447182486E+02  0.37618368253E+01  0.43400729657E+02  0.00000000000E+00 0.  1.
         11    1    3    3    0    0  0.57983877049E+01  0.18137226533E+01 -0.16979392705E+01  0.63082396805E+01  0.51100000000E-03 0. -1.
        -11    1    3    3    0    0  0.19661487474E+02 -0.62201843131E+01  0.60137987393E+01  0.21480934759E+02  0.51100000000E-03 0.  1.
        -12    1    3    3    0    0  0.15292435635E+02 -0.10040720826E+02 -0.80776962940E+01  0.19998095904E+02  0.00000000000E+00 0.  1.
</event>
<event>
 7    1  0.4430431E-010  0.4778727E+02  0.7816164E-02  0.1312668E+00
        -11   -1    0    0    0    0  0.00000000000E+00  0.00000000000E+00  0.45593999997E+02  0.45594000000E+02  0.51100000000E-03 0. -1.
         11   -1    0    0    0    0 -0.00000000000E+00 -0.00000000000E+00 -0.45593999997E+02  0.45594000000E+02  0.51100000000E-03 0.  1.
    9900012    2    1    2    0    0  0.25988602431E+02  0.28104351063E+02  0.20453893572E+02  0.47787265361E+02  0.19999974086E+02 0.  0.
        -12    1    1    2    0    0 -0.25988602431E+02 -0.28104351063E+02 -0.20453893572E+02  0.43400734639E+02  0.00000000000E+00 0.  1.
         11    1    3    3    0    0  0.15371458246E+02  0.23137473903E+02  0.67428551241E+01  0.28584795306E+02  0.51100000000E-03 0. -1.
        -11    1    3    3    0    0  0.43529377523E+01  0.56502146060E+01  0.76512367028E+01  0.10460134584E+02  0.51100000000E-03 0.  1.
        -12    1    3    3    0    0  0.62642064320E+01 -0.68333744593E+00  0.60598017453E+01  0.87423354705E+01  0.00000000000E+00 0.  1.
</event>
<event>
 7    1  0.4430431E-010  0.4778727E+02  0.7816164E-02  0.1312668E+00
        -11   -1    0    0    0    0  0.00000000000E+00  0.00000000000E+00  0.45593999997E+02  0.45594000000E+02  0.51100000000E-03 0. -1.
         11   -1    0    0    0    0 -0.00000000000E+00 -0.00000000000E+00 -0.45593999997E+02  0.45594000000E+02  0.51100000000E-03 0.  1.
    9900012    2    1    2    0    0 -0.14276296788E+02  0.11195278795E+02  0.39426845866E+02  0.47787273137E+02  0.20000009541E+02 0.  0.
        -12    1    1    2    0    0  0.14276296788E+02 -0.11195278795E+02 -0.39426845866E+02  0.43400726863E+02  0.00000000000E+00 0.  1.
         11    1    3    3    0    0 -0.51848109234E+01  0.93720732580E+01  0.15803819187E+02  0.19091325848E+02  0.51100000000E-03 0. -1.
        -11    1    3    3    0    0  0.86700164947E-01  0.60191121639E+01  0.68331547619E+01  0.91065488755E+01  0.51100000000E-03 0.  1.
        -12    1    3    3    0    0 -0.91781860292E+01 -0.41959066270E+01  0.16789871917E+02  0.19589398414E+02  0.00000000000E+00 0.  1.
</event>
<event>
 7    1  0.4430431E-010  0.4778727E+02  0.7816164E-02  0.1312668E+00
        -11   -1    0    0    0    0  0.00000000000E+00  0.00000000000E+00  0.45593999997E+02  0.45594000000E+02  0.51100000000E-03 0.  1.
         11   -1    0    0    0    0 -0.00000000000E+00 -0.00000000000E+00 -0.45593999997E+02  0.45594000000E+02  0.51100000000E-03 0. -1.
    9900012    2    1    2    0    0  0.19052846345E+02  0.21402307149E+02 -0.32596831215E+02  0.47787272928E+02  0.20000008588E+02 0.  0.
        -12    1    1    2    0    0 -0.19052846345E+02 -0.21402307149E+02  0.32596831215E+02  0.43400727072E+02  0.00000000000E+00 0.  1.
         11    1    3    3    0    0  0.63321769759E+01  0.53823678908E+01 -0.79114485922E+01  0.11474204480E+02  0.51100000000E-03 0. -1.
        -11    1    3    3    0    0 -0.52407495948E+00  0.12116212151E+02 -0.15701356557E+02  0.19839603057E+02  0.51100000000E-03 0.  1.
        -12    1    3    3    0    0  0.13244744328E+02  0.39037271080E+01 -0.89840260650E+01  0.16473465391E+02  0.00000000000E+00 0.  1.
</event>
<event>
 7    1  0.4430431E-010  0.4778727E+02  0.7816164E-02  0.1312668E+00
        -11   -1    0    0    0    0  0.00000000000E+00  0.00000000000E+00  0.45593999997E+02  0.45594000000E+02  0.51100000000E-03 0.  1.
         11   -1    0    0    0    0 -0.00000000000E+00 -0.00000000000E+00 -0.45593999997E+02  0.45594000000E+02  0.51100000000E-03 0. -1.
    9900012    2    1    2    0    0 -0.39097481565E+02  0.12381323275E+02 -0.14202574409E+02  0.47787270160E+02  0.19999995968E+02 0.  0.
        -12    1    1    2    0    0  0.39097481565E+02 -0.12381323275E+02  0.14202574409E+02  0.43400729840E+02  0.00000000000E+00 0.  1.
         11    1    3    3    0    0  0.10517768731E+01  0.11948744985E+01  0.23059869367E+01  0.28020591841E+01  0.51100000000E-03 0.  1.
        -11    1    3    3    0    0 -0.19079700755E+02  0.53548767397E+01 -0.98635595029E+01  0.22135932150E+02  0.51100000000E-03 0. -1.
        -12    1    3    3    0    0 -0.21069557683E+02  0.58315720365E+01 -0.66450018429E+01  0.22849278826E+02  0.00000000000E+00 0.  1.
</event>
<event>
 7    1  0.4430431E-010  0.4778728E+02  0.7816164E-02  0.1312668E+00
        -11   -1    0    0    0    0  0.00000000000E+00  0.00000000000E+00  0.45593999997E+02  0.45594000000E+02  0.51100000000E-03 0.  1.
         11   -1    0    0    0    0 -0.00000000000E+00 -0.00000000000E+00 -0.45593999997E+02  0.45594000000E+02  0.51100000000E-03 0. -1.
    9900012    2    1    2    0    0 -0.19069944658E+01  0.20890675975E+02 -0.37994284601E+02  0.47787278428E+02  0.20000033665E+02 0.  0.
        -12    1    1    2    0    0  0.19069944658E+01 -0.20890675975E+02  0.37994284601E+02  0.43400721572E+02  0.00000000000E+00 0.  1.
         11    1    3    3    0    0 -0.40761687074E+00  0.72155870383E+01 -0.26865592564E+02  0.27820692154E+02  0.51100000000E-03 0. -1.
        -11    1    3    3    0    0 -0.47292128007E+01  0.42037123476E+01 -0.60087308803E+01  0.87259095955E+01  0.51100000000E-03 0.  1.
        -12    1    3    3    0    0  0.32298352056E+01  0.94713765895E+01 -0.51199611566E+01  0.11240676679E+02  0.00000000000E+00 0.  1.
</event>
<event>
 7    1  0.4430431E-010  0.4778727E+02  0.7816164E-02  0.1312668E+00
        -11   -1    0    0    0    0  0.00000000000E+00  0.00000000000E+00  0.45593999997E+02  0.45594000000E+02  0.51100000000E-03 0.  1.
         11   -1    0    0    0    0 -0.00000000000E+00 -0.00000000000E+00 -0.45593999997E+02  0.45594000000E+02  0.51100000000E-03 0. -1.
    9900012    2    1    2    0    0  0.28189349302E+02  0.11383503585E+02 -0.30974181452E+02  0.47787268617E+02  0.19999988935E+02 0.  0.
        -12    1    1    2    0    0 -0.28189349302E+02 -0.11383503585E+02  0.30974181452E+02  0.43400731383E+02  0.00000000000E+00 0.  1.
         11    1    3    3    0    0  0.11656372780E+02  0.64212503568E+00 -0.55995127399E+01  0.12947505325E+02  0.51100000000E-03 0. -1.
        -11    1    3    3    0    0 -0.55562027145E+00 -0.22981916651E+01 -0.28771653244E+01  0.37240407330E+01  0.51100000000E-03 0.  1.
         12    1    3    3    0    0  0.17088596793E+02  0.13039570215E+02 -0.22497503387E+02  0.31115722559E+02  0.00000000000E+00 0. -1.
</event>
<event>
 7    1  0.4430431E-010  0.4778727E+02  0.7816164E-02  0.1312668E+00
        -11   -1    0    0    0    0  0.00000000000E+00  0.00000000000E+00  0.45593999997E+02  0.45594000000E+02  0.51100000000E-03 0.  1.
         11   -1    0    0    0    0 -0.00000000000E+00 -0.00000000000E+00 -0.45593999997E+02  0.45594000000E+02  0.51100000000E-03 0. -1.
    9900012    2    1    2    0    0 -0.79809794589E+01  0.34640343439E+02 -0.24899281546E+02  0.47787266732E+02  0.19999980338E+02 0.  0.
        -12    1    1    2    0    0  0.79809794589E+01 -0.34640343439E+02  0.24899281546E+02  0.43400733268E+02  0.00000000000E+00 0.  1.
         11    1    3    3    0    0  0.38373874322E+01  0.40114152033E+01 -0.73873603853E+01  0.92406757308E+01  0.51100000000E-03 0. -1.
        -11    1    3    3    0    0 -0.10835592582E+01 -0.18181520213E+00  0.57643368101E+00  0.12407390876E+01  0.51100000000E-03 0.  1.
         12    1    3    3    0    0 -0.10734807633E+02  0.30810743438E+02 -0.18088354841E+02  0.37305851913E+02  0.00000000000E+00 0. -1.
</event>
<event>
 7    1  0.4430431E-010  0.4778727E+02  0.7816164E-02  0.1312668E+00
        -11   -1    0    0    0    0  0.00000000000E+00  0.00000000000E+00  0.45593999997E+02  0.45594000000E+02  0.51100000000E-03 0.  1.
         11   -1    0    0    0    0 -0.00000000000E+00 -0.00000000000E+00 -0.45593999997E+02  0.45594000000E+02  0.51100000000E-03 0. -1.
    9900012    2    1    2    0    0  0.84271042832E+01  0.39560882057E+02 -0.15733523241E+02  0.47787271558E+02  0.20000002342E+02 0.  0.
        -12    1    1    2    0    0 -0.84271042832E+01 -0.39560882057E+02  0.15733523241E+02  0.43400728442E+02  0.00000000000E+00 0.  1.
         11    1    3    3    0    0  0.15560872097E+00  0.18067404789E+02 -0.41709525370E+01  0.18543251474E+02  0.51100000000E-03 0. -1.
        -11    1    3    3    0    0  0.45151425495E+01  0.16637755212E+02 -0.14417418890E+02  0.22473615162E+02  0.51100000000E-03 0.  1.
         12    1    3    3    0    0  0.37563530127E+01  0.48557220562E+01  0.28548481869E+01  0.67704049224E+01  0.00000000000E+00 0. -1.
</event>
<event>
 7    1  0.4430431E-010  0.4778728E+02  0.7816164E-02  0.1312668E+00
        -11   -1    0    0    0    0  0.00000000000E+00  0.00000000000E+00  0.45593999997E+02  0.45594000000E+02  0.51100000000E-03 0. -1.
         11   -1    0    0    0    0 -0.00000000000E+00 -0.00000000000E+00 -0.45593999997E+02  0.45594000000E+02  0.51100000000E-03 0.  1.
    9900012    2    1    2    0    0 -0.36611560601E+02  0.13075191262E+02 -0.19293934760E+02  0.47787275182E+02  0.20000018865E+02 0.  0.
        -12    1    1    2    0    0  0.36611560601E+02 -0.13075191262E+02  0.19293934760E+02  0.43400724818E+02  0.00000000000E+00 0.  1.
         11    1    3    3    0    0 -0.15846567238E+02  0.75764780856E+01 -0.84086719395E+01  0.19473635446E+02  0.51100000000E-03 0. -1.
        -11    1    3    3    0    0 -0.87515571231E+01  0.90160655053E+01 -0.14709059973E+01  0.12650800528E+02  0.51100000000E-03 0.  1.
        -12    1    3    3    0    0 -0.12013436239E+02 -0.35173523284E+01 -0.94143568235E+01  0.15662839209E+02  0.00000000000E+00 0.  1.
</event>
<event>
 7    1  0.4430431E-010  0.4778728E+02  0.7816164E-02  0.1312668E+00
        -11   -1    0    0    0    0  0.00000000000E+00  0.00000000000E+00  0.45593999997E+02  0.45594000000E+02  0.51100000000E-03 0. -1.
         11   -1    0    0    0    0 -0.00000000000E+00 -0.00000000000E+00 -0.45593999997E+02  0.45594000000E+02  0.51100000000E-03 0.  1.
    9900012    2    1    2    0    0  0.88488771371E+01  0.17948923252E+02  0.38511768413E+02  0.47787276748E+02  0.20000026005E+02 0.  0.
        -12    1    1    2    0    0 -0.88488771371E+01 -0.17948923252E+02 -0.38511768413E+02  0.43400723252E+02  0.00000000000E+00 0.  1.
         11    1    3    3    0    0  0.38903561419E+00  0.59922808493E+01  0.14029539543E+02  0.15260627724E+02  0.51100000000E-03 0. -1.
        -11    1    3    3    0    0 -0.22921617399E+01 -0.21673514840E+01  0.15155858598E+01  0.34997740864E+01  0.51100000000E-03 0.  1.
         12    1    3    3    0    0  0.10752003263E+02  0.14123993887E+02  0.22966643011E+02  0.29026874938E+02  0.00000000000E+00 0. -1.
</event>
<event>
 7    1  0.4430431E-010  0.4778727E+02  0.7816164E-02  0.1312668E+00
        -11   -1    0    0    0    0  0.00000000000E+00  0.00000000000E+00  0.45593999997E+02  0.45594000000E+02  0.51100000000E-03 0. -1.
         11   -1    0    0    0    0 -0.00000000000E+00 -0.00000000000E+00 -0.45593999997E+02  0.45594000000E+02  0.51100000000E-03 0.  1.
    9900012    2    1    2    0    0 -0.77565281579E+01  0.10050637644E+02  0.41502341024E+02  0.47787270092E+02  0.19999995656E+02 0.  0.
        -12    1    1    2    0    0  0.77565281579E+01 -0.10050637644E+02 -0.41502341024E+02  0.43400729908E+02  0.00000000000E+00 0.  1.
         11    1    3    3    0    0 -0.39393610022E+01  0.74588637709E+01  0.32087082301E+02  0.33177312500E+02  0.51100000000E-03 0. -1.
        -11    1    3    3    0    0 -0.43900896660E+01 -0.21322099064E+00  0.10627842316E+02  0.11500842709E+02  0.51100000000E-03 0.  1.
         12    1    3    3    0    0  0.57292251032E+00  0.28049948633E+01 -0.12125835927E+01  0.31091148829E+01  0.00000000000E+00 0. -1.
</event>
<event>
 7    1  0.4430431E-010  0.4778726E+02  0.7816164E-02  0.1312668E+00
        -11   -1    0    0    0    0  0.00000000000E+00  0.00000000000E+00  0.45593999997E+02  0.45594000000E+02  0.51100000000E-03 0. -1.
         11   -1    0    0    0    0 -0.00000000000E+00 -0.00000000000E+00 -0.45593999997E+02  0.45594000000E+02  0.51100000000E-03 0.  1.
    9900012    2    1    2    0    0 -0.21154340738E+00 -0.29099674298E+02  0.32199193220E+02  0.47787264535E+02  0.19999970321E+02 0.  0.
        -12    1    1    2    0    0  0.21154340738E+00  0.29099674298E+02 -0.32199193220E+02  0.43400735465E+02  0.00000000000E+00 0.  1.
         11    1    3    3    0    0  0.61790573335E+01 -0.20677575631E+01  0.51550152972E+01  0.83084627847E+01  0.51100000000E-03 0. -1.
        -11    1    3    3    0    0 -0.30856657944E+00 -0.82691177186E+01  0.41410703279E+01  0.92532148414E+01  0.51100000000E-03 0.  1.
         12    1    3    3    0    0 -0.60820341614E+01 -0.18762799016E+02  0.22903107595E+02  0.30225586909E+02  0.00000000000E+00 0. -1.
</event>
<event>
 7    1  0.6190176E-010  0.4778727E+02  0.7816164E-02  0.1312668E+00
        -11   -1    0    0    0    0  0.00000000000E+00  0.00000000000E+00  0.45593999997E+02  0.45594000000E+02  0.51100000000E-03 0. -1.
         11   -1    0    0    0    0 -0.00000000000E+00 -0.00000000000E+00 -0.45593999997E+02  0.45594000000E+02  0.51100000000E-03 0.  1.
    9900012    2    1    2    0    0  0.28474360297E+02  0.19625037064E+02  0.26223880484E+02  0.47787272106E+02  0.20000004841E+02 0.  0.
        -12    1    1    2    0    0 -0.28474360297E+02 -0.19625037064E+02 -0.26223880484E+02  0.43400727894E+02  0.00000000000E+00 0.  1.
         11    1    3    3    0    0  0.19055138723E+02  0.13594624908E+02  0.17329699511E+02  0.29124399110E+02  0.51100000000E-03 0. -1.
        -11    1    3    3    0    0  0.59550152774E+01  0.96273391780E+01  0.52361565360E+01  0.12472578007E+02  0.51100000000E-03 0.  1.
        -12    1    3    3    0    0  0.34642062966E+01 -0.35969270224E+01  0.36580244372E+01  0.61902949892E+01  0.00000000000E+00 0.  1.
</event>
<event>
 7    1  0.4430431E-010  0.4778727E+02  0.7816164E-02  0.1312668E+00
        -11   -1    0    0    0    0  0.00000000000E+00  0.00000000000E+00  0.45593999997E+02  0.45594000000E+02  0.51100000000E-03 0.  1.
         11   -1    0    0    0    0 -0.00000000000E+00 -0.00000000000E+00 -0.45593999997E+02  0.45594000000E+02  0.51100000000E-03 0. -1.
    9900012    2    1    2    0    0  0.75062009501E+01  0.25252792991E+02 -0.34490243148E+02  0.47787268681E+02  0.19999989225E+02 0.  0.
        -12    1    1    2    0    0 -0.75062009501E+01 -0.25252792991E+02  0.34490243148E+02  0.43400731319E+02  0.00000000000E+00 0.  1.
         11    1    3    3    0    0 -0.17521200977E+01  0.57374482691E+01 -0.20870285294E+02  0.21715364284E+02  0.51100000000E-03 0. -1.
        -11    1    3    3    0    0  0.58527422664E+00  0.14026261401E+01  0.41017230531E+00  0.15742133243E+01  0.51100000000E-03 0.  1.
         12    1    3    3    0    0  0.86730468211E+01  0.18112718582E+02 -0.14030130159E+02  0.24497691073E+02  0.00000000000E+00 0. -1.
</event>
<event>
 7    1  0.4430431E-010  0.4778727E+02  0.7816164E-02  0.1312668E+00
        -11   -1    0    0    0    0  0.00000000000E+00  0.00000000000E+00  0.45593999997E+02  0.45594000000E+02  0.51100000000E-03 0.  1.
         11   -1    0    0    0    0 -0.00000000000E+00 -0.00000000000E+00 -0.45593999997E+02  0.45594000000E+02  0.51100000000E-03 0. -1.
    9900012    2    1    2    0    0 -0.27621814051E+02  0.32402942222E+02 -0.84088242855E+01  0.47787267265E+02  0.19999982767E+02 0.  0.
        -12    1    1    2    0    0  0.27621814051E+02 -0.32402942222E+02  0.84088242855E+01  0.43400732735E+02  0.00000000000E+00 0.  1.
         11    1    3    3    0    0  0.47146051262E+00  0.37600219384E+01 -0.19224388894E+01  0.42492130492E+01  0.51100000000E-03 0.  1.
        -11    1    3    3    0    0 -0.31761925027E+01  0.13556808926E+02 -0.21320932222E+01  0.14086202073E+02  0.51100000000E-03 0. -1.
         12    1    3    3    0    0 -0.24917082061E+02  0.15086111357E+02 -0.43542921739E+01  0.29451852143E+02  0.00000000000E+00 0. -1.
</event>
<event>
 7    1  0.4430431E-010  0.4778727E+02  0.7816164E-02  0.1312668E+00
        -11   -1    0    0    0    0  0.00000000000E+00  0.00000000000E+00  0.45593999997E+02  0.45594000000E+02  0.51100000000E-03 0.  1.
         11   -1    0    0    0    0 -0.00000000000E+00 -0.00000000000E+00 -0.45593999997E+02  0.45594000000E+02  0.51100000000E-03 0. -1.
    9900012    2    1    2    0    0  0.34929608692E+02  0.22419282886E+01 -0.25661633302E+02  0.47787271555E+02  0.20000002327E+02 0.  0.
        -12    1    1    2    0    0 -0.34929608692E+02 -0.22419282886E+01  0.25661633302E+02  0.43400728445E+02  0.00000000000E+00 0.  1.
         11    1    3    3    0    0  0.14292089044E+02  0.49366949141E+01 -0.11195648921E+02  0.18814285023E+02  0.51100000000E-03 0. -1.
        -11    1    3    3    0    0  0.13952675052E+02  0.50449747756E+01 -0.77609088896E+01  0.16743972607E+02  0.51100000000E-03 0.  1.
         12    1    3    3    0    0  0.66848445957E+01 -0.77397414011E+01 -0.67050754913E+01  0.12229013925E+02  0.00000000000E+00 0. -1.
</event>
<event>
 7    1  0.4430431E-010  0.4778727E+02  0.7816164E-02  0.1312668E+00
        -11   -1    0    0    0    0  0.00000000000E+00  0.00000000000E+00  0.45593999997E+02  0.45594000000E+02  0.51100000000E-03 0.  1.
         11   -1    0    0    0    0 -0.00000000000E+00 -0.00000000000E+00 -0.45593999997E+02  0.45594000000E+02  0.51100000000E-03 0. -1.
    9900012    2    1    2    0    0  0.30617258198E+02 -0.28175019436E+02 -0.12344031275E+02  0.47787270422E+02  0.19999997160E+02 0.  0.
        -12    1    1    2    0    0 -0.30617258198E+02  0.28175019436E+02  0.12344031275E+02  0.43400729578E+02  0.00000000000E+00 0.  1.
         11    1    3    3    0    0  0.40404837013E+00  0.13591663170E+01 -0.55028439985E+00  0.15209869640E+01  0.51100000000E-03 0. -1.
        -11    1    3    3    0    0  0.24754247775E+02 -0.14389386690E+02 -0.71664215601E+01  0.29515840331E+02  0.51100000000E-03 0.  1.
         12    1    3    3    0    0  0.54589620536E+01 -0.15144799063E+02 -0.46273253153E+01  0.16750443127E+02  0.00000000000E+00 0. -1.
</event>
<event>
 7    1  0.4430431E-010  0.4778727E+02  0.7816164E-02  0.1312668E+00
        -11   -1    0    0    0    0  0.00000000000E+00  0.00000000000E+00  0.45593999997E+02  0.45594000000E+02  0.51100000000E-03 0. -1.
         11   -1    0    0    0    0 -0.00000000000E+00 -0.00000000000E+00 -0.45593999997E+02  0.45594000000E+02  0.51100000000E-03 0.  1.
    9900012    2    1    2    0    0  0.33256088144E+02  0.24459352723E+02  0.13393869778E+02  0.47787273256E+02  0.20000010085E+02 0.  0.
        -12    1    1    2    0    0 -0.33256088144E+02 -0.24459352723E+02 -0.13393869778E+02  0.43400726744E+02  0.00000000000E+00 0.  1.
         11    1    3    3    0    0  0.13494556768E+02  0.61965932426E+01  0.42736189008E+00  0.14855418831E+02  0.51100000000E-03 0. -1.
        -11    1    3    3    0    0  0.82456287623E+01  0.16599951324E+00  0.65817199302E+01  0.10551634330E+02  0.51100000000E-03 0.  1.
         12    1    3    3    0    0  0.11515902613E+02  0.18096759967E+02  0.63847879579E+01  0.22380220096E+02  0.00000000000E+00 0. -1.
</event>
<event>
 7    1  0.4430431E-010  0.4778727E+02  0.7816164E-02  0.1312668E+00
        -11   -1    0    0    0    0  0.00000000000E+00  0.00000000000E+00  0.45593999997E+02  0.45594000000E+02  0.51100000000E-03 0. -1.
         11   -1    0    0    0    0 -0.00000000000E+00 -0.00000000000E+00 -0.45593999997E+02  0.45594000000E+02  0.51100000000E-03 0.  1.
    9900012    2    1    2    0    0 -0.92950322326E+01  0.42014010663E+02  0.56611405717E+01  0.47787271564E+02  0.20000002369E+02 0.  0.
        -12    1    1    2    0    0  0.92950322326E+01 -0.42014010663E+02 -0.56611405717E+01  0.43400728436E+02  0.00000000000E+00 0.  1.
         11    1    3    3    0    0 -0.10026693531E+01  0.18422521984E+02  0.78485516762E+01  0.20049798646E+02  0.51100000000E-03 0. -1.
        -11    1    3    3    0    0 -0.21026583753E+00  0.14523745925E+00  0.24874724237E+01  0.25005649285E+01  0.51100000000E-03 0.  1.
        -12    1    3    3    0    0 -0.80820970420E+01  0.23446251220E+02 -0.46748835282E+01  0.25236907989E+02  0.00000000000E+00 0.  1.
</event>
<event>
 7    1  0.4430431E-010  0.4778727E+02  0.7816164E-02  0.1312668E+00
        -11   -1    0    0    0    0  0.00000000000E+00  0.00000000000E+00  0.45593999997E+02  0.45594000000E+02  0.51100000000E-03 0.  1.
         11   -1    0    0    0    0 -0.00000000000E+00 -0.00000000000E+00 -0.45593999997E+02  0.45594000000E+02  0.51100000000E-03 0. -1.
    9900012    2    1    2    0    0 -0.13405293423E+02 -0.40185289958E+02 -0.94373744563E+01  0.47787268930E+02  0.19999990360E+02 0.  0.
        -12    1    1    2    0    0  0.13405293423E+02  0.40185289958E+02  0.94373744563E+01  0.43400731070E+02  0.00000000000E+00 0.  1.
         11    1    3    3    0    0 -0.30898618208E+01 -0.52119917492E+01 -0.59796094353E+01  0.85128040812E+01  0.51100000000E-03 0. -1.
        -11    1    3    3    0    0  0.29644878325E+01 -0.64665482149E+01  0.19235151802E+01  0.73691481757E+01  0.51100000000E-03 0.  1.
         12    1    3    3    0    0 -0.13279919434E+02 -0.28506749994E+02 -0.53812802012E+01  0.31905316673E+02  0.00000000000E+00 0. -1.
</event>
<event>
 7    1  0.4430431E-010  0.4778727E+02  0.7816164E-02  0.1312668E+00
        -11   -1    0    0    0    0  0.00000000000E+00  0.00000000000E+00  0.45593999997E+02  0.45594000000E+02  0.51100000000E-03 0.  1.
         11   -1    0    0    0    0 -0.00000000000E+00 -0.00000000000E+00 -0.45593999997E+02  0.45594000000E+02  0.51100000000E-03 0. -1.
    9900012    2    1    2    0    0  0.16087134243E+02 -0.12358132833E+02 -0.38368007645E+02  0.47787270215E+02  0.19999996217E+02 0.  0.
        -12    1    1    2    0    0 -0.16087134243E+02  0.12358132833E+02  0.38368007645E+02  0.43400729785E+02  0.00000000000E+00 0.  1.
         11    1    3    3    0    0  0.78373970104E+01  0.25903942858E+00 -0.24068662455E+02  0.25313877735E+02  0.51100000000E-03 0. -1.
        -11    1    3    3    0    0  0.30901569763E+01 -0.32708509794E+01 -0.99973055970E+01  0.10963286721E+02  0.51100000000E-03 0.  1.
        -12    1    3    3    0    0  0.51595802563E+01 -0.93463212820E+01 -0.43020395923E+01  0.11510105759E+02  0.00000000000E+00 0.  1.
</event>
<event>
 7    1  0.4430431E-010  0.4778731E+02  0.7816164E-02  0.1312668E+00
        -11   -1    0    0    0    0  0.00000000000E+00  0.00000000000E+00  0.45593999997E+02  0.45594000000E+02  0.51100000000E-03 0.  1.
         11   -1    0    0    0    0 -0.00000000000E+00 -0.00000000000E+00 -0.45593999997E+02  0.45594000000E+02  0.51100000000E-03 0. -1.
    9900012    2    1    2    0    0 -0.19173734664E+02 -0.26757856294E+02 -0.28284365054E+02  0.47787305525E+02  0.20000157209E+02 0.  0.
        -12    1    1    2    0    0  0.19173734664E+02  0.26757856294E+02  0.28284365054E+02  0.43400694475E+02  0.00000000000E+00 0.  1.
         11    1    3    3    0    0 -0.67687167087E+01 -0.67921687439E+01 -0.11702350722E+01  0.96601517852E+01  0.51100000000E-03 0. -1.
        -11    1    3    3    0    0 -0.42895306949E+01  0.59499292044E+00 -0.70544390242E+01  0.82776325338E+01  0.51100000000E-03 0.  1.
         12    1    3    3    0    0 -0.81154872607E+01 -0.20560680471E+02 -0.20059690957E+02  0.29849521206E+02  0.00000000000E+00 0. -1.
</event>
<event>
 7    1  0.4430431E-010  0.4778733E+02  0.7816164E-02  0.1312667E+00
        -11   -1    0    0    0    0  0.00000000000E+00  0.00000000000E+00  0.45593999997E+02  0.45594000000E+02  0.51100000000E-03 0.  1.
         11   -1    0    0    0    0 -0.00000000000E+00 -0.00000000000E+00 -0.45593999997E+02  0.45594000000E+02  0.51100000000E-03 0. -1.
    9900012    2    1    2    0    0  0.23577736892E+02  0.35956806543E+02  0.59005321432E+01  0.47787333031E+02  0.20000282622E+02 0.  0.
        -12    1    1    2    0    0 -0.23577736892E+02 -0.35956806543E+02 -0.59005321432E+01  0.43400666969E+02  0.00000000000E+00 0.  1.
         11    1    3    3    0    0  0.21515359346E+02  0.33688075690E+02  0.41009663842E+01  0.40182272920E+02  0.51100000000E-03 0. -1.
        -11    1    3    3    0    0 -0.10417462041E+01  0.18983704904E+01 -0.18154982257E+01  0.28257883398E+01  0.51100000000E-03 0.  1.
        -12    1    3    3    0    0  0.31041237502E+01  0.37036036311E+00  0.36150639847E+01  0.47792717718E+01  0.00000000000E+00 0.  1.
</event>
<event>
 7    1  0.4430431E-010  0.4778728E+02  0.7816164E-02  0.1312668E+00
        -11   -1    0    0    0    0  0.00000000000E+00  0.00000000000E+00  0.45593999997E+02  0.45594000000E+02  0.51100000000E-03 0.  1.
         11   -1    0    0    0    0 -0.00000000000E+00 -0.00000000000E+00 -0.45593999997E+02  0.45594000000E+02  0.51100000000E-03 0. -1.
    9900012    2    1    2    0    0 -0.24694494875E+02 -0.85180122495E+01 -0.34659027336E+02  0.47787276668E+02  0.20000025642E+02 0.  0.
        -12    1    1    2    0    0  0.24694494875E+02  0.85180122495E+01  0.34659027336E+02  0.43400723332E+02  0.00000000000E+00 0.  1.
         11    1    3    3    0    0 -0.18195849958E+02 -0.33862344809E+00 -0.15268084988E+02  0.23755379201E+02  0.51100000000E-03 0. -1.
        -11    1    3    3    0    0 -0.82412161396E+01 -0.65241723712E+01 -0.10637717639E+02  0.14954715157E+02  0.51100000000E-03 0.  1.
        -12    1    3    3    0    0  0.17425712221E+01 -0.16552164303E+01 -0.87532247087E+01  0.90771823104E+01  0.00000000000E+00 0.  1.
</event>
<event>
 7    1  0.4430431E-010  0.4778727E+02  0.7816164E-02  0.1312668E+00
        -11   -1    0    0    0    0  0.00000000000E+00  0.00000000000E+00  0.45593999997E+02  0.45594000000E+02  0.51100000000E-03 0. -1.
         11   -1    0    0    0    0 -0.00000000000E+00 -0.00000000000E+00 -0.45593999997E+02  0.45594000000E+02  0.51100000000E-03 0.  1.
    9900012    2    1    2    0    0 -0.16918667549E+02  0.17426142005E+02  0.35968206372E+02  0.47787267213E+02  0.19999982532E+02 0.  0.
        -12    1    1    2    0    0  0.16918667549E+02 -0.17426142005E+02 -0.35968206372E+02  0.43400732787E+02  0.00000000000E+00 0.  1.
         11    1    3    3    0    0  0.10242699123E+01  0.44457764753E+01  0.87029043133E+01  0.98262200804E+01  0.51100000000E-03 0.  1.
        -11    1    3    3    0    0  0.21704671068E+01  0.36112063783E+01  0.47632112776E+01  0.63592390193E+01  0.51100000000E-03 0. -1.
        -12    1    3    3    0    0 -0.20113404568E+02  0.93691591517E+01  0.22502090781E+02  0.31601808114E+02  0.00000000000E+00 0.  1.
</event>
<event>
 7    1  0.4430431E-010  0.4778726E+02  0.7816164E-02  0.1312668E+00
        -11   -1    0    0    0    0  0.00000000000E+00  0.00000000000E+00  0.45593999997E+02  0.45594000000E+02  0.51100000000E-03 0. -1.
         11   -1    0    0    0    0 -0.00000000000E+00 -0.00000000000E+00 -0.45593999997E+02  0.45594000000E+02  0.51100000000E-03 0.  1.
    9900012    2    1    2    0    0  0.21386127025E+02  0.24323891054E+02  0.28889544750E+02  0.47787263820E+02  0.19999967060E+02 0.  0.
        -12    1    1    2    0    0 -0.21386127025E+02 -0.24323891054E+02 -0.28889544750E+02  0.43400736180E+02  0.00000000000E+00 0.  1.
         11    1    3    3    0    0  0.12266898740E+02  0.14290752920E+02  0.85091550671E+01  0.20666594880E+02  0.51100000000E-03 0. -1.
        -11    1    3    3    0    0 -0.33011063265E+00  0.71246681208E+01  0.45613790706E+01  0.84661708079E+01  0.51100000000E-03 0.  1.
        -12    1    3    3    0    0  0.94493389172E+01  0.29084700130E+01  0.15819010612E+02  0.18654498132E+02  0.00000000000E+00 0.  1.
</event>
<event>
 7    1  0.4430431E-010  0.4778727E+02  0.7816164E-02  0.1312668E+00
        -11   -1    0    0    0    0  0.00000000000E+00  0.00000000000E+00  0.45593999997E+02  0.45594000000E+02  0.51100000000E-03 0.  1.
         11   -1    0    0    0    0 -0.00000000000E+00 -0.00000000000E+00 -0.45593999997E+02  0.45594000000E+02  0.51100000000E-03 0. -1.
    9900012    2    1    2    0    0  0.31325041534E+02 -0.18891296984E+02 -0.23355607401E+02  0.47787265837E+02  0.19999976255E+02 0.  0.
        -12    1    1    2    0    0 -0.31325041534E+02  0.18891296984E+02  0.23355607401E+02  0.43400734163E+02  0.00000000000E+00 0.  1.
         11    1    3    3    0    0  0.29874689719E+01 -0.59423168351E+01 -0.49266294671E+01  0.82769425752E+01  0.51100000000E-03 0. -1.
        -11    1    3    3    0    0  0.12717555621E+02  0.18920171070E+01 -0.10326476557E+02  0.16490969288E+02  0.51100000000E-03 0.  1.
        -12    1    3    3    0    0  0.15620016941E+02 -0.14840997256E+02 -0.81025013772E+01  0.23019353973E+02  0.00000000000E+00 0.  1.
</event>
<event>
 7    1  0.4430431E-010  0.4778727E+02  0.7816164E-02  0.1312668E+00
        -11   -1    0    0    0    0  0.00000000000E+00  0.00000000000E+00  0.45593999997E+02  0.45594000000E+02  0.51100000000E-03 0.  1.
         11   -1    0    0    0    0 -0.00000000000E+00 -0.00000000000E+00 -0.45593999997E+02  0.45594000000E+02  0.51100000000E-03 0. -1.
    9900012    2    1    2    0    0  0.14494688535E+02 -0.19200524710E+02 -0.36122943331E+02  0.47787272129E+02  0.20000004944E+02 0.  0.
        -12    1    1    2    0    0 -0.14494688535E+02  0.19200524710E+02  0.36122943331E+02  0.43400727871E+02  0.00000000000E+00 0.  1.
         11    1    3    3    0    0  0.94532835914E+01 -0.67141896051E+01 -0.11812948998E+02  0.16552663744E+02  0.51100000000E-03 0. -1.
        -11    1    3    3    0    0  0.34357877348E+01 -0.89222486155E+01 -0.36914905078E+01  0.10248817500E+02  0.51100000000E-03 0.  1.
        -12    1    3    3    0    0  0.16056172088E+01 -0.35640864898E+01 -0.20618503824E+02  0.20985790885E+02  0.00000000000E+00 0.  1.
</event>
<event>
 7    1  0.4430431E-010  0.4778727E+02  0.7816164E-02  0.1312668E+00
        -11   -1    0    0    0    0  0.00000000000E+00  0.00000000000E+00  0.45593999997E+02  0.45594000000E+02  0.51100000000E-03 0.  1.
         11   -1    0    0    0    0 -0.00000000000E+00 -0.00000000000E+00 -0.45593999997E+02  0.45594000000E+02  0.51100000000E-03 0. -1.
    9900012    2    1    2    0    0  0.41520102041E+02  0.38834762296E+01 -0.12025927768E+02  0.47787271898E+02  0.20000003891E+02 0.  0.
        -12    1    1    2    0    0 -0.41520102041E+02 -0.38834762296E+01  0.12025927768E+02  0.43400728102E+02  0.00000000000E+00 0.  1.
         11    1    3    3    0    0  0.24389106960E+02  0.61460503804E+00 -0.46832921469E+01  0.24842292633E+02  0.51100000000E-03 0. -1.
        -11    1    3    3    0    0  0.81970678289E+01  0.46324185800E+01  0.23381146432E+01  0.97014433585E+01  0.51100000000E-03 0.  1.
        -12    1    3    3    0    0  0.89339272520E+01 -0.13635473884E+01 -0.96807502643E+01  0.13243535906E+02  0.00000000000E+00 0.  1.
</event>
<event>
 7    1  0.4430431E-010  0.4778727E+02  0.7816164E-02  0.1312668E+00
        -11   -1    0    0    0    0  0.00000000000E+00  0.00000000000E+00  0.45593999997E+02  0.45594000000E+02  0.51100000000E-03 0. -1.
         11   -1    0    0    0    0 -0.00000000000E+00 -0.00000000000E+00 -0.45593999997E+02  0.45594000000E+02  0.51100000000E-03 0.  1.
    9900012    2    1    2    0    0 -0.42981400583E+02 -0.59898482614E+01  0.58664802170E+00  0.47787271502E+02  0.20000002086E+02 0.  0.
        -12    1    1    2    0    0  0.42981400583E+02  0.59898482614E+01 -0.58664802170E+00  0.43400728498E+02  0.00000000000E+00 0.  1.
         11    1    3    3    0    0 -0.16493459360E+02 -0.64716581690E+01  0.17728955299E+01  0.17806170838E+02  0.51100000000E-03 0. -1.
        -11    1    3    3    0    0  0.19922204267E+00 -0.14995333491E+01  0.25459896227E+01  0.29614781963E+01  0.51100000000E-03 0.  1.
         12    1    3    3    0    0 -0.26687163266E+02  0.19813432566E+01 -0.37322371309E+01  0.27019622467E+02  0.00000000000E+00 0. -1.
</event>
<event>
 7    1  0.4430431E-010  0.4778727E+02  0.7816164E-02  0.1312668E+00
        -11   -1    0    0    0    0  0.00000000000E+00  0.00000000000E+00  0.45593999997E+02  0.45594000000E+02  0.51100000000E-03 0.  1.
         11   -1    0    0    0    0 -0.00000000000E+00 -0.00000000000E+00 -0.45593999997E+02  0.45594000000E+02  0.51100000000E-03 0. -1.
    9900012    2    1    2    0    0 -0.13722705297E+02  0.31128729543E+01 -0.41056308573E+02  0.47787273136E+02  0.20000009537E+02 0.  0.
        -12    1    1    2    0    0  0.13722705297E+02 -0.31128729543E+01  0.41056308573E+02  0.43400726864E+02  0.00000000000E+00 0.  1.
         11    1    3    3    0    0  0.17191779186E+01  0.64376310600E+00 -0.12675759254E+02  0.12808000491E+02  0.51100000000E-03 0. -1.
        -11    1    3    3    0    0 -0.13091687860E+00 -0.38726864420E+01 -0.54109951211E+01  0.66553518291E+01  0.51100000000E-03 0.  1.
        -12    1    3    3    0    0 -0.15310966337E+02  0.63417962903E+01 -0.22969554198E+02  0.28323920816E+02  0.00000000000E+00 0.  1.
</event>
<event>
 7    1  0.4430431E-010  0.4778728E+02  0.7816164E-02  0.1312668E+00
        -11   -1    0    0    0    0  0.00000000000E+00  0.00000000000E+00  0.45593999997E+02  0.45594000000E+02  0.51100000000E-03 0.  1.
         11   -1    0    0    0    0 -0.00000000000E+00 -0.00000000000E+00 -0.45593999997E+02  0.45594000000E+02  0.51100000000E-03 0. -1.
    9900012    2    1    2    0    0  0.27743567295E+02 -0.25304355935E+02 -0.21762512869E+02  0.47787275099E+02  0.20000018488E+02 0.  0.
        -12    1    1    2    0    0 -0.27743567295E+02  0.25304355935E+02  0.21762512869E+02  0.43400724901E+02  0.00000000000E+00 0.  1.
         11    1    3    3    0    0  0.60384901902E+01 -0.81457047096E+01 -0.10036749176E+02  0.14267172224E+02  0.51100000000E-03 0. -1.
        -11    1    3    3    0    0  0.56131909928E+01 -0.12374879159E+02 -0.95120619380E+01  0.16586888494E+02  0.51100000000E-03 0.  1.
        -12    1    3    3    0    0  0.16091886112E+02 -0.47837720659E+01 -0.22137017550E+01  0.16933214381E+02  0.00000000000E+00 0.  1.
</event>
<event>
 7    1  0.4430431E-010  0.4778727E+02  0.7816164E-02  0.1312668E+00
        -11   -1    0    0    0    0  0.00000000000E+00  0.00000000000E+00  0.45593999997E+02  0.45594000000E+02  0.51100000000E-03 0.  1.
         11   -1    0    0    0    0 -0.00000000000E+00 -0.00000000000E+00 -0.45593999997E+02  0.45594000000E+02  0.51100000000E-03 0. -1.
    9900012    2    1    2    0    0  0.23883181314E+01  0.37382422981E+02 -0.21919706715E+02  0.47787272427E+02  0.20000006303E+02 0.  0.
        -12    1    1    2    0    0 -0.23883181314E+01 -0.37382422981E+02  0.21919706715E+02  0.43400727573E+02  0.00000000000E+00 0.  1.
         11    1    3    3    0    0  0.47280652246E+00  0.14322820104E+02 -0.14998227271E+02  0.20744000175E+02  0.51100000000E-03 0. -1.
        -11    1    3    3    0    0 -0.43028517661E+01  0.16117312262E+02 -0.57742103065E+01  0.17652869251E+02  0.51100000000E-03 0.  1.
        -12    1    3    3    0    0  0.62183633751E+01  0.69422906140E+01 -0.11472691379E+01  0.93904030003E+01  0.00000000000E+00 0.  1.
</event>
<event>
 7    1  0.4430431E-010  0.4778727E+02  0.7816164E-02  0.1312668E+00
        -11   -1    0    0    0    0  0.00000000000E+00  0.00000000000E+00  0.45593999997E+02  0.45594000000E+02  0.51100000000E-03 0.  1.
         11   -1    0    0    0    0 -0.00000000000E+00 -0.00000000000E+00 -0.45593999997E+02  0.45594000000E+02  0.51100000000E-03 0. -1.
    9900012    2    1    2    0    0  0.41392101935E+02 -0.10687920015E+02 -0.74890095002E+01  0.47787274198E+02  0.20000014377E+02 0.  0.
        -12    1    1    2    0    0 -0.41392101935E+02  0.10687920015E+02  0.74890095002E+01  0.43400725802E+02  0.00000000000E+00 0.  1.
         11    1    3    3    0    0  0.12243294590E+02 -0.28530792488E+01  0.10768710171E+01  0.12617367993E+02  0.51100000000E-03 0. -1.
        -11    1    3    3    0    0 -0.14646546009E+01 -0.26500953594E+01 -0.12123704254E+01  0.32616040261E+01  0.51100000000E-03 0.  1.
         12    1    3    3    0    0  0.30613461946E+02 -0.51847454066E+01 -0.73535100919E+01  0.31908302179E+02  0.00000000000E+00 0. -1.
</event>
<event>
 7    1  0.4430431E-010  0.4778727E+02  0.7816164E-02  0.1312668E+00
        -11   -1    0    0    0    0  0.00000000000E+00  0.00000000000E+00  0.45593999997E+02  0.45594000000E+02  0.51100000000E-03 0.  1.
         11   -1    0    0    0    0 -0.00000000000E+00 -0.00000000000E+00 -0.45593999997E+02  0.45594000000E+02  0.51100000000E-03 0. -1.
    9900012    2    1    2    0    0  0.18963121644E+02  0.17677043396E+01 -0.38998700225E+02  0.47787269818E+02  0.19999994409E+02 0.  0.
        -12    1    1    2    0    0 -0.18963121644E+02 -0.17677043396E+01  0.38998700225E+02  0.43400730182E+02  0.00000000000E+00 0.  1.
         11    1    3    3    0    0  0.10878637970E+02 -0.32752863217E+00 -0.21672856364E+02  0.24252107997E+02  0.51100000000E-03 0. -1.
        -11    1    3    3    0    0  0.99353517344E+01 -0.30631028786E+01 -0.12226642368E+02  0.16049442271E+02  0.51100000000E-03 0.  1.
         12    1    3    3    0    0 -0.18508680605E+01  0.51583358504E+01 -0.50992014925E+01  0.74857195502E+01  0.00000000000E+00 0. -1.
</event>
<event>
 7    1  0.4430431E-010  0.4778727E+02  0.7816164E-02  0.1312668E+00
        -11   -1    0    0    0    0  0.00000000000E+00  0.00000000000E+00  0.45593999997E+02  0.45594000000E+02  0.51100000000E-03 0.  1.
         11   -1    0    0    0    0 -0.00000000000E+00 -0.00000000000E+00 -0.45593999997E+02  0.45594000000E+02  0.51100000000E-03 0. -1.
    9900012    2    1    2    0    0 -0.23723433700E+02 -0.25611339072E+02 -0.25785294577E+02  0.47787269453E+02  0.19999992744E+02 0.  0.
        -12    1    1    2    0    0  0.23723433700E+02  0.25611339072E+02  0.25785294577E+02  0.43400730547E+02  0.00000000000E+00 0.  1.
         11    1    3    3    0    0 -0.82968879581E+01 -0.11460495836E+02 -0.10046700539E+02  0.17352737725E+02  0.51100000000E-03 0. -1.
        -11    1    3    3    0    0 -0.56323280533E+01 -0.12490412077E+02 -0.25721505526E+01  0.13940927942E+02  0.51100000000E-03 0.  1.
         12    1    3    3    0    0 -0.97942176886E+01 -0.16604311589E+01 -0.13166443486E+02  0.16493603785E+02  0.00000000000E+00 0. -1.
</event>
<event>
 7    1  0.4430431E-010  0.4778727E+02  0.7816164E-02  0.1312668E+00
        -11   -1    0    0    0    0  0.00000000000E+00  0.00000000000E+00  0.45593999997E+02  0.45594000000E+02  0.51100000000E-03 0.  1.
         11   -1    0    0    0    0 -0.00000000000E+00 -0.00000000000E+00 -0.45593999997E+02  0.45594000000E+02  0.51100000000E-03 0. -1.
    9900012    2    1    2    0    0  0.95467453948E+01  0.26187409455E+02 -0.33267138004E+02  0.47787271520E+02  0.20000002170E+02 0.  0.
        -12    1    1    2    0    0 -0.95467453948E+01 -0.26187409455E+02  0.33267138004E+02  0.43400728480E+02  0.00000000000E+00 0.  1.
         11    1    3    3    0    0  0.75043122010E+01  0.16054169676E+02 -0.25019198874E+02  0.30659604990E+02  0.51100000000E-03 0. -1.
        -11    1    3    3    0    0 -0.30074254581E+01  0.67755635937E+01 -0.82124379338E+01  0.11063318082E+02  0.51100000000E-03 0.  1.
         12    1    3    3    0    0  0.50498586518E+01  0.33576761854E+01 -0.35501195962E-01  0.60643484485E+01  0.00000000000E+00 0. -1.
</event>
<event>
 7    1  0.4430431E-010  0.4778727E+02  0.7816164E-02  0.1312668E+00
        -11   -1    0    0    0    0  0.00000000000E+00  0.00000000000E+00  0.45593999997E+02  0.45594000000E+02  0.51100000000E-03 0. -1.
         11   -1    0    0    0    0 -0.00000000000E+00 -0.00000000000E+00 -0.45593999997E+02  0.45594000000E+02  0.51100000000E-03 0.  1.
    9900012    2    1    2    0    0 -0.31291553622E+02 -0.14406856092E+02  0.26398949425E+02  0.47787270038E+02  0.19999995411E+02 0.  0.
        -12    1    1    2    0    0  0.31291553622E+02  0.14406856092E+02 -0.26398949425E+02  0.43400729962E+02  0.00000000000E+00 0.  1.
         11    1    3    3    0    0 -0.17730630955E+01 -0.80737357723E-02  0.30355714489E+01  0.35154675661E+01  0.51100000000E-03 0. -1.
        -11    1    3    3    0    0 -0.62714330726E+01  0.39993049014E+01  0.19164813491E+01  0.76810294558E+01  0.51100000000E-03 0.  1.
         12    1    3    3    0    0 -0.23247057454E+02 -0.18398087257E+02  0.21446896627E+02  0.36590773016E+02  0.00000000000E+00 0. -1.
</event>
<event>
 7    1  0.4430431E-010  0.4778726E+02  0.7816164E-02  0.1312668E+00
        -11   -1    0    0    0    0  0.00000000000E+00  0.00000000000E+00  0.45593999997E+02  0.45594000000E+02  0.51100000000E-03 0.  1.
         11   -1    0    0    0    0 -0.00000000000E+00 -0.00000000000E+00 -0.45593999997E+02  0.45594000000E+02  0.51100000000E-03 0. -1.
    9900012    2    1    2    0    0  0.29181918951E+01 -0.44217570492E+01 -0.43076167998E+02  0.47787262348E+02  0.19999960350E+02 0.  0.
        -12    1    1    2    0    0 -0.29181918951E+01  0.44217570492E+01  0.43076167998E+02  0.43400737652E+02  0.00000000000E+00 0.  1.
         11    1    3    3    0    0  0.33648644225E+01  0.40407905106E+01 -0.15885731324E+02  0.16733402538E+02  0.51100000000E-03 0. -1.
        -11    1    3    3    0    0  0.37332114734E+01 -0.34274816012E+01 -0.22341744730E+02  0.22909344292E+02  0.51100000000E-03 0.  1.
        -12    1    3    3    0    0 -0.41798840007E+01 -0.50350659585E+01 -0.48486919436E+01  0.81445155184E+01  0.00000000000E+00 0.  1.
</event>
<event>
 7    1  0.4430431E-010  0.4778727E+02  0.7816164E-02  0.1312668E+00
        -11   -1    0    0    0    0  0.00000000000E+00  0.00000000000E+00  0.45593999997E+02  0.45594000000E+02  0.51100000000E-03 0.  1.
         11   -1    0    0    0    0 -0.00000000000E+00 -0.00000000000E+00 -0.45593999997E+02  0.45594000000E+02  0.51100000000E-03 0. -1.
    9900012    2    1    2    0    0  0.41232746560E+02  0.95669627824E+01 -0.95894216492E+01  0.47787272203E+02  0.20000005281E+02 0.  0.
        -12    1    1    2    0    0 -0.41232746560E+02 -0.95669627824E+01  0.95894216492E+01  0.43400727797E+02  0.00000000000E+00 0.  1.
         11    1    3    3    0    0  0.38918500352E+01 -0.19426378194E+01 -0.41192750020E+01  0.59907232616E+01  0.51100000000E-03 0. -1.
        -11    1    3    3    0    0  0.14020614235E+01 -0.13043107075E+01  0.21595491102E+01  0.28862874558E+01  0.51100000000E-03 0.  1.
        -12    1    3    3    0    0  0.35938835102E+02  0.12813911309E+02 -0.76296957574E+01  0.38910261485E+02  0.00000000000E+00 0.  1.
</event>
<event>
 7    1  0.4430431E-010  0.4778727E+02  0.7816164E-02  0.1312668E+00
        -11   -1    0    0    0    0  0.00000000000E+00  0.00000000000E+00  0.45593999997E+02  0.45594000000E+02  0.51100000000E-03 0. -1.
         11   -1    0    0    0    0 -0.00000000000E+00 -0.00000000000E+00 -0.45593999997E+02  0.45594000000E+02  0.51100000000E-03 0.  1.
    9900012    2    1    2    0    0 -0.14941901958E+02 -0.38844120795E+02  0.12308414180E+02  0.47787271733E+02  0.20000003141E+02 0.  0.
        -12    1    1    2    0    0  0.14941901958E+02  0.38844120795E+02 -0.12308414180E+02  0.43400728267E+02  0.00000000000E+00 0.  1.
         11    1    3    3    0    0  0.25600907908E+01 -0.76106600998E+01 -0.31296339094E+01  0.86180520235E+01  0.51100000000E-03 0.  1.
        -11    1    3    3    0    0 -0.36106995153E+01 -0.99303135654E+01  0.45615221163E+01  0.11508942731E+02  0.51100000000E-03 0. -1.
        -12    1    3    3    0    0 -0.13891293233E+02 -0.21303147130E+02  0.10876525973E+02  0.27660276979E+02  0.00000000000E+00 0.  1.
</event>
<event>
 7    1  0.4430431E-010  0.4778727E+02  0.7816164E-02  0.1312668E+00
        -11   -1    0    0    0    0  0.00000000000E+00  0.00000000000E+00  0.45593999997E+02  0.45594000000E+02  0.51100000000E-03 0. -1.
         11   -1    0    0    0    0 -0.00000000000E+00 -0.00000000000E+00 -0.45593999997E+02  0.45594000000E+02  0.51100000000E-03 0.  1.
    9900012    2    1    2    0    0  0.17983570947E+02 -0.36493131578E+01  0.39330614953E+02  0.47787267482E+02  0.19999983758E+02 0.  0.
        -12    1    1    2    0    0 -0.17983570947E+02  0.36493131578E+01 -0.39330614953E+02  0.43400732518E+02  0.00000000000E+00 0.  1.
         11    1    3    3    0    0  0.32398314509E+01  0.42501120480E+01  0.91508410547E+01  0.10597068110E+02  0.51100000000E-03 0. -1.
        -11    1    3    3    0    0  0.27791042600E+01  0.14453790637E+01 -0.29193082988E+00  0.31460713590E+01  0.51100000000E-03 0.  1.
         12    1    3    3    0    0  0.11964635236E+02 -0.93448042695E+01  0.30471704728E+02  0.34044128013E+02  0.00000000000E+00 0. -1.
</event>
<event>
 7    1  0.4430431E-010  0.4778727E+02  0.7816164E-02  0.1312668E+00
        -11   -1    0    0    0    0  0.00000000000E+00  0.00000000000E+00  0.45593999997E+02  0.45594000000E+02  0.51100000000E-03 0.  1.
         11   -1    0    0    0    0 -0.00000000000E+00 -0.00000000000E+00 -0.45593999997E+02  0.45594000000E+02  0.51100000000E-03 0. -1.
    9900012    2    1    2    0    0 -0.19670489982E+01  0.43304585975E+02  0.21134258745E+01  0.47787274002E+02  0.20000013483E+02 0.  0.
        -12    1    1    2    0    0  0.19670489982E+01 -0.43304585975E+02 -0.21134258745E+01  0.43400725998E+02  0.00000000000E+00 0.  1.
         11    1    3    3    0    0 -0.15760890038E+01  0.19702498340E+02 -0.38684473086E+01  0.20140441460E+02  0.51100000000E-03 0. -1.
        -11    1    3    3    0    0 -0.19121175596E+01  0.17558877349E+02 -0.17124164736E+01  0.17745499084E+02  0.51100000000E-03 0.  1.
        -12    1    3    3    0    0  0.15211575652E+01  0.60432102871E+01  0.76942896568E+01  0.99013334574E+01  0.00000000000E+00 0.  1.
</event>
<event>
 7    1  0.4430431E-010  0.4778728E+02  0.7816164E-02  0.1312668E+00
        -11   -1    0    0    0    0  0.00000000000E+00  0.00000000000E+00  0.45593999997E+02  0.45594000000E+02  0.51100000000E-03 0.  1.
         11   -1    0    0    0    0 -0.00000000000E+00 -0.00000000000E+00 -0.45593999997E+02  0.45594000000E+02  0.51100000000E-03 0. -1.
    9900012    2    1    2    0    0 -0.62851457709E+01  0.30682897274E+02 -0.30044624247E+02  0.47787277786E+02  0.20000030739E+02 0.  0.
        -12    1    1    2    0    0  0.62851457709E+01 -0.30682897274E+02  0.30044624247E+02  0.43400722214E+02  0.00000000000E+00 0.  1.
         11    1    3    3    0    0  0.12163041118E+01  0.15608639263E+01  0.90210183338E+00  0.21747367352E+01  0.51100000000E-03 0. -1.
        -11    1    3    3    0    0 -0.33916034530E+01  0.14075939673E+02 -0.49608055216E+01  0.15305052870E+02  0.51100000000E-03 0.  1.
         12    1    3    3    0    0 -0.41098464297E+01  0.15046093675E+02 -0.25985920559E+02  0.30307488181E+02  0.00000000000E+00 0. -1.
</event>
<event>
 7    1  0.4430431E-010  0.4778728E+02  0.7816164E-02  0.1312668E+00
        -11   -1    0    0    0    0  0.00000000000E+00  0.00000000000E+00  0.45593999997E+02  0.45594000000E+02  0.51100000000E-03 0.  1.
         11   -1    0    0    0    0 -0.00000000000E+00 -0.00000000000E+00 -0.45593999997E+02  0.45594000000E+02  0.51100000000E-03 0. -1.
    9900012    2    1    2    0    0  0.21713254629E+02 -0.37324596656E+02 -0.43624731293E+01  0.47787284407E+02  0.20000060927E+02 0.  0.
        -12    1    1    2    0    0 -0.21713254629E+02  0.37324596656E+02  0.43624731293E+01  0.43400715593E+02  0.00000000000E+00 0.  1.
         11    1    3    3    0    0  0.85726310754E+01 -0.18115572401E+02  0.49625780024E+01  0.20646819311E+02  0.51100000000E-03 0. -1.
        -11    1    3    3    0    0  0.15520179955E+01  0.84072853939E+00  0.70902041599E+00  0.19021815230E+01  0.51100000000E-03 0.  1.
         12    1    3    3    0    0  0.11588605559E+02 -0.20049752794E+02 -0.10034071548E+02  0.25238283573E+02  0.00000000000E+00 0. -1.
</event>
<event>
 7    1  0.4430431E-010  0.4778727E+02  0.7816164E-02  0.1312668E+00
        -11   -1    0    0    0    0  0.00000000000E+00  0.00000000000E+00  0.45593999997E+02  0.45594000000E+02  0.51100000000E-03 0. -1.
         11   -1    0    0    0    0 -0.00000000000E+00 -0.00000000000E+00 -0.45593999997E+02  0.45594000000E+02  0.51100000000E-03 0.  1.
    9900012    2    1    2    0    0 -0.24364766043E+01  0.24574324353E+02  0.35690187632E+02  0.47787270411E+02  0.19999997112E+02 0.  0.
        -12    1    1    2    0    0  0.24364766043E+01 -0.24574324353E+02 -0.35690187632E+02  0.43400729589E+02  0.00000000000E+00 0.  1.
         11    1    3    3    0    0 -0.25100444130E+01  0.12882905647E+02  0.25757165737E+02  0.28908496466E+02  0.51100000000E-03 0. -1.
        -11    1    3    3    0    0  0.18511622481E+01  0.43860945258E+01  0.10304524829E+02  0.11351117085E+02  0.51100000000E-03 0.  1.
        -12    1    3    3    0    0 -0.17775944395E+01  0.73053241803E+01 -0.37150293439E+00  0.75276568599E+01  0.00000000000E+00 0.  1.
</event>
<event>
 7    1  0.4430431E-010  0.4778727E+02  0.7816164E-02  0.1312668E+00
        -11   -1    0    0    0    0  0.00000000000E+00  0.00000000000E+00  0.45593999997E+02  0.45594000000E+02  0.51100000000E-03 0.  1.
         11   -1    0    0    0    0 -0.00000000000E+00 -0.00000000000E+00 -0.45593999997E+02  0.45594000000E+02  0.51100000000E-03 0. -1.
    9900012    2    1    2    0    0 -0.37591745656E+02 -0.14906156840E+02  0.15757229817E+02  0.47787272533E+02  0.20000006785E+02 0.  0.
        -12    1    1    2    0    0  0.37591745656E+02  0.14906156840E+02 -0.15757229817E+02  0.43400727467E+02  0.00000000000E+00 0.  1.
         11    1    3    3    0    0 -0.18583555699E+02 -0.48152021965E+01  0.85660536398E+01  0.21021702829E+02  0.51100000000E-03 0. -1.
        -11    1    3    3    0    0 -0.13868408384E+02 -0.12313707718E+02  0.93429248040E+01  0.20766569120E+02  0.51100000000E-03 0.  1.
         12    1    3    3    0    0 -0.51397815732E+01  0.22227530747E+01 -0.21517486264E+01  0.59990005836E+01  0.00000000000E+00 0. -1.
</event>
<event>
 7    1  0.4430431E-010  0.4778727E+02  0.7816164E-02  0.1312668E+00
        -11   -1    0    0    0    0  0.00000000000E+00  0.00000000000E+00  0.45593999997E+02  0.45594000000E+02  0.51100000000E-03 0.  1.
         11   -1    0    0    0    0 -0.00000000000E+00 -0.00000000000E+00 -0.45593999997E+02  0.45594000000E+02  0.51100000000E-03 0. -1.
    9900012    2    1    2    0    0  0.55172089252E+01  0.21464001723E+02 -0.37315949157E+02  0.47787273903E+02  0.20000013033E+02 0.  0.
        -12    1    1    2    0    0 -0.55172089252E+01 -0.21464001723E+02  0.37315949157E+02  0.43400726097E+02  0.00000000000E+00 0.  1.
         11    1    3    3    0    0  0.21819212718E+00  0.47947079831E+01 -0.96239039204E+01  0.10754364666E+02  0.51100000000E-03 0. -1.
        -11    1    3    3    0    0 -0.15389330953E+01  0.33910282198E+01  0.16771699022E+01  0.40841506585E+01  0.51100000000E-03 0.  1.
        -12    1    3    3    0    0  0.68379498933E+01  0.13278265520E+02 -0.29369215139E+02  0.32948758578E+02  0.00000000000E+00 0.  1.
</event>
<event>
 7    1  0.4430431E-010  0.4778729E+02  0.7816164E-02  0.1312668E+00
        -11   -1    0    0    0    0  0.00000000000E+00  0.00000000000E+00  0.45593999997E+02  0.45594000000E+02  0.51100000000E-03 0.  1.
         11   -1    0    0    0    0 -0.00000000000E+00 -0.00000000000E+00 -0.45593999997E+02  0.45594000000E+02  0.51100000000E-03 0. -1.
    9900012    2    1    2    0    0 -0.11854493719E+02  0.29821340867E+02 -0.29219513952E+02  0.47787292770E+02  0.20000099056E+02 0.  0.
        -12    1    1    2    0    0  0.11854493719E+02 -0.29821340867E+02  0.29219513952E+02  0.43400707230E+02  0.00000000000E+00 0.  1.
         11    1    3    3    0    0 -0.11681522466E+02  0.79160121761E+01 -0.12330899203E+02  0.18739591546E+02  0.51100000000E-03 0. -1.
        -11    1    3    3    0    0 -0.32090017870E+01  0.96045722158E+01 -0.11376876825E+02  0.15230851141E+02  0.51100000000E-03 0.  1.
        -12    1    3    3    0    0  0.30360305348E+01  0.12300756476E+02 -0.55117379234E+01  0.13816850083E+02  0.00000000000E+00 0.  1.
</event>
<event>
 7    1  0.4430431E-010  0.4778727E+02  0.7816164E-02  0.1312668E+00
        -11   -1    0    0    0    0  0.00000000000E+00  0.00000000000E+00  0.45593999997E+02  0.45594000000E+02  0.51100000000E-03 0.  1.
         11   -1    0    0    0    0 -0.00000000000E+00 -0.00000000000E+00 -0.45593999997E+02  0.45594000000E+02  0.51100000000E-03 0. -1.
    9900012    2    1    2    0    0  0.14641487848E+02 -0.58371485539E+01 -0.40437334326E+02  0.47787268704E+02  0.19999989328E+02 0.  0.
        -12    1    1    2    0    0 -0.14641487848E+02  0.58371485539E+01  0.40437334326E+02  0.43400731296E+02  0.00000000000E+00 0.  1.
         11    1    3    3    0    0 -0.24003835928E+01  0.12974371966E+01 -0.64924959700E+01  0.70425626624E+01  0.51100000000E-03 0.  1.
        -11    1    3    3    0    0 -0.65380684227E+00 -0.42049956320E+01 -0.40080833301E+01  0.58458689597E+01  0.51100000000E-03 0. -1.
         12    1    3    3    0    0  0.17695678283E+02 -0.29295901185E+01 -0.29936755026E+02  0.34898837082E+02  0.00000000000E+00 0. -1.
</event>
<event>
 7    1  0.4430431E-010  0.4778728E+02  0.7816164E-02  0.1312668E+00
        -11   -1    0    0    0    0  0.00000000000E+00  0.00000000000E+00  0.45593999997E+02  0.45594000000E+02  0.51100000000E-03 0. -1.
         11   -1    0    0    0    0 -0.00000000000E+00 -0.00000000000E+00 -0.45593999997E+02  0.45594000000E+02  0.51100000000E-03 0.  1.
    9900012    2    1    2    0    0 -0.11669173487E+02 -0.21928224400E+02  0.35589412026E+02  0.47787275541E+02  0.20000020501E+02 0.  0.
        -12    1    1    2    0    0  0.11669173487E+02  0.21928224400E+02 -0.35589412026E+02  0.43400724459E+02  0.00000000000E+00 0.  1.
         11    1    3    3    0    0 -0.31459467103E+01 -0.25870076945E+01  0.13993575367E+01  0.43067146750E+01  0.51100000000E-03 0. -1.
        -11    1    3    3    0    0  0.12795802492E+00 -0.82234437736E+01  0.21809382978E+01  0.85086951334E+01  0.51100000000E-03 0.  1.
         12    1    3    3    0    0 -0.86511848019E+01 -0.11117772932E+02  0.32009116192E+02  0.34971865732E+02  0.00000000000E+00 0. -1.
</event>
<event>
 7    1  0.4430431E-010  0.4778728E+02  0.7816164E-02  0.1312668E+00
        -11   -1    0    0    0    0  0.00000000000E+00  0.00000000000E+00  0.45593999997E+02  0.45594000000E+02  0.51100000000E-03 0. -1.
         11   -1    0    0    0    0 -0.00000000000E+00 -0.00000000000E+00 -0.45593999997E+02  0.45594000000E+02  0.51100000000E-03 0.  1.
    9900012    2    1    2    0    0 -0.18911984409E+02  0.38892550893E+02  0.36509239885E+01  0.47787275176E+02  0.20000018839E+02 0.  0.
        -12    1    1    2    0    0  0.18911984409E+02 -0.38892550893E+02 -0.36509239885E+01  0.43400724824E+02  0.00000000000E+00 0.  1.
         11    1    3    3    0    0 -0.22687226078E+01  0.13191410688E+02  0.64653134436E+01  0.14864746765E+02  0.51100000000E-03 0. -1.
        -11    1    3    3    0    0  0.29331274632E+00  0.70704961052E+01  0.18531957633E+01  0.73152089744E+01  0.51100000000E-03 0.  1.
         12    1    3    3    0    0 -0.16936574547E+02  0.18630644100E+02 -0.46675852184E+01  0.25607319437E+02  0.00000000000E+00 0. -1.
</event>
<event>
 7    1  0.4430431E-010  0.4778727E+02  0.7816164E-02  0.1312668E+00
        -11   -1    0    0    0    0  0.00000000000E+00  0.00000000000E+00  0.45593999997E+02  0.45594000000E+02  0.51100000000E-03 0. -1.
         11   -1    0    0    0    0 -0.00000000000E+00 -0.00000000000E+00 -0.45593999997E+02  0.45594000000E+02  0.51100000000E-03 0.  1.
    9900012    2    1    2    0    0  0.18993602242E+02  0.25384080226E+01  0.38941270404E+02  0.47787274406E+02  0.20000015324E+02 0.  0.
        -12    1    1    2    0    0 -0.18993602242E+02 -0.25384080226E+01 -0.38941270404E+02  0.43400725594E+02  0.00000000000E+00 0.  1.
         11    1    3    3    0    0  0.73689906533E+01  0.23349868418E+01  0.22558544881E+02  0.23846218447E+02  0.51100000000E-03 0. -1.
        -11    1    3    3    0    0  0.74307584752E+01  0.40735002374E+01  0.23523007490E+01  0.87944809270E+01  0.51100000000E-03 0.  1.
         12    1    3    3    0    0  0.41938531137E+01 -0.38700790566E+01  0.14030424774E+02  0.15146575031E+02  0.00000000000E+00 0. -1.
</event>
<event>
 7    1  0.4430431E-010  0.4778727E+02  0.7816164E-02  0.1312668E+00
        -11   -1    0    0    0    0  0.00000000000E+00  0.00000000000E+00  0.45593999997E+02  0.45594000000E+02  0.51100000000E-03 0.  1.
         11   -1    0    0    0    0 -0.00000000000E+00 -0.00000000000E+00 -0.45593999997E+02  0.45594000000E+02  0.51100000000E-03 0. -1.
    9900012    2    1    2    0    0  0.99396689271E+01 -0.22686980394E+02 -0.35638845997E+02  0.47787269111E+02  0.19999991183E+02 0.  0.
        -12    1    1    2    0    0 -0.99396689271E+01  0.22686980394E+02  0.35638845997E+02  0.43400730889E+02  0.00000000000E+00 0.  1.
         11    1    3    3    0    0  0.37526955576E+01 -0.54962130215E+01 -0.65509756285E+01  0.93384347443E+01  0.51100000000E-03 0. -1.
        -11    1    3    3    0    0 -0.15477947563E+00 -0.25173670807E+00  0.22481126911E+01  0.22674520920E+01  0.51100000000E-03 0.  1.
        -12    1    3    3    0    0  0.63417528451E+01 -0.16939030664E+02 -0.31335983059E+02  0.36181382274E+02  0.00000000000E+00 0.  1.
</event>
<event>
 7    1  0.4430431E-010  0.4778727E+02  0.7816164E-02  0.1312668E+00
        -11   -1    0    0    0    0  0.00000000000E+00  0.00000000000E+00  0.45593999997E+02  0.45594000000E+02  0.51100000000E-03 0. -1.
         11   -1    0    0    0    0 -0.00000000000E+00 -0.00000000000E+00 -0.45593999997E+02  0.45594000000E+02  0.51100000000E-03 0.  1.
    9900012    2    1    2    0    0  0.34998931012E+02 -0.25527712040E+02 -0.26521088266E+01  0.47787274946E+02  0.20000017789E+02 0.  0.
        -12    1    1    2    0    0 -0.34998931012E+02  0.25527712040E+02  0.26521088266E+01  0.43400725054E+02  0.00000000000E+00 0.  1.
         11    1    3    3    0    0  0.20621528328E+02 -0.10501037109E+02  0.42659269822E+01  0.23531199380E+02  0.51100000000E-03 0. -1.
        -11    1    3    3    0    0  0.13134309858E+02 -0.84687476130E+01 -0.15764864811E+01  0.15707166882E+02  0.51100000000E-03 0.  1.
        -12    1    3    3    0    0  0.12430928260E+01 -0.65579273172E+01 -0.53415493277E+01  0.85489086843E+01  0.00000000000E+00 0.  1.
</event>
<event>
 7    1  0.4430431E-010  0.4778727E+02  0.7816164E-02  0.1312668E+00
        -11   -1    0    0    0    0  0.00000000000E+00  0.00000000000E+00  0.45593999997E+02  0.45594000000E+02  0.51100000000E-03 0.  1.
         11   -1    0    0    0    0 -0.00000000000E+00 -0.00000000000E+00 -0.45593999997E+02  0.45594000000E+02  0.51100000000E-03 0. -1.
    9900012    2    1    2    0    0 -0.40732028421E+02 -0.66541512052E+01 -0.13425636357E+02  0.47787267527E+02  0.19999983964E+02 0.  0.
        -12    1    1    2    0    0  0.40732028421E+02  0.66541512052E+01  0.13425636357E+02  0.43400732473E+02  0.00000000000E+00 0.  1.
         11    1    3    3    0    0 -0.16386762703E+02  0.39827113988E+01  0.47297251849E+00  0.16870438205E+02  0.51100000000E-03 0. -1.
        -11    1    3    3    0    0 -0.28401375231E+01  0.25586469544E+00 -0.38709098364E+01  0.48078884258E+01  0.51100000000E-03 0.  1.
        -12    1    3    3    0    0 -0.21505128195E+02 -0.10892727299E+02 -0.10027699039E+02  0.26108940897E+02  0.00000000000E+00 0.  1.
</event>
<event>
 7    1  0.4430431E-010  0.4778727E+02  0.7816164E-02  0.1312668E+00
        -11   -1    0    0    0    0  0.00000000000E+00  0.00000000000E+00  0.45593999997E+02  0.45594000000E+02  0.51100000000E-03 0.  1.
         11   -1    0    0    0    0 -0.00000000000E+00 -0.00000000000E+00 -0.45593999997E+02  0.45594000000E+02  0.51100000000E-03 0. -1.
    9900012    2    1    2    0    0 -0.33849253801E+02 -0.25002200691E+02 -0.10617973192E+02  0.47787269856E+02  0.19999994582E+02 0.  0.
        -12    1    1    2    0    0  0.33849253801E+02  0.25002200691E+02  0.10617973192E+02  0.43400730144E+02  0.00000000000E+00 0.  1.
         11    1    3    3    0    0 -0.14106026391E+02 -0.70046482627E+01 -0.29140528957E+01  0.16016765665E+02  0.51100000000E-03 0. -1.
        -11    1    3    3    0    0 -0.44212752724E+01  0.19621465564E+01 -0.41202824758E+01  0.63540870378E+01  0.51100000000E-03 0.  1.
         12    1    3    3    0    0 -0.15321952138E+02 -0.19959698985E+02 -0.35836378210E+01  0.25416417153E+02  0.00000000000E+00 0. -1.
</event>
<event>
 7    1  0.4430431E-010  0.4778727E+02  0.7816164E-02  0.1312668E+00
        -11   -1    0    0    0    0  0.00000000000E+00  0.00000000000E+00  0.45593999997E+02  0.45594000000E+02  0.51100000000E-03 0.  1.
         11   -1    0    0    0    0 -0.00000000000E+00 -0.00000000000E+00 -0.45593999997E+02  0.45594000000E+02  0.51100000000E-03 0. -1.
    9900012    2    1    2    0    0 -0.41330681059E+02 -0.42237521450E+01  0.12552214781E+02  0.47787269880E+02  0.19999994692E+02 0.  0.
        -12    1    1    2    0    0  0.41330681059E+02  0.42237521450E+01 -0.12552214781E+02  0.43400730120E+02  0.00000000000E+00 0.  1.
         11    1    3    3    0    0 -0.13852203838E+02 -0.18549672160E+01 -0.87288020254E+00  0.14003084469E+02  0.51100000000E-03 0. -1.
        -11    1    3    3    0    0 -0.21001188944E+02 -0.78493260692E+01  0.10914997346E+02  0.24935898302E+02  0.51100000000E-03 0.  1.
         12    1    3    3    0    0 -0.64772882776E+01  0.54805411402E+01  0.25100976372E+01  0.88482871093E+01  0.00000000000E+00 0. -1.
</event>
<event>
 7    1  0.4430431E-010  0.4778730E+02  0.7816164E-02  0.1312668E+00
        -11   -1    0    0    0    0  0.00000000000E+00  0.00000000000E+00  0.45593999997E+02  0.45594000000E+02  0.51100000000E-03 0. -1.
         11   -1    0    0    0    0 -0.00000000000E+00 -0.00000000000E+00 -0.45593999997E+02  0.45594000000E+02  0.51100000000E-03 0.  1.
    9900012    2    1    2    0    0 -0.42499271939E+02  0.87426120134E+01 -0.99978639760E+00  0.47787297782E+02  0.20000121906E+02 0.  0.
        -12    1    1    2    0    0  0.42499271939E+02 -0.87426120134E+01  0.99978639760E+00  0.43400702218E+02  0.00000000000E+00 0.  1.
         11    1    3    3    0    0 -0.62303768004E+01 -0.21793520212E+01  0.36285741702E+01  0.75321790391E+01  0.51100000000E-03 0. -1.
        -11    1    3    3    0    0  0.66292692769E+00  0.17784571968E+01  0.17595923043E+00  0.19061332650E+01  0.51100000000E-03 0.  1.
         12    1    3    3    0    0 -0.36931822067E+02  0.91435068378E+01 -0.48043197983E+01  0.38348985478E+02  0.00000000000E+00 0. -1.
</event>
<event>
 7    1  0.4430431E-010  0.4778726E+02  0.7816164E-02  0.1312668E+00
        -11   -1    0    0    0    0  0.00000000000E+00  0.00000000000E+00  0.45593999997E+02  0.45594000000E+02  0.51100000000E-03 0. -1.
         11   -1    0    0    0    0 -0.00000000000E+00 -0.00000000000E+00 -0.45593999997E+02  0.45594000000E+02  0.51100000000E-03 0.  1.
    9900012    2    1    2    0    0  0.33748703319E+02  0.26173269813E+02  0.77206743352E+01  0.47787264515E+02  0.19999970232E+02 0.  0.
        -12    1    1    2    0    0 -0.33748703319E+02 -0.26173269813E+02 -0.77206743352E+01  0.43400735485E+02  0.00000000000E+00 0.  1.
         11    1    3    3    0    0  0.94272465664E+01  0.22033714822E+01  0.16134664008E+01  0.98148406916E+01  0.51100000000E-03 0. -1.
        -11    1    3    3    0    0  0.26049798745E+02  0.19192981674E+02  0.46623842251E+01  0.32690983269E+02  0.51100000000E-03 0.  1.
         12    1    3    3    0    0 -0.17283419920E+01  0.47769166562E+01  0.14448237092E+01  0.52814405547E+01  0.00000000000E+00 0. -1.
</event>
<event>
 7    1  0.4430431E-010  0.4778728E+02  0.7816164E-02  0.1312668E+00
        -11   -1    0    0    0    0  0.00000000000E+00  0.00000000000E+00  0.45593999997E+02  0.45594000000E+02  0.51100000000E-03 0.  1.
         11   -1    0    0    0    0 -0.00000000000E+00 -0.00000000000E+00 -0.45593999997E+02  0.45594000000E+02  0.51100000000E-03 0. -1.
    9900012    2    1    2    0    0  0.33212816640E+01 -0.95048277528E+01 -0.42216701437E+02  0.47787279467E+02  0.20000038404E+02 0.  0.
        -12    1    1    2    0    0 -0.33212816640E+01  0.95048277528E+01  0.42216701437E+02  0.43400720533E+02  0.00000000000E+00 0.  1.
         11    1    3    3    0    0 -0.24892183437E+01  0.21961940678E+01 -0.12924055289E+02  0.13343563307E+02  0.51100000000E-03 0. -1.
        -11    1    3    3    0    0 -0.27966534522E+01  0.81876512289E+00 -0.42617020442E+01  0.51627271313E+01  0.51100000000E-03 0.  1.
        -12    1    3    3    0    0  0.86071534598E+01 -0.12519786944E+02 -0.25030944104E+02  0.29280989029E+02  0.00000000000E+00 0.  1.
</event>
<event>
 7    1  0.4430431E-010  0.4778727E+02  0.7816164E-02  0.1312668E+00
        -11   -1    0    0    0    0  0.00000000000E+00  0.00000000000E+00  0.45593999997E+02  0.45594000000E+02  0.51100000000E-03 0.  1.
         11   -1    0    0    0    0 -0.00000000000E+00 -0.00000000000E+00 -0.45593999997E+02  0.45594000000E+02  0.51100000000E-03 0. -1.
    9900012    2    1    2    0    0  0.98485766379E+00 -0.21419389614E+02 -0.37734113005E+02  0.47787268666E+02  0.19999989154E+02 0.  0.
        -12    1    1    2    0    0 -0.98485766379E+00  0.21419389614E+02  0.37734113005E+02  0.43400731334E+02  0.00000000000E+00 0.  1.
         11    1    3    3    0    0 -0.15700668243E+00 -0.63500179837E-01 -0.79312745799E+01  0.79330826351E+01  0.51100000000E-03 0. -1.
        -11    1    3    3    0    0  0.16866848991E+01  0.18383630987E+01 -0.61642667901E+00  0.25699157463E+01  0.51100000000E-03 0.  1.
         12    1    3    3    0    0 -0.54482055288E+00 -0.23194252533E+02 -0.29186411746E+02  0.37284270284E+02  0.00000000000E+00 0. -1.
</event>
<event>
 7    1  0.4430431E-010  0.4778727E+02  0.7816164E-02  0.1312668E+00
        -11   -1    0    0    0    0  0.00000000000E+00  0.00000000000E+00  0.45593999997E+02  0.45594000000E+02  0.51100000000E-03 0.  1.
         11   -1    0    0    0    0 -0.00000000000E+00 -0.00000000000E+00 -0.45593999997E+02  0.45594000000E+02  0.51100000000E-03 0. -1.
    9900012    2    1    2    0    0 -0.50320686786E+00 -0.30826248539E+02 -0.30546889017E+02  0.47787271381E+02  0.20000001533E+02 0.  0.
        -12    1    1    2    0    0  0.50320686786E+00  0.30826248539E+02  0.30546889017E+02  0.43400728619E+02  0.00000000000E+00 0.  1.
         11    1    3    3    0    0 -0.27072658150E+01 -0.17485878020E+02 -0.10722389416E+02  0.20689486542E+02  0.51100000000E-03 0.  1.
        -11    1    3    3    0    0 -0.25471586915E+01 -0.13360710193E+02 -0.13269979505E+02  0.19002340661E+02  0.51100000000E-03 0. -1.
        -12    1    3    3    0    0  0.47512176386E+01  0.20339674764E-01 -0.65545200953E+01  0.80954441775E+01  0.00000000000E+00 0.  1.
</event>
<event>
 7    1  0.4430431E-010  0.4778727E+02  0.7816164E-02  0.1312668E+00
        -11   -1    0    0    0    0  0.00000000000E+00  0.00000000000E+00  0.45593999997E+02  0.45594000000E+02  0.51100000000E-03 0. -1.
         11   -1    0    0    0    0 -0.00000000000E+00 -0.00000000000E+00 -0.45593999997E+02  0.45594000000E+02  0.51100000000E-03 0.  1.
    9900012    2    1    2    0    0  0.18872853189E+02  0.18048876117E+02  0.34665208681E+02  0.47787271786E+02  0.20000003381E+02 0.  0.
        -12    1    1    2    0    0 -0.18872853189E+02 -0.18048876117E+02 -0.34665208681E+02  0.43400728214E+02  0.00000000000E+00 0.  1.
         11    1    3    3    0    0  0.69886392778E+01  0.11452150258E+02  0.10588160998E+02  0.17090991138E+02  0.51100000000E-03 0. -1.
        -11    1    3    3    0    0  0.12862378289E+02  0.85768334861E+01  0.23921474993E+02  0.28482271925E+02  0.51100000000E-03 0.  1.
         12    1    3    3    0    0 -0.97816437755E+00 -0.19801076275E+01  0.15557269083E+00  0.22140087236E+01  0.00000000000E+00 0. -1.
</event>
<event>
 7    1  0.4430431E-010  0.4778727E+02  0.7816164E-02  0.1312668E+00
        -11   -1    0    0    0    0  0.00000000000E+00  0.00000000000E+00  0.45593999997E+02  0.45594000000E+02  0.51100000000E-03 0.  1.
         11   -1    0    0    0    0 -0.00000000000E+00 -0.00000000000E+00 -0.45593999997E+02  0.45594000000E+02  0.51100000000E-03 0. -1.
    9900012    2    1    2    0    0 -0.23095357693E+02 -0.25770716773E+02 -0.26193471406E+02  0.47787270349E+02  0.19999996829E+02 0.  0.
        -12    1    1    2    0    0  0.23095357693E+02  0.25770716773E+02  0.26193471406E+02  0.43400729651E+02  0.00000000000E+00 0.  1.
         11    1    3    3    0    0 -0.21218194022E+02 -0.17785836910E+02 -0.24500856685E+02  0.36970795646E+02  0.51100000000E-03 0. -1.
        -11    1    3    3    0    0 -0.40560638880E+01 -0.61099834740E+01 -0.26329746963E+01  0.77920541790E+01  0.51100000000E-03 0.  1.
         12    1    3    3    0    0  0.21789002166E+01 -0.18748963881E+01  0.94035997556E+00  0.30244205236E+01  0.00000000000E+00 0. -1.
</event>
<event>
 7    1  0.4430431E-010  0.4778727E+02  0.7816164E-02  0.1312668E+00
        -11   -1    0    0    0    0  0.00000000000E+00  0.00000000000E+00  0.45593999997E+02  0.45594000000E+02  0.51100000000E-03 0.  1.
         11   -1    0    0    0    0 -0.00000000000E+00 -0.00000000000E+00 -0.45593999997E+02  0.45594000000E+02  0.51100000000E-03 0. -1.
    9900012    2    1    2    0    0  0.24414873817E+02 -0.85574062693E+01 -0.34846920353E+02  0.47787272775E+02  0.20000007890E+02 0.  0.
        -12    1    1    2    0    0 -0.24414873817E+02  0.85574062693E+01  0.34846920353E+02  0.43400727225E+02  0.00000000000E+00 0.  1.
         11    1    3    3    0    0  0.11356275078E+00  0.31498602339E+01 -0.70604680629E+01  0.77320582978E+01  0.51100000000E-03 0. -1.
        -11    1    3    3    0    0  0.59869396716E+01 -0.69401886897E+01 -0.13614587874E+02  0.16412393760E+02  0.51100000000E-03 0.  1.
        -12    1    3    3    0    0  0.18314371394E+02 -0.47670778136E+01 -0.14171864416E+02  0.23642820718E+02  0.00000000000E+00 0.  1.
</event>
<event>
 7    1  0.4430431E-010  0.4778727E+02  0.7816164E-02  0.1312668E+00
        -11   -1    0    0    0    0  0.00000000000E+00  0.00000000000E+00  0.45593999997E+02  0.45594000000E+02  0.51100000000E-03 0. -1.
         11   -1    0    0    0    0 -0.00000000000E+00 -0.00000000000E+00 -0.45593999997E+02  0.45594000000E+02  0.51100000000E-03 0.  1.
    9900012    2    1    2    0    0  0.29539065106E+02  0.31010511648E+02 -0.70295853220E+01  0.47787271091E+02  0.20000000212E+02 0.  0.
        -12    1    1    2    0    0 -0.29539065106E+02 -0.31010511648E+02  0.70295853220E+01  0.43400728909E+02  0.00000000000E+00 0.  1.
         11    1    3    3    0    0  0.20399448345E+01  0.63745870346E+01 -0.37700491707E+01  0.76817970423E+01  0.51100000000E-03 0. -1.
        -11    1    3    3    0    0  0.81694085616E+01  0.98428658405E+01 -0.82999870456E+01  0.15248312347E+02  0.51100000000E-03 0.  1.
         12    1    3    3    0    0  0.19329711710E+02  0.14793058773E+02  0.50404508942E+01  0.24857161702E+02  0.00000000000E+00 0. -1.
</event>
<event>
 7    1  0.4430431E-010  0.4778728E+02  0.7816164E-02  0.1312668E+00
        -11   -1    0    0    0    0  0.00000000000E+00  0.00000000000E+00  0.45593999997E+02  0.45594000000E+02  0.51100000000E-03 0. -1.
         11   -1    0    0    0    0 -0.00000000000E+00 -0.00000000000E+00 -0.45593999997E+02  0.45594000000E+02  0.51100000000E-03 0.  1.
    9900012    2    1    2    0    0  0.36756701533E+02 -0.21327836771E+02 -0.88142558234E+01  0.47787276104E+02  0.20000023070E+02 0.  0.
        -12    1    1    2    0    0 -0.36756701533E+02  0.21327836771E+02  0.88142558234E+01  0.43400723896E+02  0.00000000000E+00 0.  1.
         11    1    3    3    0    0  0.38831524688E+00  0.49504518052E-01  0.31867052972E+01  0.32106588639E+01  0.51100000000E-03 0. -1.
        -11    1    3    3    0    0  0.46581522675E+01 -0.20495014472E+00 -0.24616350773E+01  0.52725738140E+01  0.51100000000E-03 0.  1.
        -12    1    3    3    0    0  0.31710234019E+02 -0.21172391145E+02 -0.95393260433E+01  0.39304043426E+02  0.00000000000E+00 0.  1.
</event>
<event>
 7    1  0.4430431E-010  0.4778728E+02  0.7816164E-02  0.1312668E+00
        -11   -1    0    0    0    0  0.00000000000E+00  0.00000000000E+00  0.45593999997E+02  0.45594000000E+02  0.51100000000E-03 0.  1.
         11   -1    0    0    0    0 -0.00000000000E+00 -0.00000000000E+00 -0.45593999997E+02  0.45594000000E+02  0.51100000000E-03 0. -1.
    9900012    2    1    2    0    0  0.11616773230E+02 -0.28890224869E+02 -0.30232896843E+02  0.47787279214E+02  0.20000037248E+02 0.  0.
        -12    1    1    2    0    0 -0.11616773230E+02  0.28890224869E+02  0.30232896843E+02  0.43400720786E+02  0.00000000000E+00 0.  1.
         11    1    3    3    0    0  0.80710902959E+01 -0.95359457656E+01 -0.88699143035E+01  0.15321623289E+02  0.51100000000E-03 0. -1.
        -11    1    3    3    0    0 -0.25521813546E+00 -0.54827843346E+01  0.12845346609E+01  0.56370284648E+01  0.51100000000E-03 0.  1.
         12    1    3    3    0    0  0.38009010691E+01 -0.13871494769E+02 -0.22647517200E+02  0.26828627460E+02  0.00000000000E+00 0. -1.
</event>
<event>
 7    1  0.4430431E-010  0.4778727E+02  0.7816164E-02  0.1312668E+00
        -11   -1    0    0    0    0  0.00000000000E+00  0.00000000000E+00  0.45593999997E+02  0.45594000000E+02  0.51100000000E-03 0. -1.
         11   -1    0    0    0    0 -0.00000000000E+00 -0.00000000000E+00 -0.45593999997E+02  0.45594000000E+02  0.51100000000E-03 0.  1.
    9900012    2    1    2    0    0 -0.84586903284E+00 -0.18316266227E+02  0.39337290124E+02  0.47787268471E+02  0.19999988266E+02 0.  0.
        -12    1    1    2    0    0  0.84586903284E+00  0.18316266227E+02 -0.39337290124E+02  0.43400731529E+02  0.00000000000E+00 0.  1.
         11    1    3    3    0    0  0.70839838670E+01 -0.12157640261E+02  0.21188093979E+02  0.25434747313E+02  0.51100000000E-03 0. -1.
        -11    1    3    3    0    0 -0.14273685065E+01 -0.21576935580E+01 -0.80799280244E-01  0.25883491126E+01  0.51100000000E-03 0.  1.
         12    1    3    3    0    0 -0.65024843934E+01 -0.40009324079E+01  0.18229995426E+02  0.19764172046E+02  0.00000000000E+00 0. -1.
</event>
<event>
 7    1  0.4430431E-010  0.4778728E+02  0.7816164E-02  0.1312668E+00
        -11   -1    0    0    0    0  0.00000000000E+00  0.00000000000E+00  0.45593999997E+02  0.45594000000E+02  0.51100000000E-03 0.  1.
         11   -1    0    0    0    0 -0.00000000000E+00 -0.00000000000E+00 -0.45593999997E+02  0.45594000000E+02  0.51100000000E-03 0. -1.
    9900012    2    1    2    0    0  0.35854072232E+01 -0.70966638939E+01 -0.42666205529E+02  0.47787275609E+02  0.20000020813E+02 0.  0.
        -12    1    1    2    0    0 -0.35854072232E+01  0.70966638939E+01  0.42666205529E+02  0.43400724391E+02  0.00000000000E+00 0.  1.
         11    1    3    3    0    0  0.45932003954E+01  0.27015760052E+00 -0.56246633381E+01  0.72668640368E+01  0.51100000000E-03 0. -1.
        -11    1    3    3    0    0  0.31947257237E+01  0.92586801972E+00 -0.25425586410E+02  0.25642229790E+02  0.51100000000E-03 0.  1.
        -12    1    3    3    0    0 -0.42025188959E+01 -0.82926895141E+01 -0.11615955781E+02  0.14878181783E+02  0.00000000000E+00 0.  1.
</event>
<event>
 7    1  0.4430431E-010  0.4778724E+02  0.7816164E-02  0.1312668E+00
        -11   -1    0    0    0    0  0.00000000000E+00  0.00000000000E+00  0.45593999997E+02  0.45594000000E+02  0.51100000000E-03 0. -1.
         11   -1    0    0    0    0 -0.00000000000E+00 -0.00000000000E+00 -0.45593999997E+02  0.45594000000E+02  0.51100000000E-03 0.  1.
    9900012    2    1    2    0    0 -0.51058449958E+01  0.43067000768E+02 -0.16702195285E+01  0.47787241464E+02  0.19999865130E+02 0.  0.
        -12    1    1    2    0    0  0.51058449958E+01 -0.43067000768E+02  0.16702195285E+01  0.43400758536E+02  0.00000000000E+00 0.  1.
         11    1    3    3    0    0 -0.11573775990E+01  0.16802985350E+02  0.22114686661E+01  0.16987360992E+02  0.51100000000E-03 0. -1.
        -11    1    3    3    0    0  0.43364183132E+01  0.17741465608E+02 -0.47838064576E+01  0.18879855142E+02  0.51100000000E-03 0.  1.
         12    1    3    3    0    0 -0.82848857100E+01  0.85225498100E+01  0.90211826302E+00  0.11920025329E+02  0.00000000000E+00 0. -1.
</event>
<event>
 7    1  0.4430431E-010  0.4778726E+02  0.7816164E-02  0.1312668E+00
        -11   -1    0    0    0    0  0.00000000000E+00  0.00000000000E+00  0.45593999997E+02  0.45594000000E+02  0.51100000000E-03 0.  1.
         11   -1    0    0    0    0 -0.00000000000E+00 -0.00000000000E+00 -0.45593999997E+02  0.45594000000E+02  0.51100000000E-03 0. -1.
    9900012    2    1    2    0    0 -0.23276238012E+02  0.32602977535E+02 -0.16699892716E+02  0.47787264789E+02  0.19999971478E+02 0.  0.
        -12    1    1    2    0    0  0.23276238012E+02 -0.32602977535E+02  0.16699892716E+02  0.43400735211E+02  0.00000000000E+00 0.  1.
         11    1    3    3    0    0 -0.11122476066E+02  0.13485754976E+02 -0.28827496522E+01  0.17716808599E+02  0.51100000000E-03 0. -1.
        -11    1    3    3    0    0  0.21620215632E+00  0.33704710730E+01  0.25307061387E+01  0.42203426932E+01  0.51100000000E-03 0.  1.
         12    1    3    3    0    0 -0.12369964102E+02  0.15746751486E+02 -0.16347849202E+02  0.25850113497E+02  0.00000000000E+00 0. -1.
</event>
<event>
 7    1  0.4430431E-010  0.4778727E+02  0.7816164E-02  0.1312668E+00
        -11   -1    0    0    0    0  0.00000000000E+00  0.00000000000E+00  0.45593999997E+02  0.45594000000E+02  0.51100000000E-03 0.  1.
         11   -1    0    0    0    0 -0.00000000000E+00 -0.00000000000E+00 -0.45593999997E+02  0.45594000000E+02  0.51100000000E-03 0. -1.
    9900012    2    1    2    0    0  0.19629369036E+02 -0.17802856006E+02 -0.34371053716E+02  0.47787272537E+02  0.20000006807E+02 0.  0.
        -12    1    1    2    0    0 -0.19629369036E+02  0.17802856006E+02  0.34371053716E+02  0.43400727463E+02  0.00000000000E+00 0.  1.
         11    1    3    3    0    0  0.49149181194E+01 -0.25261261120E+01 -0.21645004423E+02  0.22339291618E+02  0.51100000000E-03 0. -1.
        -11    1    3    3    0    0  0.54142229010E-01 -0.24521107361E+01 -0.22647020546E+01  0.33383609901E+01  0.51100000000E-03 0.  1.
         12    1    3    3    0    0  0.14660308688E+02 -0.12824619157E+02 -0.10461347238E+02  0.22109619929E+02  0.00000000000E+00 0. -1.
</event>
<event>
 7    1  0.4430431E-010  0.4778727E+02  0.7816164E-02  0.1312668E+00
        -11   -1    0    0    0    0  0.00000000000E+00  0.00000000000E+00  0.45593999997E+02  0.45594000000E+02  0.51100000000E-03 0.  1.
         11   -1    0    0    0    0 -0.00000000000E+00 -0.00000000000E+00 -0.45593999997E+02  0.45594000000E+02  0.51100000000E-03 0. -1.
    9900012    2    1    2    0    0  0.15722692728E+02  0.35987793571E+02 -0.18474288876E+02  0.47787266110E+02  0.19999977502E+02 0.  0.
        -12    1    1    2    0    0 -0.15722692728E+02 -0.35987793571E+02  0.18474288876E+02  0.43400733890E+02  0.00000000000E+00 0.  1.
         11    1    3    3    0    0  0.11280459127E+02  0.18503342254E+02 -0.76487402110E+01  0.22980984743E+02  0.51100000000E-03 0. -1.
        -11    1    3    3    0    0 -0.10123984074E+01  0.15875011557E+01  0.26593840916E+01  0.32584404955E+01  0.51100000000E-03 0.  1.
         12    1    3    3    0    0  0.54546320086E+01  0.15896950162E+02 -0.13484932756E+02  0.21547840872E+02  0.00000000000E+00 0. -1.
</event>
<event>
 7    1  0.4430431E-010  0.4778727E+02  0.7816164E-02  0.1312668E+00
        -11   -1    0    0    0    0  0.00000000000E+00  0.00000000000E+00  0.45593999997E+02  0.45594000000E+02  0.51100000000E-03 0.  1.
         11   -1    0    0    0    0 -0.00000000000E+00 -0.00000000000E+00 -0.45593999997E+02  0.45594000000E+02  0.51100000000E-03 0. -1.
    9900012    2    1    2    0    0 -0.88160777339E+01  0.39671258932E+02 -0.15234552530E+02  0.47787267257E+02  0.19999982731E+02 0.  0.
        -12    1    1    2    0    0  0.88160777339E+01 -0.39671258932E+02  0.15234552530E+02  0.43400732743E+02  0.00000000000E+00 0.  1.
         11    1    3    3    0    0 -0.17384907859E+00 -0.16876472195E+00 -0.14469225495E+01  0.14670685597E+01  0.51100000000E-03 0. -1.
        -11    1    3    3    0    0 -0.36216402167E+01  0.37867502162E+02 -0.89601672238E+01  0.39081307486E+02  0.51100000000E-03 0.  1.
        -12    1    3    3    0    0 -0.50205884386E+01  0.19725214914E+01 -0.48274627563E+01  0.72388912112E+01  0.00000000000E+00 0.  1.
</event>
<event>
 7    1  0.4430431E-010  0.4778728E+02  0.7816164E-02  0.1312668E+00
        -11   -1    0    0    0    0  0.00000000000E+00  0.00000000000E+00  0.45593999997E+02  0.45594000000E+02  0.51100000000E-03 0.  1.
         11   -1    0    0    0    0 -0.00000000000E+00 -0.00000000000E+00 -0.45593999997E+02  0.45594000000E+02  0.51100000000E-03 0. -1.
    9900012    2    1    2    0    0 -0.14243673988E+02  0.23922973033E+02 -0.33293120961E+02  0.47787276611E+02  0.20000025378E+02 0.  0.
        -12    1    1    2    0    0  0.14243673988E+02 -0.23922973033E+02  0.33293120961E+02  0.43400723389E+02  0.00000000000E+00 0.  1.
         11    1    3    3    0    0 -0.10032820211E+02  0.67205884707E+00 -0.12495705900E+02  0.16039071379E+02  0.51100000000E-03 0. -1.
        -11    1    3    3    0    0  0.21377152099E+00  0.43370936503E+01 -0.55926175478E+01  0.70804979268E+01  0.51100000000E-03 0.  1.
         12    1    3    3    0    0 -0.44246252980E+01  0.18913820536E+02 -0.15204797512E+02  0.24667707305E+02  0.00000000000E+00 0. -1.
</event>
<event>
 7    1  0.4430431E-010  0.4778727E+02  0.7816164E-02  0.1312668E+00
        -11   -1    0    0    0    0  0.00000000000E+00  0.00000000000E+00  0.45593999997E+02  0.45594000000E+02  0.51100000000E-03 0.  1.
         11   -1    0    0    0    0 -0.00000000000E+00 -0.00000000000E+00 -0.45593999997E+02  0.45594000000E+02  0.51100000000E-03 0. -1.
    9900012    2    1    2    0    0 -0.32069870353E+02 -0.29004042885E+02 -0.37299371913E+01  0.47787268214E+02  0.19999987093E+02 0.  0.
        -12    1    1    2    0    0  0.32069870353E+02  0.29004042885E+02  0.37299371913E+01  0.43400731786E+02  0.00000000000E+00 0.  1.
         11    1    3    3    0    0 -0.64616276333E+01 -0.69515538191E+01  0.10628893424E+01  0.95502076515E+01  0.51100000000E-03 0. -1.
        -11    1    3    3    0    0 -0.14291402416E+02 -0.12729708511E+02  0.59703363885E+01  0.20048306129E+02  0.51100000000E-03 0.  1.
         12    1    3    3    0    0 -0.11316840305E+02 -0.93227805547E+01 -0.10763162922E+02  0.18188754433E+02  0.00000000000E+00 0. -1.
</event>
<event>
 7    1  0.4430431E-010  0.4778727E+02  0.7816164E-02  0.1312668E+00
        -11   -1    0    0    0    0  0.00000000000E+00  0.00000000000E+00  0.45593999997E+02  0.45594000000E+02  0.51100000000E-03 0.  1.
         11   -1    0    0    0    0 -0.00000000000E+00 -0.00000000000E+00 -0.45593999997E+02  0.45594000000E+02  0.51100000000E-03 0. -1.
    9900012    2    1    2    0    0  0.40920328628E+02  0.14353994916E+02 -0.17643783909E+01  0.47787268483E+02  0.19999988323E+02 0.  0.
        -12    1    1    2    0    0 -0.40920328628E+02 -0.14353994916E+02  0.17643783909E+01  0.43400731517E+02  0.00000000000E+00 0.  1.
         11    1    3    3    0    0  0.27948889847E+02  0.27895142679E+01 -0.18166140120E+01  0.28146437079E+02  0.51100000000E-03 0. -1.
        -11    1    3    3    0    0  0.10214241121E+02  0.43422482370E+01  0.27822267979E+01  0.11442317407E+02  0.51100000000E-03 0.  1.
        -12    1    3    3    0    0  0.27571976603E+01  0.72222324108E+01 -0.27299911768E+01  0.81985139970E+01  0.00000000000E+00 0.  1.
</event>
<event>
 7    1  0.4430431E-010  0.4778730E+02  0.7816164E-02  0.1312668E+00
        -11   -1    0    0    0    0  0.00000000000E+00  0.00000000000E+00  0.45593999997E+02  0.45594000000E+02  0.51100000000E-03 0.  1.
         11   -1    0    0    0    0 -0.00000000000E+00 -0.00000000000E+00 -0.45593999997E+02  0.45594000000E+02  0.51100000000E-03 0. -1.
    9900012    2    1    2    0    0  0.12008471244E+02 -0.31970638927E+02 -0.26782380126E+02  0.47787297008E+02  0.20000118378E+02 0.  0.
        -12    1    1    2    0    0 -0.12008471244E+02  0.31970638927E+02  0.26782380126E+02  0.43400702992E+02  0.00000000000E+00 0.  1.
         11    1    3    3    0    0 -0.93833252818E-01 -0.17182044233E+02 -0.99235885874E+01  0.19842103200E+02  0.51100000000E-03 0. -1.
        -11    1    3    3    0    0  0.91121517062E+01 -0.13542467164E+02 -0.73526694335E+01  0.17902275656E+02  0.51100000000E-03 0.  1.
         12    1    3    3    0    0  0.29901527902E+01 -0.12461275300E+01 -0.95061221049E+01  0.10042918152E+02  0.00000000000E+00 0. -1.
</event>
<event>
 7    1  0.4430431E-010  0.4778727E+02  0.7816164E-02  0.1312668E+00
        -11   -1    0    0    0    0  0.00000000000E+00  0.00000000000E+00  0.45593999997E+02  0.45594000000E+02  0.51100000000E-03 0.  1.
         11   -1    0    0    0    0 -0.00000000000E+00 -0.00000000000E+00 -0.45593999997E+02  0.45594000000E+02  0.51100000000E-03 0. -1.
    9900012    2    1    2    0    0  0.36137167138E+02 -0.24030343255E+02 -0.52050731109E+00  0.47787272200E+02  0.20000005268E+02 0.  0.
        -12    1    1    2    0    0 -0.36137167138E+02  0.24030343255E+02  0.52050731109E+00  0.43400727800E+02  0.00000000000E+00 0.  1.
         11    1    3    3    0    0  0.55649684631E+01 -0.64602626701E+01 -0.75795990427E+01  0.11408513912E+02  0.51100000000E-03 0. -1.
        -11    1    3    3    0    0  0.62107047227E+00 -0.12540260908E+01  0.10429192530E+01  0.17452767108E+01  0.51100000000E-03 0.  1.
        -12    1    3    3    0    0  0.29951128203E+02 -0.16316054494E+02  0.60161724787E+01  0.34633481577E+02  0.00000000000E+00 0.  1.
</event>
<event>
 7    1  0.4430431E-010  0.4778727E+02  0.7816164E-02  0.1312668E+00
        -11   -1    0    0    0    0  0.00000000000E+00  0.00000000000E+00  0.45593999997E+02  0.45594000000E+02  0.51100000000E-03 0. -1.
         11   -1    0    0    0    0 -0.00000000000E+00 -0.00000000000E+00 -0.45593999997E+02  0.45594000000E+02  0.51100000000E-03 0.  1.
    9900012    2    1    2    0    0 -0.26169863651E+01  0.27498111074E+02  0.33475791240E+02  0.47787270405E+02  0.19999997085E+02 0.  0.
        -12    1    1    2    0    0  0.26169863651E+01 -0.27498111074E+02 -0.33475791240E+02  0.43400729595E+02  0.00000000000E+00 0.  1.
         11    1    3    3    0    0  0.16970121729E+01  0.57741896986E+01  0.75972263288E+01  0.96922115713E+01  0.51100000000E-03 0. -1.
        -11    1    3    3    0    0 -0.24014101339E+01 -0.15917208758E+01  0.84355522012E+01  0.89139714593E+01  0.51100000000E-03 0.  1.
        -12    1    3    3    0    0 -0.19125884041E+01  0.23315642251E+02  0.17443012710E+02  0.29181087375E+02  0.00000000000E+00 0.  1.
</event>
<event>
 7    1  0.4430431E-010  0.4778727E+02  0.7816164E-02  0.1312668E+00
        -11   -1    0    0    0    0  0.00000000000E+00  0.00000000000E+00  0.45593999997E+02  0.45594000000E+02  0.51100000000E-03 0.  1.
         11   -1    0    0    0    0 -0.00000000000E+00 -0.00000000000E+00 -0.45593999997E+02  0.45594000000E+02  0.51100000000E-03 0. -1.
    9900012    2    1    2    0    0  0.64910231593E+01 -0.34844603794E+02 -0.25046826926E+02  0.47787270349E+02  0.19999996828E+02 0.  0.
        -12    1    1    2    0    0 -0.64910231593E+01  0.34844603794E+02  0.25046826926E+02  0.43400729651E+02  0.00000000000E+00 0.  1.
         11    1    3    3    0    0 -0.31293137726E+01 -0.88194554154E+00 -0.15950086012E-01  0.32512593394E+01  0.51100000000E-03 0. -1.
        -11    1    3    3    0    0 -0.65693287354E-01 -0.16362168915E+02 -0.80706486937E+01  0.18244458277E+02  0.51100000000E-03 0.  1.
         12    1    3    3    0    0  0.96860302192E+01 -0.17600489337E+02 -0.16960228146E+02  0.26291552732E+02  0.00000000000E+00 0. -1.
</event>
<event>
 7    1  0.4430431E-010  0.4778727E+02  0.7816164E-02  0.1312668E+00
        -11   -1    0    0    0    0  0.00000000000E+00  0.00000000000E+00  0.45593999997E+02  0.45594000000E+02  0.51100000000E-03 0.  1.
         11   -1    0    0    0    0 -0.00000000000E+00 -0.00000000000E+00 -0.45593999997E+02  0.45594000000E+02  0.51100000000E-03 0. -1.
    9900012    2    1    2    0    0  0.37516486639E+02 -0.13604160678E+02 -0.17060579390E+02  0.47787270437E+02  0.19999997231E+02 0.  0.
        -12    1    1    2    0    0 -0.37516486639E+02  0.13604160678E+02  0.17060579390E+02  0.43400729563E+02  0.00000000000E+00 0.  1.
         11    1    3    3    0    0  0.15518618954E+02  0.12260964421E+01 -0.12413142544E+02  0.19910222369E+02  0.51100000000E-03 0. -1.
        -11    1    3    3    0    0  0.34966826092E+01 -0.13559947810E+01  0.17113272119E+01  0.41223964151E+01  0.51100000000E-03 0.  1.
         12    1    3    3    0    0  0.18501185076E+02 -0.13474262339E+02 -0.63587640577E+01  0.23754651653E+02  0.00000000000E+00 0. -1.
</event>
<event>
 7    1  0.4430431E-010  0.4778727E+02  0.7816164E-02  0.1312668E+00
        -11   -1    0    0    0    0  0.00000000000E+00  0.00000000000E+00  0.45593999997E+02  0.45594000000E+02  0.51100000000E-03 0.  1.
         11   -1    0    0    0    0 -0.00000000000E+00 -0.00000000000E+00 -0.45593999997E+02  0.45594000000E+02  0.51100000000E-03 0. -1.
    9900012    2    1    2    0    0 -0.38370679604E+02 -0.18163633669E+02  0.90220046753E+01  0.47787271784E+02  0.20000003370E+02 0.  0.
        -12    1    1    2    0    0  0.38370679604E+02  0.18163633669E+02 -0.90220046753E+01  0.43400728216E+02  0.00000000000E+00 0.  1.
         11    1    3    3    0    0 -0.10106857366E+02 -0.37076652927E+01 -0.10157947177E+01  0.10813287517E+02  0.51100000000E-03 0. -1.
        -11    1    3    3    0    0 -0.21275363412E+02 -0.16979539959E+02  0.11235449606E+02  0.29447940398E+02  0.51100000000E-03 0.  1.
        -12    1    3    3    0    0 -0.69884588255E+01  0.25235715826E+01 -0.11976502135E+01  0.75260438693E+01  0.00000000000E+00 0.  1.
</event>
<event>
 7    1  0.4430431E-010  0.4778727E+02  0.7816164E-02  0.1312668E+00
        -11   -1    0    0    0    0  0.00000000000E+00  0.00000000000E+00  0.45593999997E+02  0.45594000000E+02  0.51100000000E-03 0.  1.
         11   -1    0    0    0    0 -0.00000000000E+00 -0.00000000000E+00 -0.45593999997E+02  0.45594000000E+02  0.51100000000E-03 0. -1.
    9900012    2    1    2    0    0  0.36241876653E+02  0.23195731594E+02 -0.56663702396E+01  0.47787270292E+02  0.19999996567E+02 0.  0.
        -12    1    1    2    0    0 -0.36241876653E+02 -0.23195731594E+02  0.56663702396E+01  0.43400729708E+02  0.00000000000E+00 0.  1.
         11    1    3    3    0    0  0.55229006176E+01  0.83847209568E+01 -0.16501538206E+01  0.10174919393E+02  0.51100000000E-03 0. -1.
        -11    1    3    3    0    0  0.54843997382E+00  0.47081920376E+01  0.21473484591E+01  0.52037452218E+01  0.51100000000E-03 0.  1.
         12    1    3    3    0    0  0.30170536062E+02  0.10102818600E+02 -0.61635648781E+01  0.32408605677E+02  0.00000000000E+00 0. -1.
</event>
<event>
 7    1  0.4430431E-010  0.4778727E+02  0.7816164E-02  0.1312668E+00
        -11   -1    0    0    0    0  0.00000000000E+00  0.00000000000E+00  0.45593999997E+02  0.45594000000E+02  0.51100000000E-03 0.  1.
         11   -1    0    0    0    0 -0.00000000000E+00 -0.00000000000E+00 -0.45593999997E+02  0.45594000000E+02  0.51100000000E-03 0. -1.
    9900012    2    1    2    0    0  0.31407182899E+02 -0.10265246501E+02 -0.28139595481E+02  0.47787271237E+02  0.20000000876E+02 0.  0.
        -12    1    1    2    0    0 -0.31407182899E+02  0.10265246501E+02  0.28139595481E+02  0.43400728763E+02  0.00000000000E+00 0.  1.
         11    1    3    3    0    0  0.27643002780E+01  0.26156882264E+01  0.23361195088E+00  0.38128409001E+01  0.51100000000E-03 0.  1.
        -11    1    3    3    0    0 -0.72168561741E+00 -0.61070742015E+00  0.44094978974E+00  0.10431829473E+01  0.51100000000E-03 0. -1.
         12    1    3    3    0    0  0.29364568238E+02 -0.12270227307E+02 -0.28814157222E+02  0.42931247389E+02  0.00000000000E+00 0. -1.
</event>
<event>
 7    1  0.4430431E-010  0.4778727E+02  0.7816164E-02  0.1312668E+00
        -11   -1    0    0    0    0  0.00000000000E+00  0.00000000000E+00  0.45593999997E+02  0.45594000000E+02  0.51100000000E-03 0.  1.
         11   -1    0    0    0    0 -0.00000000000E+00 -0.00000000000E+00 -0.45593999997E+02  0.45594000000E+02  0.51100000000E-03 0. -1.
    9900012    2    1    2    0    0 -0.17221953538E+02 -0.35480215916E+02 -0.18115789187E+02  0.47787271631E+02  0.20000002675E+02 0.  0.
        -12    1    1    2    0    0  0.17221953538E+02  0.35480215916E+02  0.18115789187E+02  0.43400728369E+02  0.00000000000E+00 0.  1.
         11    1    3    3    0    0 -0.76009047456E+01 -0.12643383987E+02 -0.88718797781E+01  0.17214504427E+02  0.51100000000E-03 0. -1.
        -11    1    3    3    0    0  0.77040295395E+00 -0.15961996819E+02 -0.84762521581E+01  0.18089381252E+02  0.51100000000E-03 0.  1.
         12    1    3    3    0    0 -0.10391451747E+02 -0.68748351089E+01 -0.76765725046E+00  0.12483385952E+02  0.00000000000E+00 0. -1.
</event>
<event>
 7    1  0.4430431E-010  0.4778727E+02  0.7816164E-02  0.1312668E+00
        -11   -1    0    0    0    0  0.00000000000E+00  0.00000000000E+00  0.45593999997E+02  0.45594000000E+02  0.51100000000E-03 0.  1.
         11   -1    0    0    0    0 -0.00000000000E+00 -0.00000000000E+00 -0.45593999997E+02  0.45594000000E+02  0.51100000000E-03 0. -1.
    9900012    2    1    2    0    0  0.28691501289E+02  0.31560902006E+02  0.80206178770E+01  0.47787273131E+02  0.20000009511E+02 0.  0.
        -12    1    1    2    0    0 -0.28691501289E+02 -0.31560902006E+02 -0.80206178770E+01  0.43400726869E+02  0.00000000000E+00 0.  1.
         11    1    3    3    0    0 -0.20387546898E-01  0.37184205357E+01 -0.10251363427E+01  0.38571973912E+01  0.51100000000E-03 0. -1.
        -11    1    3    3    0    0 -0.17206011782E+01  0.26346914153E+01  0.21630090341E+01  0.38184650857E+01  0.51100000000E-03 0.  1.
         12    1    3    3    0    0  0.30432490014E+02  0.25207790055E+02  0.68827451855E+01  0.40111610654E+02  0.00000000000E+00 0. -1.
</event>
<event>
 7    1  0.4430431E-010  0.4778727E+02  0.7816164E-02  0.1312668E+00
        -11   -1    0    0    0    0  0.00000000000E+00  0.00000000000E+00  0.45593999997E+02  0.45594000000E+02  0.51100000000E-03 0.  1.
         11   -1    0    0    0    0 -0.00000000000E+00 -0.00000000000E+00 -0.45593999997E+02  0.45594000000E+02  0.51100000000E-03 0. -1.
    9900012    2    1    2    0    0  0.78779988343E+01  0.20791843333E+02 -0.37272769419E+02  0.47787274718E+02  0.20000016750E+02 0.  0.
        -12    1    1    2    0    0 -0.78779988343E+01 -0.20791843333E+02  0.37272769419E+02  0.43400725282E+02  0.00000000000E+00 0.  1.
         11    1    3    3    0    0  0.50744314154E+01 -0.15850587650E+01 -0.47414957534E+01  0.71234856439E+01  0.51100000000E-03 0. -1.
        -11    1    3    3    0    0  0.24383114150E+01  0.76202563656E+01 -0.19093976761E+02  0.20702502710E+02  0.51100000000E-03 0.  1.
        -12    1    3    3    0    0  0.36525600391E+00  0.14756645732E+02 -0.13437296904E+02  0.19961286364E+02  0.00000000000E+00 0.  1.
</event>
<event>
 7    1  0.4430431E-010  0.4778727E+02  0.7816164E-02  0.1312668E+00
        -11   -1    0    0    0    0  0.00000000000E+00  0.00000000000E+00  0.45593999997E+02  0.45594000000E+02  0.51100000000E-03 0. -1.
         11   -1    0    0    0    0 -0.00000000000E+00 -0.00000000000E+00 -0.45593999997E+02  0.45594000000E+02  0.51100000000E-03 0.  1.
    9900012    2    1    2    0    0  0.23173606443E+02  0.27012644838E+02 -0.24837959368E+02  0.47787271408E+02  0.20000001659E+02 0.  0.
        -12    1    1    2    0    0 -0.23173606443E+02 -0.27012644838E+02  0.24837959368E+02  0.43400728592E+02  0.00000000000E+00 0.  1.
         11    1    3    3    0    0  0.61836736802E+01  0.91581957989E+01 -0.10129860637E+02  0.14990812095E+02  0.51100000000E-03 0. -1.
        -11    1    3    3    0    0  0.18711230911E+02  0.19076290899E+02 -0.15034888227E+02  0.30660445217E+02  0.51100000000E-03 0.  1.
        -12    1    3    3    0    0 -0.17212981476E+01 -0.12218418598E+01  0.32678949666E+00  0.21360140960E+01  0.00000000000E+00 0.  1.
</event>
<event>
 7    1  0.4430431E-010  0.4778727E+02  0.7816164E-02  0.1312668E+00
        -11   -1    0    0    0    0  0.00000000000E+00  0.00000000000E+00  0.45593999997E+02  0.45594000000E+02  0.51100000000E-03 0. -1.
         11   -1    0    0    0    0 -0.00000000000E+00 -0.00000000000E+00 -0.45593999997E+02  0.45594000000E+02  0.51100000000E-03 0.  1.
    9900012    2    1    2    0    0  0.16459968256E+02 -0.15275235168E+02  0.37139735722E+02  0.47787270353E+02  0.19999996847E+02 0.  0.
        -12    1    1    2    0    0 -0.16459968256E+02  0.15275235168E+02 -0.37139735722E+02  0.43400729647E+02  0.00000000000E+00 0.  1.
         11    1    3    3    0    0  0.91544950255E+01 -0.10157547455E+02  0.25483433265E+02  0.28920337493E+02  0.51100000000E-03 0. -1.
        -11    1    3    3    0    0  0.34175032246E+01  0.13014889834E+01  0.10692409168E+02  0.11300478572E+02  0.51100000000E-03 0.  1.
         12    1    3    3    0    0  0.38879700062E+01 -0.64191766956E+01  0.96389328779E+00  0.75664542877E+01  0.00000000000E+00 0. -1.
</event>
<event>
 7    1  0.4430431E-010  0.4778727E+02  0.7816164E-02  0.1312668E+00
        -11   -1    0    0    0    0  0.00000000000E+00  0.00000000000E+00  0.45593999997E+02  0.45594000000E+02  0.51100000000E-03 0.  1.
         11   -1    0    0    0    0 -0.00000000000E+00 -0.00000000000E+00 -0.45593999997E+02  0.45594000000E+02  0.51100000000E-03 0. -1.
    9900012    2    1    2    0    0 -0.13517196819E+01 -0.42815388624E+02 -0.69741572124E+01  0.47787268233E+02  0.19999987182E+02 0.  0.
        -12    1    1    2    0    0  0.13517196819E+01  0.42815388624E+02  0.69741572124E+01  0.43400731767E+02  0.00000000000E+00 0.  1.
         11    1    3    3    0    0 -0.51914583093E+01 -0.83941606153E+01 -0.43273971723E+01  0.10776805573E+02  0.51100000000E-03 0. -1.
        -11    1    3    3    0    0 -0.28295212331E+01 -0.80645333190E+01 -0.46856889151E+01  0.97467209323E+01  0.51100000000E-03 0.  1.
         12    1    3    3    0    0  0.66692598605E+01 -0.26356694689E+02  0.20389288751E+01  0.27263741728E+02  0.00000000000E+00 0. -1.
</event>
<event>
 7    1  0.4430431E-010  0.4778727E+02  0.7816164E-02  0.1312668E+00
        -11   -1    0    0    0    0  0.00000000000E+00  0.00000000000E+00  0.45593999997E+02  0.45594000000E+02  0.51100000000E-03 0.  1.
         11   -1    0    0    0    0 -0.00000000000E+00 -0.00000000000E+00 -0.45593999997E+02  0.45594000000E+02  0.51100000000E-03 0. -1.
    9900012    2    1    2    0    0  0.96571859030E+01 -0.21645419721E+02 -0.36357083885E+02  0.47787274395E+02  0.20000015275E+02 0.  0.
        -12    1    1    2    0    0 -0.96571859030E+01  0.21645419721E+02  0.36357083885E+02  0.43400725605E+02  0.00000000000E+00 0.  1.
         11    1    3    3    0    0  0.59361852656E+01 -0.12547532981E+02 -0.19480765177E+02  0.23920265291E+02  0.51100000000E-03 0. -1.
        -11    1    3    3    0    0 -0.24196634354E+01 -0.96506051273E+01 -0.67897078165E+01  0.12045292979E+02  0.51100000000E-03 0.  1.
         12    1    3    3    0    0  0.61406640728E+01  0.55271838735E+00 -0.10086610891E+02  0.11821716125E+02  0.00000000000E+00 0. -1.
</event>
<event>
 7    1  0.4430431E-010  0.4778727E+02  0.7816164E-02  0.1312668E+00
        -11   -1    0    0    0    0  0.00000000000E+00  0.00000000000E+00  0.45593999997E+02  0.45594000000E+02  0.51100000000E-03 0.  1.
         11   -1    0    0    0    0 -0.00000000000E+00 -0.00000000000E+00 -0.45593999997E+02  0.45594000000E+02  0.51100000000E-03 0. -1.
    9900012    2    1    2    0    0  0.70726140589E+01 -0.24918568452E+02 -0.34823357388E+02  0.47787272551E+02  0.20000006871E+02 0.  0.
        -12    1    1    2    0    0 -0.70726140589E+01  0.24918568452E+02  0.34823357388E+02  0.43400727449E+02  0.00000000000E+00 0.  1.
         11    1    3    3    0    0  0.66075402578E+00  0.15114627639E+01 -0.57590418210E+01  0.59906325648E+01  0.51100000000E-03 0. -1.
        -11    1    3    3    0    0 -0.49083728000E+00 -0.78918061779E+00  0.12109017305E+01  0.15264372064E+01  0.51100000000E-03 0.  1.
         12    1    3    3    0    0  0.69026973131E+01 -0.25640850598E+02 -0.30275217297E+02  0.40270202780E+02  0.00000000000E+00 0. -1.
</event>
<event>
 7    1  0.4430431E-010  0.4778727E+02  0.7816164E-02  0.1312668E+00
        -11   -1    0    0    0    0  0.00000000000E+00  0.00000000000E+00  0.45593999997E+02  0.45594000000E+02  0.51100000000E-03 0.  1.
         11   -1    0    0    0    0 -0.00000000000E+00 -0.00000000000E+00 -0.45593999997E+02  0.45594000000E+02  0.51100000000E-03 0. -1.
    9900012    2    1    2    0    0  0.18322620483E+02 -0.33971028176E+02 -0.19846261446E+02  0.47787271088E+02  0.20000000199E+02 0.  0.
        -12    1    1    2    0    0 -0.18322620483E+02  0.33971028176E+02  0.19846261446E+02  0.43400728912E+02  0.00000000000E+00 0.  1.
         11    1    3    3    0    0  0.72730899580E+01 -0.16828038274E+02 -0.65800230870E+01  0.19477613143E+02  0.51100000000E-03 0. -1.
        -11    1    3    3    0    0  0.40868576908E+01 -0.14374843238E+02 -0.14374247005E+02  0.20735416589E+02  0.51100000000E-03 0.  1.
         12    1    3    3    0    0  0.69626728344E+01 -0.27681466640E+01  0.11080086459E+01  0.75742413555E+01  0.00000000000E+00 0. -1.
</event>
<event>
 7    1  0.4430431E-010  0.4778727E+02  0.7816164E-02  0.1312668E+00
        -11   -1    0    0    0    0  0.00000000000E+00  0.00000000000E+00  0.45593999997E+02  0.45594000000E+02  0.51100000000E-03 0.  1.
         11   -1    0    0    0    0 -0.00000000000E+00 -0.00000000000E+00 -0.45593999997E+02  0.45594000000E+02  0.51100000000E-03 0. -1.
    9900012    2    1    2    0    0  0.14817489050E+02 -0.35041528797E+02 -0.20884364882E+02  0.47787269376E+02  0.19999992391E+02 0.  0.
        -12    1    1    2    0    0 -0.14817489050E+02  0.35041528797E+02  0.20884364882E+02  0.43400730624E+02  0.00000000000E+00 0.  1.
         11    1    3    3    0    0  0.13809724398E+01  0.26787406013E+00  0.19278636509E+01  0.23865246509E+01  0.51100000000E-03 0. -1.
        -11    1    3    3    0    0  0.21338863663E+01 -0.37729504454E+01  0.80944702278E+00  0.44095159407E+01  0.51100000000E-03 0.  1.
        -12    1    3    3    0    0  0.11302630244E+02 -0.31536452412E+02 -0.23621675556E+02  0.40991228784E+02  0.00000000000E+00 0.  1.
</event>
<event>
 7    1  0.4430431E-010  0.4778727E+02  0.7816164E-02  0.1312668E+00
        -11   -1    0    0    0    0  0.00000000000E+00  0.00000000000E+00  0.45593999997E+02  0.45594000000E+02  0.51100000000E-03 0.  1.
         11   -1    0    0    0    0 -0.00000000000E+00 -0.00000000000E+00 -0.45593999997E+02  0.45594000000E+02  0.51100000000E-03 0. -1.
    9900012    2    1    2    0    0 -0.99335543332E+01  0.19858188561E+02 -0.37290752624E+02  0.47787269754E+02  0.19999994115E+02 0.  0.
        -12    1    1    2    0    0  0.99335543332E+01 -0.19858188561E+02  0.37290752624E+02  0.43400730246E+02  0.00000000000E+00 0.  1.
         11    1    3    3    0    0  0.17149264253E+01  0.46834437573E+01 -0.41866561640E+01  0.65118129709E+01  0.51100000000E-03 0. -1.
        -11    1    3    3    0    0 -0.33282279890E+01 -0.27456195755E+01 -0.29561392726E+01  0.52301327000E+01  0.51100000000E-03 0.  1.
         12    1    3    3    0    0 -0.83202527696E+01  0.17920364379E+02 -0.30147957188E+02  0.36045324083E+02  0.00000000000E+00 0. -1.
</event>
<event>
 7    1  0.4430431E-010  0.4778727E+02  0.7816164E-02  0.1312668E+00
        -11   -1    0    0    0    0  0.00000000000E+00  0.00000000000E+00  0.45593999997E+02  0.45594000000E+02  0.51100000000E-03 0. -1.
         11   -1    0    0    0    0 -0.00000000000E+00 -0.00000000000E+00 -0.45593999997E+02  0.45594000000E+02  0.51100000000E-03 0.  1.
    9900012    2    1    2    0    0  0.34566079231E+02  0.25665792730E+02 -0.54842144142E+01  0.47787270079E+02  0.19999995599E+02 0.  0.
        -12    1    1    2    0    0 -0.34566079231E+02 -0.25665792730E+02  0.54842144142E+01  0.43400729921E+02  0.00000000000E+00 0.  1.
         11    1    3    3    0    0  0.18133726618E+02  0.13554200313E+02 -0.89657237568E+01  0.24350207185E+02  0.51100000000E-03 0. -1.
        -11    1    3    3    0    0 -0.41367952024E+00 -0.32164045631E+00 -0.17743204086E+01  0.18500801340E+01  0.51100000000E-03 0.  1.
         12    1    3    3    0    0  0.16846032134E+02  0.12433232873E+02  0.52558297512E+01  0.21586982760E+02  0.00000000000E+00 0. -1.
</event>
<event>
 7    1  0.4430431E-010  0.4778727E+02  0.7816164E-02  0.1312668E+00
        -11   -1    0    0    0    0  0.00000000000E+00  0.00000000000E+00  0.45593999997E+02  0.45594000000E+02  0.51100000000E-03 0.  1.
         11   -1    0    0    0    0 -0.00000000000E+00 -0.00000000000E+00 -0.45593999997E+02  0.45594000000E+02  0.51100000000E-03 0. -1.
    9900012    2    1    2    0    0  0.35555175390E+02  0.24711070053E+02 -0.29691490805E+01  0.47787270439E+02  0.19999997238E+02 0.  0.
        -12    1    1    2    0    0 -0.35555175390E+02 -0.24711070053E+02  0.29691490805E+01  0.43400729561E+02  0.00000000000E+00 0.  1.
         11    1    3    3    0    0  0.10591864010E+02  0.65981587131E+01 -0.34389836748E+01  0.12944106404E+02  0.51100000000E-03 0. -1.
        -11    1    3    3    0    0  0.73797759461E+00 -0.24378300717E+01  0.16816710637E+01  0.30521540289E+01  0.51100000000E-03 0.  1.
         12    1    3    3    0    0  0.24225333785E+02  0.20550741412E+02 -0.12118364694E+01  0.31791010006E+02  0.00000000000E+00 0. -1.
</event>
<event>
 7    1  0.4430431E-010  0.4778727E+02  0.7816164E-02  0.1312668E+00
        -11   -1    0    0    0    0  0.00000000000E+00  0.00000000000E+00  0.45593999997E+02  0.45594000000E+02  0.51100000000E-03 0.  1.
         11   -1    0    0    0    0 -0.00000000000E+00 -0.00000000000E+00 -0.45593999997E+02  0.45594000000E+02  0.51100000000E-03 0. -1.
    9900012    2    1    2    0    0  0.16826762888E+02 -0.39274982424E+02 -0.76130845416E+01  0.47787271320E+02  0.20000001258E+02 0.  0.
        -12    1    1    2    0    0 -0.16826762888E+02  0.39274982424E+02  0.76130845416E+01  0.43400728680E+02  0.00000000000E+00 0.  1.
         11    1    3    3    0    0  0.97132080783E+00 -0.15235886779E+02 -0.58488196048E+01  0.16348834854E+02  0.51100000000E-03 0. -1.
        -11    1    3    3    0    0  0.18012862401E+02 -0.21810092136E+02 -0.15841418995E+01  0.28331128405E+02  0.51100000000E-03 0.  1.
         12    1    3    3    0    0 -0.21574203208E+01 -0.22290035086E+01 -0.18012303744E+00  0.31073080617E+01  0.00000000000E+00 0. -1.
</event>
<event>
 7    1  0.4430431E-010  0.4778727E+02  0.7816164E-02  0.1312668E+00
        -11   -1    0    0    0    0  0.00000000000E+00  0.00000000000E+00  0.45593999997E+02  0.45594000000E+02  0.51100000000E-03 0. -1.
         11   -1    0    0    0    0 -0.00000000000E+00 -0.00000000000E+00 -0.45593999997E+02  0.45594000000E+02  0.51100000000E-03 0.  1.
    9900012    2    1    2    0    0  0.42028433312E+02 -0.49768830104E+01  0.96158653778E+01  0.47787269152E+02  0.19999991374E+02 0.  0.
        -12    1    1    2    0    0 -0.42028433312E+02  0.49768830104E+01 -0.96158653778E+01  0.43400730848E+02  0.00000000000E+00 0.  1.
         11    1    3    3    0    0 -0.11719695923E+00 -0.18349284196E+01  0.22141451662E+01  0.28780438687E+01  0.51100000000E-03 0. -1.
        -11    1    3    3    0    0  0.17354545371E+01 -0.34685820339E+01  0.84077678614E+00  0.39685979441E+01  0.51100000000E-03 0.  1.
         12    1    3    3    0    0  0.40410175734E+02  0.32662744315E+00  0.65609434255E+01  0.40940627340E+02  0.00000000000E+00 0. -1.
</event>
<event>
 7    1  0.4430431E-010  0.4778727E+02  0.7816164E-02  0.1312668E+00
        -11   -1    0    0    0    0  0.00000000000E+00  0.00000000000E+00  0.45593999997E+02  0.45594000000E+02  0.51100000000E-03 0. -1.
         11   -1    0    0    0    0 -0.00000000000E+00 -0.00000000000E+00 -0.45593999997E+02  0.45594000000E+02  0.51100000000E-03 0.  1.
    9900012    2    1    2    0    0  0.20840495272E+01  0.71885572667E+01  0.42750496923E+02  0.47787267228E+02  0.19999982598E+02 0.  0.
        -12    1    1    2    0    0 -0.20840495272E+01 -0.71885572667E+01 -0.42750496923E+02  0.43400732772E+02  0.00000000000E+00 0.  1.
         11    1    3    3    0    0 -0.37563938752E+01 -0.20869810231E+01  0.96571610563E+01  0.10570087259E+02  0.51100000000E-03 0. -1.
        -11    1    3    3    0    0 -0.38965203060E+01  0.56367787658E+00  0.85474989996E+01  0.94106504905E+01  0.51100000000E-03 0.  1.
        -12    1    3    3    0    0  0.97369637085E+01  0.87118604132E+01  0.24545836867E+02  0.27806529478E+02  0.00000000000E+00 0.  1.
</event>
<event>
 7    1  0.4430431E-010  0.4778728E+02  0.7816164E-02  0.1312668E+00
        -11   -1    0    0    0    0  0.00000000000E+00  0.00000000000E+00  0.45593999997E+02  0.45594000000E+02  0.51100000000E-03 0.  1.
         11   -1    0    0    0    0 -0.00000000000E+00 -0.00000000000E+00 -0.45593999997E+02  0.45594000000E+02  0.51100000000E-03 0. -1.
    9900012    2    1    2    0    0 -0.26356742941E+02  0.24978837589E+02 -0.23769784929E+02  0.47787275337E+02  0.20000019570E+02 0.  0.
        -12    1    1    2    0    0  0.26356742941E+02 -0.24978837589E+02  0.23769784929E+02  0.43400724663E+02  0.00000000000E+00 0.  1.
         11    1    3    3    0    0 -0.27350848486E+01 -0.56210455668E+00 -0.13467116714E+01  0.31000456850E+01  0.51100000000E-03 0. -1.
        -11    1    3    3    0    0 -0.24469391854E+01 -0.57509596265E+00 -0.74862026552E+01  0.78969283395E+01  0.51100000000E-03 0.  1.
         12    1    3    3    0    0 -0.21174718907E+02  0.26116038108E+02 -0.14936870603E+02  0.36790301312E+02  0.00000000000E+00 0. -1.
</event>
<event>
 7    1  0.4430431E-010  0.4778727E+02  0.7816164E-02  0.1312668E+00
        -11   -1    0    0    0    0  0.00000000000E+00  0.00000000000E+00  0.45593999997E+02  0.45594000000E+02  0.51100000000E-03 0.  1.
         11   -1    0    0    0    0 -0.00000000000E+00 -0.00000000000E+00 -0.45593999997E+02  0.45594000000E+02  0.51100000000E-03 0. -1.
    9900012    2    1    2    0    0 -0.16383500844E+00 -0.30415065650E+02 -0.30959974274E+02  0.47787273422E+02  0.20000010841E+02 0.  0.
        -12    1    1    2    0    0  0.16383500844E+00  0.30415065650E+02  0.30959974274E+02  0.43400726578E+02  0.00000000000E+00 0.  1.
         11    1    3    3    0    0  0.39529872914E+01 -0.10610248921E+02 -0.58555901478E+01  0.12747212516E+02  0.51100000000E-03 0. -1.
        -11    1    3    3    0    0  0.27323782669E+01 -0.15360392784E+02 -0.20171000953E+02  0.25500526214E+02  0.51100000000E-03 0.  1.
        -12    1    3    3    0    0 -0.68492005667E+01 -0.44444239445E+01 -0.49333831737E+01  0.95395346920E+01  0.00000000000E+00 0.  1.
</event>
<event>
 7    1  0.4430431E-010  0.4778727E+02  0.7816164E-02  0.1312668E+00
        -11   -1    0    0    0    0  0.00000000000E+00  0.00000000000E+00  0.45593999997E+02  0.45594000000E+02  0.51100000000E-03 0. -1.
         11   -1    0    0    0    0 -0.00000000000E+00 -0.00000000000E+00 -0.45593999997E+02  0.45594000000E+02  0.51100000000E-03 0.  1.
    9900012    2    1    2    0    0 -0.79470074317E+01  0.11598993521E+02 -0.41060096745E+02  0.47787272788E+02  0.20000007948E+02 0.  0.
        -12    1    1    2    0    0  0.79470074317E+01 -0.11598993521E+02  0.41060096745E+02  0.43400727212E+02  0.00000000000E+00 0.  1.
         11    1    3    3    0    0 -0.26077386849E+01 -0.28340898763E+01 -0.81682581183E+01  0.90306593018E+01  0.51100000000E-03 0. -1.
        -11    1    3    3    0    0 -0.55524674795E+01  0.11729867259E+01 -0.39303565007E+01  0.69031511249E+01  0.51100000000E-03 0.  1.
        -12    1    3    3    0    0  0.21319873275E+00  0.13260096671E+02 -0.28961482126E+02  0.31853462361E+02  0.00000000000E+00 0.  1.
</event>
<event>
 7    1  0.4430431E-010  0.4778727E+02  0.7816164E-02  0.1312668E+00
        -11   -1    0    0    0    0  0.00000000000E+00  0.00000000000E+00  0.45593999997E+02  0.45594000000E+02  0.51100000000E-03 0.  1.
         11   -1    0    0    0    0 -0.00000000000E+00 -0.00000000000E+00 -0.45593999997E+02  0.45594000000E+02  0.51100000000E-03 0. -1.
    9900012    2    1    2    0    0 -0.26197556033E+02  0.34481247290E+02  0.28904417387E+01  0.47787274082E+02  0.20000013851E+02 0.  0.
        -12    1    1    2    0    0  0.26197556033E+02 -0.34481247290E+02 -0.28904417387E+01  0.43400725918E+02  0.00000000000E+00 0.  1.
         11    1    3    3    0    0 -0.12258598855E+02  0.76500954041E+01 -0.23449385099E+01  0.14638850448E+02  0.51100000000E-03 0. -1.
        -11    1    3    3    0    0 -0.39955285985E+01  0.93178688061E+01 -0.41184851023E+01  0.10942981663E+02  0.51100000000E-03 0.  1.
        -12    1    3    3    0    0 -0.99434285793E+01  0.17513283080E+02  0.93538653509E+01  0.22205441971E+02  0.00000000000E+00 0.  1.
</event>
<event>
 7    1  0.4430431E-010  0.4778727E+02  0.7816164E-02  0.1312668E+00
        -11   -1    0    0    0    0  0.00000000000E+00  0.00000000000E+00  0.45593999997E+02  0.45594000000E+02  0.51100000000E-03 0. -1.
         11   -1    0    0    0    0 -0.00000000000E+00 -0.00000000000E+00 -0.45593999997E+02  0.45594000000E+02  0.51100000000E-03 0.  1.
    9900012    2    1    2    0    0  0.79087361478E+01 -0.56917773683E+01  0.42292772483E+02  0.47787273723E+02  0.20000012211E+02 0.  0.
        -12    1    1    2    0    0 -0.79087361478E+01  0.56917773683E+01 -0.42292772483E+02  0.43400726277E+02  0.00000000000E+00 0.  1.
         11    1    3    3    0    0  0.34642685226E+01 -0.42007771162E+01  0.92219156265E+01  0.10709407680E+02  0.51100000000E-03 0. -1.
        -11    1    3    3    0    0  0.83407459248E+01 -0.47787979340E+01  0.11877998061E+02  0.15280438163E+02  0.51100000000E-03 0.  1.
         12    1    3    3    0    0 -0.38962782996E+01  0.32877976819E+01  0.21192858796E+02  0.21797427879E+02  0.00000000000E+00 0. -1.
</event>
<event>
 7    1  0.4430431E-010  0.4778727E+02  0.7816164E-02  0.1312668E+00
        -11   -1    0    0    0    0  0.00000000000E+00  0.00000000000E+00  0.45593999997E+02  0.45594000000E+02  0.51100000000E-03 0.  1.
         11   -1    0    0    0    0 -0.00000000000E+00 -0.00000000000E+00 -0.45593999997E+02  0.45594000000E+02  0.51100000000E-03 0. -1.
    9900012    2    1    2    0    0  0.55017144586E+01 -0.91510656724E+01 -0.42066760762E+02  0.47787271597E+02  0.20000002518E+02 0.  0.
        -12    1    1    2    0    0 -0.55017144586E+01  0.91510656724E+01  0.42066760762E+02  0.43400728403E+02  0.00000000000E+00 0.  1.
         11    1    3    3    0    0 -0.88667130203E+00  0.22056250362E+01  0.18371141989E+00  0.23842646550E+01  0.51100000000E-03 0.  1.
        -11    1    3    3    0    0 -0.11135565256E+01 -0.28137718846E+01 -0.21244134908E+01  0.36973576099E+01  0.51100000000E-03 0. -1.
        -12    1    3    3    0    0  0.75019422862E+01 -0.85429188240E+01 -0.40126058691E+02  0.41705649332E+02  0.00000000000E+00 0.  1.
</event>
<event>
 7    1  0.4430431E-010  0.4778727E+02  0.7816164E-02  0.1312668E+00
        -11   -1    0    0    0    0  0.00000000000E+00  0.00000000000E+00  0.45593999997E+02  0.45594000000E+02  0.51100000000E-03 0.  1.
         11   -1    0    0    0    0 -0.00000000000E+00 -0.00000000000E+00 -0.45593999997E+02  0.45594000000E+02  0.51100000000E-03 0. -1.
    9900012    2    1    2    0    0  0.73864887411E+01 -0.16599443196E+01 -0.42735320127E+02  0.47787271695E+02  0.20000002965E+02 0.  0.
        -12    1    1    2    0    0 -0.73864887411E+01  0.16599443196E+01  0.42735320127E+02  0.43400728305E+02  0.00000000000E+00 0.  1.
         11    1    3    3    0    0 -0.11929971218E+01  0.15697076140E+00 -0.18709453077E+01  0.22244816381E+01  0.51100000000E-03 0. -1.
        -11    1    3    3    0    0 -0.24359247429E-01 -0.89352490064E+01 -0.19755329111E+02  0.21682073165E+02  0.51100000000E-03 0.  1.
         12    1    3    3    0    0  0.86038451103E+01  0.71183339254E+01 -0.21109045708E+02  0.23880716892E+02  0.00000000000E+00 0. -1.
</event>
<event>
 7    1  0.4430431E-010  0.4778727E+02  0.7816164E-02  0.1312668E+00
        -11   -1    0    0    0    0  0.00000000000E+00  0.00000000000E+00  0.45593999997E+02  0.45594000000E+02  0.51100000000E-03 0. -1.
         11   -1    0    0    0    0 -0.00000000000E+00 -0.00000000000E+00 -0.45593999997E+02  0.45594000000E+02  0.51100000000E-03 0.  1.
    9900012    2    1    2    0    0  0.31888613429E+02 -0.21362955926E+02  0.20257438560E+02  0.47787269945E+02  0.19999994987E+02 0.  0.
        -12    1    1    2    0    0 -0.31888613429E+02  0.21362955926E+02 -0.20257438560E+02  0.43400730055E+02  0.00000000000E+00 0.  1.
         11    1    3    3    0    0  0.15927683109E+02 -0.10301273794E+02  0.94683590652E+01  0.21200404587E+02  0.51100000000E-03 0. -1.
        -11    1    3    3    0    0  0.38504649516E+01  0.35196485633E+01  0.12368603404E+01  0.53613272718E+01  0.51100000000E-03 0.  1.
        -12    1    3    3    0    0  0.12110465368E+02 -0.14581330695E+02  0.95522191546E+01  0.21225538086E+02  0.00000000000E+00 0.  1.
</event>
<event>
 7    1  0.4430431E-010  0.4778728E+02  0.7816164E-02  0.1312668E+00
        -11   -1    0    0    0    0  0.00000000000E+00  0.00000000000E+00  0.45593999997E+02  0.45594000000E+02  0.51100000000E-03 0.  1.
         11   -1    0    0    0    0 -0.00000000000E+00 -0.00000000000E+00 -0.45593999997E+02  0.45594000000E+02  0.51100000000E-03 0. -1.
    9900012    2    1    2    0    0  0.23434001056E+01  0.40125089237E+02  0.16374012005E+02  0.47787279044E+02  0.20000036475E+02 0.  0.
        -12    1    1    2    0    0 -0.23434001056E+01 -0.40125089237E+02 -0.16374012005E+02  0.43400720956E+02  0.00000000000E+00 0.  1.
         11    1    3    3    0    0  0.43858698969E+01  0.98720328091E+01  0.31442197560E+01  0.11250733517E+02  0.51100000000E-03 0. -1.
        -11    1    3    3    0    0 -0.19524446317E+01 -0.11116078637E+01  0.25611829669E+01  0.34069591329E+01  0.51100000000E-03 0.  1.
        -12    1    3    3    0    0 -0.90025159575E-01  0.31364664291E+02  0.10668609283E+02  0.33129586394E+02  0.00000000000E+00 0.  1.
</event>
<event>
 7    1  0.4430431E-010  0.4778728E+02  0.7816164E-02  0.1312668E+00
        -11   -1    0    0    0    0  0.00000000000E+00  0.00000000000E+00  0.45593999997E+02  0.45594000000E+02  0.51100000000E-03 0. -1.
         11   -1    0    0    0    0 -0.00000000000E+00 -0.00000000000E+00 -0.45593999997E+02  0.45594000000E+02  0.51100000000E-03 0.  1.
    9900012    2    1    2    0    0  0.12992551503E+02  0.40013851113E+02  0.10663380133E+02  0.47787281673E+02  0.20000048459E+02 0.  0.
        -12    1    1    2    0    0 -0.12992551503E+02 -0.40013851113E+02 -0.10663380133E+02  0.43400718327E+02  0.00000000000E+00 0.  1.
         11    1    3    3    0    0  0.41566013076E+01  0.26677765454E+02  0.42137486685E+01  0.27326474016E+02  0.51100000000E-03 0. -1.
        -11    1    3    3    0    0 -0.23684607155E+01  0.71273692999E+00  0.27670642298E+00  0.24888083088E+01  0.51100000000E-03 0.  1.
        -12    1    3    3    0    0  0.11204410911E+02  0.12623348729E+02  0.61729250415E+01  0.17971999348E+02  0.00000000000E+00 0.  1.
</event>
<event>
 7    1  0.4430431E-010  0.4778727E+02  0.7816164E-02  0.1312668E+00
        -11   -1    0    0    0    0  0.00000000000E+00  0.00000000000E+00  0.45593999997E+02  0.45594000000E+02  0.51100000000E-03 0. -1.
         11   -1    0    0    0    0 -0.00000000000E+00 -0.00000000000E+00 -0.45593999997E+02  0.45594000000E+02  0.51100000000E-03 0.  1.
    9900012    2    1    2    0    0  0.36734488663E+02  0.21388181402E+02  0.87605025584E+01  0.47787269982E+02  0.19999995157E+02 0.  0.
        -12    1    1    2    0    0 -0.36734488663E+02 -0.21388181402E+02 -0.87605025584E+01  0.43400730018E+02  0.00000000000E+00 0.  1.
         11    1    3    3    0    0  0.41477351975E+01  0.92696791495E+00 -0.45935577759E+00  0.42748081566E+01  0.51100000000E-03 0. -1.
        -11    1    3    3    0    0  0.97567415673E+00  0.15325633604E+01  0.62945762951E+01  0.65515174967E+01  0.51100000000E-03 0.  1.
        -12    1    3    3    0    0  0.31611079309E+02  0.18928650126E+02  0.29252820409E+01  0.36960944329E+02  0.00000000000E+00 0.  1.
</event>
<event>
 7    1  0.4430431E-010  0.4778727E+02  0.7816164E-02  0.1312668E+00
        -11   -1    0    0    0    0  0.00000000000E+00  0.00000000000E+00  0.45593999997E+02  0.45594000000E+02  0.51100000000E-03 0. -1.
         11   -1    0    0    0    0 -0.00000000000E+00 -0.00000000000E+00 -0.45593999997E+02  0.45594000000E+02  0.51100000000E-03 0.  1.
    9900012    2    1    2    0    0 -0.97304807925E+01  0.85730030719E+01  0.41417924567E+02  0.47787272892E+02  0.20000008422E+02 0.  0.
        -12    1    1    2    0    0  0.97304807925E+01 -0.85730030719E+01 -0.41417924567E+02  0.43400727108E+02  0.00000000000E+00 0.  1.
         11    1    3    3    0    0 -0.74712671032E+01 -0.48776888100E+01  0.10935698935E+02  0.14113865229E+02  0.51100000000E-03 0. -1.
        -11    1    3    3    0    0 -0.14981396869E+01  0.18047862248E+01  0.29435689077E+01  0.37638111024E+01  0.51100000000E-03 0.  1.
        -12    1    3    3    0    0 -0.76107400240E+00  0.11645905657E+02  0.27538656724E+02  0.29909596560E+02  0.00000000000E+00 0.  1.
</event>
<event>
 7    1  0.4430431E-010  0.4778727E+02  0.7816164E-02  0.1312668E+00
        -11   -1    0    0    0    0  0.00000000000E+00  0.00000000000E+00  0.45593999997E+02  0.45594000000E+02  0.51100000000E-03 0.  1.
         11   -1    0    0    0    0 -0.00000000000E+00 -0.00000000000E+00 -0.45593999997E+02  0.45594000000E+02  0.51100000000E-03 0. -1.
    9900012    2    1    2    0    0 -0.12033530887E+02  0.11556527379E+02 -0.40065746518E+02  0.47787271495E+02  0.20000002055E+02 0.  0.
        -12    1    1    2    0    0  0.12033530887E+02 -0.11556527379E+02  0.40065746518E+02  0.43400728505E+02  0.00000000000E+00 0.  1.
         11    1    3    3    0    0 -0.45195171440E+01  0.16009756326E+01 -0.80988709193E+00  0.48626202354E+01  0.51100000000E-03 0. -1.
        -11    1    3    3    0    0 -0.20544440288E+01  0.50557159006E+01 -0.36367711510E+01  0.65579804972E+01  0.51100000000E-03 0.  1.
         12    1    3    3    0    0 -0.54595697142E+01  0.48998358457E+01 -0.35619088275E+02  0.36366670763E+02  0.00000000000E+00 0. -1.
</event>
<event>
 7    1  0.4430431E-010  0.4778727E+02  0.7816164E-02  0.1312668E+00
        -11   -1    0    0    0    0  0.00000000000E+00  0.00000000000E+00  0.45593999997E+02  0.45594000000E+02  0.51100000000E-03 0.  1.
         11   -1    0    0    0    0 -0.00000000000E+00 -0.00000000000E+00 -0.45593999997E+02  0.45594000000E+02  0.51100000000E-03 0. -1.
    9900012    2    1    2    0    0 -0.16699287046E+02  0.87702404389E+01 -0.39087597058E+02  0.47787267875E+02  0.19999985551E+02 0.  0.
        -12    1    1    2    0    0  0.16699287046E+02 -0.87702404389E+01  0.39087597058E+02  0.43400732125E+02  0.00000000000E+00 0.  1.
         11    1    3    3    0    0 -0.57056749063E+00 -0.28963700062E+01 -0.10897277434E+01  0.31467464611E+01  0.51100000000E-03 0. -1.
        -11    1    3    3    0    0 -0.10509015217E+02  0.56465260414E+01 -0.10355476868E+02  0.15797422530E+02  0.51100000000E-03 0.  1.
         12    1    3    3    0    0 -0.56197043381E+01  0.60200844038E+01 -0.27642392447E+02  0.28843098884E+02  0.00000000000E+00 0. -1.
</event>
<event>
 7    1  0.4430431E-010  0.4778727E+02  0.7816164E-02  0.1312668E+00
        -11   -1    0    0    0    0  0.00000000000E+00  0.00000000000E+00  0.45593999997E+02  0.45594000000E+02  0.51100000000E-03 0.  1.
         11   -1    0    0    0    0 -0.00000000000E+00 -0.00000000000E+00 -0.45593999997E+02  0.45594000000E+02  0.51100000000E-03 0. -1.
    9900012    2    1    2    0    0 -0.13739890680E+02 -0.36792504502E+02 -0.18470251014E+02  0.47787272403E+02  0.20000006196E+02 0.  0.
        -12    1    1    2    0    0  0.13739890680E+02  0.36792504502E+02  0.18470251014E+02  0.43400727597E+02  0.00000000000E+00 0.  1.
         11    1    3    3    0    0 -0.49707376720E+01 -0.18251574437E+02 -0.11314570748E+02  0.22041953496E+02  0.51100000000E-03 0. -1.
        -11    1    3    3    0    0 -0.18369285456E+01 -0.91276885179E+01 -0.10051979570E+02  0.13701507133E+02  0.51100000000E-03 0.  1.
        -12    1    3    3    0    0 -0.69322244621E+01 -0.94132415465E+01  0.28962993045E+01  0.12043811775E+02  0.00000000000E+00 0.  1.
</event>
<event>
 7    1  0.4430431E-010  0.4778727E+02  0.7816164E-02  0.1312668E+00
        -11   -1    0    0    0    0  0.00000000000E+00  0.00000000000E+00  0.45593999997E+02  0.45594000000E+02  0.51100000000E-03 0. -1.
         11   -1    0    0    0    0 -0.00000000000E+00 -0.00000000000E+00 -0.45593999997E+02  0.45594000000E+02  0.51100000000E-03 0.  1.
    9900012    2    1    2    0    0  0.16816304030E+02 -0.39997760335E+02  0.10071202862E+01  0.47787271846E+02  0.20000003653E+02 0.  0.
        -12    1    1    2    0    0 -0.16816304030E+02  0.39997760335E+02 -0.10071202862E+01  0.43400728154E+02  0.00000000000E+00 0.  1.
         11    1    3    3    0    0  0.60072458682E+01 -0.11149506213E+02  0.75883318833E-01  0.12665079955E+02  0.51100000000E-03 0. -1.
        -11    1    3    3    0    0  0.64873593200E+01 -0.65152930072E+01  0.70272464859E+01  0.11572254204E+02  0.51100000000E-03 0.  1.
        -12    1    3    3    0    0  0.43216988422E+01 -0.22332961115E+02 -0.60960095186E+01  0.23549937687E+02  0.00000000000E+00 0.  1.
</event>
<event>
 7    1  0.4430431E-010  0.4778727E+02  0.7816164E-02  0.1312668E+00
        -11   -1    0    0    0    0  0.00000000000E+00  0.00000000000E+00  0.45593999997E+02  0.45594000000E+02  0.51100000000E-03 0.  1.
         11   -1    0    0    0    0 -0.00000000000E+00 -0.00000000000E+00 -0.45593999997E+02  0.45594000000E+02  0.51100000000E-03 0. -1.
    9900012    2    1    2    0    0 -0.21564169563E+02 -0.65355973592E+01 -0.37093067971E+02  0.47787272664E+02  0.20000007382E+02 0.  0.
        -12    1    1    2    0    0  0.21564169563E+02  0.65355973592E+01  0.37093067971E+02  0.43400727336E+02  0.00000000000E+00 0.  1.
         11    1    3    3    0    0 -0.13853972762E+02  0.18999582924E+01 -0.19405625095E+02  0.23919044471E+02  0.51100000000E-03 0. -1.
        -11    1    3    3    0    0 -0.70399410851E+01 -0.87848630154E+01 -0.19154584038E+02  0.22217845949E+02  0.51100000000E-03 0.  1.
         12    1    3    3    0    0 -0.67025571586E+00  0.34930736385E+00  0.14671411621E+01  0.16503822432E+01  0.00000000000E+00 0. -1.
</event>
<event>
 7    1  0.4430431E-010  0.4778727E+02  0.7816164E-02  0.1312668E+00
        -11   -1    0    0    0    0  0.00000000000E+00  0.00000000000E+00  0.45593999997E+02  0.45594000000E+02  0.51100000000E-03 0.  1.
         11   -1    0    0    0    0 -0.00000000000E+00 -0.00000000000E+00 -0.45593999997E+02  0.45594000000E+02  0.51100000000E-03 0. -1.
    9900012    2    1    2    0    0  0.51773727878E+01  0.36488876337E+02 -0.22921174309E+02  0.47787268244E+02  0.19999987230E+02 0.  0.
        -12    1    1    2    0    0 -0.51773727878E+01 -0.36488876337E+02  0.22921174309E+02  0.43400731756E+02  0.00000000000E+00 0.  1.
         11    1    3    3    0    0  0.34647714533E+01  0.12017457090E+02 -0.75961684474E+01  0.14633034254E+02  0.51100000000E-03 0. -1.
        -11    1    3    3    0    0  0.75498249987E+01  0.16571001367E+02 -0.14535276280E+02  0.23299618036E+02  0.51100000000E-03 0.  1.
        -12    1    3    3    0    0 -0.58372236642E+01  0.79004178798E+01 -0.78972958074E+00  0.98546159536E+01  0.00000000000E+00 0.  1.
</event>
<event>
 7    1  0.4430431E-010  0.4778727E+02  0.7816164E-02  0.1312668E+00
        -11   -1    0    0    0    0  0.00000000000E+00  0.00000000000E+00  0.45593999997E+02  0.45594000000E+02  0.51100000000E-03 0.  1.
         11   -1    0    0    0    0 -0.00000000000E+00 -0.00000000000E+00 -0.45593999997E+02  0.45594000000E+02  0.51100000000E-03 0. -1.
    9900012    2    1    2    0    0 -0.30080354088E+02 -0.95425698289E+01 -0.29794878288E+02  0.47787272895E+02  0.20000008439E+02 0.  0.
        -12    1    1    2    0    0  0.30080354088E+02  0.95425698289E+01  0.29794878288E+02  0.43400727105E+02  0.00000000000E+00 0.  1.
         11    1    3    3    0    0 -0.21229719498E+02 -0.94530187888E+00 -0.19121248314E+02  0.28587002693E+02  0.51100000000E-03 0. -1.
        -11    1    3    3    0    0 -0.88579410633E+01 -0.26995689230E+01 -0.34668072817E+01  0.98878483626E+01  0.51100000000E-03 0.  1.
        -12    1    3    3    0    0  0.73064737211E-02 -0.58976990270E+01 -0.72068226927E+01  0.93124218398E+01  0.00000000000E+00 0.  1.
</event>
<event>
 7    1  0.4430431E-010  0.4778727E+02  0.7816164E-02  0.1312668E+00
        -11   -1    0    0    0    0  0.00000000000E+00  0.00000000000E+00  0.45593999997E+02  0.45594000000E+02  0.51100000000E-03 0.  1.
         11   -1    0    0    0    0 -0.00000000000E+00 -0.00000000000E+00 -0.45593999997E+02  0.45594000000E+02  0.51100000000E-03 0. -1.
    9900012    2    1    2    0    0  0.36747596659E+02 -0.18514095088E+02 -0.13800919945E+02  0.47787274563E+02  0.20000016042E+02 0.  0.
        -12    1    1    2    0    0 -0.36747596659E+02  0.18514095088E+02  0.13800919945E+02  0.43400725437E+02  0.00000000000E+00 0.  1.
         11    1    3    3    0    0  0.15580929162E+02 -0.23563495886E+01 -0.10701487040E+02  0.19048348014E+02  0.51100000000E-03 0. -1.
        -11    1    3    3    0    0  0.16180031178E+02 -0.63034630387E+01 -0.33835594436E+01  0.17691114436E+02  0.51100000000E-03 0.  1.
        -12    1    3    3    0    0  0.49866363187E+01 -0.98542824611E+01  0.28412653916E+00  0.11047812113E+02  0.00000000000E+00 0.  1.
</event>
<event>
 7    1  0.4430431E-010  0.4778726E+02  0.7816164E-02  0.1312668E+00
        -11   -1    0    0    0    0  0.00000000000E+00  0.00000000000E+00  0.45593999997E+02  0.45594000000E+02  0.51100000000E-03 0. -1.
         11   -1    0    0    0    0 -0.00000000000E+00 -0.00000000000E+00 -0.45593999997E+02  0.45594000000E+02  0.51100000000E-03 0.  1.
    9900012    2    1    2    0    0  0.64892807019E+01  0.51588707571E+01  0.42601641854E+02  0.47787255765E+02  0.19999930333E+02 0.  0.
        -12    1    1    2    0    0 -0.64892807019E+01 -0.51588707571E+01 -0.42601641854E+02  0.43400744235E+02  0.00000000000E+00 0.  1.
         11    1    3    3    0    0 -0.16217243562E+01 -0.41233493092E+00  0.30410773290E+01  0.34710461773E+01  0.51100000000E-03 0. -1.
        -11    1    3    3    0    0  0.22483100541E+01 -0.54297470167E+01  0.55111550752E+01  0.80566668846E+01  0.51100000000E-03 0.  1.
         12    1    3    3    0    0  0.58626950040E+01  0.11000952705E+02  0.34049409450E+02  0.36259542703E+02  0.00000000000E+00 0. -1.
</event>
<event>
 7    1  0.4430431E-010  0.4778727E+02  0.7816164E-02  0.1312668E+00
        -11   -1    0    0    0    0  0.00000000000E+00  0.00000000000E+00  0.45593999997E+02  0.45594000000E+02  0.51100000000E-03 0.  1.
         11   -1    0    0    0    0 -0.00000000000E+00 -0.00000000000E+00 -0.45593999997E+02  0.45594000000E+02  0.51100000000E-03 0. -1.
    9900012    2    1    2    0    0 -0.18547671131E+01 -0.12059740769E+02 -0.41650280429E+02  0.47787269957E+02  0.19999995041E+02 0.  0.
        -12    1    1    2    0    0  0.18547671131E+01  0.12059740769E+02  0.41650280429E+02  0.43400730043E+02  0.00000000000E+00 0.  1.
         11    1    3    3    0    0  0.88213365282E+00 -0.26330046154E+01 -0.15689109119E+02  0.15932953847E+02  0.51100000000E-03 0. -1.
        -11    1    3    3    0    0 -0.89514646642E+01 -0.32580524911E+01 -0.15710057114E+02  0.18372520797E+02  0.51100000000E-03 0.  1.
        -12    1    3    3    0    0  0.62145638983E+01 -0.61686836624E+01 -0.10251114196E+02  0.13481795312E+02  0.00000000000E+00 0.  1.
</event>
<event>
 7    1  0.4430431E-010  0.4778727E+02  0.7816164E-02  0.1312668E+00
        -11   -1    0    0    0    0  0.00000000000E+00  0.00000000000E+00  0.45593999997E+02  0.45594000000E+02  0.51100000000E-03 0.  1.
         11   -1    0    0    0    0 -0.00000000000E+00 -0.00000000000E+00 -0.45593999997E+02  0.45594000000E+02  0.51100000000E-03 0. -1.
    9900012    2    1    2    0    0 -0.16055904787E+02 -0.45152399939E+01 -0.40067987628E+02  0.47787273010E+02  0.20000008961E+02 0.  0.
        -12    1    1    2    0    0  0.16055904787E+02  0.45152399939E+01  0.40067987628E+02  0.43400726990E+02  0.00000000000E+00 0.  1.
         11    1    3    3    0    0 -0.81796002034E+01 -0.52028264133E+01 -0.25382490258E+02  0.27170684094E+02  0.51100000000E-03 0. -1.
        -11    1    3    3    0    0  0.22221702248E+01 -0.15250841221E+01 -0.76520330206E+01  0.81128004843E+01  0.51100000000E-03 0.  1.
        -12    1    3    3    0    0 -0.10098474809E+02  0.22126705415E+01 -0.70334643487E+01  0.12503788431E+02  0.00000000000E+00 0.  1.
</event>
<event>
 7    1  0.4430431E-010  0.4778727E+02  0.7816164E-02  0.1312668E+00
        -11   -1    0    0    0    0  0.00000000000E+00  0.00000000000E+00  0.45593999997E+02  0.45594000000E+02  0.51100000000E-03 0.  1.
         11   -1    0    0    0    0 -0.00000000000E+00 -0.00000000000E+00 -0.45593999997E+02  0.45594000000E+02  0.51100000000E-03 0. -1.
    9900012    2    1    2    0    0 -0.41548510115E+02 -0.10947715917E+02  0.61230853290E+01  0.47787270161E+02  0.19999995974E+02 0.  0.
        -12    1    1    2    0    0  0.41548510115E+02  0.10947715917E+02 -0.61230853290E+01  0.43400729839E+02  0.00000000000E+00 0.  1.
         11    1    3    3    0    0 -0.64479882315E+01  0.35904244317E+01 -0.62664847365E+00  0.74067798944E+01  0.51100000000E-03 0. -1.
        -11    1    3    3    0    0 -0.92733538688E+01 -0.62808439289E+01 -0.29509695362E+01  0.11582413993E+02  0.51100000000E-03 0.  1.
        -12    1    3    3    0    0 -0.25827168015E+02 -0.82572964198E+01  0.97007033388E+01  0.28798076274E+02  0.00000000000E+00 0.  1.
</event>
<event>
 7    1  0.4430431E-010  0.4778727E+02  0.7816164E-02  0.1312668E+00
        -11   -1    0    0    0    0  0.00000000000E+00  0.00000000000E+00  0.45593999997E+02  0.45594000000E+02  0.51100000000E-03 0.  1.
         11   -1    0    0    0    0 -0.00000000000E+00 -0.00000000000E+00 -0.45593999997E+02  0.45594000000E+02  0.51100000000E-03 0. -1.
    9900012    2    1    2    0    0  0.55218266059E+01 -0.10091764670E+02 -0.41848401480E+02  0.47787274319E+02  0.20000014931E+02 0.  0.
        -12    1    1    2    0    0 -0.55218266059E+01  0.10091764670E+02  0.41848401480E+02  0.43400725681E+02  0.00000000000E+00 0.  1.
         11    1    3    3    0    0 -0.58530380527E+00 -0.37387189726E+01 -0.95250688961E+00  0.39022903193E+01  0.51100000000E-03 0. -1.
        -11    1    3    3    0    0 -0.41834495705E+01 -0.23834855212E+01 -0.10548512610E+02  0.11595403058E+02  0.51100000000E-03 0.  1.
         12    1    3    3    0    0  0.10290579982E+02 -0.39695601764E+01 -0.30347381980E+02  0.32289580942E+02  0.00000000000E+00 0. -1.
</event>
<event>
 7    1  0.4430431E-010  0.4778726E+02  0.7816164E-02  0.1312668E+00
        -11   -1    0    0    0    0  0.00000000000E+00  0.00000000000E+00  0.45593999997E+02  0.45594000000E+02  0.51100000000E-03 0. -1.
         11   -1    0    0    0    0 -0.00000000000E+00 -0.00000000000E+00 -0.45593999997E+02  0.45594000000E+02  0.51100000000E-03 0.  1.
    9900012    2    1    2    0    0 -0.42488472596E+02  0.22146833837E+01  0.85702281576E+01  0.47787263409E+02  0.19999965186E+02 0.  0.
        -12    1    1    2    0    0  0.42488472596E+02 -0.22146833837E+01 -0.85702281576E+01  0.43400736591E+02  0.00000000000E+00 0.  1.
         11    1    3    3    0    0 -0.30073527410E+02  0.26890621586E+01 -0.21640740769E+00  0.30194286523E+02  0.51100000000E-03 0. -1.
        -11    1    3    3    0    0 -0.65515695776E+01 -0.19514705678E+01 -0.10899526555E+00  0.68368985319E+01  0.51100000000E-03 0.  1.
        -12    1    3    3    0    0 -0.58633756079E+01  0.14770917930E+01  0.88956308308E+01  0.10756078354E+02  0.00000000000E+00 0.  1.
</event>
<event>
 7    1  0.4430431E-010  0.4778727E+02  0.7816164E-02  0.1312668E+00
        -11   -1    0    0    0    0  0.00000000000E+00  0.00000000000E+00  0.45593999997E+02  0.45594000000E+02  0.51100000000E-03 0.  1.
         11   -1    0    0    0    0 -0.00000000000E+00 -0.00000000000E+00 -0.45593999997E+02  0.45594000000E+02  0.51100000000E-03 0. -1.
    9900012    2    1    2    0    0 -0.38740111972E+02 -0.17460709246E+02 -0.88289625483E+01  0.47787271635E+02  0.20000002693E+02 0.  0.
        -12    1    1    2    0    0  0.38740111972E+02  0.17460709246E+02  0.88289625483E+01  0.43400728365E+02  0.00000000000E+00 0.  1.
         11    1    3    3    0    0 -0.36365443983E+00 -0.32062059230E+01  0.11945724581E+00  0.32289737173E+01  0.51100000000E-03 0. -1.
        -11    1    3    3    0    0 -0.39687107483E+01 -0.21826497461E+01  0.38182393604E+01  0.59239832032E+01  0.51100000000E-03 0.  1.
         12    1    3    3    0    0 -0.34407746783E+02 -0.12071853577E+02 -0.12766659155E+02  0.38634314714E+02  0.00000000000E+00 0. -1.
</event>
<event>
 7    1  0.4430431E-010  0.4778727E+02  0.7816164E-02  0.1312668E+00
        -11   -1    0    0    0    0  0.00000000000E+00  0.00000000000E+00  0.45593999997E+02  0.45594000000E+02  0.51100000000E-03 0.  1.
         11   -1    0    0    0    0 -0.00000000000E+00 -0.00000000000E+00 -0.45593999997E+02  0.45594000000E+02  0.51100000000E-03 0. -1.
    9900012    2    1    2    0    0  0.67935463044E+01  0.27883723925E+02 -0.32557169902E+02  0.47787266788E+02  0.19999980593E+02 0.  0.
        -12    1    1    2    0    0 -0.67935463044E+01 -0.27883723925E+02  0.32557169902E+02  0.43400733212E+02  0.00000000000E+00 0.  1.
         11    1    3    3    0    0  0.52838385862E+01  0.27680331129E+01 -0.53228038187E+01  0.79945730513E+01  0.51100000000E-03 0.  1.
        -11    1    3    3    0    0  0.29587118062E+01  0.78142115434E+01 -0.11154996832E+01  0.84297222613E+01  0.51100000000E-03 0. -1.
        -12    1    3    3    0    0 -0.14490040880E+01  0.17301479269E+02 -0.26118866400E+02  0.31362971475E+02  0.00000000000E+00 0.  1.
</event>
<event>
 7    1  0.4430431E-010  0.4778727E+02  0.7816164E-02  0.1312668E+00
        -11   -1    0    0    0    0  0.00000000000E+00  0.00000000000E+00  0.45593999997E+02  0.45594000000E+02  0.51100000000E-03 0.  1.
         11   -1    0    0    0    0 -0.00000000000E+00 -0.00000000000E+00 -0.45593999997E+02  0.45594000000E+02  0.51100000000E-03 0. -1.
    9900012    2    1    2    0    0  0.22983488959E+02  0.12372572073E+02 -0.34674226828E+02  0.47787270622E+02  0.19999998074E+02 0.  0.
        -12    1    1    2    0    0 -0.22983488959E+02 -0.12372572073E+02  0.34674226828E+02  0.43400729378E+02  0.00000000000E+00 0.  1.
         11    1    3    3    0    0 -0.14278921761E+01 -0.77727241267E+00 -0.80851719481E+00  0.18156896170E+01  0.51100000000E-03 0.  1.
        -11    1    3    3    0    0  0.77351804377E+01  0.11650977138E+02 -0.11972574519E+02  0.18409802431E+02  0.51100000000E-03 0. -1.
         12    1    3    3    0    0  0.16676200698E+02  0.14988673475E+01 -0.21893135114E+02  0.27561778574E+02  0.00000000000E+00 0. -1.
</event>
<event>
 7    1  0.4430431E-010  0.4778728E+02  0.7816164E-02  0.1312668E+00
        -11   -1    0    0    0    0  0.00000000000E+00  0.00000000000E+00  0.45593999997E+02  0.45594000000E+02  0.51100000000E-03 0. -1.
         11   -1    0    0    0    0 -0.00000000000E+00 -0.00000000000E+00 -0.45593999997E+02  0.45594000000E+02  0.51100000000E-03 0.  1.
    9900012    2    1    2    0    0  0.21338407573E+02 -0.18359627833E+02  0.33033609436E+02  0.47787275071E+02  0.20000018359E+02 0.  0.
        -12    1    1    2    0    0 -0.21338407573E+02  0.18359627833E+02 -0.33033609436E+02  0.43400724929E+02  0.00000000000E+00 0.  1.
         11    1    3    3    0    0  0.12602456434E+02 -0.57785307191E+01  0.80813116584E+01  0.16047458485E+02  0.51100000000E-03 0. -1.
        -11    1    3    3    0    0  0.47156583025E+01 -0.11800795381E+02  0.98115588025E+01  0.16054995834E+02  0.51100000000E-03 0.  1.
         12    1    3    3    0    0  0.40202928371E+01 -0.78030173350E+00  0.15140738976E+02  0.15684820752E+02  0.00000000000E+00 0. -1.
</event>
<event>
 7    1  0.4430431E-010  0.4778728E+02  0.7816164E-02  0.1312668E+00
        -11   -1    0    0    0    0  0.00000000000E+00  0.00000000000E+00  0.45593999997E+02  0.45594000000E+02  0.51100000000E-03 0.  1.
         11   -1    0    0    0    0 -0.00000000000E+00 -0.00000000000E+00 -0.45593999997E+02  0.45594000000E+02  0.51100000000E-03 0. -1.
    9900012    2    1    2    0    0  0.18414332133E+02 -0.39019815151E+02 -0.46892665937E+01  0.47787276233E+02  0.20000023659E+02 0.  0.
        -12    1    1    2    0    0 -0.18414332133E+02  0.39019815151E+02  0.46892665937E+01  0.43400723767E+02  0.00000000000E+00 0.  1.
         11    1    3    3    0    0  0.60725388833E+01 -0.11417771202E+02  0.53814653560E+01  0.14007190915E+02  0.51100000000E-03 0.  1.
        -11    1    3    3    0    0  0.38166489735E+01 -0.10435864814E+01  0.42075769411E+00  0.39790601188E+01  0.51100000000E-03 0. -1.
        -12    1    3    3    0    0  0.85251442757E+01 -0.26558457468E+02 -0.10491489644E+02  0.29801025199E+02  0.00000000000E+00 0.  1.
</event>
<event>
 7    1  0.4430431E-010  0.4778727E+02  0.7816164E-02  0.1312668E+00
        -11   -1    0    0    0    0  0.00000000000E+00  0.00000000000E+00  0.45593999997E+02  0.45594000000E+02  0.51100000000E-03 0.  1.
         11   -1    0    0    0    0 -0.00000000000E+00 -0.00000000000E+00 -0.45593999997E+02  0.45594000000E+02  0.51100000000E-03 0. -1.
    9900012    2    1    2    0    0 -0.87722819416E+01  0.15857147362E+02 -0.39436291015E+02  0.47787273025E+02  0.20000009030E+02 0.  0.
        -12    1    1    2    0    0  0.87722819416E+01 -0.15857147362E+02  0.39436291015E+02  0.43400726975E+02  0.00000000000E+00 0.  1.
         11    1    3    3    0    0  0.21065338551E+01  0.92474828768E+01 -0.16796481705E+02  0.19289251473E+02  0.51100000000E-03 0. -1.
        -11    1    3    3    0    0  0.14511197567E+01  0.13138429179E+01  0.24116876358E+00  0.19723322223E+01  0.51100000000E-03 0.  1.
        -12    1    3    3    0    0 -0.12329935554E+02  0.52958215675E+01 -0.22880978074E+02  0.26525689330E+02  0.00000000000E+00 0.  1.
</event>
<event>
 7    1  0.4430431E-010  0.4778727E+02  0.7816164E-02  0.1312668E+00
        -11   -1    0    0    0    0  0.00000000000E+00  0.00000000000E+00  0.45593999997E+02  0.45594000000E+02  0.51100000000E-03 0.  1.
         11   -1    0    0    0    0 -0.00000000000E+00 -0.00000000000E+00 -0.45593999997E+02  0.45594000000E+02  0.51100000000E-03 0. -1.
    9900012    2    1    2    0    0  0.13363195219E+02  0.94995368685E+01 -0.40184660290E+02  0.47787272935E+02  0.20000008620E+02 0.  0.
        -12    1    1    2    0    0 -0.13363195219E+02 -0.94995368685E+01  0.40184660290E+02  0.43400727065E+02  0.00000000000E+00 0.  1.
         11    1    3    3    0    0  0.26794636663E+01  0.75283375638E+01 -0.12569011878E+02  0.14894141529E+02  0.51100000000E-03 0. -1.
        -11    1    3    3    0    0  0.39993588474E+01  0.73199688378E+01 -0.18985544156E+02  0.20737109300E+02  0.51100000000E-03 0.  1.
        -12    1    3    3    0    0  0.66843727057E+01 -0.53487695330E+01 -0.86301042554E+01  0.12156022106E+02  0.00000000000E+00 0.  1.
</event>
<event>
 7    1  0.4430431E-010  0.4778727E+02  0.7816164E-02  0.1312668E+00
        -11   -1    0    0    0    0  0.00000000000E+00  0.00000000000E+00  0.45593999997E+02  0.45594000000E+02  0.51100000000E-03 0.  1.
         11   -1    0    0    0    0 -0.00000000000E+00 -0.00000000000E+00 -0.45593999997E+02  0.45594000000E+02  0.51100000000E-03 0. -1.
    9900012    2    1    2    0    0 -0.37444134417E+02  0.19988630543E+02 -0.90561951756E+01  0.47787271616E+02  0.20000002607E+02 0.  0.
        -12    1    1    2    0    0  0.37444134417E+02 -0.19988630543E+02  0.90561951756E+01  0.43400728384E+02  0.00000000000E+00 0.  1.
         11    1    3    3    0    0 -0.24451828681E+02  0.18485667907E+02 -0.71195868932E+01  0.31469038142E+02  0.51100000000E-03 0. -1.
        -11    1    3    3    0    0 -0.80797804069E+01  0.54932061889E+01 -0.20734311932E+01  0.99878567687E+01  0.51100000000E-03 0.  1.
        -12    1    3    3    0    0 -0.49125253288E+01 -0.39902435534E+01  0.13682291075E+00  0.63303767053E+01  0.00000000000E+00 0.  1.
</event>
<event>
 7    1  0.4430431E-010  0.4778727E+02  0.7816164E-02  0.1312668E+00
        -11   -1    0    0    0    0  0.00000000000E+00  0.00000000000E+00  0.45593999997E+02  0.45594000000E+02  0.51100000000E-03 0.  1.
         11   -1    0    0    0    0 -0.00000000000E+00 -0.00000000000E+00 -0.45593999997E+02  0.45594000000E+02  0.51100000000E-03 0. -1.
    9900012    2    1    2    0    0 -0.23095746690E+02  0.36652528650E+02 -0.26080120606E+01  0.47787273065E+02  0.20000009212E+02 0.  0.
        -12    1    1    2    0    0  0.23095746690E+02 -0.36652528650E+02  0.26080120606E+01  0.43400726935E+02  0.00000000000E+00 0.  1.
         11    1    3    3    0    0 -0.24190350833E+01  0.16760122730E+00  0.20854736879E+01  0.31982841759E+01  0.51100000000E-03 0.  1.
        -11    1    3    3    0    0 -0.16515140041E+02  0.16354506342E+02 -0.59577927906E+01  0.23994062254E+02  0.51100000000E-03 0. -1.
         12    1    3    3    0    0 -0.41615715652E+01  0.20130421081E+02  0.12643070421E+01  0.20594926635E+02  0.00000000000E+00 0. -1.
</event>
<event>
 7    1  0.4430431E-010  0.4778727E+02  0.7816164E-02  0.1312668E+00
        -11   -1    0    0    0    0  0.00000000000E+00  0.00000000000E+00  0.45593999997E+02  0.45594000000E+02  0.51100000000E-03 0. -1.
         11   -1    0    0    0    0 -0.00000000000E+00 -0.00000000000E+00 -0.45593999997E+02  0.45594000000E+02  0.51100000000E-03 0.  1.
    9900012    2    1    2    0    0 -0.34330190723E+02  0.26538459371E+02  0.87844695351E+00  0.47787268555E+02  0.19999988650E+02 0.  0.
        -12    1    1    2    0    0  0.34330190723E+02 -0.26538459371E+02 -0.87844695351E+00  0.43400731445E+02  0.00000000000E+00 0.  1.
         11    1    3    3    0    0 -0.30156857629E+02  0.28722010499E+02  0.36845171997E+01  0.41808678721E+02  0.51100000000E-03 0. -1.
        -11    1    3    3    0    0  0.16541276452E+00 -0.24498036647E+00 -0.73981117747E+00  0.79667910858E+00  0.51100000000E-03 0.  1.
         12    1    3    3    0    0 -0.43387458589E+01 -0.19385707611E+01 -0.20662590688E+01  0.51819107251E+01  0.00000000000E+00 0. -1.
</event>
<event>
 7    1  0.4430431E-010  0.4778728E+02  0.7816164E-02  0.1312668E+00
        -11   -1    0    0    0    0  0.00000000000E+00  0.00000000000E+00  0.45593999997E+02  0.45594000000E+02  0.51100000000E-03 0.  1.
         11   -1    0    0    0    0 -0.00000000000E+00 -0.00000000000E+00 -0.45593999997E+02  0.45594000000E+02  0.51100000000E-03 0. -1.
    9900012    2    1    2    0    0  0.39950396467E+02 -0.57144287629E+01 -0.15966647465E+02  0.47787277595E+02  0.20000029868E+02 0.  0.
        -12    1    1    2    0    0 -0.39950396467E+02  0.57144287629E+01  0.15966647465E+02  0.43400722405E+02  0.00000000000E+00 0.  1.
         11    1    3    3    0    0  0.30721362809E+01  0.62456015249E-01 -0.51348042603E+01  0.59839900681E+01  0.51100000000E-03 0. -1.
        -11    1    3    3    0    0  0.27999968219E+02  0.26240465898E+01 -0.68067614193E+01  0.28934682339E+02  0.51100000000E-03 0.  1.
        -12    1    3    3    0    0  0.88782919669E+01 -0.84009313680E+01 -0.40250817856E+01  0.12868605188E+02  0.00000000000E+00 0.  1.
</event>
<event>
 7    1  0.4430431E-010  0.4778733E+02  0.7816164E-02  0.1312668E+00
        -11   -1    0    0    0    0  0.00000000000E+00  0.00000000000E+00  0.45593999997E+02  0.45594000000E+02  0.51100000000E-03 0. -1.
         11   -1    0    0    0    0 -0.00000000000E+00 -0.00000000000E+00 -0.45593999997E+02  0.45594000000E+02  0.51100000000E-03 0.  1.
    9900012    2    1    2    0    0 -0.32908538429E+02  0.16082720833E+02  0.23280732421E+02  0.47787328196E+02  0.20000260577E+02 0.  0.
        -12    1    1    2    0    0  0.32908538429E+02 -0.16082720833E+02 -0.23280732421E+02  0.43400671804E+02  0.00000000000E+00 0.  1.
         11    1    3    3    0    0 -0.53243949193E+01 -0.23106869599E+01  0.49222963350E+01  0.76103519599E+01  0.51100000000E-03 0. -1.
        -11    1    3    3    0    0 -0.17225762224E+02  0.15448298873E+02  0.62395851363E+01  0.23964750055E+02  0.51100000000E-03 0.  1.
         12    1    3    3    0    0 -0.10358381286E+02  0.29451089201E+01  0.12118850950E+02  0.16212226182E+02  0.00000000000E+00 0. -1.
</event>
<event>
 7    1  0.4430431E-010  0.4778727E+02  0.7816164E-02  0.1312668E+00
        -11   -1    0    0    0    0  0.00000000000E+00  0.00000000000E+00  0.45593999997E+02  0.45594000000E+02  0.51100000000E-03 0.  1.
         11   -1    0    0    0    0 -0.00000000000E+00 -0.00000000000E+00 -0.45593999997E+02  0.45594000000E+02  0.51100000000E-03 0. -1.
    9900012    2    1    2    0    0 -0.12284928703E+02 -0.20387144882E+02 -0.36291435307E+02  0.47787269288E+02  0.19999991993E+02 0.  0.
        -12    1    1    2    0    0  0.12284928703E+02  0.20387144882E+02  0.36291435307E+02  0.43400730712E+02  0.00000000000E+00 0.  1.
         11    1    3    3    0    0 -0.26249902186E+00 -0.19236340428E+01 -0.77774110402E+01  0.80160711334E+01  0.51100000000E-03 0. -1.
        -11    1    3    3    0    0 -0.12065926265E+02 -0.54306663247E+01 -0.20723234363E+02  0.24587215297E+02  0.51100000000E-03 0.  1.
         12    1    3    3    0    0  0.43496583699E-01 -0.13032844515E+02 -0.77907899039E+01  0.15183982858E+02  0.00000000000E+00 0. -1.
</event>
<event>
 7    1  0.4430431E-010  0.4778729E+02  0.7816164E-02  0.1312668E+00
        -11   -1    0    0    0    0  0.00000000000E+00  0.00000000000E+00  0.45593999997E+02  0.45594000000E+02  0.51100000000E-03 0.  1.
         11   -1    0    0    0    0 -0.00000000000E+00 -0.00000000000E+00 -0.45593999997E+02  0.45594000000E+02  0.51100000000E-03 0. -1.
    9900012    2    1    2    0    0  0.18234289061E+02 -0.39301152277E+02 -0.25596524300E+01  0.47787289309E+02  0.20000083277E+02 0.  0.
        -12    1    1    2    0    0 -0.18234289061E+02  0.39301152277E+02  0.25596524300E+01  0.43400710691E+02  0.00000000000E+00 0.  1.
         11    1    3    3    0    0  0.33394879386E+01 -0.24806098674E+01  0.76185173322E+00  0.42291870768E+01  0.51100000000E-03 0. -1.
        -11    1    3    3    0    0  0.58611905288E+01 -0.30833670954E+02  0.20693839533E+01  0.31453953156E+02  0.51100000000E-03 0.  1.
        -12    1    3    3    0    0  0.90336105937E+01 -0.59868714562E+01 -0.53908881166E+01  0.12104149077E+02  0.00000000000E+00 0.  1.
</event>
<event>
 7    1  0.4430431E-010  0.4778728E+02  0.7816164E-02  0.1312668E+00
        -11   -1    0    0    0    0  0.00000000000E+00  0.00000000000E+00  0.45593999997E+02  0.45594000000E+02  0.51100000000E-03 0.  1.
         11   -1    0    0    0    0 -0.00000000000E+00 -0.00000000000E+00 -0.45593999997E+02  0.45594000000E+02  0.51100000000E-03 0. -1.
    9900012    2    1    2    0    0 -0.54879762029E+01  0.42163361991E+02 -0.87037857204E+01  0.47787275777E+02  0.20000021577E+02 0.  0.
        -12    1    1    2    0    0  0.54879762029E+01 -0.42163361991E+02  0.87037857204E+01  0.43400724223E+02  0.00000000000E+00 0.  1.
         11    1    3    3    0    0  0.11992588685E-01  0.24887169782E+02 -0.32899910310E+01  0.25103693051E+02  0.51100000000E-03 0. -1.
        -11    1    3    3    0    0  0.39029804704E+01  0.32691976277E+01 -0.52030723667E+00  0.51177758415E+01  0.51100000000E-03 0.  1.
         12    1    3    3    0    0 -0.94029492621E+01  0.14006994582E+02 -0.48934874528E+01  0.17565806884E+02  0.00000000000E+00 0. -1.
</event>
<event>
 7    1  0.4430431E-010  0.4778728E+02  0.7816164E-02  0.1312668E+00
        -11   -1    0    0    0    0  0.00000000000E+00  0.00000000000E+00  0.45593999997E+02  0.45594000000E+02  0.51100000000E-03 0.  1.
         11   -1    0    0    0    0 -0.00000000000E+00 -0.00000000000E+00 -0.45593999997E+02  0.45594000000E+02  0.51100000000E-03 0. -1.
    9900012    2    1    2    0    0 -0.33940613015E+02  0.26348456911E+02  0.61168720324E+01  0.47787279765E+02  0.20000039762E+02 0.  0.
        -12    1    1    2    0    0  0.33940613015E+02 -0.26348456911E+02 -0.61168720324E+01  0.43400720235E+02  0.00000000000E+00 0.  1.
         11    1    3    3    0    0 -0.73142471107E+01  0.10855419710E+02  0.51434510194E+01  0.14063905451E+02  0.51100000000E-03 0. -1.
        -11    1    3    3    0    0 -0.46899663800E+01 -0.62798992278E+00  0.41780339702E+01  0.63123786409E+01  0.51100000000E-03 0.  1.
         12    1    3    3    0    0 -0.21936399524E+02  0.16121027124E+02 -0.32046129571E+01  0.27410995674E+02  0.00000000000E+00 0. -1.
</event>
<event>
 7    1  0.4430431E-010  0.4778726E+02  0.7816164E-02  0.1312668E+00
        -11   -1    0    0    0    0  0.00000000000E+00  0.00000000000E+00  0.45593999997E+02  0.45594000000E+02  0.51100000000E-03 0.  1.
         11   -1    0    0    0    0 -0.00000000000E+00 -0.00000000000E+00 -0.45593999997E+02  0.45594000000E+02  0.51100000000E-03 0. -1.
    9900012    2    1    2    0    0 -0.89183083443E+01 -0.41990696577E+02  0.63929044738E+01  0.47787262099E+02  0.19999959212E+02 0.  0.
        -12    1    1    2    0    0  0.89183083443E+01  0.41990696577E+02 -0.63929044738E+01  0.43400737901E+02  0.00000000000E+00 0.  1.
         11    1    3    3    0    0 -0.75949985079E+01 -0.15217727985E+02 -0.52874802982E+01  0.17810690484E+02  0.51100000000E-03 0. -1.
        -11    1    3    3    0    0 -0.32308904438E+01 -0.85206631633E+01  0.24604065470E+01  0.94389593940E+01  0.51100000000E-03 0.  1.
        -12    1    3    3    0    0  0.19075806074E+01 -0.18252305429E+02  0.92199782250E+01  0.20537612221E+02  0.00000000000E+00 0.  1.
</event>
<event>
 7    1  0.4430431E-010  0.4778727E+02  0.7816164E-02  0.1312668E+00
        -11   -1    0    0    0    0  0.00000000000E+00  0.00000000000E+00  0.45593999997E+02  0.45594000000E+02  0.51100000000E-03 0.  1.
         11   -1    0    0    0    0 -0.00000000000E+00 -0.00000000000E+00 -0.45593999997E+02  0.45594000000E+02  0.51100000000E-03 0. -1.
    9900012    2    1    2    0    0  0.23016641582E+02 -0.29934255833E+02 -0.21396202986E+02  0.47787274612E+02  0.20000016264E+02 0.  0.
        -12    1    1    2    0    0 -0.23016641582E+02  0.29934255833E+02  0.21396202986E+02  0.43400725388E+02  0.00000000000E+00 0.  1.
         11    1    3    3    0    0  0.77242298378E+01 -0.15883343791E+00 -0.20786190011E+01  0.80006007188E+01  0.51100000000E-03 0. -1.
        -11    1    3    3    0    0  0.40005565634E+01 -0.13930907524E+01 -0.23247587960E+01  0.48321484230E+01  0.51100000000E-03 0.  1.
        -12    1    3    3    0    0  0.11291855181E+02 -0.28382331643E+02 -0.16992825189E+02  0.34954525470E+02  0.00000000000E+00 0.  1.
</event>
<event>
 7    1  0.4430431E-010  0.4778727E+02  0.7816164E-02  0.1312668E+00
        -11   -1    0    0    0    0  0.00000000000E+00  0.00000000000E+00  0.45593999997E+02  0.45594000000E+02  0.51100000000E-03 0.  1.
         11   -1    0    0    0    0 -0.00000000000E+00 -0.00000000000E+00 -0.45593999997E+02  0.45594000000E+02  0.51100000000E-03 0. -1.
    9900012    2    1    2    0    0  0.12992804832E+02 -0.33392973824E+02 -0.24489173180E+02  0.47787270959E+02  0.19999999612E+02 0.  0.
        -12    1    1    2    0    0 -0.12992804832E+02  0.33392973824E+02  0.24489173180E+02  0.43400729041E+02  0.00000000000E+00 0.  1.
         11    1    3    3    0    0  0.85774694907E+01 -0.92576812825E+01 -0.57925778371E+01  0.13886381957E+02  0.51100000000E-03 0. -1.
        -11    1    3    3    0    0 -0.26950687298E+00 -0.44095276907E+01  0.20697564141E+01  0.48785715414E+01  0.51100000000E-03 0.  1.
         12    1    3    3    0    0  0.46848422144E+01 -0.19725764851E+02 -0.20766351757E+02  0.29022317461E+02  0.00000000000E+00 0. -1.
</event>
<event>
 7    1  0.4430431E-010  0.4778727E+02  0.7816164E-02  0.1312668E+00
        -11   -1    0    0    0    0  0.00000000000E+00  0.00000000000E+00  0.45593999997E+02  0.45594000000E+02  0.51100000000E-03 0.  1.
         11   -1    0    0    0    0 -0.00000000000E+00 -0.00000000000E+00 -0.45593999997E+02  0.45594000000E+02  0.51100000000E-03 0. -1.
    9900012    2    1    2    0    0  0.22457363749E+02 -0.26412405747E+02 -0.26108904263E+02  0.47787271368E+02  0.20000001477E+02 0.  0.
        -12    1    1    2    0    0 -0.22457363749E+02  0.26412405747E+02  0.26108904263E+02  0.43400728632E+02  0.00000000000E+00 0.  1.
         11    1    3    3    0    0  0.22471216034E+01  0.39239808029E+00 -0.83356053619E+00  0.24286529563E+01  0.51100000000E-03 0.  1.
        -11    1    3    3    0    0  0.12996046144E+02 -0.12907879966E+02 -0.36780792210E+01  0.18682581395E+02  0.51100000000E-03 0. -1.
         12    1    3    3    0    0  0.72141960023E+01 -0.13896923862E+02 -0.21597264506E+02  0.26676037017E+02  0.00000000000E+00 0. -1.
</event>
<event>
 7    1  0.4430431E-010  0.4778727E+02  0.7816164E-02  0.1312668E+00
        -11   -1    0    0    0    0  0.00000000000E+00  0.00000000000E+00  0.45593999997E+02  0.45594000000E+02  0.51100000000E-03 0.  1.
         11   -1    0    0    0    0 -0.00000000000E+00 -0.00000000000E+00 -0.45593999997E+02  0.45594000000E+02  0.51100000000E-03 0. -1.
    9900012    2    1    2    0    0 -0.34748017519E+02 -0.25891596602E+02 -0.24132628353E+01  0.47787270357E+02  0.19999996864E+02 0.  0.
        -12    1    1    2    0    0  0.34748017519E+02  0.25891596602E+02  0.24132628353E+01  0.43400729643E+02  0.00000000000E+00 0.  1.
         11    1    3    3    0    0 -0.16495483103E+02 -0.92405518645E+01  0.31721964072E+01  0.19171635086E+02  0.51100000000E-03 0. -1.
        -11    1    3    3    0    0 -0.15616070081E+02 -0.93846720570E+01  0.12978571562E+01  0.18265216885E+02  0.51100000000E-03 0.  1.
         12    1    3    3    0    0 -0.26364643347E+01 -0.72663726801E+01 -0.68833163988E+01  0.10350418386E+02  0.00000000000E+00 0. -1.
</event>
<event>
 7    1  0.4430431E-010  0.4778727E+02  0.7816164E-02  0.1312668E+00
        -11   -1    0    0    0    0  0.00000000000E+00  0.00000000000E+00  0.45593999997E+02  0.45594000000E+02  0.51100000000E-03 0.  1.
         11   -1    0    0    0    0 -0.00000000000E+00 -0.00000000000E+00 -0.45593999997E+02  0.45594000000E+02  0.51100000000E-03 0. -1.
    9900012    2    1    2    0    0  0.39651339395E+01  0.34442872375E+02 -0.26107267018E+02  0.47787272636E+02  0.20000007254E+02 0.  0.
        -12    1    1    2    0    0 -0.39651339395E+01 -0.34442872375E+02  0.26107267018E+02  0.43400727364E+02  0.00000000000E+00 0.  1.
         11    1    3    3    0    0 -0.33299995301E+01  0.46630804168E+01  0.17245953185E+00  0.57326222966E+01  0.51100000000E-03 0. -1.
        -11    1    3    3    0    0  0.21279950790E+01  0.27516637875E+01  0.66536886741E+00  0.35415720586E+01  0.51100000000E-03 0.  1.
         12    1    3    3    0    0  0.51671383906E+01  0.27028128171E+02 -0.26945095418E+02  0.38513078280E+02  0.00000000000E+00 0. -1.
</event>
<event>
 7    1  0.4430431E-010  0.4778729E+02  0.7816164E-02  0.1312668E+00
        -11   -1    0    0    0    0  0.00000000000E+00  0.00000000000E+00  0.45593999997E+02  0.45594000000E+02  0.51100000000E-03 0. -1.
         11   -1    0    0    0    0 -0.00000000000E+00 -0.00000000000E+00 -0.45593999997E+02  0.45594000000E+02  0.51100000000E-03 0.  1.
    9900012    2    1    2    0    0  0.40073330542E+02  0.16504881859E+02  0.23106054999E+01  0.47787287521E+02  0.20000075125E+02 0.  0.
        -12    1    1    2    0    0 -0.40073330542E+02 -0.16504881859E+02 -0.23106054999E+01  0.43400712479E+02  0.00000000000E+00 0.  1.
         11    1    3    3    0    0 -0.41938969394E+00 -0.14913799916E+01  0.61527726977E-01  0.15504476505E+01  0.51100000000E-03 0. -1.
        -11    1    3    3    0    0  0.16668148377E+02  0.67295854926E+00  0.17779152742E+01  0.16776204175E+02  0.51100000000E-03 0.  1.
        -12    1    3    3    0    0  0.23824571858E+02  0.17323303302E+02  0.47116249868E+00  0.29460635696E+02  0.00000000000E+00 0.  1.
</event>
<event>
 7    1  0.4430431E-010  0.4778727E+02  0.7816164E-02  0.1312668E+00
        -11   -1    0    0    0    0  0.00000000000E+00  0.00000000000E+00  0.45593999997E+02  0.45594000000E+02  0.51100000000E-03 0.  1.
         11   -1    0    0    0    0 -0.00000000000E+00 -0.00000000000E+00 -0.45593999997E+02  0.45594000000E+02  0.51100000000E-03 0. -1.
    9900012    2    1    2    0    0  0.72632084602E+01  0.20043990279E+02 -0.37803535505E+02  0.47787273738E+02  0.20000012280E+02 0.  0.
        -12    1    1    2    0    0 -0.72632084602E+01 -0.20043990279E+02  0.37803535505E+02  0.43400726262E+02  0.00000000000E+00 0.  1.
         11    1    3    3    0    0 -0.21373874072E+01  0.10898061039E+01 -0.12747840272E+01  0.27168321349E+01  0.51100000000E-03 0. -1.
        -11    1    3    3    0    0  0.98441507130E+01  0.33003029621E+01 -0.11039610571E+02  0.15154943244E+02  0.51100000000E-03 0.  1.
         12    1    3    3    0    0 -0.44355484562E+00  0.15653881213E+02 -0.25489140906E+02  0.29915498359E+02  0.00000000000E+00 0. -1.
</event>
<event>
 7    1  0.4430431E-010  0.4778727E+02  0.7816164E-02  0.1312668E+00
        -11   -1    0    0    0    0  0.00000000000E+00  0.00000000000E+00  0.45593999997E+02  0.45594000000E+02  0.51100000000E-03 0. -1.
         11   -1    0    0    0    0 -0.00000000000E+00 -0.00000000000E+00 -0.45593999997E+02  0.45594000000E+02  0.51100000000E-03 0.  1.
    9900012    2    1    2    0    0  0.15464675637E+02 -0.36769869593E+02  0.17100992928E+02  0.47787268882E+02  0.19999990142E+02 0.  0.
        -12    1    1    2    0    0 -0.15464675637E+02  0.36769869593E+02 -0.17100992928E+02  0.43400731118E+02  0.00000000000E+00 0.  1.
         11    1    3    3    0    0  0.84042512200E+01 -0.99006481068E+01  0.10844788721E+01  0.13031898027E+02  0.51100000000E-03 0. -1.
        -11    1    3    3    0    0  0.71668664878E+01 -0.82797164153E+01  0.10953101748E+02  0.15488321967E+02  0.51100000000E-03 0.  1.
        -12    1    3    3    0    0 -0.10644207047E+00 -0.18589505070E+02  0.50634123078E+01  0.19267048889E+02  0.00000000000E+00 0.  1.
</event>
<event>
 7    1  0.4430431E-010  0.4778727E+02  0.7816164E-02  0.1312668E+00
        -11   -1    0    0    0    0  0.00000000000E+00  0.00000000000E+00  0.45593999997E+02  0.45594000000E+02  0.51100000000E-03 0.  1.
         11   -1    0    0    0    0 -0.00000000000E+00 -0.00000000000E+00 -0.45593999997E+02  0.45594000000E+02  0.51100000000E-03 0. -1.
    9900012    2    1    2    0    0 -0.23608682929E+02  0.32532400460E+02 -0.16367540542E+02  0.47787269905E+02  0.19999994806E+02 0.  0.
        -12    1    1    2    0    0  0.23608682929E+02 -0.32532400460E+02  0.16367540542E+02  0.43400730095E+02  0.00000000000E+00 0.  1.
         11    1    3    3    0    0 -0.14100663838E+01  0.65827213513E+01 -0.34401048819E+01  0.75600813128E+01  0.51100000000E-03 0. -1.
        -11    1    3    3    0    0  0.91639493335E+00  0.13431834943E+01 -0.53973187040E+01  0.56369292197E+01  0.51100000000E-03 0.  1.
         12    1    3    3    0    0 -0.23115011479E+02  0.24606495615E+02 -0.75301169558E+01  0.34590259373E+02  0.00000000000E+00 0. -1.
</event>
<event>
 7    1  0.4430431E-010  0.4778727E+02  0.7816164E-02  0.1312668E+00
        -11   -1    0    0    0    0  0.00000000000E+00  0.00000000000E+00  0.45593999997E+02  0.45594000000E+02  0.51100000000E-03 0.  1.
         11   -1    0    0    0    0 -0.00000000000E+00 -0.00000000000E+00 -0.45593999997E+02  0.45594000000E+02  0.51100000000E-03 0. -1.
    9900012    2    1    2    0    0  0.32764892996E+02  0.15077940750E+01 -0.28422024392E+02  0.47787272742E+02  0.20000007739E+02 0.  0.
        -12    1    1    2    0    0 -0.32764892996E+02 -0.15077940750E+01  0.28422024392E+02  0.43400727258E+02  0.00000000000E+00 0.  1.
         11    1    3    3    0    0  0.18757296357E+02  0.16147748141E+01 -0.18932735801E+02  0.26700040253E+02  0.51100000000E-03 0. -1.
        -11    1    3    3    0    0  0.17181844736E+01 -0.44664201023E+00 -0.85775805285E+01  0.87593684107E+01  0.51100000000E-03 0.  1.
         12    1    3    3    0    0  0.12289412165E+02  0.33966127113E+00 -0.91170806229E+00  0.12327864078E+02  0.00000000000E+00 0. -1.
</event>
<event>
 7    1  0.4430431E-010  0.4778727E+02  0.7816164E-02  0.1312668E+00
        -11   -1    0    0    0    0  0.00000000000E+00  0.00000000000E+00  0.45593999997E+02  0.45594000000E+02  0.51100000000E-03 0.  1.
         11   -1    0    0    0    0 -0.00000000000E+00 -0.00000000000E+00 -0.45593999997E+02  0.45594000000E+02  0.51100000000E-03 0. -1.
    9900012    2    1    2    0    0 -0.93171840091E+01 -0.40964570123E+02 -0.10895746634E+02  0.47787271689E+02  0.20000002937E+02 0.  0.
        -12    1    1    2    0    0  0.93171840091E+01  0.40964570123E+02  0.10895746634E+02  0.43400728311E+02  0.00000000000E+00 0.  1.
         11    1    3    3    0    0 -0.42944769836E+01 -0.92537944299E+00 -0.30911975054E+01  0.53716256343E+01  0.51100000000E-03 0. -1.
        -11    1    3    3    0    0 -0.48059124925E+01 -0.76746549184E+01 -0.37360402909E+01  0.97956684467E+01  0.51100000000E-03 0.  1.
        -12    1    3    3    0    0 -0.21679453300E+00 -0.32364535762E+02 -0.40685088380E+01  0.32619977608E+02  0.00000000000E+00 0.  1.
</event>
<event>
 7    1  0.4663866E-010  0.4778727E+02  0.7816164E-02  0.1312668E+00
        -11   -1    0    0    0    0  0.00000000000E+00  0.00000000000E+00  0.45593999997E+02  0.45594000000E+02  0.51100000000E-03 0. -1.
         11   -1    0    0    0    0 -0.00000000000E+00 -0.00000000000E+00 -0.45593999997E+02  0.45594000000E+02  0.51100000000E-03 0.  1.
    9900012    2    1    2    0    0 -0.43334096965E+02 -0.42030806088E+00  0.23669580641E+01  0.47787272943E+02  0.20000008655E+02 0.  0.
        -12    1    1    2    0    0  0.43334096965E+02  0.42030806088E+00 -0.23669580641E+01  0.43400727057E+02  0.00000000000E+00 0.  1.
         11    1    3    3    0    0 -0.18656495217E+02  0.48014789056E+00  0.33681505403E+01  0.18964171327E+02  0.51100000000E-03 0. -1.
        -11    1    3    3    0    0 -0.13901294094E+01 -0.21476419057E+01 -0.45635792947E+01  0.52317379302E+01  0.51100000000E-03 0.  1.
        -12    1    3    3    0    0 -0.23287472338E+02  0.12471859542E+01  0.35623868185E+01  0.23591363686E+02  0.00000000000E+00 0.  1.
</event>
<event>
 7    1  0.4430431E-010  0.4778727E+02  0.7816164E-02  0.1312668E+00
        -11   -1    0    0    0    0  0.00000000000E+00  0.00000000000E+00  0.45593999997E+02  0.45594000000E+02  0.51100000000E-03 0.  1.
         11   -1    0    0    0    0 -0.00000000000E+00 -0.00000000000E+00 -0.45593999997E+02  0.45594000000E+02  0.51100000000E-03 0. -1.
    9900012    2    1    2    0    0 -0.34463694868E+02 -0.18276751264E+02  0.19022027195E+02  0.47787269368E+02  0.19999992358E+02 0.  0.
        -12    1    1    2    0    0  0.34463694868E+02  0.18276751264E+02 -0.19022027195E+02  0.43400730632E+02  0.00000000000E+00 0.  1.
         11    1    3    3    0    0 -0.15395078184E+00 -0.21720358425E+01  0.31621970801E+01  0.38393920325E+01  0.51100000000E-03 0. -1.
        -11    1    3    3    0    0 -0.16765436929E+01  0.72136979630E+00  0.55053893135E+01  0.58000418009E+01  0.51100000000E-03 0.  1.
         12    1    3    3    0    0 -0.32633200394E+02 -0.16826085218E+02  0.10354440801E+02  0.38147835535E+02  0.00000000000E+00 0. -1.
</event>
<event>
 7    1  0.4430431E-010  0.4778727E+02  0.7816164E-02  0.1312668E+00
        -11   -1    0    0    0    0  0.00000000000E+00  0.00000000000E+00  0.45593999997E+02  0.45594000000E+02  0.51100000000E-03 0. -1.
         11   -1    0    0    0    0 -0.00000000000E+00 -0.00000000000E+00 -0.45593999997E+02  0.45594000000E+02  0.51100000000E-03 0.  1.
    9900012    2    1    2    0    0 -0.22455064877E+02  0.35420780489E+02  0.11169686367E+02  0.47787268179E+02  0.19999986937E+02 0.  0.
        -12    1    1    2    0    0  0.22455064877E+02 -0.35420780489E+02 -0.11169686367E+02  0.43400731821E+02  0.00000000000E+00 0.  1.
         11    1    3    3    0    0 -0.67035838858E+01  0.10025313210E+02  0.50939945893E+01  0.13091742550E+02  0.51100000000E-03 0. -1.
        -11    1    3    3    0    0 -0.68439697737E+01  0.12425236984E+02  0.11279139772E+02  0.18123063500E+02  0.51100000000E-03 0.  1.
        -12    1    3    3    0    0 -0.89075112172E+01  0.12970230295E+02 -0.52034479941E+01  0.16572462129E+02  0.00000000000E+00 0.  1.
</event>
<event>
 7    1  0.4430431E-010  0.4778727E+02  0.7816164E-02  0.1312668E+00
        -11   -1    0    0    0    0  0.00000000000E+00  0.00000000000E+00  0.45593999997E+02  0.45594000000E+02  0.51100000000E-03 0. -1.
         11   -1    0    0    0    0 -0.00000000000E+00 -0.00000000000E+00 -0.45593999997E+02  0.45594000000E+02  0.51100000000E-03 0.  1.
    9900012    2    1    2    0    0 -0.20940447367E+02  0.35755940129E+02  0.12908686451E+02  0.47787265256E+02  0.19999973610E+02 0.  0.
        -12    1    1    2    0    0  0.20940447367E+02 -0.35755940129E+02 -0.12908686451E+02  0.43400734744E+02  0.00000000000E+00 0.  1.
         11    1    3    3    0    0 -0.85424260014E+00  0.12855910774E+02  0.15012280779E+01  0.12971424681E+02  0.51100000000E-03 0. -1.
        -11    1    3    3    0    0  0.17323839898E+01  0.22590449404E+01  0.12572303429E+01  0.31120839846E+01  0.51100000000E-03 0.  1.
        -12    1    3    3    0    0 -0.21818588757E+02  0.20640984414E+02  0.10150228030E+02  0.31703756591E+02  0.00000000000E+00 0.  1.
</event>
<event>
 7    1  0.4430431E-010  0.4778727E+02  0.7816164E-02  0.1312668E+00
        -11   -1    0    0    0    0  0.00000000000E+00  0.00000000000E+00  0.45593999997E+02  0.45594000000E+02  0.51100000000E-03 0.  1.
         11   -1    0    0    0    0 -0.00000000000E+00 -0.00000000000E+00 -0.45593999997E+02  0.45594000000E+02  0.51100000000E-03 0. -1.
    9900012    2    1    2    0    0 -0.92496076587E+01 -0.22689618367E+02 -0.35822469184E+02  0.47787270491E+02  0.19999997475E+02 0.  0.
        -12    1    1    2    0    0  0.92496076587E+01  0.22689618367E+02  0.35822469184E+02  0.43400729509E+02  0.00000000000E+00 0.  1.
         11    1    3    3    0    0 -0.18657009553E+01 -0.68288869072E+01 -0.13597485645E+02  0.15329910391E+02  0.51100000000E-03 0. -1.
        -11    1    3    3    0    0  0.10846733275E+01  0.28316676248E+01 -0.39392310518E+01  0.49711567372E+01  0.51100000000E-03 0.  1.
         12    1    3    3    0    0 -0.84685800309E+01 -0.18692399085E+02 -0.18285752487E+02  0.27486203363E+02  0.00000000000E+00 0. -1.
</event>
<event>
 7    1  0.4430431E-010  0.4778727E+02  0.7816164E-02  0.1312668E+00
        -11   -1    0    0    0    0  0.00000000000E+00  0.00000000000E+00  0.45593999997E+02  0.45594000000E+02  0.51100000000E-03 0.  1.
         11   -1    0    0    0    0 -0.00000000000E+00 -0.00000000000E+00 -0.45593999997E+02  0.45594000000E+02  0.51100000000E-03 0. -1.
    9900012    2    1    2    0    0 -0.41422553124E+02  0.11336604327E+02 -0.62671192747E+01  0.47787270870E+02  0.19999999205E+02 0.  0.
        -12    1    1    2    0    0  0.41422553124E+02 -0.11336604327E+02  0.62671192747E+01  0.43400729130E+02  0.00000000000E+00 0.  1.
         11    1    3    3    0    0 -0.38141822773E+01  0.51828429659E+01  0.36636089560E+00  0.64454688131E+01  0.51100000000E-03 0. -1.
        -11    1    3    3    0    0 -0.53279163520E+01 -0.26385511392E+01  0.28129631812E+01  0.65773404114E+01  0.51100000000E-03 0.  1.
         12    1    3    3    0    0 -0.32280454495E+02  0.87923124998E+01 -0.94464433515E+01  0.34764461646E+02  0.00000000000E+00 0. -1.
</event>
<event>
 7    1  0.4430431E-010  0.4778727E+02  0.7816164E-02  0.1312668E+00
        -11   -1    0    0    0    0  0.00000000000E+00  0.00000000000E+00  0.45593999997E+02  0.45594000000E+02  0.51100000000E-03 0.  1.
         11   -1    0    0    0    0 -0.00000000000E+00 -0.00000000000E+00 -0.45593999997E+02  0.45594000000E+02  0.51100000000E-03 0. -1.
    9900012    2    1    2    0    0 -0.38653299040E+02 -0.58325163162E+01 -0.18855437749E+02  0.47787270675E+02  0.19999998316E+02 0.  0.
        -12    1    1    2    0    0  0.38653299040E+02  0.58325163162E+01  0.18855437749E+02  0.43400729325E+02  0.00000000000E+00 0.  1.
         11    1    3    3    0    0 -0.10045686405E+02 -0.56041360713E+00 -0.36531139524E+01  0.10703976858E+02  0.51100000000E-03 0. -1.
        -11    1    3    3    0    0 -0.48279315163E+01  0.50140949965E+01 -0.70856846690E+01  0.99326229592E+01  0.51100000000E-03 0.  1.
        -12    1    3    3    0    0 -0.23779681118E+02 -0.10286197706E+02 -0.81166391278E+01  0.27150670858E+02  0.00000000000E+00 0.  1.
</event>
<event>
 7    1  0.4430431E-010  0.4778726E+02  0.7816164E-02  0.1312668E+00
        -11   -1    0    0    0    0  0.00000000000E+00  0.00000000000E+00  0.45593999997E+02  0.45594000000E+02  0.51100000000E-03 0.  1.
         11   -1    0    0    0    0 -0.00000000000E+00 -0.00000000000E+00 -0.45593999997E+02  0.45594000000E+02  0.51100000000E-03 0. -1.
    9900012    2    1    2    0    0  0.41870814450E+02 -0.11410144927E+02  0.51751661060E+00  0.47787258838E+02  0.19999944348E+02 0.  0.
        -12    1    1    2    0    0 -0.41870814450E+02  0.11410144927E+02 -0.51751661060E+00  0.43400741162E+02  0.00000000000E+00 0.  1.
         11    1    3    3    0    0  0.31536654207E+02 -0.75285371039E+01  0.68371067023E+01  0.33135863619E+02  0.51100000000E-03 0. -1.
        -11    1    3    3    0    0  0.10414879230E+02 -0.35909554297E+01 -0.31369346667E+01  0.11454476402E+02  0.51100000000E-03 0.  1.
         12    1    3    3    0    0 -0.80718987424E-01 -0.29065239392E+00 -0.31826554250E+01  0.31969188171E+01  0.00000000000E+00 0. -1.
</event>
<event>
 7    1  0.4430431E-010  0.4778727E+02  0.7816164E-02  0.1312668E+00
        -11   -1    0    0    0    0  0.00000000000E+00  0.00000000000E+00  0.45593999997E+02  0.45594000000E+02  0.51100000000E-03 0.  1.
         11   -1    0    0    0    0 -0.00000000000E+00 -0.00000000000E+00 -0.45593999997E+02  0.45594000000E+02  0.51100000000E-03 0. -1.
    9900012    2    1    2    0    0  0.36147005727E+02  0.21547868236E+02 -0.10616330002E+02  0.47787272918E+02  0.20000008542E+02 0.  0.
        -12    1    1    2    0    0 -0.36147005727E+02 -0.21547868236E+02  0.10616330002E+02  0.43400727082E+02  0.00000000000E+00 0.  1.
         11    1    3    3    0    0  0.13395878629E+02  0.30555107405E+01 -0.10548526403E+01  0.13780363728E+02  0.51100000000E-03 0. -1.
        -11    1    3    3    0    0 -0.43696411385E+00 -0.14047828862E+01 -0.20834553852E+01  0.25505174372E+01  0.51100000000E-03 0.  1.
         12    1    3    3    0    0  0.23188091212E+02  0.19897140382E+02 -0.74780219771E+01  0.31456391753E+02  0.00000000000E+00 0. -1.
</event>
<event>
 7    1  0.4430431E-010  0.4778727E+02  0.7816164E-02  0.1312668E+00
        -11   -1    0    0    0    0  0.00000000000E+00  0.00000000000E+00  0.45593999997E+02  0.45594000000E+02  0.51100000000E-03 0. -1.
         11   -1    0    0    0    0 -0.00000000000E+00 -0.00000000000E+00 -0.45593999997E+02  0.45594000000E+02  0.51100000000E-03 0.  1.
    9900012    2    1    2    0    0  0.10432083637E+02 -0.30877806364E+02  0.28659309675E+02  0.47787270445E+02  0.19999997267E+02 0.  0.
        -12    1    1    2    0    0 -0.10432083637E+02  0.30877806364E+02 -0.28659309675E+02  0.43400729555E+02  0.00000000000E+00 0.  1.
         11    1    3    3    0    0  0.99834461248E+01 -0.23767229444E+02  0.18206310423E+02  0.31559786619E+02  0.51100000000E-03 0. -1.
        -11    1    3    3    0    0 -0.14587720991E+01  0.23204005674E+01  0.17378443271E+01  0.32453625371E+01  0.51100000000E-03 0.  1.
        -12    1    3    3    0    0  0.19074096109E+01 -0.94309774880E+01  0.87151549249E+01  0.12982121289E+02  0.00000000000E+00 0.  1.
</event>
<event>
 7    1  0.4430431E-010  0.4778727E+02  0.7816164E-02  0.1312668E+00
        -11   -1    0    0    0    0  0.00000000000E+00  0.00000000000E+00  0.45593999997E+02  0.45594000000E+02  0.51100000000E-03 0.  1.
         11   -1    0    0    0    0 -0.00000000000E+00 -0.00000000000E+00 -0.45593999997E+02  0.45594000000E+02  0.51100000000E-03 0. -1.
    9900012    2    1    2    0    0  0.68826272297E+01  0.40160285891E+02 -0.14946724742E+02  0.47787266124E+02  0.19999977567E+02 0.  0.
        -12    1    1    2    0    0 -0.68826272297E+01 -0.40160285891E+02  0.14946724742E+02  0.43400733876E+02  0.00000000000E+00 0.  1.
         11    1    3    3    0    0 -0.19037347424E+01  0.47089397765E+01  0.45400215440E+00  0.50994546772E+01  0.51100000000E-03 0. -1.
        -11    1    3    3    0    0  0.43845526375E+01  0.18082872937E+01  0.12324612686E+01  0.49003230309E+01  0.51100000000E-03 0.  1.
         12    1    3    3    0    0  0.44018093347E+01  0.33643058821E+02 -0.16633188165E+02  0.37787488416E+02  0.00000000000E+00 0. -1.
</event>
<event>
 7    1  0.4430431E-010  0.4778728E+02  0.7816164E-02  0.1312668E+00
        -11   -1    0    0    0    0  0.00000000000E+00  0.00000000000E+00  0.45593999997E+02  0.45594000000E+02  0.51100000000E-03 0. -1.
         11   -1    0    0    0    0 -0.00000000000E+00 -0.00000000000E+00 -0.45593999997E+02  0.45594000000E+02  0.51100000000E-03 0.  1.
    9900012    2    1    2    0    0 -0.14426805922E+02  0.40206611780E+02 -0.76758221410E+01  0.47787278745E+02  0.20000035110E+02 0.  0.
        -12    1    1    2    0    0  0.14426805922E+02 -0.40206611780E+02  0.76758221410E+01  0.43400721255E+02  0.00000000000E+00 0.  1.
         11    1    3    3    0    0 -0.63295805873E+01  0.28419802677E+02 -0.26676049412E+01  0.29238072628E+02  0.51100000000E-03 0. -1.
        -11    1    3    3    0    0  0.15037170761E+01  0.62744321333E+01 -0.36017730039E+01  0.73893458893E+01  0.51100000000E-03 0.  1.
        -12    1    3    3    0    0 -0.96009424109E+01  0.55123769697E+01 -0.14064441959E+01  0.11159860228E+02  0.00000000000E+00 0.  1.
</event>
<event>
 7    1  0.4430431E-010  0.4778727E+02  0.7816164E-02  0.1312668E+00
        -11   -1    0    0    0    0  0.00000000000E+00  0.00000000000E+00  0.45593999997E+02  0.45594000000E+02  0.51100000000E-03 0. -1.
         11   -1    0    0    0    0 -0.00000000000E+00 -0.00000000000E+00 -0.45593999997E+02  0.45594000000E+02  0.51100000000E-03 0.  1.
    9900012    2    1    2    0    0  0.13008885268E+01  0.11071664306E+02  0.41944600765E+02  0.47787267347E+02  0.19999983141E+02 0.  0.
        -12    1    1    2    0    0 -0.13008885268E+01 -0.11071664306E+02 -0.41944600765E+02  0.43400732653E+02  0.00000000000E+00 0.  1.
         11    1    3    3    0    0  0.49443348862E+00 -0.46822733361E+00  0.20877304515E+01  0.21959781442E+01  0.51100000000E-03 0. -1.
        -11    1    3    3    0    0 -0.39229342518E+00 -0.50686637709E+01  0.60231547398E+01  0.78818551011E+01  0.51100000000E-03 0.  1.
         12    1    3    3    0    0  0.11987484634E+01  0.16608555411E+02  0.33833715574E+02  0.37709434101E+02  0.00000000000E+00 0. -1.
</event>
<event>
 7    1  0.4430431E-010  0.4778727E+02  0.7816164E-02  0.1312668E+00
        -11   -1    0    0    0    0  0.00000000000E+00  0.00000000000E+00  0.45593999997E+02  0.45594000000E+02  0.51100000000E-03 0.  1.
         11   -1    0    0    0    0 -0.00000000000E+00 -0.00000000000E+00 -0.45593999997E+02  0.45594000000E+02  0.51100000000E-03 0. -1.
    9900012    2    1    2    0    0  0.41163940225E+01  0.56176674976E+01 -0.42838306500E+02  0.47787269687E+02  0.19999993812E+02 0.  0.
        -12    1    1    2    0    0 -0.41163940225E+01 -0.56176674976E+01  0.42838306500E+02  0.43400730313E+02  0.00000000000E+00 0.  1.
         11    1    3    3    0    0  0.48754177655E-01  0.76181809562E+01 -0.25590587746E+02  0.26700510098E+02  0.51100000000E-03 0. -1.
        -11    1    3    3    0    0 -0.96861504778E-01  0.44051808371E+01 -0.75388131571E+01  0.87320504143E+01  0.51100000000E-03 0.  1.
        -12    1    3    3    0    0  0.41645013496E+01 -0.64056942957E+01 -0.97089055976E+01  0.12354709175E+02  0.00000000000E+00 0.  1.
</event>
<event>
 7    1  0.4430431E-010  0.4778727E+02  0.7816164E-02  0.1312668E+00
        -11   -1    0    0    0    0  0.00000000000E+00  0.00000000000E+00  0.45593999997E+02  0.45594000000E+02  0.51100000000E-03 0.  1.
         11   -1    0    0    0    0 -0.00000000000E+00 -0.00000000000E+00 -0.45593999997E+02  0.45594000000E+02  0.51100000000E-03 0. -1.
    9900012    2    1    2    0    0 -0.28109235552E+02 -0.32193826215E+02 -0.75532630846E+01  0.47787270134E+02  0.19999995849E+02 0.  0.
        -12    1    1    2    0    0  0.28109235552E+02  0.32193826215E+02  0.75532630846E+01  0.43400729866E+02  0.00000000000E+00 0.  1.
         11    1    3    3    0    0 -0.17234052940E+02 -0.18958562477E+02 -0.33500246199E+01  0.25839162857E+02  0.51100000000E-03 0. -1.
        -11    1    3    3    0    0 -0.68762728556E+01 -0.15459858679E+02 -0.38889779321E+01  0.17361293396E+02  0.51100000000E-03 0.  1.
         12    1    3    3    0    0 -0.39989097563E+01  0.22245949416E+01 -0.31426053256E+00  0.45868138806E+01  0.00000000000E+00 0. -1.
</event>
<event>
 7    1  0.4430431E-010  0.4778727E+02  0.7816164E-02  0.1312668E+00
        -11   -1    0    0    0    0  0.00000000000E+00  0.00000000000E+00  0.45593999997E+02  0.45594000000E+02  0.51100000000E-03 0. -1.
         11   -1    0    0    0    0 -0.00000000000E+00 -0.00000000000E+00 -0.45593999997E+02  0.45594000000E+02  0.51100000000E-03 0.  1.
    9900012    2    1    2    0    0 -0.32034209210E+02 -0.26972128959E+02  0.11398985187E+02  0.47787272315E+02  0.20000005792E+02 0.  0.
        -12    1    1    2    0    0  0.32034209210E+02  0.26972128959E+02 -0.11398985187E+02  0.43400727685E+02  0.00000000000E+00 0.  1.
         11    1    3    3    0    0 -0.10692101040E+02 -0.16411576901E+02  0.65340670361E+01  0.20648363454E+02  0.51100000000E-03 0. -1.
        -11    1    3    3    0    0 -0.28850922695E+01 -0.28053013170E+01  0.58432899338E+01  0.70948932617E+01  0.51100000000E-03 0.  1.
         12    1    3    3    0    0 -0.18457015900E+02 -0.77552507416E+01 -0.97837178329E+00  0.20044015599E+02  0.00000000000E+00 0. -1.
</event>
<event>
 7    1  0.4430431E-010  0.4778727E+02  0.7816164E-02  0.1312668E+00
        -11   -1    0    0    0    0  0.00000000000E+00  0.00000000000E+00  0.45593999997E+02  0.45594000000E+02  0.51100000000E-03 0.  1.
         11   -1    0    0    0    0 -0.00000000000E+00 -0.00000000000E+00 -0.45593999997E+02  0.45594000000E+02  0.51100000000E-03 0. -1.
    9900012    2    1    2    0    0 -0.42140151530E+02 -0.78367317607E+01 -0.68129725106E+01  0.47787270397E+02  0.19999997048E+02 0.  0.
        -12    1    1    2    0    0  0.42140151530E+02  0.78367317607E+01  0.68129725106E+01  0.43400729603E+02  0.00000000000E+00 0.  1.
         11    1    3    3    0    0 -0.20003112429E+02 -0.13863620003E+01  0.42226849315E+01  0.20490914444E+02  0.51100000000E-03 0. -1.
        -11    1    3    3    0    0 -0.16395084575E+02 -0.66195478144E+00 -0.50039210877E+01  0.17154480723E+02  0.51100000000E-03 0.  1.
        -12    1    3    3    0    0 -0.57419545255E+01 -0.57884149790E+01 -0.60317363544E+01  0.10141875231E+02  0.00000000000E+00 0.  1.
</event>
<event>
 7    1  0.4430431E-010  0.4778727E+02  0.7816164E-02  0.1312668E+00
        -11   -1    0    0    0    0  0.00000000000E+00  0.00000000000E+00  0.45593999997E+02  0.45594000000E+02  0.51100000000E-03 0. -1.
         11   -1    0    0    0    0 -0.00000000000E+00 -0.00000000000E+00 -0.45593999997E+02  0.45594000000E+02  0.51100000000E-03 0.  1.
    9900012    2    1    2    0    0  0.10216193485E+02  0.15925533213E+02  0.39059311369E+02  0.47787273946E+02  0.20000013228E+02 0.  0.
        -12    1    1    2    0    0 -0.10216193485E+02 -0.15925533213E+02 -0.39059311369E+02  0.43400726054E+02  0.00000000000E+00 0.  1.
         11    1    3    3    0    0  0.81501435646E+01  0.41370617970E+01  0.10416531447E+02  0.13858003034E+02  0.51100000000E-03 0. -1.
        -11    1    3    3    0    0  0.33299922854E+01  0.27237904271E+01  0.22497609863E+02  0.22905246838E+02  0.51100000000E-03 0.  1.
        -12    1    3    3    0    0 -0.12639423650E+01  0.90646809888E+01  0.61451700596E+01  0.11024024074E+02  0.00000000000E+00 0.  1.
</event>
<event>
 7    1  0.4430431E-010  0.4778727E+02  0.7816164E-02  0.1312668E+00
        -11   -1    0    0    0    0  0.00000000000E+00  0.00000000000E+00  0.45593999997E+02  0.45594000000E+02  0.51100000000E-03 0.  1.
         11   -1    0    0    0    0 -0.00000000000E+00 -0.00000000000E+00 -0.45593999997E+02  0.45594000000E+02  0.51100000000E-03 0. -1.
    9900012    2    1    2    0    0 -0.36826172951E+02  0.16583753375E+02 -0.15888213499E+02  0.47787271684E+02  0.20000002915E+02 0.  0.
        -12    1    1    2    0    0  0.36826172951E+02 -0.16583753375E+02  0.15888213499E+02  0.43400728316E+02  0.00000000000E+00 0.  1.
         11    1    3    3    0    0 -0.90362118586E+01 -0.14584438353E+01 -0.51244145784E+01  0.10489986092E+02  0.51100000000E-03 0. -1.
        -11    1    3    3    0    0 -0.10193637710E+02  0.77630002976E+00  0.40869634145E+00  0.10231320758E+02  0.51100000000E-03 0.  1.
         12    1    3    3    0    0 -0.17596323382E+02  0.17265897180E+02 -0.11172495262E+02  0.27065964834E+02  0.00000000000E+00 0. -1.
</event>
<event>
 7    1  0.4430431E-010  0.4778727E+02  0.7816164E-02  0.1312668E+00
        -11   -1    0    0    0    0  0.00000000000E+00  0.00000000000E+00  0.45593999997E+02  0.45594000000E+02  0.51100000000E-03 0. -1.
         11   -1    0    0    0    0 -0.00000000000E+00 -0.00000000000E+00 -0.45593999997E+02  0.45594000000E+02  0.51100000000E-03 0.  1.
    9900012    2    1    2    0    0 -0.42109972903E+02 -0.47151418805E+01  0.93883529736E+01  0.47787267836E+02  0.19999985369E+02 0.  0.
        -12    1    1    2    0    0  0.42109972903E+02  0.47151418805E+01 -0.93883529736E+01  0.43400732164E+02  0.00000000000E+00 0.  1.
         11    1    3    3    0    0 -0.93161378025E+00  0.17304564474E+01  0.20756592208E+01  0.28584515413E+01  0.51100000000E-03 0. -1.
        -11    1    3    3    0    0 -0.54638010315E+01 -0.66543098116E+01  0.11679176394E+01  0.86889005435E+01  0.51100000000E-03 0.  1.
         12    1    3    3    0    0 -0.35714558091E+02  0.20871148372E+00  0.61447761134E+01  0.36239915751E+02  0.00000000000E+00 0. -1.
</event>
<event>
 7    1  0.4484372E-010  0.4778727E+02  0.7816164E-02  0.1312668E+00
        -11   -1    0    0    0    0  0.00000000000E+00  0.00000000000E+00  0.45593999997E+02  0.45594000000E+02  0.51100000000E-03 0. -1.
         11   -1    0    0    0    0 -0.00000000000E+00 -0.00000000000E+00 -0.45593999997E+02  0.45594000000E+02  0.51100000000E-03 0.  1.
    9900012    2    1    2    0    0 -0.13144770718E+02 -0.11649056528E+02  0.39688003317E+02  0.47787272789E+02  0.20000007952E+02 0.  0.
        -12    1    1    2    0    0  0.13144770718E+02  0.11649056528E+02 -0.39688003317E+02  0.43400727211E+02  0.00000000000E+00 0.  1.
         11    1    3    3    0    0 -0.43533411931E+01  0.33516005457E+01  0.84002091409E+01  0.10037346245E+02  0.51100000000E-03 0. -1.
        -11    1    3    3    0    0  0.68342221092E+00 -0.16127551536E+01 -0.63260173934E+00  0.18623185349E+01  0.51100000000E-03 0.  1.
         12    1    3    3    0    0 -0.94748517356E+01 -0.13387901921E+02  0.31920395915E+02  0.35887608009E+02  0.00000000000E+00 0. -1.
</event>
<event>
 7    1  0.4430431E-010  0.4778727E+02  0.7816164E-02  0.1312668E+00
        -11   -1    0    0    0    0  0.00000000000E+00  0.00000000000E+00  0.45593999997E+02  0.45594000000E+02  0.51100000000E-03 0.  1.
         11   -1    0    0    0    0 -0.00000000000E+00 -0.00000000000E+00 -0.45593999997E+02  0.45594000000E+02  0.51100000000E-03 0. -1.
    9900012    2    1    2    0    0  0.17257918490E+02  0.20348229396E+02 -0.34230650820E+02  0.47787266761E+02  0.19999980469E+02 0.  0.
        -12    1    1    2    0    0 -0.17257918490E+02 -0.20348229396E+02  0.34230650820E+02  0.43400733239E+02  0.00000000000E+00 0.  1.
         11    1    3    3    0    0  0.35307167558E+01  0.20941200666E+01 -0.75856848818E+01  0.86251907255E+01  0.51100000000E-03 0.  1.
        -11    1    3    3    0    0  0.16707452031E+02  0.18287423859E+02 -0.26353644765E+02  0.36167435870E+02  0.51100000000E-03 0. -1.
        -12    1    3    3    0    0 -0.29802502974E+01 -0.33314529723E-01 -0.29132117333E+00  0.29946401653E+01  0.00000000000E+00 0.  1.
</event>
<event>
 7    1  0.4430431E-010  0.4778728E+02  0.7816164E-02  0.1312668E+00
        -11   -1    0    0    0    0  0.00000000000E+00  0.00000000000E+00  0.45593999997E+02  0.45594000000E+02  0.51100000000E-03 0. -1.
         11   -1    0    0    0    0 -0.00000000000E+00 -0.00000000000E+00 -0.45593999997E+02  0.45594000000E+02  0.51100000000E-03 0.  1.
    9900012    2    1    2    0    0  0.15525950394E+01  0.39148346761E+02 -0.18671343254E+02  0.47787278066E+02  0.20000032015E+02 0.  0.
        -12    1    1    2    0    0 -0.15525950394E+01 -0.39148346761E+02  0.18671343254E+02  0.43400721934E+02  0.00000000000E+00 0.  1.
         11    1    3    3    0    0 -0.72883306402E+01  0.21554821591E+02 -0.59832802280E+01  0.23527212752E+02  0.51100000000E-03 0.  1.
        -11    1    3    3    0    0  0.16434904641E+01  0.82537006338E+01 -0.78704631316E+01  0.11522535538E+02  0.51100000000E-03 0. -1.
        -12    1    3    3    0    0  0.71974352155E+01  0.93398245359E+01 -0.48175998949E+01  0.12737529776E+02  0.00000000000E+00 0.  1.
</event>
<event>
 7    1  0.4430431E-010  0.4778727E+02  0.7816164E-02  0.1312668E+00
        -11   -1    0    0    0    0  0.00000000000E+00  0.00000000000E+00  0.45593999997E+02  0.45594000000E+02  0.51100000000E-03 0.  1.
         11   -1    0    0    0    0 -0.00000000000E+00 -0.00000000000E+00 -0.45593999997E+02  0.45594000000E+02  0.51100000000E-03 0. -1.
    9900012    2    1    2    0    0  0.19042908956E+02  0.11760435088E+02 -0.37184451698E+02  0.47787266561E+02  0.19999979558E+02 0.  0.
        -12    1    1    2    0    0 -0.19042908956E+02 -0.11760435088E+02  0.37184451698E+02  0.43400733439E+02  0.00000000000E+00 0.  1.
         11    1    3    3    0    0 -0.10941382037E+01  0.25916763132E+01 -0.54708060378E+01  0.61517187424E+01  0.51100000000E-03 0. -1.
        -11    1    3    3    0    0  0.44927895391E+01  0.79715263509E+01 -0.44397746029E+01  0.10170643490E+02  0.51100000000E-03 0.  1.
        -12    1    3    3    0    0  0.15644257621E+02  0.11972324236E+01 -0.27273871057E+02  0.31464904329E+02  0.00000000000E+00 0.  1.
</event>
<event>
 7    1  0.4430431E-010  0.4778727E+02  0.7816164E-02  0.1312668E+00
        -11   -1    0    0    0    0  0.00000000000E+00  0.00000000000E+00  0.45593999997E+02  0.45594000000E+02  0.51100000000E-03 0. -1.
         11   -1    0    0    0    0 -0.00000000000E+00 -0.00000000000E+00 -0.45593999997E+02  0.45594000000E+02  0.51100000000E-03 0.  1.
    9900012    2    1    2    0    0  0.25030005114E+02  0.35414198378E+02 -0.17195011918E+01  0.47787270892E+02  0.19999999305E+02 0.  0.
        -12    1    1    2    0    0 -0.25030005114E+02 -0.35414198378E+02  0.17195011918E+01  0.43400729108E+02  0.00000000000E+00 0.  1.
         11    1    3    3    0    0  0.15234319478E+02  0.26218359292E+02  0.59177843017E+00  0.30328815603E+02  0.51100000000E-03 0. -1.
        -11    1    3    3    0    0  0.43000817829E+01  0.96066283073E+01 -0.46060275386E+01  0.11488842445E+02  0.51100000000E-03 0.  1.
        -12    1    3    3    0    0  0.54956038538E+01 -0.41078922191E+00  0.22947479166E+01  0.59696128437E+01  0.00000000000E+00 0.  1.
</event>
<event>
 7    1  0.4430431E-010  0.4778727E+02  0.7816164E-02  0.1312668E+00
        -11   -1    0    0    0    0  0.00000000000E+00  0.00000000000E+00  0.45593999997E+02  0.45594000000E+02  0.51100000000E-03 0.  1.
         11   -1    0    0    0    0 -0.00000000000E+00 -0.00000000000E+00 -0.45593999997E+02  0.45594000000E+02  0.51100000000E-03 0. -1.
    9900012    2    1    2    0    0  0.16042821052E+01  0.34071846258E+02 -0.26835773280E+02  0.47787272402E+02  0.20000006191E+02 0.  0.
        -12    1    1    2    0    0 -0.16042821052E+01 -0.34071846258E+02  0.26835773280E+02  0.43400727598E+02  0.00000000000E+00 0.  1.
         11    1    3    3    0    0  0.16274307777E+01  0.68324739388E+01 -0.11492316013E+02  0.13468650960E+02  0.51100000000E-03 0. -1.
        -11    1    3    3    0    0 -0.58456319354E+01  0.49572207050E+01 -0.40318662213E+01  0.86603345969E+01  0.51100000000E-03 0.  1.
         12    1    3    3    0    0  0.58224832629E+01  0.22282151614E+02 -0.11311591045E+02  0.25658286846E+02  0.00000000000E+00 0. -1.
</event>
<event>
 7    1  0.4430431E-010  0.4778727E+02  0.7816164E-02  0.1312668E+00
        -11   -1    0    0    0    0  0.00000000000E+00  0.00000000000E+00  0.45593999997E+02  0.45594000000E+02  0.51100000000E-03 0.  1.
         11   -1    0    0    0    0 -0.00000000000E+00 -0.00000000000E+00 -0.45593999997E+02  0.45594000000E+02  0.51100000000E-03 0. -1.
    9900012    2    1    2    0    0  0.31418144647E+02  0.22946418319E+02 -0.19234999726E+02  0.47787272573E+02  0.20000006968E+02 0.  0.
        -12    1    1    2    0    0 -0.31418144647E+02 -0.22946418319E+02  0.19234999726E+02  0.43400727427E+02  0.00000000000E+00 0.  1.
         11    1    3    3    0    0  0.23449334261E+02  0.18810590153E+02 -0.15889590164E+02  0.34002774225E+02  0.51100000000E-03 0. -1.
        -11    1    3    3    0    0  0.57540085124E+01  0.33301071193E+01 -0.68599676669E+01  0.95528730778E+01  0.51100000000E-03 0.  1.
        -12    1    3    3    0    0  0.22148018742E+01  0.80572104717E+00  0.35145581053E+01  0.42316252697E+01  0.00000000000E+00 0.  1.
</event>
<event>
 7    1  0.4430431E-010  0.4778727E+02  0.7816164E-02  0.1312668E+00
        -11   -1    0    0    0    0  0.00000000000E+00  0.00000000000E+00  0.45593999997E+02  0.45594000000E+02  0.51100000000E-03 0. -1.
         11   -1    0    0    0    0 -0.00000000000E+00 -0.00000000000E+00 -0.45593999997E+02  0.45594000000E+02  0.51100000000E-03 0.  1.
    9900012    2    1    2    0    0  0.25963331798E+02  0.27244184092E+02  0.21616739814E+02  0.47787267229E+02  0.19999982604E+02 0.  0.
        -12    1    1    2    0    0 -0.25963331798E+02 -0.27244184092E+02 -0.21616739814E+02  0.43400732771E+02  0.00000000000E+00 0.  1.
         11    1    3    3    0    0  0.10042016649E+02  0.23892465585E+01  0.58400497557E+01  0.11859881066E+02  0.51100000000E-03 0. -1.
        -11    1    3    3    0    0  0.76858851435E+00  0.30427099738E+01 -0.22210553906E+01  0.38447236049E+01  0.51100000000E-03 0.  1.
         12    1    3    3    0    0  0.15152726635E+02  0.21812227559E+02  0.17997745449E+02  0.32082662558E+02  0.00000000000E+00 0. -1.
</event>
<event>
 7    1  0.4430431E-010  0.4778727E+02  0.7816164E-02  0.1312668E+00
        -11   -1    0    0    0    0  0.00000000000E+00  0.00000000000E+00  0.45593999997E+02  0.45594000000E+02  0.51100000000E-03 0. -1.
         11   -1    0    0    0    0 -0.00000000000E+00 -0.00000000000E+00 -0.45593999997E+02  0.45594000000E+02  0.51100000000E-03 0.  1.
    9900012    2    1    2    0    0  0.19240610156E+02  0.36658524383E+02 -0.13022087535E+02  0.47787271286E+02  0.20000001103E+02 0.  0.
        -12    1    1    2    0    0 -0.19240610156E+02 -0.36658524383E+02  0.13022087535E+02  0.43400728714E+02  0.00000000000E+00 0.  1.
         11    1    3    3    0    0  0.10651448031E+02  0.36263231228E+01 -0.43161621348E+01  0.12051258041E+02  0.51100000000E-03 0. -1.
        -11    1    3    3    0    0  0.16416397239E+01  0.42127214747E+01  0.82616971092E+00  0.45961461964E+01  0.51100000000E-03 0.  1.
        -12    1    3    3    0    0  0.69475224018E+01  0.28819479785E+02 -0.95320951111E+01  0.31139867049E+02  0.00000000000E+00 0.  1.
</event>
<event>
 7    1  0.4430431E-010  0.4778727E+02  0.7816164E-02  0.1312668E+00
        -11   -1    0    0    0    0  0.00000000000E+00  0.00000000000E+00  0.45593999997E+02  0.45594000000E+02  0.51100000000E-03 0.  1.
         11   -1    0    0    0    0 -0.00000000000E+00 -0.00000000000E+00 -0.45593999997E+02  0.45594000000E+02  0.51100000000E-03 0. -1.
    9900012    2    1    2    0    0  0.42980964734E+02  0.22832079544E+01 -0.55719616469E+01  0.47787272763E+02  0.20000007838E+02 0.  0.
        -12    1    1    2    0    0 -0.42980964734E+02 -0.22832079544E+01  0.55719616469E+01  0.43400727237E+02  0.00000000000E+00 0.  1.
         11    1    3    3    0    0  0.32058438684E+02  0.48539288718E+01 -0.20378585997E+01  0.32487797468E+02  0.51100000000E-03 0. -1.
        -11    1    3    3    0    0  0.94277874953E+01  0.17480020448E+01 -0.45570977725E+01  0.10616300136E+02  0.51100000000E-03 0.  1.
        -12    1    3    3    0    0  0.14947385551E+01 -0.43187229622E+01  0.10229947253E+01  0.46831751601E+01  0.00000000000E+00 0.  1.
</event>
<event>
 7    1  0.4430431E-010  0.4778726E+02  0.7816164E-02  0.1312668E+00
        -11   -1    0    0    0    0  0.00000000000E+00  0.00000000000E+00  0.45593999997E+02  0.45594000000E+02  0.51100000000E-03 0.  1.
         11   -1    0    0    0    0 -0.00000000000E+00 -0.00000000000E+00 -0.45593999997E+02  0.45594000000E+02  0.51100000000E-03 0. -1.
    9900012    2    1    2    0    0 -0.68106182198E+01  0.42748564181E+01 -0.42649334453E+02  0.47787255223E+02  0.19999927863E+02 0.  0.
        -12    1    1    2    0    0  0.68106182198E+01 -0.42748564181E+01  0.42649334453E+02  0.43400744777E+02  0.00000000000E+00 0.  1.
         11    1    3    3    0    0 -0.17151765940E+01  0.28135941952E+01 -0.11061625805E+02  0.11541997607E+02  0.51100000000E-03 0. -1.
        -11    1    3    3    0    0 -0.96842021272E+01  0.58064823564E+01 -0.17817312353E+02  0.21093971365E+02  0.51100000000E-03 0.  1.
         12    1    3    3    0    0  0.45887605014E+01 -0.43452201335E+01 -0.13770396295E+02  0.15151286251E+02  0.00000000000E+00 0. -1.
</event>
<event>
 7    1  0.4430431E-010  0.4778727E+02  0.7816164E-02  0.1312668E+00
        -11   -1    0    0    0    0  0.00000000000E+00  0.00000000000E+00  0.45593999997E+02  0.45594000000E+02  0.51100000000E-03 0.  1.
         11   -1    0    0    0    0 -0.00000000000E+00 -0.00000000000E+00 -0.45593999997E+02  0.45594000000E+02  0.51100000000E-03 0. -1.
    9900012    2    1    2    0    0  0.87138785993E+01  0.37201551107E+02 -0.20584856431E+02  0.47787269599E+02  0.19999993412E+02 0.  0.
        -12    1    1    2    0    0 -0.87138785993E+01 -0.37201551107E+02  0.20584856431E+02  0.43400730401E+02  0.00000000000E+00 0.  1.
         11    1    3    3    0    0  0.69507704820E+01  0.81609539543E+01 -0.12040987503E+02  0.16121406888E+02  0.51100000000E-03 0. -1.
        -11    1    3    3    0    0 -0.27478734537E+00  0.14829271351E+02 -0.89139916448E+01  0.17304393783E+02  0.51100000000E-03 0.  1.
        -12    1    3    3    0    0  0.20378954628E+01  0.14211325801E+02  0.37012271681E+00  0.14361468928E+02  0.00000000000E+00 0.  1.
</event>
<event>
 7    1  0.4430431E-010  0.4778727E+02  0.7816164E-02  0.1312668E+00
        -11   -1    0    0    0    0  0.00000000000E+00  0.00000000000E+00  0.45593999997E+02  0.45594000000E+02  0.51100000000E-03 0. -1.
         11   -1    0    0    0    0 -0.00000000000E+00 -0.00000000000E+00 -0.45593999997E+02  0.45594000000E+02  0.51100000000E-03 0.  1.
    9900012    2    1    2    0    0 -0.41854763028E+02 -0.11466952887E+02  0.55820705082E+00  0.47787265079E+02  0.19999972799E+02 0.  0.
        -12    1    1    2    0    0  0.41854763028E+02  0.11466952887E+02 -0.55820705082E+00  0.43400734921E+02  0.00000000000E+00 0.  1.
         11    1    3    3    0    0 -0.51445167258E+01  0.12123223357E+01 -0.10325477040E+01  0.53853442610E+01  0.51100000000E-03 0. -1.
        -11    1    3    3    0    0 -0.18580389982E+01  0.34833916974E+01  0.36553353858E+00  0.39648381638E+01  0.51100000000E-03 0.  1.
         12    1    3    3    0    0 -0.34852207304E+02 -0.16162666920E+02  0.12252212162E+01  0.38437082654E+02  0.00000000000E+00 0. -1.
</event>
<event>
 7    1  0.4430431E-010  0.4778728E+02  0.7816164E-02  0.1312668E+00
        -11   -1    0    0    0    0  0.00000000000E+00  0.00000000000E+00  0.45593999997E+02  0.45594000000E+02  0.51100000000E-03 0.  1.
         11   -1    0    0    0    0 -0.00000000000E+00 -0.00000000000E+00 -0.45593999997E+02  0.45594000000E+02  0.51100000000E-03 0. -1.
    9900012    2    1    2    0    0 -0.18986546379E+02 -0.12062566868E+02 -0.37116414343E+02  0.47787277926E+02  0.20000031377E+02 0.  0.
        -12    1    1    2    0    0  0.18986546379E+02  0.12062566868E+02  0.37116414343E+02  0.43400722074E+02  0.00000000000E+00 0.  1.
         11    1    3    3    0    0 -0.11190419059E+02 -0.34043533799E+01 -0.22471930877E+02  0.25333826759E+02  0.51100000000E-03 0. -1.
        -11    1    3    3    0    0 -0.10941817779E+02 -0.48581790177E+01 -0.91409456050E+01  0.15062608223E+02  0.51100000000E-03 0.  1.
        -12    1    3    3    0    0  0.31456904588E+01 -0.38000344706E+01 -0.55035378609E+01  0.73908429443E+01  0.00000000000E+00 0.  1.
</event>
<event>
 7    1  0.4430431E-010  0.4778727E+02  0.7816164E-02  0.1312668E+00
        -11   -1    0    0    0    0  0.00000000000E+00  0.00000000000E+00  0.45593999997E+02  0.45594000000E+02  0.51100000000E-03 0. -1.
         11   -1    0    0    0    0 -0.00000000000E+00 -0.00000000000E+00 -0.45593999997E+02  0.45594000000E+02  0.51100000000E-03 0.  1.
    9900012    2    1    2    0    0  0.10119484463E+02  0.31033604995E+01  0.42090239949E+02  0.47787272919E+02  0.20000008547E+02 0.  0.
        -12    1    1    2    0    0 -0.10119484463E+02 -0.31033604995E+01 -0.42090239949E+02  0.43400727081E+02  0.00000000000E+00 0.  1.
         11    1    3    3    0    0  0.79332157206E+01  0.12871927415E+00  0.13848535662E+02  0.15960401642E+02  0.51100000000E-03 0. -1.
        -11    1    3    3    0    0  0.44666099618E+01 -0.45661788981E+01  0.16439968711E+02  0.17637266391E+02  0.51100000000E-03 0.  1.
         12    1    3    3    0    0 -0.22803412199E+01  0.75408201235E+01  0.11801735576E+02  0.14189604886E+02  0.00000000000E+00 0. -1.
</event>
<event>
 7    1  0.4430431E-010  0.4778727E+02  0.7816164E-02  0.1312668E+00
        -11   -1    0    0    0    0  0.00000000000E+00  0.00000000000E+00  0.45593999997E+02  0.45594000000E+02  0.51100000000E-03 0.  1.
         11   -1    0    0    0    0 -0.00000000000E+00 -0.00000000000E+00 -0.45593999997E+02  0.45594000000E+02  0.51100000000E-03 0. -1.
    9900012    2    1    2    0    0 -0.26719320816E+02 -0.16407428008E+02 -0.30008288449E+02  0.47787272191E+02  0.20000005228E+02 0.  0.
        -12    1    1    2    0    0  0.26719320816E+02  0.16407428008E+02  0.30008288449E+02  0.43400727809E+02  0.00000000000E+00 0.  1.
         11    1    3    3    0    0 -0.34655158205E+01 -0.13891366953E+01 -0.11185583889E+01  0.38975214933E+01  0.51100000000E-03 0. -1.
        -11    1    3    3    0    0 -0.18776114632E+02 -0.17496056594E+02 -0.29058814500E+02  0.38769436124E+02  0.51100000000E-03 0.  1.
        -12    1    3    3    0    0 -0.44776903637E+01  0.24777652814E+01  0.16908443967E+00  0.51203145734E+01  0.00000000000E+00 0.  1.
</event>
<event>
 7    1  0.4430431E-010  0.4778727E+02  0.7816164E-02  0.1312668E+00
        -11   -1    0    0    0    0  0.00000000000E+00  0.00000000000E+00  0.45593999997E+02  0.45594000000E+02  0.51100000000E-03 0.  1.
         11   -1    0    0    0    0 -0.00000000000E+00 -0.00000000000E+00 -0.45593999997E+02  0.45594000000E+02  0.51100000000E-03 0. -1.
    9900012    2    1    2    0    0  0.28980199602E+02  0.31853161667E+02  0.53988294193E+01  0.47787271478E+02  0.20000001978E+02 0.  0.
        -12    1    1    2    0    0 -0.28980199602E+02 -0.31853161667E+02 -0.53988294193E+01  0.43400728522E+02  0.00000000000E+00 0.  1.
         11    1    3    3    0    0  0.63816004549E+01  0.10847298795E+02 -0.13459976009E+01  0.12657030667E+02  0.51100000000E-03 0.  1.
        -11    1    3    3    0    0  0.17876404670E+02  0.19088003014E+02 -0.63727174464E+00  0.26159583684E+02  0.51100000000E-03 0. -1.
        -12    1    3    3    0    0  0.47221944763E+01  0.19178598581E+01  0.73820987648E+01  0.89706571265E+01  0.00000000000E+00 0.  1.
</event>
<event>
 7    1  0.4430431E-010  0.4778727E+02  0.7816164E-02  0.1312668E+00
        -11   -1    0    0    0    0  0.00000000000E+00  0.00000000000E+00  0.45593999997E+02  0.45594000000E+02  0.51100000000E-03 0.  1.
         11   -1    0    0    0    0 -0.00000000000E+00 -0.00000000000E+00 -0.45593999997E+02  0.45594000000E+02  0.51100000000E-03 0. -1.
    9900012    2    1    2    0    0  0.31092630772E+02  0.21441642014E+02 -0.21380540609E+02  0.47787271696E+02  0.20000002970E+02 0.  0.
        -12    1    1    2    0    0 -0.31092630772E+02 -0.21441642014E+02  0.21380540609E+02  0.43400728304E+02  0.00000000000E+00 0.  1.
         11    1    3    3    0    0 -0.10809407379E+01  0.45283340847E+00 -0.48681868650E+01  0.50072681762E+01  0.51100000000E-03 0. -1.
        -11    1    3    3    0    0  0.96102846144E+01  0.10227969146E+02 -0.90207521759E+01  0.16683611519E+02  0.51100000000E-03 0.  1.
         12    1    3    3    0    0  0.22563286895E+02  0.10760839460E+02 -0.74916015685E+01  0.26096392001E+02  0.00000000000E+00 0. -1.
</event>
<event>
 7    1  0.4430431E-010  0.4778727E+02  0.7816164E-02  0.1312668E+00
        -11   -1    0    0    0    0  0.00000000000E+00  0.00000000000E+00  0.45593999997E+02  0.45594000000E+02  0.51100000000E-03 0.  1.
         11   -1    0    0    0    0 -0.00000000000E+00 -0.00000000000E+00 -0.45593999997E+02  0.45594000000E+02  0.51100000000E-03 0. -1.
    9900012    2    1    2    0    0  0.14950786813E+01 -0.26307710403E+02 -0.34486123225E+02  0.47787267494E+02  0.19999983814E+02 0.  0.
        -12    1    1    2    0    0 -0.14950786813E+01  0.26307710403E+02  0.34486123225E+02  0.43400732506E+02  0.00000000000E+00 0.  1.
         11    1    3    3    0    0  0.61782545730E+01 -0.48172803691E+01 -0.51203838693E+01  0.93592388020E+01  0.51100000000E-03 0. -1.
        -11    1    3    3    0    0 -0.28169844870E+01 -0.10427977580E+00 -0.63885069378E+01  0.69827857641E+01  0.51100000000E-03 0.  1.
         12    1    3    3    0    0 -0.18661914046E+01 -0.21386150258E+02 -0.22977232418E+02  0.31445242928E+02  0.00000000000E+00 0. -1.
</event>
<event>
 7    1  0.4430431E-010  0.4778727E+02  0.7816164E-02  0.1312668E+00
        -11   -1    0    0    0    0  0.00000000000E+00  0.00000000000E+00  0.45593999997E+02  0.45594000000E+02  0.51100000000E-03 0.  1.
         11   -1    0    0    0    0 -0.00000000000E+00 -0.00000000000E+00 -0.45593999997E+02  0.45594000000E+02  0.51100000000E-03 0. -1.
    9900012    2    1    2    0    0  0.43391164774E+02 -0.47679860061E+00 -0.77616335873E+00  0.47787274811E+02  0.20000017173E+02 0.  0.
        -12    1    1    2    0    0 -0.43391164774E+02  0.47679860061E+00  0.77616335873E+00  0.43400725189E+02  0.00000000000E+00 0.  1.
         11    1    3    3    0    0  0.67294448644E+01  0.31495926935E+01 -0.53104717542E+01  0.91327144284E+01  0.51100000000E-03 0. -1.
        -11    1    3    3    0    0  0.10926839883E+02 -0.39504070717E+01 -0.26831266399E+01  0.11924794115E+02  0.51100000000E-03 0.  1.
         12    1    3    3    0    0  0.25734880027E+02  0.32401577759E+00  0.72174350353E+01  0.26729766267E+02  0.00000000000E+00 0. -1.
</event>
<event>
 7    1  0.4430431E-010  0.4778725E+02  0.7816164E-02  0.1312668E+00
        -11   -1    0    0    0    0  0.00000000000E+00  0.00000000000E+00  0.45593999997E+02  0.45594000000E+02  0.51100000000E-03 0.  1.
         11   -1    0    0    0    0 -0.00000000000E+00 -0.00000000000E+00 -0.45593999997E+02  0.45594000000E+02  0.51100000000E-03 0. -1.
    9900012    2    1    2    0    0  0.18478919466E+02  0.35850611209E+02 -0.16027737251E+02  0.47787249430E+02  0.19999901450E+02 0.  0.
        -12    1    1    2    0    0 -0.18478919466E+02 -0.35850611209E+02  0.16027737251E+02  0.43400750570E+02  0.00000000000E+00 0.  1.
         11    1    3    3    0    0 -0.71709075676E-01  0.72393772309E+01  0.25458081952E+01  0.76742989589E+01  0.51100000000E-03 0. -1.
        -11    1    3    3    0    0  0.33069315197E+01  0.81809723905E+00 -0.39122740514E+01  0.51875782098E+01  0.51100000000E-03 0.  1.
        -12    1    3    3    0    0  0.15243697022E+02  0.27793136739E+02 -0.14661271394E+02  0.34925372261E+02  0.00000000000E+00 0.  1.
</event>
<event>
 7    1  0.4430431E-010  0.4778727E+02  0.7816164E-02  0.1312668E+00
        -11   -1    0    0    0    0  0.00000000000E+00  0.00000000000E+00  0.45593999997E+02  0.45594000000E+02  0.51100000000E-03 0.  1.
         11   -1    0    0    0    0 -0.00000000000E+00 -0.00000000000E+00 -0.45593999997E+02  0.45594000000E+02  0.51100000000E-03 0. -1.
    9900012    2    1    2    0    0 -0.11833449929E+02  0.31490597515E+02 -0.27421428195E+02  0.47787274276E+02  0.20000014735E+02 0.  0.
        -12    1    1    2    0    0  0.11833449929E+02 -0.31490597515E+02  0.27421428195E+02  0.43400725724E+02  0.00000000000E+00 0.  1.
         11    1    3    3    0    0 -0.38306930422E+01  0.44126586520E+01 -0.73281350980E+01  0.93726906403E+01  0.51100000000E-03 0. -1.
        -11    1    3    3    0    0  0.46529231117E+01  0.44889029099E+01 -0.65112891565E+01  0.91758830397E+01  0.51100000000E-03 0.  1.
         12    1    3    3    0    0 -0.12655679999E+02  0.22589035953E+02 -0.13582003941E+02  0.29238700596E+02  0.00000000000E+00 0. -1.
</event>
<event>
 7    1  0.4430431E-010  0.4778727E+02  0.7816164E-02  0.1312668E+00
        -11   -1    0    0    0    0  0.00000000000E+00  0.00000000000E+00  0.45593999997E+02  0.45594000000E+02  0.51100000000E-03 0.  1.
         11   -1    0    0    0    0 -0.00000000000E+00 -0.00000000000E+00 -0.45593999997E+02  0.45594000000E+02  0.51100000000E-03 0. -1.
    9900012    2    1    2    0    0  0.25672025449E+02 -0.40487939052E+01 -0.34758853322E+02  0.47787268359E+02  0.19999987756E+02 0.  0.
        -12    1    1    2    0    0 -0.25672025449E+02  0.40487939052E+01  0.34758853322E+02  0.43400731641E+02  0.00000000000E+00 0.  1.
         11    1    3    3    0    0  0.67337208285E+01  0.23216395426E+01 -0.14676794681E+02  0.16313837952E+02  0.51100000000E-03 0. -1.
        -11    1    3    3    0    0  0.53697275403E+01  0.41384070870E+01 -0.79930816331E+01  0.10480922733E+02  0.51100000000E-03 0.  1.
        -12    1    3    3    0    0  0.13568577080E+02 -0.10508840535E+02 -0.12088977008E+02  0.20992507674E+02  0.00000000000E+00 0.  1.
</event>
<event>
 7    1  0.4430431E-010  0.4778731E+02  0.7816164E-02  0.1312668E+00
        -11   -1    0    0    0    0  0.00000000000E+00  0.00000000000E+00  0.45593999997E+02  0.45594000000E+02  0.51100000000E-03 0.  1.
         11   -1    0    0    0    0 -0.00000000000E+00 -0.00000000000E+00 -0.45593999997E+02  0.45594000000E+02  0.51100000000E-03 0. -1.
    9900012    2    1    2    0    0  0.51356359887E+01  0.43057544924E+02 -0.18147235600E+01  0.47787306993E+02  0.20000163904E+02 0.  0.
        -12    1    1    2    0    0 -0.51356359887E+01 -0.43057544924E+02  0.18147235600E+01  0.43400693007E+02  0.00000000000E+00 0.  1.
         11    1    3    3    0    0  0.69010055870E+01  0.24255482331E+02 -0.55517065502E+01  0.25821962495E+02  0.51100000000E-03 0. -1.
        -11    1    3    3    0    0 -0.91769924510E+00  0.16481115345E+02 -0.10901071316E+01  0.16542601631E+02  0.51100000000E-03 0.  1.
         12    1    3    3    0    0 -0.84767035324E+00  0.23209472479E+01  0.48270901218E+01  0.54227428668E+01  0.00000000000E+00 0. -1.
</event>
<event>
 7    1  0.4430431E-010  0.4778727E+02  0.7816164E-02  0.1312668E+00
        -11   -1    0    0    0    0  0.00000000000E+00  0.00000000000E+00  0.45593999997E+02  0.45594000000E+02  0.51100000000E-03 0.  1.
         11   -1    0    0    0    0 -0.00000000000E+00 -0.00000000000E+00 -0.45593999997E+02  0.45594000000E+02  0.51100000000E-03 0. -1.
    9900012    2    1    2    0    0  0.13264110144E+02 -0.35968086652E+02 -0.20346580796E+02  0.47787271603E+02  0.20000002546E+02 0.  0.
        -12    1    1    2    0    0 -0.13264110144E+02  0.35968086652E+02  0.20346580796E+02  0.43400728397E+02  0.00000000000E+00 0.  1.
         11    1    3    3    0    0  0.11672120033E+02 -0.19874965094E+02 -0.16294283352E+02  0.28226871838E+02  0.51100000000E-03 0. -1.
        -11    1    3    3    0    0 -0.32128211737E+01 -0.75854049853E+01 -0.51703432500E+01  0.97258952426E+01  0.51100000000E-03 0.  1.
         12    1    3    3    0    0  0.48048112854E+01 -0.85077165727E+01  0.11180458064E+01  0.98345045220E+01  0.00000000000E+00 0. -1.
</event>
<event>
 7    1  0.4430431E-010  0.4778727E+02  0.7816164E-02  0.1312668E+00
        -11   -1    0    0    0    0  0.00000000000E+00  0.00000000000E+00  0.45593999997E+02  0.45594000000E+02  0.51100000000E-03 0.  1.
         11   -1    0    0    0    0 -0.00000000000E+00 -0.00000000000E+00 -0.45593999997E+02  0.45594000000E+02  0.51100000000E-03 0. -1.
    9900012    2    1    2    0    0 -0.33603459902E+02 -0.26662096013E+02  0.66002564689E+01  0.47787271128E+02  0.20000000379E+02 0.  0.
        -12    1    1    2    0    0  0.33603459902E+02  0.26662096013E+02 -0.66002564689E+01  0.43400728872E+02  0.00000000000E+00 0.  1.
         11    1    3    3    0    0 -0.21800730347E+01 -0.55643833139E+01 -0.13784265659E+01  0.61331183064E+01  0.51100000000E-03 0.  1.
        -11    1    3    3    0    0 -0.22904969843E+01 -0.27334755949E+01 -0.38438335675E+01  0.52434074816E+01  0.51100000000E-03 0. -1.
         12    1    3    3    0    0 -0.29132889883E+02 -0.18364237104E+02  0.11822516602E+02  0.36410745340E+02  0.00000000000E+00 0. -1.
</event>
<event>
 7    1  0.4430431E-010  0.4778724E+02  0.7816164E-02  0.1312668E+00
        -11   -1    0    0    0    0  0.00000000000E+00  0.00000000000E+00  0.45593999997E+02  0.45594000000E+02  0.51100000000E-03 0. -1.
         11   -1    0    0    0    0 -0.00000000000E+00 -0.00000000000E+00 -0.45593999997E+02  0.45594000000E+02  0.51100000000E-03 0.  1.
    9900012    2    1    2    0    0 -0.35863552548E+02 -0.16675639035E+02  0.17870494749E+02  0.47787240546E+02  0.19999860947E+02 0.  0.
        -12    1    1    2    0    0  0.35863552548E+02  0.16675639035E+02 -0.17870494749E+02  0.43400759454E+02  0.00000000000E+00 0.  1.
         11    1    3    3    0    0 -0.78824795906E+01  0.10505651690E+01  0.42238266544E+01  0.90043258237E+01  0.51100000000E-03 0. -1.
        -11    1    3    3    0    0 -0.26897706393E+02 -0.10873109383E+02  0.87928194067E+01  0.30315421657E+02  0.51100000000E-03 0.  1.
         12    1    3    3    0    0 -0.10833665645E+01 -0.68530948211E+01  0.48538486874E+01  0.84674930659E+01  0.00000000000E+00 0. -1.
</event>
<event>
 7    1  0.4430431E-010  0.4778726E+02  0.7816164E-02  0.1312668E+00
        -11   -1    0    0    0    0  0.00000000000E+00  0.00000000000E+00  0.45593999997E+02  0.45594000000E+02  0.51100000000E-03 0.  1.
         11   -1    0    0    0    0 -0.00000000000E+00 -0.00000000000E+00 -0.45593999997E+02  0.45594000000E+02  0.51100000000E-03 0. -1.
    9900012    2    1    2    0    0 -0.21600055472E+02 -0.75336052402E+01 -0.36882338081E+02  0.47787257303E+02  0.19999937349E+02 0.  0.
        -12    1    1    2    0    0  0.21600055472E+02  0.75336052402E+01  0.36882338081E+02  0.43400742697E+02  0.00000000000E+00 0.  1.
         11    1    3    3    0    0 -0.19732183101E+02 -0.95402791306E+01 -0.26414504494E+02  0.34323490845E+02  0.51100000000E-03 0. -1.
        -11    1    3    3    0    0 -0.44802031020E+01  0.81588158888E+00 -0.29744321351E+01  0.54392213956E+01  0.51100000000E-03 0.  1.
        -12    1    3    3    0    0  0.26123307314E+01  0.11907923016E+01 -0.74934014515E+01  0.80245450631E+01  0.00000000000E+00 0.  1.
</event>
<event>
 7    1  0.4430431E-010  0.4778727E+02  0.7816164E-02  0.1312668E+00
        -11   -1    0    0    0    0  0.00000000000E+00  0.00000000000E+00  0.45593999997E+02  0.45594000000E+02  0.51100000000E-03 0.  1.
         11   -1    0    0    0    0 -0.00000000000E+00 -0.00000000000E+00 -0.45593999997E+02  0.45594000000E+02  0.51100000000E-03 0. -1.
    9900012    2    1    2    0    0  0.36680112113E+02  0.65106563592E+01 -0.22266663952E+02  0.47787267352E+02  0.19999983163E+02 0.  0.
        -12    1    1    2    0    0 -0.36680112113E+02 -0.65106563592E+01  0.22266663952E+02  0.43400732648E+02  0.00000000000E+00 0.  1.
         11    1    3    3    0    0  0.23578367017E+01 -0.40175833068E+01 -0.19432685526E+01  0.50474411802E+01  0.51100000000E-03 0. -1.
        -11    1    3    3    0    0  0.39511061850E+01  0.18587908758E+01  0.11887627280E+01  0.45254282327E+01  0.51100000000E-03 0.  1.
         12    1    3    3    0    0  0.30371169226E+02  0.86694487902E+01 -0.21512158128E+02  0.38214397939E+02  0.00000000000E+00 0. -1.
</event>
<event>
 7    1  0.4430431E-010  0.4778727E+02  0.7816164E-02  0.1312668E+00
        -11   -1    0    0    0    0  0.00000000000E+00  0.00000000000E+00  0.45593999997E+02  0.45594000000E+02  0.51100000000E-03 0. -1.
         11   -1    0    0    0    0 -0.00000000000E+00 -0.00000000000E+00 -0.45593999997E+02  0.45594000000E+02  0.51100000000E-03 0.  1.
    9900012    2    1    2    0    0  0.82387465396E+01  0.13134408857E+02  0.40536818153E+02  0.47787271129E+02  0.20000000383E+02 0.  0.
        -12    1    1    2    0    0 -0.82387465396E+01 -0.13134408857E+02 -0.40536818153E+02  0.43400728871E+02  0.00000000000E+00 0.  1.
         11    1    3    3    0    0  0.42530297960E+01  0.66518801217E+01  0.14558536570E+02  0.16561604962E+02  0.51100000000E-03 0. -1.
        -11    1    3    3    0    0 -0.12082204978E+01  0.70614045096E+01  0.24872756400E+02  0.25883918591E+02  0.51100000000E-03 0.  1.
        -12    1    3    3    0    0  0.51939372415E+01 -0.57887577386E+00  0.11055251832E+01  0.53417475756E+01  0.00000000000E+00 0.  1.
</event>
<event>
 7    1  0.4430431E-010  0.4778727E+02  0.7816164E-02  0.1312668E+00
        -11   -1    0    0    0    0  0.00000000000E+00  0.00000000000E+00  0.45593999997E+02  0.45594000000E+02  0.51100000000E-03 0.  1.
         11   -1    0    0    0    0 -0.00000000000E+00 -0.00000000000E+00 -0.45593999997E+02  0.45594000000E+02  0.51100000000E-03 0. -1.
    9900012    2    1    2    0    0  0.64473392311E+01  0.36107504245E+02 -0.23201361496E+02  0.47787271650E+02  0.20000002763E+02 0.  0.
        -12    1    1    2    0    0 -0.64473392311E+01 -0.36107504245E+02  0.23201361496E+02  0.43400728350E+02  0.00000000000E+00 0.  1.
         11    1    3    3    0    0  0.39287756174E+01  0.37821620477E+02 -0.23345833423E+02  0.44619930432E+02  0.51100000000E-03 0. -1.
        -11    1    3    3    0    0  0.17707906103E+00 -0.27449703220E+00 -0.22115925318E+00  0.39448357499E+00  0.51100000000E-03 0.  1.
         12    1    3    3    0    0  0.23414845526E+01 -0.14396191993E+01  0.36563117927E+00  0.27728576430E+01  0.00000000000E+00 0. -1.
</event>
<event>
 7    1  0.4430431E-010  0.4778727E+02  0.7816164E-02  0.1312668E+00
        -11   -1    0    0    0    0  0.00000000000E+00  0.00000000000E+00  0.45593999997E+02  0.45594000000E+02  0.51100000000E-03 0.  1.
         11   -1    0    0    0    0 -0.00000000000E+00 -0.00000000000E+00 -0.45593999997E+02  0.45594000000E+02  0.51100000000E-03 0. -1.
    9900012    2    1    2    0    0 -0.11619247445E+02 -0.41679106598E+02 -0.33865045853E+01  0.47787271305E+02  0.20000001186E+02 0.  0.
        -12    1    1    2    0    0  0.11619247445E+02  0.41679106598E+02  0.33865045853E+01  0.43400728695E+02  0.00000000000E+00 0.  1.
         11    1    3    3    0    0 -0.33120764949E+01 -0.20089738064E+02 -0.20804074292E+01  0.20466937278E+02  0.51100000000E-03 0.  1.
        -11    1    3    3    0    0 -0.93779495579E+01 -0.21926679491E+02 -0.42011957156E+01  0.24215186498E+02  0.51100000000E-03 0. -1.
        -12    1    3    3    0    0  0.10707786080E+01  0.33731095744E+00  0.28950985595E+01  0.31051475292E+01  0.00000000000E+00 0.  1.
</event>
<event>
 7    1  0.4430431E-010  0.4778728E+02  0.7816164E-02  0.1312668E+00
        -11   -1    0    0    0    0  0.00000000000E+00  0.00000000000E+00  0.45593999997E+02  0.45594000000E+02  0.51100000000E-03 0. -1.
         11   -1    0    0    0    0 -0.00000000000E+00 -0.00000000000E+00 -0.45593999997E+02  0.45594000000E+02  0.51100000000E-03 0.  1.
    9900012    2    1    2    0    0  0.29693094539E+02  0.14715294875E+02  0.28025042170E+02  0.47787277020E+02  0.20000027246E+02 0.  0.
        -12    1    1    2    0    0 -0.29693094539E+02 -0.14715294875E+02 -0.28025042170E+02  0.43400722980E+02  0.00000000000E+00 0.  1.
         11    1    3    3    0    0  0.10485995013E+02  0.15304610650E+02  0.13732592724E+02  0.23081839220E+02  0.51100000000E-03 0. -1.
        -11    1    3    3    0    0  0.48587376503E+01  0.13400936304E+01  0.66207247072E+01  0.83208880778E+01  0.51100000000E-03 0.  1.
        -12    1    3    3    0    0  0.14348361875E+02 -0.19294094058E+01  0.76717247386E+01  0.16384549723E+02  0.00000000000E+00 0.  1.
</event>
<event>
 7    1  0.4430431E-010  0.4778727E+02  0.7816164E-02  0.1312668E+00
        -11   -1    0    0    0    0  0.00000000000E+00  0.00000000000E+00  0.45593999997E+02  0.45594000000E+02  0.51100000000E-03 0.  1.
         11   -1    0    0    0    0 -0.00000000000E+00 -0.00000000000E+00 -0.45593999997E+02  0.45594000000E+02  0.51100000000E-03 0. -1.
    9900012    2    1    2    0    0  0.29363012913E+02 -0.31868431563E+02 -0.24165841986E+01  0.47787270319E+02  0.19999996695E+02 0.  0.
        -12    1    1    2    0    0 -0.29363012913E+02  0.31868431563E+02  0.24165841986E+01  0.43400729681E+02  0.00000000000E+00 0.  1.
         11    1    3    3    0    0  0.55260807847E+01 -0.84880497435E+01  0.19346315225E+01  0.10311515731E+02  0.51100000000E-03 0. -1.
        -11    1    3    3    0    0  0.25502139584E+02 -0.22167464302E+02 -0.13262337838E+01  0.33815891135E+02  0.51100000000E-03 0.  1.
         12    1    3    3    0    0 -0.16652074557E+01 -0.12129175173E+01 -0.30249819373E+01  0.36598634531E+01  0.00000000000E+00 0. -1.
</event>
<event>
 7    1  0.4430431E-010  0.4778729E+02  0.7816164E-02  0.1312668E+00
        -11   -1    0    0    0    0  0.00000000000E+00  0.00000000000E+00  0.45593999997E+02  0.45594000000E+02  0.51100000000E-03 0.  1.
         11   -1    0    0    0    0 -0.00000000000E+00 -0.00000000000E+00 -0.45593999997E+02  0.45594000000E+02  0.51100000000E-03 0. -1.
    9900012    2    1    2    0    0 -0.37012086488E+02  0.21810990775E+02 -0.61650372538E+01  0.47787290915E+02  0.20000090596E+02 0.  0.
        -12    1    1    2    0    0  0.37012086488E+02 -0.21810990775E+02  0.61650372538E+01  0.43400709085E+02  0.00000000000E+00 0.  1.
         11    1    3    3    0    0 -0.20422438180E+02  0.64727359330E+01 -0.32262219544E+01  0.21665197900E+02  0.51100000000E-03 0. -1.
        -11    1    3    3    0    0 -0.14341481994E+01 -0.19171454813E+01  0.13654457502E+01  0.27562057637E+01  0.51100000000E-03 0.  1.
         12    1    3    3    0    0 -0.15155500109E+02  0.17255400323E+02 -0.43042610496E+01  0.23365887251E+02  0.00000000000E+00 0. -1.
</event>
<event>
 7    1  0.4430431E-010  0.4778727E+02  0.7816164E-02  0.1312668E+00
        -11   -1    0    0    0    0  0.00000000000E+00  0.00000000000E+00  0.45593999997E+02  0.45594000000E+02  0.51100000000E-03 0. -1.
         11   -1    0    0    0    0 -0.00000000000E+00 -0.00000000000E+00 -0.45593999997E+02  0.45594000000E+02  0.51100000000E-03 0.  1.
    9900012    2    1    2    0    0 -0.42970698527E+02 -0.24938537499E+01  0.55608506393E+01  0.47787270763E+02  0.19999998718E+02 0.  0.
        -12    1    1    2    0    0  0.42970698527E+02  0.24938537499E+01 -0.55608506393E+01  0.43400729237E+02  0.00000000000E+00 0.  1.
         11    1    3    3    0    0 -0.19326735618E+02 -0.13085580353E+01  0.10265306421E+01  0.19398164841E+02  0.51100000000E-03 0. -1.
        -11    1    3    3    0    0 -0.20601252185E+02  0.36206891302E+01  0.71809778642E+01  0.22115321040E+02  0.51100000000E-03 0.  1.
         12    1    3    3    0    0 -0.30427107244E+01 -0.48059848448E+01 -0.26466578669E+01  0.62737848820E+01  0.00000000000E+00 0. -1.
</event>
<event>
 7    1  0.4430431E-010  0.4778727E+02  0.7816164E-02  0.1312668E+00
        -11   -1    0    0    0    0  0.00000000000E+00  0.00000000000E+00  0.45593999997E+02  0.45594000000E+02  0.51100000000E-03 0.  1.
         11   -1    0    0    0    0 -0.00000000000E+00 -0.00000000000E+00 -0.45593999997E+02  0.45594000000E+02  0.51100000000E-03 0. -1.
    9900012    2    1    2    0    0  0.29847323721E+02 -0.36022548365E+01 -0.31301509740E+02  0.47787268610E+02  0.19999988898E+02 0.  0.
        -12    1    1    2    0    0 -0.29847323721E+02  0.36022548365E+01  0.31301509740E+02  0.43400731390E+02  0.00000000000E+00 0.  1.
         11    1    3    3    0    0  0.42263878777E+01  0.32354219219E+01 -0.27034653216E+01  0.59698437594E+01  0.51100000000E-03 0. -1.
        -11    1    3    3    0    0  0.90900549670E+01 -0.64458000487E+01 -0.33493314709E+01  0.11635955446E+02  0.51100000000E-03 0.  1.
         12    1    3    3    0    0  0.16530880877E+02 -0.39187670966E+00 -0.25248712947E+02  0.30181469404E+02  0.00000000000E+00 0. -1.
</event>
<event>
 7    1  0.4430431E-010  0.4778727E+02  0.7816164E-02  0.1312668E+00
        -11   -1    0    0    0    0  0.00000000000E+00  0.00000000000E+00  0.45593999997E+02  0.45594000000E+02  0.51100000000E-03 0. -1.
         11   -1    0    0    0    0 -0.00000000000E+00 -0.00000000000E+00 -0.45593999997E+02  0.45594000000E+02  0.51100000000E-03 0.  1.
    9900012    2    1    2    0    0  0.95998323511E+01  0.19008985329E+02  0.37816989635E+02  0.47787274090E+02  0.20000013887E+02 0.  0.
        -12    1    1    2    0    0 -0.95998323511E+01 -0.19008985329E+02 -0.37816989635E+02  0.43400725910E+02  0.00000000000E+00 0.  1.
         11    1    3    3    0    0  0.93255009452E+00  0.17615593503E+02  0.18970267206E+02  0.25904629360E+02  0.51100000000E-03 0. -1.
        -11    1    3    3    0    0  0.61864924470E+00  0.19847155984E+01  0.10229798098E+01  0.23169615548E+01  0.51100000000E-03 0.  1.
        -12    1    3    3    0    0  0.80486330119E+01 -0.59132377212E+00  0.17823742620E+02  0.19565683176E+02  0.00000000000E+00 0.  1.
</event>
<event>
 7    1  0.4430431E-010  0.4778727E+02  0.7816164E-02  0.1312668E+00
        -11   -1    0    0    0    0  0.00000000000E+00  0.00000000000E+00  0.45593999997E+02  0.45594000000E+02  0.51100000000E-03 0.  1.
         11   -1    0    0    0    0 -0.00000000000E+00 -0.00000000000E+00 -0.45593999997E+02  0.45594000000E+02  0.51100000000E-03 0. -1.
    9900012    2    1    2    0    0  0.27179538495E+01  0.24006543185E+02 -0.36054436623E+02  0.47787265110E+02  0.19999972941E+02 0.  0.
        -12    1    1    2    0    0 -0.27179538495E+01 -0.24006543185E+02  0.36054436623E+02  0.43400734890E+02  0.00000000000E+00 0.  1.
         11    1    3    3    0    0 -0.96685906343E+00  0.69934183803E+01 -0.56705060557E+01  0.90552391619E+01  0.51100000000E-03 0. -1.
        -11    1    3    3    0    0 -0.37781047566E+01 -0.17179330208E-01 -0.91485366133E+00  0.38873291813E+01  0.51100000000E-03 0.  1.
         12    1    3    3    0    0  0.74629176696E+01  0.17030304135E+02 -0.29469076906E+02  0.34844696767E+02  0.00000000000E+00 0. -1.
</event>
<event>
 7    1  0.4430431E-010  0.4778727E+02  0.7816164E-02  0.1312668E+00
        -11   -1    0    0    0    0  0.00000000000E+00  0.00000000000E+00  0.45593999997E+02  0.45594000000E+02  0.51100000000E-03 0.  1.
         11   -1    0    0    0    0 -0.00000000000E+00 -0.00000000000E+00 -0.45593999997E+02  0.45594000000E+02  0.51100000000E-03 0. -1.
    9900012    2    1    2    0    0 -0.23394882995E+02  0.30830117256E+02 -0.19641959539E+02  0.47787271263E+02  0.20000000998E+02 0.  0.
        -12    1    1    2    0    0  0.23394882995E+02 -0.30830117256E+02  0.19641959539E+02  0.43400728737E+02  0.00000000000E+00 0.  1.
         11    1    3    3    0    0 -0.84579012525E+01  0.67181555042E+01 -0.17227878069E+01  0.10937902224E+02  0.51100000000E-03 0. -1.
        -11    1    3    3    0    0 -0.30913192981E+01 -0.14208748082E+01 -0.45700477528E+01  0.56974096699E+01  0.51100000000E-03 0.  1.
        -12    1    3    3    0    0 -0.11845662444E+02  0.25532836559E+02 -0.13349123980E+02  0.31151959369E+02  0.00000000000E+00 0.  1.
</event>
<event>
 7    1  0.4430431E-010  0.4778727E+02  0.7816164E-02  0.1312668E+00
        -11   -1    0    0    0    0  0.00000000000E+00  0.00000000000E+00  0.45593999997E+02  0.45594000000E+02  0.51100000000E-03 0.  1.
         11   -1    0    0    0    0 -0.00000000000E+00 -0.00000000000E+00 -0.45593999997E+02  0.45594000000E+02  0.51100000000E-03 0. -1.
    9900012    2    1    2    0    0  0.27621532660E+02  0.20513821547E+01 -0.33413562530E+02  0.47787269635E+02  0.19999993574E+02 0.  0.
        -12    1    1    2    0    0 -0.27621532660E+02 -0.20513821547E+01  0.33413562530E+02  0.43400730365E+02  0.00000000000E+00 0.  1.
         11    1    3    3    0    0  0.13224694852E+02 -0.24477274603E+01 -0.10449082325E+02  0.17031360643E+02  0.51100000000E-03 0. -1.
        -11    1    3    3    0    0  0.97270768597E+01  0.51578662519E+01 -0.48381064136E+01  0.12026091736E+02  0.51100000000E-03 0.  1.
        -12    1    3    3    0    0  0.46697609483E+01 -0.65875663694E+00 -0.18126373792E+02  0.18729817257E+02  0.00000000000E+00 0.  1.
</event>
<event>
 7    1  0.4430431E-010  0.4778727E+02  0.7816164E-02  0.1312668E+00
        -11   -1    0    0    0    0  0.00000000000E+00  0.00000000000E+00  0.45593999997E+02  0.45594000000E+02  0.51100000000E-03 0.  1.
         11   -1    0    0    0    0 -0.00000000000E+00 -0.00000000000E+00 -0.45593999997E+02  0.45594000000E+02  0.51100000000E-03 0. -1.
    9900012    2    1    2    0    0 -0.47485373614E+01 -0.35996778563E+02 -0.23776178812E+02  0.47787270134E+02  0.19999995849E+02 0.  0.
        -12    1    1    2    0    0  0.47485373614E+01  0.35996778563E+02  0.23776178812E+02  0.43400729866E+02  0.00000000000E+00 0.  1.
         11    1    3    3    0    0 -0.24051402030E+01 -0.65427132496E+01 -0.49445926764E+01  0.85463906452E+01  0.51100000000E-03 0. -1.
        -11    1    3    3    0    0 -0.58208468089E+01 -0.55298583701E+01 -0.11410104151E+02  0.13951776523E+02  0.51100000000E-03 0.  1.
         12    1    3    3    0    0  0.34774496506E+01 -0.23924206943E+02 -0.74214819848E+01  0.25289102965E+02  0.00000000000E+00 0. -1.
</event>
<event>
 7    1  0.4430431E-010  0.4778727E+02  0.7816164E-02  0.1312668E+00
        -11   -1    0    0    0    0  0.00000000000E+00  0.00000000000E+00  0.45593999997E+02  0.45594000000E+02  0.51100000000E-03 0. -1.
         11   -1    0    0    0    0 -0.00000000000E+00 -0.00000000000E+00 -0.45593999997E+02  0.45594000000E+02  0.51100000000E-03 0.  1.
    9900012    2    1    2    0    0  0.27100692841E+01 -0.42137162573E+02 -0.10036839007E+02  0.47787273249E+02  0.20000010054E+02 0.  0.
        -12    1    1    2    0    0 -0.27100692841E+01  0.42137162573E+02  0.10036839007E+02  0.43400726751E+02  0.00000000000E+00 0.  1.
         11    1    3    3    0    0  0.31885707142E+01 -0.26966335983E+02  0.15797241005E+01  0.27200106397E+02  0.51100000000E-03 0. -1.
        -11    1    3    3    0    0  0.25844456163E+01 -0.27735623212E+01 -0.47845266321E+01  0.61044002529E+01  0.51100000000E-03 0.  1.
        -12    1    3    3    0    0 -0.30629470464E+01 -0.12397264269E+02 -0.68320364755E+01  0.14482766599E+02  0.00000000000E+00 0.  1.
</event>
<event>
 7    1  0.4430431E-010  0.4778730E+02  0.7816164E-02  0.1312668E+00
        -11   -1    0    0    0    0  0.00000000000E+00  0.00000000000E+00  0.45593999997E+02  0.45594000000E+02  0.51100000000E-03 0.  1.
         11   -1    0    0    0    0 -0.00000000000E+00 -0.00000000000E+00 -0.45593999997E+02  0.45594000000E+02  0.51100000000E-03 0. -1.
    9900012    2    1    2    0    0 -0.11613651454E+02 -0.12927636288E+02 -0.39769589101E+02  0.47787298423E+02  0.20000124831E+02 0.  0.
        -12    1    1    2    0    0  0.11613651454E+02  0.12927636288E+02  0.39769589101E+02  0.43400701577E+02  0.00000000000E+00 0.  1.
         11    1    3    3    0    0  0.32734515948E+01 -0.48910368347E+00 -0.11892557873E+02  0.12344538905E+02  0.51100000000E-03 0. -1.
        -11    1    3    3    0    0 -0.96152502337E+00 -0.66452760870E+00  0.82984167628E+00  0.14334450747E+01  0.51100000000E-03 0.  1.
         12    1    3    3    0    0 -0.13925578025E+02 -0.11774004996E+02 -0.28706872904E+02  0.34009314443E+02  0.00000000000E+00 0. -1.
</event>
<event>
 7    1  0.4430431E-010  0.4778727E+02  0.7816164E-02  0.1312668E+00
        -11   -1    0    0    0    0  0.00000000000E+00  0.00000000000E+00  0.45593999997E+02  0.45594000000E+02  0.51100000000E-03 0.  1.
         11   -1    0    0    0    0 -0.00000000000E+00 -0.00000000000E+00 -0.45593999997E+02  0.45594000000E+02  0.51100000000E-03 0. -1.
    9900012    2    1    2    0    0  0.34737301581E+01 -0.42471771927E+02  0.82282955102E+01  0.47787273522E+02  0.20000011295E+02 0.  0.
        -12    1    1    2    0    0 -0.34737301581E+01  0.42471771927E+02 -0.82282955102E+01  0.43400726478E+02  0.00000000000E+00 0.  1.
         11    1    3    3    0    0  0.26663352681E+01 -0.22883075227E+02  0.74523682167E+01  0.24213266362E+02  0.51100000000E-03 0. -1.
        -11    1    3    3    0    0  0.99082193241E+00 -0.20776033674E+02  0.30305433355E+01  0.21019264889E+02  0.51100000000E-03 0.  1.
        -12    1    3    3    0    0 -0.18342704240E+00  0.11873369742E+01 -0.22546160420E+01  0.25547422702E+01  0.00000000000E+00 0.  1.
</event>
<event>
 7    1  0.4430431E-010  0.4778727E+02  0.7816164E-02  0.1312668E+00
        -11   -1    0    0    0    0  0.00000000000E+00  0.00000000000E+00  0.45593999997E+02  0.45594000000E+02  0.51100000000E-03 0. -1.
         11   -1    0    0    0    0 -0.00000000000E+00 -0.00000000000E+00 -0.45593999997E+02  0.45594000000E+02  0.51100000000E-03 0.  1.
    9900012    2    1    2    0    0 -0.25694646109E+02 -0.32885166118E+02  0.11915292994E+02  0.47787271937E+02  0.20000004069E+02 0.  0.
        -12    1    1    2    0    0  0.25694646109E+02  0.32885166118E+02 -0.11915292994E+02  0.43400728063E+02  0.00000000000E+00 0.  1.
         11    1    3    3    0    0 -0.82271827069E+01 -0.64063085066E+01 -0.27452811451E+01  0.10782573570E+02  0.51100000000E-03 0. -1.
        -11    1    3    3    0    0 -0.61720868465E+01 -0.20746168048E+01  0.29846623549E+00  0.65182645913E+01  0.51100000000E-03 0.  1.
         12    1    3    3    0    0 -0.11295376556E+02 -0.24404240806E+02  0.14362107904E+02  0.30486433775E+02  0.00000000000E+00 0. -1.
</event>
<event>
 7    1  0.4430431E-010  0.4778727E+02  0.7816164E-02  0.1312668E+00
        -11   -1    0    0    0    0  0.00000000000E+00  0.00000000000E+00  0.45593999997E+02  0.45594000000E+02  0.51100000000E-03 0.  1.
         11   -1    0    0    0    0 -0.00000000000E+00 -0.00000000000E+00 -0.45593999997E+02  0.45594000000E+02  0.51100000000E-03 0. -1.
    9900012    2    1    2    0    0 -0.40307024972E+02  0.14832289574E+02 -0.62426018918E+01  0.47787272420E+02  0.20000006271E+02 0.  0.
        -12    1    1    2    0    0  0.40307024972E+02 -0.14832289574E+02  0.62426018918E+01  0.43400727580E+02  0.00000000000E+00 0.  1.
         11    1    3    3    0    0 -0.22494525949E+02  0.10798503644E+02 -0.52457792092E+01  0.25497638682E+02  0.51100000000E-03 0. -1.
        -11    1    3    3    0    0 -0.13345469258E+02  0.85839660193E+01 -0.11703798240E+01  0.15910870860E+02  0.51100000000E-03 0.  1.
        -12    1    3    3    0    0 -0.44670297652E+01 -0.45501800887E+01  0.17355714146E+00  0.63787628773E+01  0.00000000000E+00 0.  1.
</event>
<event>
 7    1  0.4430431E-010  0.4778728E+02  0.7816164E-02  0.1312668E+00
        -11   -1    0    0    0    0  0.00000000000E+00  0.00000000000E+00  0.45593999997E+02  0.45594000000E+02  0.51100000000E-03 0.  1.
         11   -1    0    0    0    0 -0.00000000000E+00 -0.00000000000E+00 -0.45593999997E+02  0.45594000000E+02  0.51100000000E-03 0. -1.
    9900012    2    1    2    0    0  0.23990106249E+02 -0.21522329448E+02 -0.29066937273E+02  0.47787277596E+02  0.20000029873E+02 0.  0.
        -12    1    1    2    0    0 -0.23990106249E+02  0.21522329448E+02  0.29066937273E+02  0.43400722404E+02  0.00000000000E+00 0.  1.
         11    1    3    3    0    0  0.20930308599E+00 -0.51962381572E+01 -0.28153404871E+01  0.59136148917E+01  0.51100000000E-03 0. -1.
        -11    1    3    3    0    0  0.77369204117E+01 -0.19607988024E+01 -0.16302046038E+02  0.18151070897E+02  0.51100000000E-03 0.  1.
         12    1    3    3    0    0  0.16043882751E+02 -0.14365292488E+02 -0.99495507480E+01  0.23722591808E+02  0.00000000000E+00 0. -1.
</event>
<event>
 7    1  0.4430431E-010  0.4778727E+02  0.7816164E-02  0.1312668E+00
        -11   -1    0    0    0    0  0.00000000000E+00  0.00000000000E+00  0.45593999997E+02  0.45594000000E+02  0.51100000000E-03 0.  1.
         11   -1    0    0    0    0 -0.00000000000E+00 -0.00000000000E+00 -0.45593999997E+02  0.45594000000E+02  0.51100000000E-03 0. -1.
    9900012    2    1    2    0    0 -0.35536593900E+02  0.39337184205E+01  0.24602841736E+02  0.47787268807E+02  0.19999989799E+02 0.  0.
        -12    1    1    2    0    0  0.35536593900E+02 -0.39337184205E+01 -0.24602841736E+02  0.43400731193E+02  0.00000000000E+00 0.  1.
         11    1    3    3    0    0 -0.39851590246E+01  0.37699996860E+00  0.70403828367E+01  0.80988031323E+01  0.51100000000E-03 0. -1.
        -11    1    3    3    0    0 -0.21914361003E+02  0.98868954614E+01  0.11249249129E+02  0.26543088108E+02  0.51100000000E-03 0.  1.
        -12    1    3    3    0    0 -0.96370738715E+01 -0.63301770096E+01  0.63132097701E+01  0.13145377567E+02  0.00000000000E+00 0.  1.
</event>
<event>
 7    1  0.4430431E-010  0.4778727E+02  0.7816164E-02  0.1312668E+00
        -11   -1    0    0    0    0  0.00000000000E+00  0.00000000000E+00  0.45593999997E+02  0.45594000000E+02  0.51100000000E-03 0.  1.
         11   -1    0    0    0    0 -0.00000000000E+00 -0.00000000000E+00 -0.45593999997E+02  0.45594000000E+02  0.51100000000E-03 0. -1.
    9900012    2    1    2    0    0 -0.24139985892E+02 -0.23585522718E+02 -0.27287490701E+02  0.47787274781E+02  0.20000017038E+02 0.  0.
        -12    1    1    2    0    0  0.24139985892E+02  0.23585522718E+02  0.27287490701E+02  0.43400725219E+02  0.00000000000E+00 0.  1.
         11    1    3    3    0    0 -0.95645729662E+01 -0.52157549333E+01 -0.10828296660E+02  0.15360246234E+02  0.51100000000E-03 0. -1.
        -11    1    3    3    0    0 -0.16591630358E+02 -0.18369716740E+02 -0.17344341838E+02  0.30225070473E+02  0.51100000000E-03 0.  1.
        -12    1    3    3    0    0  0.20162174324E+01 -0.51044676458E-04  0.88514779726E+00  0.22019580742E+01  0.00000000000E+00 0.  1.
</event>
<event>
 7    1  0.4430431E-010  0.4778727E+02  0.7816164E-02  0.1312668E+00
        -11   -1    0    0    0    0  0.00000000000E+00  0.00000000000E+00  0.45593999997E+02  0.45594000000E+02  0.51100000000E-03 0.  1.
         11   -1    0    0    0    0 -0.00000000000E+00 -0.00000000000E+00 -0.45593999997E+02  0.45594000000E+02  0.51100000000E-03 0. -1.
    9900012    2    1    2    0    0  0.11248387760E+01 -0.22058558668E+02 -0.37360108568E+02  0.47787274372E+02  0.20000015173E+02 0.  0.
        -12    1    1    2    0    0 -0.11248387760E+01  0.22058558668E+02  0.37360108568E+02  0.43400725628E+02  0.00000000000E+00 0.  1.
         11    1    3    3    0    0  0.10933944483E+01 -0.24241562448E+02 -0.26806999333E+02  0.36158872699E+02  0.51100000000E-03 0. -1.
        -11    1    3    3    0    0 -0.10290885606E+01  0.44800828317E+00 -0.28108665339E+00  0.11570413369E+01  0.51100000000E-03 0.  1.
         12    1    3    3    0    0  0.10605328884E+01  0.17349954969E+01 -0.10272022582E+02  0.10471360337E+02  0.00000000000E+00 0. -1.
</event>
<event>
 7    1  0.4430431E-010  0.4778728E+02  0.7816164E-02  0.1312668E+00
        -11   -1    0    0    0    0  0.00000000000E+00  0.00000000000E+00  0.45593999997E+02  0.45594000000E+02  0.51100000000E-03 0.  1.
         11   -1    0    0    0    0 -0.00000000000E+00 -0.00000000000E+00 -0.45593999997E+02  0.45594000000E+02  0.51100000000E-03 0. -1.
    9900012    2    1    2    0    0  0.30823091942E+02 -0.15246816167E+02 -0.26478187726E+02  0.47787276212E+02  0.20000023560E+02 0.  0.
        -12    1    1    2    0    0 -0.30823091942E+02  0.15246816167E+02  0.26478187726E+02  0.43400723788E+02  0.00000000000E+00 0.  1.
         11    1    3    3    0    0 -0.55713254688E+00 -0.40184269070E+01 -0.29198299490E+01  0.49983555970E+01  0.51100000000E-03 0. -1.
        -11    1    3    3    0    0  0.20496614455E+01 -0.15096883579E+01 -0.75947423180E+01  0.80100176103E+01  0.51100000000E-03 0.  1.
         12    1    3    3    0    0  0.29330563044E+02 -0.97187009021E+01 -0.15963615459E+02  0.34778903004E+02  0.00000000000E+00 0. -1.
</event>
<event>
 7    1  0.4430431E-010  0.4778727E+02  0.7816164E-02  0.1312668E+00
        -11   -1    0    0    0    0  0.00000000000E+00  0.00000000000E+00  0.45593999997E+02  0.45594000000E+02  0.51100000000E-03 0.  1.
         11   -1    0    0    0    0 -0.00000000000E+00 -0.00000000000E+00 -0.45593999997E+02  0.45594000000E+02  0.51100000000E-03 0. -1.
    9900012    2    1    2    0    0  0.87642574294E+01 -0.32079347643E+02 -0.27887748277E+02  0.47787271234E+02  0.20000000863E+02 0.  0.
        -12    1    1    2    0    0 -0.87642574294E+01  0.32079347643E+02  0.27887748277E+02  0.43400728766E+02  0.00000000000E+00 0.  1.
         11    1    3    3    0    0  0.91877730439E+01 -0.12878589657E+02 -0.88842756834E+01  0.18143968687E+02  0.51100000000E-03 0. -1.
        -11    1    3    3    0    0  0.41100967466E+01 -0.41890076732E+01 -0.99064256107E+01  0.11514249832E+02  0.51100000000E-03 0.  1.
        -12    1    3    3    0    0 -0.45336123611E+01 -0.15011750313E+02 -0.90970469826E+01  0.18129052714E+02  0.00000000000E+00 0.  1.
</event>
<event>
 7    1  0.4430431E-010  0.4778727E+02  0.7816164E-02  0.1312668E+00
        -11   -1    0    0    0    0  0.00000000000E+00  0.00000000000E+00  0.45593999997E+02  0.45594000000E+02  0.51100000000E-03 0.  1.
         11   -1    0    0    0    0 -0.00000000000E+00 -0.00000000000E+00 -0.45593999997E+02  0.45594000000E+02  0.51100000000E-03 0. -1.
    9900012    2    1    2    0    0 -0.16149080591E+02  0.52100532850E+01 -0.39946036747E+02  0.47787270617E+02  0.19999998051E+02 0.  0.
        -12    1    1    2    0    0  0.16149080591E+02 -0.52100532850E+01  0.39946036747E+02  0.43400729383E+02  0.00000000000E+00 0.  1.
         11    1    3    3    0    0 -0.38365227992E+01  0.18901258204E+01 -0.15070304967E+02  0.15665426099E+02  0.51100000000E-03 0. -1.
        -11    1    3    3    0    0 -0.51252953154E+01  0.40574527457E+00 -0.23731814424E+02  0.24282345385E+02  0.51100000000E-03 0.  1.
        -12    1    3    3    0    0 -0.71872624765E+01  0.29141821900E+01 -0.11439173570E+01  0.78394991334E+01  0.00000000000E+00 0.  1.
</event>
<event>
 7    1  0.4430431E-010  0.4778727E+02  0.7816164E-02  0.1312668E+00
        -11   -1    0    0    0    0  0.00000000000E+00  0.00000000000E+00  0.45593999997E+02  0.45594000000E+02  0.51100000000E-03 0.  1.
         11   -1    0    0    0    0 -0.00000000000E+00 -0.00000000000E+00 -0.45593999997E+02  0.45594000000E+02  0.51100000000E-03 0. -1.
    9900012    2    1    2    0    0  0.15005958370E+02  0.39299028231E+02 -0.10678516892E+02  0.47787272708E+02  0.20000007583E+02 0.  0.
        -12    1    1    2    0    0 -0.15005958370E+02 -0.39299028231E+02  0.10678516892E+02  0.43400727292E+02  0.00000000000E+00 0.  1.
         11    1    3    3    0    0  0.16892795712E+00  0.12840408563E+02 -0.50470419520E+01  0.13797726676E+02  0.51100000000E-03 0. -1.
        -11    1    3    3    0    0  0.95908938512E+01  0.10752879042E+02 -0.91401080467E+01  0.17063154103E+02  0.51100000000E-03 0.  1.
        -12    1    3    3    0    0  0.52461365619E+01  0.15705740626E+02  0.35086331070E+01  0.16926391929E+02  0.00000000000E+00 0.  1.
</event>
<event>
 7    1  0.4430431E-010  0.4778727E+02  0.7816164E-02  0.1312668E+00
        -11   -1    0    0    0    0  0.00000000000E+00  0.00000000000E+00  0.45593999997E+02  0.45594000000E+02  0.51100000000E-03 0.  1.
         11   -1    0    0    0    0 -0.00000000000E+00 -0.00000000000E+00 -0.45593999997E+02  0.45594000000E+02  0.51100000000E-03 0. -1.
    9900012    2    1    2    0    0  0.38351121829E+01 -0.42977261591E+02  0.46765903717E+01  0.47787267324E+02  0.19999983037E+02 0.  0.
        -12    1    1    2    0    0 -0.38351121829E+01  0.42977261591E+02 -0.46765903717E+01  0.43400732676E+02  0.00000000000E+00 0.  1.
         11    1    3    3    0    0  0.45014265535E+01 -0.47594746549E+01  0.45509994015E+00  0.65667766998E+01  0.51100000000E-03 0. -1.
        -11    1    3    3    0    0  0.40204803256E+01 -0.10016355314E+02 -0.39404886945E+01  0.11489955929E+02  0.51100000000E-03 0.  1.
        -12    1    3    3    0    0 -0.46867946963E+01 -0.28201431622E+02  0.81619791260E+01  0.29730534696E+02  0.00000000000E+00 0.  1.
</event>
<event>
 7    1  0.4430431E-010  0.4778727E+02  0.7816164E-02  0.1312668E+00
        -11   -1    0    0    0    0  0.00000000000E+00  0.00000000000E+00  0.45593999997E+02  0.45594000000E+02  0.51100000000E-03 0.  1.
         11   -1    0    0    0    0 -0.00000000000E+00 -0.00000000000E+00 -0.45593999997E+02  0.45594000000E+02  0.51100000000E-03 0. -1.
    9900012    2    1    2    0    0  0.20863995050E+02  0.36897707831E+02 -0.93207382726E+01  0.47787270806E+02  0.19999998912E+02 0.  0.
        -12    1    1    2    0    0 -0.20863995050E+02 -0.36897707831E+02  0.93207382726E+01  0.43400729194E+02  0.00000000000E+00 0.  1.
         11    1    3    3    0    0  0.15025535049E+02  0.30117518742E+02 -0.65639470800E+01  0.34291646800E+02  0.51100000000E-03 0. -1.
        -11    1    3    3    0    0  0.78241713518E+01  0.57091828220E+01  0.30726703997E+00  0.96905541190E+01  0.51100000000E-03 0.  1.
         12    1    3    3    0    0 -0.19857113511E+01  0.10710062670E+01 -0.30640582326E+01  0.38050698872E+01  0.00000000000E+00 0. -1.
</event>
<event>
 7    1  0.4430431E-010  0.4778727E+02  0.7816164E-02  0.1312668E+00
        -11   -1    0    0    0    0  0.00000000000E+00  0.00000000000E+00  0.45593999997E+02  0.45594000000E+02  0.51100000000E-03 0.  1.
         11   -1    0    0    0    0 -0.00000000000E+00 -0.00000000000E+00 -0.45593999997E+02  0.45594000000E+02  0.51100000000E-03 0. -1.
    9900012    2    1    2    0    0 -0.12871778241E+01  0.12345342764E+02 -0.41587967165E+02  0.47787270425E+02  0.19999997176E+02 0.  0.
        -12    1    1    2    0    0  0.12871778241E+01 -0.12345342764E+02  0.41587967165E+02  0.43400729575E+02  0.00000000000E+00 0.  1.
         11    1    3    3    0    0 -0.76634128067E+00  0.18913227146E+01 -0.90001008947E+01  0.92285533507E+01  0.51100000000E-03 0. -1.
        -11    1    3    3    0    0 -0.33911792510E+01 -0.41132449024E+01 -0.12413616397E+02  0.13509876115E+02  0.51100000000E-03 0.  1.
        -12    1    3    3    0    0  0.28703427076E+01  0.14567264952E+02 -0.20174249873E+02  0.25048840959E+02  0.00000000000E+00 0.  1.
</event>
<event>
 7    1  0.4430431E-010  0.4778727E+02  0.7816164E-02  0.1312668E+00
        -11   -1    0    0    0    0  0.00000000000E+00  0.00000000000E+00  0.45593999997E+02  0.45594000000E+02  0.51100000000E-03 0. -1.
         11   -1    0    0    0    0 -0.00000000000E+00 -0.00000000000E+00 -0.45593999997E+02  0.45594000000E+02  0.51100000000E-03 0.  1.
    9900012    2    1    2    0    0  0.14467563361E+02  0.28395807318E+01  0.40819719788E+02  0.47787272680E+02  0.20000007457E+02 0.  0.
        -12    1    1    2    0    0 -0.14467563361E+02 -0.28395807318E+01 -0.40819719788E+02  0.43400727320E+02  0.00000000000E+00 0.  1.
         11    1    3    3    0    0  0.18573920515E+01  0.15804390119E+01  0.35660411398E+00  0.24647229983E+01  0.51100000000E-03 0. -1.
        -11    1    3    3    0    0 -0.15328624340E+01 -0.41779507272E+00 -0.72148990085E+00  0.17449263316E+01  0.51100000000E-03 0.  1.
         12    1    3    3    0    0  0.14143033744E+02  0.16769367926E+01  0.41184605575E+02  0.43577623350E+02  0.00000000000E+00 0. -1.
</event>
<event>
 7    1  0.4430431E-010  0.4778728E+02  0.7816164E-02  0.1312668E+00
        -11   -1    0    0    0    0  0.00000000000E+00  0.00000000000E+00  0.45593999997E+02  0.45594000000E+02  0.51100000000E-03 0.  1.
         11   -1    0    0    0    0 -0.00000000000E+00 -0.00000000000E+00 -0.45593999997E+02  0.45594000000E+02  0.51100000000E-03 0. -1.
    9900012    2    1    2    0    0 -0.80730372093E+00  0.35690666191E+02 -0.24680910334E+02  0.47787277341E+02  0.20000028706E+02 0.  0.
        -12    1    1    2    0    0  0.80730372093E+00 -0.35690666191E+02  0.24680910334E+02  0.43400722659E+02  0.00000000000E+00 0.  1.
         11    1    3    3    0    0  0.48370184258E+01  0.96486169523E+01 -0.33647393949E+01  0.11305486624E+02  0.51100000000E-03 0. -1.
        -11    1    3    3    0    0  0.30616278041E+01  0.58798350799E+01 -0.12756205226E+01  0.67507950166E+01  0.51100000000E-03 0.  1.
         12    1    3    3    0    0 -0.87059499508E+01  0.20162214159E+02 -0.20040550416E+02  0.29730995700E+02  0.00000000000E+00 0. -1.
</event>
<event>
 7    1  0.4430431E-010  0.4778727E+02  0.7816164E-02  0.1312668E+00
        -11   -1    0    0    0    0  0.00000000000E+00  0.00000000000E+00  0.45593999997E+02  0.45594000000E+02  0.51100000000E-03 0.  1.
         11   -1    0    0    0    0 -0.00000000000E+00 -0.00000000000E+00 -0.45593999997E+02  0.45594000000E+02  0.51100000000E-03 0. -1.
    9900012    2    1    2    0    0 -0.11499928689E+02 -0.20052952017E+02 -0.36732193627E+02  0.47787270823E+02  0.19999998992E+02 0.  0.
        -12    1    1    2    0    0  0.11499928689E+02  0.20052952017E+02  0.36732193627E+02  0.43400729177E+02  0.00000000000E+00 0.  1.
         11    1    3    3    0    0 -0.64678397937E+01 -0.83253487525E+01 -0.16903995112E+02  0.19922084089E+02  0.51100000000E-03 0. -1.
        -11    1    3    3    0    0 -0.16509049948E+01 -0.96119046547E+01 -0.21447261555E+02  0.23560543857E+02  0.51100000000E-03 0.  1.
        -12    1    3    3    0    0 -0.33811839007E+01 -0.21156986097E+01  0.16190630396E+01  0.43046428775E+01  0.00000000000E+00 0.  1.
</event>
<event>
 7    1  0.4430431E-010  0.4778727E+02  0.7816164E-02  0.1312668E+00
        -11   -1    0    0    0    0  0.00000000000E+00  0.00000000000E+00  0.45593999997E+02  0.45594000000E+02  0.51100000000E-03 0.  1.
         11   -1    0    0    0    0 -0.00000000000E+00 -0.00000000000E+00 -0.45593999997E+02  0.45594000000E+02  0.51100000000E-03 0. -1.
    9900012    2    1    2    0    0  0.13863159160E+02  0.32346254634E+02 -0.25399921744E+02  0.47787269645E+02  0.19999993621E+02 0.  0.
        -12    1    1    2    0    0 -0.13863159160E+02 -0.32346254634E+02  0.25399921744E+02  0.43400730355E+02  0.00000000000E+00 0.  1.
         11    1    3    3    0    0  0.12794844004E+02  0.11662275781E+02 -0.11445238104E+02  0.20753558370E+02  0.51100000000E-03 0. -1.
        -11    1    3    3    0    0  0.25529242058E+01  0.89473680348E+01 -0.11770032961E+02  0.15003549344E+02  0.51100000000E-03 0.  1.
         12    1    3    3    0    0 -0.14846090501E+01  0.11736610818E+02 -0.21846506787E+01  0.12030161932E+02  0.00000000000E+00 0. -1.
</event>
<event>
 7    1  0.4430431E-010  0.4778727E+02  0.7816164E-02  0.1312668E+00
        -11   -1    0    0    0    0  0.00000000000E+00  0.00000000000E+00  0.45593999997E+02  0.45594000000E+02  0.51100000000E-03 0. -1.
         11   -1    0    0    0    0 -0.00000000000E+00 -0.00000000000E+00 -0.45593999997E+02  0.45594000000E+02  0.51100000000E-03 0.  1.
    9900012    2    1    2    0    0  0.92271458407E+01  0.27032023489E+02  0.32676481369E+02  0.47787274788E+02  0.20000017069E+02 0.  0.
        -12    1    1    2    0    0 -0.92271458407E+01 -0.27032023489E+02 -0.32676481369E+02  0.43400725212E+02  0.00000000000E+00 0.  1.
         11    1    3    3    0    0  0.61498408578E+01  0.73195217894E+01  0.66732060023E+01  0.11658800127E+02  0.51100000000E-03 0. -1.
        -11    1    3    3    0    0  0.56202629128E+01  0.99292403846E+00  0.93001654117E+01  0.10911751935E+02  0.51100000000E-03 0.  1.
         12    1    3    3    0    0 -0.25429579299E+01  0.18719577661E+02  0.16703109955E+02  0.25216722725E+02  0.00000000000E+00 0. -1.
</event>
<event>
 7    1  0.4430431E-010  0.4778728E+02  0.7816164E-02  0.1312668E+00
        -11   -1    0    0    0    0  0.00000000000E+00  0.00000000000E+00  0.45593999997E+02  0.45594000000E+02  0.51100000000E-03 0.  1.
         11   -1    0    0    0    0 -0.00000000000E+00 -0.00000000000E+00 -0.45593999997E+02  0.45594000000E+02  0.51100000000E-03 0. -1.
    9900012    2    1    2    0    0  0.14628460391E+02 -0.10759792521E+02 -0.39419002145E+02  0.47787277441E+02  0.20000029167E+02 0.  0.
        -12    1    1    2    0    0 -0.14628460391E+02  0.10759792521E+02  0.39419002145E+02  0.43400722559E+02  0.00000000000E+00 0.  1.
         11    1    3    3    0    0  0.56020148942E+01  0.24488437102E+01 -0.21922901601E+02  0.22759460039E+02  0.51100000000E-03 0.  1.
        -11    1    3    3    0    0  0.30451518129E+01 -0.64337285601E+01 -0.13253749688E+02  0.15044191364E+02  0.51100000000E-03 0. -1.
        -12    1    3    3    0    0  0.59812936844E+01 -0.67749076714E+01 -0.42423508557E+01  0.99836260385E+01  0.00000000000E+00 0.  1.
</event>
<event>
 7    1  0.4430431E-010  0.4778728E+02  0.7816164E-02  0.1312668E+00
        -11   -1    0    0    0    0  0.00000000000E+00  0.00000000000E+00  0.45593999997E+02  0.45594000000E+02  0.51100000000E-03 0.  1.
         11   -1    0    0    0    0 -0.00000000000E+00 -0.00000000000E+00 -0.45593999997E+02  0.45594000000E+02  0.51100000000E-03 0. -1.
    9900012    2    1    2    0    0  0.39716639847E+02 -0.17347103159E+02 -0.22998381917E+01  0.47787277374E+02  0.20000028861E+02 0.  0.
        -12    1    1    2    0    0 -0.39716639847E+02  0.17347103159E+02  0.22998381917E+01  0.43400722626E+02  0.00000000000E+00 0.  1.
         11    1    3    3    0    0  0.43248980437E+01 -0.11192145320E+01 -0.45718593312E+01  0.63921265838E+01  0.51100000000E-03 0. -1.
        -11    1    3    3    0    0  0.13305348235E+02  0.81109329697E+00 -0.66015146075E+00  0.13346383938E+02  0.51100000000E-03 0.  1.
        -12    1    3    3    0    0  0.22086393568E+02 -0.17038981924E+02  0.29321726003E+01  0.28048766853E+02  0.00000000000E+00 0.  1.
</event>
<event>
 7    1  0.4430431E-010  0.4778726E+02  0.7816164E-02  0.1312668E+00
        -11   -1    0    0    0    0  0.00000000000E+00  0.00000000000E+00  0.45593999997E+02  0.45594000000E+02  0.51100000000E-03 0.  1.
         11   -1    0    0    0    0 -0.00000000000E+00 -0.00000000000E+00 -0.45593999997E+02  0.45594000000E+02  0.51100000000E-03 0. -1.
    9900012    2    1    2    0    0 -0.11995937982E+01 -0.84116966518E+01 -0.42560877640E+02  0.47787263009E+02  0.19999963364E+02 0.  0.
        -12    1    1    2    0    0  0.11995937982E+01  0.84116966518E+01  0.42560877640E+02  0.43400736991E+02  0.00000000000E+00 0.  1.
         11    1    3    3    0    0 -0.74349134954E+01 -0.35193732045E+01 -0.15902788680E+02  0.17904262467E+02  0.51100000000E-03 0.  1.
        -11    1    3    3    0    0 -0.26494548412E+01 -0.26555102713E+01 -0.42186848432E+01  0.56452323091E+01  0.51100000000E-03 0. -1.
        -12    1    3    3    0    0  0.88847745383E+01 -0.22368131760E+01 -0.22439404117E+02  0.24237768233E+02  0.00000000000E+00 0.  1.
</event>
<event>
 7    1  0.4430431E-010  0.4778727E+02  0.7816164E-02  0.1312668E+00
        -11   -1    0    0    0    0  0.00000000000E+00  0.00000000000E+00  0.45593999997E+02  0.45594000000E+02  0.51100000000E-03 0. -1.
         11   -1    0    0    0    0 -0.00000000000E+00 -0.00000000000E+00 -0.45593999997E+02  0.45594000000E+02  0.51100000000E-03 0.  1.
    9900012    2    1    2    0    0  0.28391983100E+02 -0.11019606397E+02  0.30920656089E+02  0.47787269563E+02  0.19999993245E+02 0.  0.
        -12    1    1    2    0    0 -0.28391983100E+02  0.11019606397E+02 -0.30920656089E+02  0.43400730437E+02  0.00000000000E+00 0.  1.
         11    1    3    3    0    0 -0.69486165050E+00  0.53316719496E+00 -0.45596641434E+00  0.98742372021E+00  0.51100000000E-03 0. -1.
        -11    1    3    3    0    0  0.13093310040E+01  0.11840401801E+00  0.94378953057E+01  0.95290206869E+01  0.51100000000E-03 0.  1.
         12    1    3    3    0    0  0.27777513746E+02 -0.11671177610E+02  0.21938727198E+02  0.37270825156E+02  0.00000000000E+00 0. -1.
</event>
<event>
 7    1  0.4430431E-010  0.4778726E+02  0.7816164E-02  0.1312668E+00
        -11   -1    0    0    0    0  0.00000000000E+00  0.00000000000E+00  0.45593999997E+02  0.45594000000E+02  0.51100000000E-03 0.  1.
         11   -1    0    0    0    0 -0.00000000000E+00 -0.00000000000E+00 -0.45593999997E+02  0.45594000000E+02  0.51100000000E-03 0. -1.
    9900012    2    1    2    0    0 -0.19123592715E+02  0.10820100681E+02 -0.37427770109E+02  0.47787258620E+02  0.19999943350E+02 0.  0.
        -12    1    1    2    0    0  0.19123592715E+02 -0.10820100681E+02  0.37427770109E+02  0.43400741380E+02  0.00000000000E+00 0.  1.
         11    1    3    3    0    0 -0.13380748858E+02  0.91336229183E+01 -0.29262344547E+02  0.33447755026E+02  0.51100000000E-03 0. -1.
        -11    1    3    3    0    0 -0.86199440915E+01  0.19289269854E+01 -0.67902621638E+01  0.11141447660E+02  0.51100000000E-03 0.  1.
         12    1    3    3    0    0  0.28771002341E+01 -0.24244922255E+00 -0.13751633974E+01  0.31980559332E+01  0.00000000000E+00 0. -1.
</event>
<event>
 7    1  0.4430431E-010  0.4778725E+02  0.7816164E-02  0.1312668E+00
        -11   -1    0    0    0    0  0.00000000000E+00  0.00000000000E+00  0.45593999997E+02  0.45594000000E+02  0.51100000000E-03 0.  1.
         11   -1    0    0    0    0 -0.00000000000E+00 -0.00000000000E+00 -0.45593999997E+02  0.45594000000E+02  0.51100000000E-03 0. -1.
    9900012    2    1    2    0    0  0.15797340782E+02 -0.29321874631E+02 -0.27826196089E+02  0.47787245439E+02  0.19999883256E+02 0.  0.
        -12    1    1    2    0    0 -0.15797340782E+02  0.29321874631E+02  0.27826196089E+02  0.43400754561E+02  0.00000000000E+00 0.  1.
         11    1    3    3    0    0  0.21688403386E+01 -0.94712147517E+00 -0.56402910154E+01  0.61166813308E+01  0.51100000000E-03 0. -1.
        -11    1    3    3    0    0  0.17801816347E+01 -0.66106332978E+01 -0.13981173985E+02  0.15567361546E+02  0.51100000000E-03 0.  1.
        -12    1    3    3    0    0  0.11848318808E+02 -0.21764119858E+02 -0.82047310886E+01  0.26103202562E+02  0.00000000000E+00 0.  1.
</event>
<event>
 7    1  0.4430431E-010  0.4778727E+02  0.7816164E-02  0.1312668E+00
        -11   -1    0    0    0    0  0.00000000000E+00  0.00000000000E+00  0.45593999997E+02  0.45594000000E+02  0.51100000000E-03 0.  1.
         11   -1    0    0    0    0 -0.00000000000E+00 -0.00000000000E+00 -0.45593999997E+02  0.45594000000E+02  0.51100000000E-03 0. -1.
    9900012    2    1    2    0    0 -0.79062719368E+01  0.65215386976E+01 -0.42173257366E+02  0.47787271437E+02  0.20000001792E+02 0.  0.
        -12    1    1    2    0    0  0.79062719368E+01 -0.65215386976E+01  0.42173257366E+02  0.43400728563E+02  0.00000000000E+00 0.  1.
         11    1    3    3    0    0 -0.47351818694E+01  0.95972257750E+01 -0.38747534306E+02  0.40198259975E+02  0.51100000000E-03 0. -1.
        -11    1    3    3    0    0 -0.43832431529E+01 -0.12272408706E+01 -0.21150629756E+01  0.50192063461E+01  0.51100000000E-03 0.  1.
         12    1    3    3    0    0  0.12121530856E+01 -0.18484462068E+01 -0.13106600837E+01  0.25698051166E+01  0.00000000000E+00 0. -1.
</event>
<event>
 7    1  0.4430431E-010  0.4778727E+02  0.7816164E-02  0.1312668E+00
        -11   -1    0    0    0    0  0.00000000000E+00  0.00000000000E+00  0.45593999997E+02  0.45594000000E+02  0.51100000000E-03 0.  1.
         11   -1    0    0    0    0 -0.00000000000E+00 -0.00000000000E+00 -0.45593999997E+02  0.45594000000E+02  0.51100000000E-03 0. -1.
    9900012    2    1    2    0    0  0.27647885082E+02  0.14097804707E+02 -0.30339245842E+02  0.47787268609E+02  0.19999988895E+02 0.  0.
        -12    1    1    2    0    0 -0.27647885082E+02 -0.14097804707E+02  0.30339245842E+02  0.43400731391E+02  0.00000000000E+00 0.  1.
         11    1    3    3    0    0  0.55796200363E+01  0.18398456984E+01 -0.55070692140E+01  0.80526395382E+01  0.51100000000E-03 0. -1.
        -11    1    3    3    0    0  0.80470302022E+01  0.22814990320E+01  0.12805359292E+01  0.84616609147E+01  0.51100000000E-03 0.  1.
        -12    1    3    3    0    0  0.14021234843E+02  0.99764599763E+01 -0.26112712557E+02  0.31272968156E+02  0.00000000000E+00 0.  1.
</event>
<event>
 7    1  0.4430431E-010  0.4778727E+02  0.7816164E-02  0.1312668E+00
        -11   -1    0    0    0    0  0.00000000000E+00  0.00000000000E+00  0.45593999997E+02  0.45594000000E+02  0.51100000000E-03 0.  1.
         11   -1    0    0    0    0 -0.00000000000E+00 -0.00000000000E+00 -0.45593999997E+02  0.45594000000E+02  0.51100000000E-03 0. -1.
    9900012    2    1    2    0    0 -0.25967741199E+02 -0.15647149281E+02 -0.31055860277E+02  0.47787270500E+02  0.19999997517E+02 0.  0.
        -12    1    1    2    0    0  0.25967741199E+02  0.15647149281E+02  0.31055860277E+02  0.43400729500E+02  0.00000000000E+00 0.  1.
         11    1    3    3    0    0 -0.47429276311E+01 -0.58382422810E+00 -0.24922242682E+00  0.47852194644E+01  0.51100000000E-03 0. -1.
        -11    1    3    3    0    0 -0.12792707061E+02 -0.12713811700E+02 -0.10453254598E+02  0.20846220134E+02  0.51100000000E-03 0.  1.
         12    1    3    3    0    0 -0.84321065063E+01 -0.23495133522E+01 -0.20353383252E+02  0.22155830902E+02  0.00000000000E+00 0. -1.
</event>
<event>
 7    1  0.4430431E-010  0.4778727E+02  0.7816164E-02  0.1312668E+00
        -11   -1    0    0    0    0  0.00000000000E+00  0.00000000000E+00  0.45593999997E+02  0.45594000000E+02  0.51100000000E-03 0. -1.
         11   -1    0    0    0    0 -0.00000000000E+00 -0.00000000000E+00 -0.45593999997E+02  0.45594000000E+02  0.51100000000E-03 0.  1.
    9900012    2    1    2    0    0  0.11708316833E+02  0.40680953488E+02 -0.95707172104E+01  0.47787270886E+02  0.19999999276E+02 0.  0.
        -12    1    1    2    0    0 -0.11708316833E+02 -0.40680953488E+02  0.95707172104E+01  0.43400729114E+02  0.00000000000E+00 0.  1.
         11    1    3    3    0    0 -0.22283765431E+01  0.10161166834E+02 -0.12192792041E+00  0.10403357156E+02  0.51100000000E-03 0. -1.
        -11    1    3    3    0    0  0.55183868330E+00  0.33109048891E+01 -0.59874331063E+01  0.68641075590E+01  0.51100000000E-03 0.  1.
        -12    1    3    3    0    0  0.13384854693E+02  0.27208881765E+02 -0.34613561836E+01  0.30519806171E+02  0.00000000000E+00 0.  1.
</event>
<event>
 7    1  0.4430431E-010  0.4778727E+02  0.7816164E-02  0.1312668E+00
        -11   -1    0    0    0    0  0.00000000000E+00  0.00000000000E+00  0.45593999997E+02  0.45594000000E+02  0.51100000000E-03 0.  1.
         11   -1    0    0    0    0 -0.00000000000E+00 -0.00000000000E+00 -0.45593999997E+02  0.45594000000E+02  0.51100000000E-03 0. -1.
    9900012    2    1    2    0    0 -0.37852677482E+02  0.98029990169E+01 -0.18833465754E+02  0.47787269423E+02  0.19999992609E+02 0.  0.
        -12    1    1    2    0    0  0.37852677482E+02 -0.98029990169E+01  0.18833465754E+02  0.43400730577E+02  0.00000000000E+00 0.  1.
         11    1    3    3    0    0 -0.22186570579E+02  0.26796783328E+01 -0.18215923241E+01  0.22421926521E+02  0.51100000000E-03 0. -1.
        -11    1    3    3    0    0 -0.12296040481E+02  0.53788935270E+01 -0.80919872526E+01  0.15671801589E+02  0.51100000000E-03 0.  1.
        -12    1    3    3    0    0 -0.33700664217E+01  0.17444271571E+01 -0.89198861770E+01  0.96935413139E+01  0.00000000000E+00 0.  1.
</event>
<event>
 7    1  0.4430431E-010  0.4778727E+02  0.7816164E-02  0.1312668E+00
        -11   -1    0    0    0    0  0.00000000000E+00  0.00000000000E+00  0.45593999997E+02  0.45594000000E+02  0.51100000000E-03 0.  1.
         11   -1    0    0    0    0 -0.00000000000E+00 -0.00000000000E+00 -0.45593999997E+02  0.45594000000E+02  0.51100000000E-03 0. -1.
    9900012    2    1    2    0    0  0.13296149473E+02 -0.11402998804E+02 -0.39709029335E+02  0.47787274393E+02  0.20000015266E+02 0.  0.
        -12    1    1    2    0    0 -0.13296149473E+02  0.11402998804E+02  0.39709029335E+02  0.43400725607E+02  0.00000000000E+00 0.  1.
         11    1    3    3    0    0  0.46346174235E+01 -0.28265938003E+00 -0.16694816423E+02  0.17328487258E+02  0.51100000000E-03 0. -1.
        -11    1    3    3    0    0 -0.38639265163E+01 -0.15485115384E+01 -0.42012957071E+01  0.59142794986E+01  0.51100000000E-03 0.  1.
         12    1    3    3    0    0  0.12525458566E+02 -0.95718278853E+01 -0.18812917204E+02  0.24544507636E+02  0.00000000000E+00 0. -1.
</event>
<event>
 7    1  0.4430431E-010  0.4778726E+02  0.7816164E-02  0.1312668E+00
        -11   -1    0    0    0    0  0.00000000000E+00  0.00000000000E+00  0.45593999997E+02  0.45594000000E+02  0.51100000000E-03 0.  1.
         11   -1    0    0    0    0 -0.00000000000E+00 -0.00000000000E+00 -0.45593999997E+02  0.45594000000E+02  0.51100000000E-03 0. -1.
    9900012    2    1    2    0    0  0.20425357994E+01 -0.91747230399E+01 -0.42370703903E+02  0.47787262165E+02  0.19999959517E+02 0.  0.
        -12    1    1    2    0    0 -0.20425357994E+01  0.91747230399E+01  0.42370703903E+02  0.43400737835E+02  0.00000000000E+00 0.  1.
         11    1    3    3    0    0 -0.31420522134E+01 -0.29397632786E+01 -0.46108851646E+01  0.63067394515E+01  0.51100000000E-03 0.  1.
        -11    1    3    3    0    0 -0.26107879676E+01 -0.75949262367E+01 -0.26697714762E+02  0.27879510256E+02  0.51100000000E-03 0. -1.
         12    1    3    3    0    0  0.77953759804E+01  0.13599664754E+01 -0.11062103976E+02  0.13601012458E+02  0.00000000000E+00 0. -1.
</event>
<event>
 7    1  0.4430431E-010  0.4778727E+02  0.7816164E-02  0.1312668E+00
        -11   -1    0    0    0    0  0.00000000000E+00  0.00000000000E+00  0.45593999997E+02  0.45594000000E+02  0.51100000000E-03 0.  1.
         11   -1    0    0    0    0 -0.00000000000E+00 -0.00000000000E+00 -0.45593999997E+02  0.45594000000E+02  0.51100000000E-03 0. -1.
    9900012    2    1    2    0    0 -0.23383919784E+02  0.79423101689E+01 -0.35689429469E+02  0.47787269924E+02  0.19999994892E+02 0.  0.
        -12    1    1    2    0    0  0.23383919784E+02 -0.79423101689E+01  0.35689429469E+02  0.43400730076E+02  0.00000000000E+00 0.  1.
         11    1    3    3    0    0 -0.50486229127E+01  0.47657549534E+01 -0.15223474610E+02  0.16731861614E+02  0.51100000000E-03 0. -1.
        -11    1    3    3    0    0 -0.20840652869E+01 -0.33649429123E+01  0.20040167943E+00  0.39631212468E+01  0.51100000000E-03 0.  1.
        -12    1    3    3    0    0 -0.16251231585E+02  0.65414981278E+01 -0.20666356538E+02  0.27092287064E+02  0.00000000000E+00 0.  1.
</event>
<event>
 7    1  0.4430431E-010  0.4778727E+02  0.7816164E-02  0.1312668E+00
        -11   -1    0    0    0    0  0.00000000000E+00  0.00000000000E+00  0.45593999997E+02  0.45594000000E+02  0.51100000000E-03 0.  1.
         11   -1    0    0    0    0 -0.00000000000E+00 -0.00000000000E+00 -0.45593999997E+02  0.45594000000E+02  0.51100000000E-03 0. -1.
    9900012    2    1    2    0    0  0.13894938213E+02 -0.25912212055E+02 -0.31923519995E+02  0.47787272237E+02  0.20000005437E+02 0.  0.
        -12    1    1    2    0    0 -0.13894938213E+02  0.25912212055E+02  0.31923519995E+02  0.43400727763E+02  0.00000000000E+00 0.  1.
         11    1    3    3    0    0  0.11565850741E+02 -0.14734137822E+02 -0.13132497051E+02  0.22876324001E+02  0.51100000000E-03 0. -1.
        -11    1    3    3    0    0 -0.80794588285E+00 -0.29075265347E+01  0.10438183680E+01  0.31931245115E+01  0.51100000000E-03 0.  1.
        -12    1    3    3    0    0  0.31370333548E+01 -0.82705476985E+01 -0.19834841311E+02  0.21717823725E+02  0.00000000000E+00 0.  1.
</event>
<event>
 7    1  0.4430431E-010  0.4778727E+02  0.7816164E-02  0.1312668E+00
        -11   -1    0    0    0    0  0.00000000000E+00  0.00000000000E+00  0.45593999997E+02  0.45594000000E+02  0.51100000000E-03 0.  1.
         11   -1    0    0    0    0 -0.00000000000E+00 -0.00000000000E+00 -0.45593999997E+02  0.45594000000E+02  0.51100000000E-03 0. -1.
    9900012    2    1    2    0    0 -0.17875882498E+02 -0.37801418072E+02 -0.11624490949E+02  0.47787272205E+02  0.20000005290E+02 0.  0.
        -12    1    1    2    0    0  0.17875882498E+02  0.37801418072E+02  0.11624490949E+02  0.43400727795E+02  0.00000000000E+00 0.  1.
         11    1    3    3    0    0 -0.22729748362E+01 -0.75418301858E+01 -0.50562613556E+01  0.93600959564E+01  0.51100000000E-03 0. -1.
        -11    1    3    3    0    0 -0.11275000779E+02 -0.51808391518E+01 -0.24116333493E+01  0.12640518683E+02  0.51100000000E-03 0.  1.
        -12    1    3    3    0    0 -0.43279068827E+01 -0.25078748734E+02 -0.41565962440E+01  0.25786657566E+02  0.00000000000E+00 0.  1.
</event>
<event>
 7    1  0.4430431E-010  0.4778729E+02  0.7816164E-02  0.1312668E+00
        -11   -1    0    0    0    0  0.00000000000E+00  0.00000000000E+00  0.45593999997E+02  0.45594000000E+02  0.51100000000E-03 0.  1.
         11   -1    0    0    0    0 -0.00000000000E+00 -0.00000000000E+00 -0.45593999997E+02  0.45594000000E+02  0.51100000000E-03 0. -1.
    9900012    2    1    2    0    0  0.38665193260E+02  0.35372030353E+01 -0.19393625742E+02  0.47787289239E+02  0.20000082955E+02 0.  0.
        -12    1    1    2    0    0 -0.38665193260E+02 -0.35372030353E+01  0.19393625742E+02  0.43400710761E+02  0.00000000000E+00 0.  1.
         11    1    3    3    0    0  0.73943581666E+01  0.32037272033E+01  0.13224864391E+01  0.81663560620E+01  0.51100000000E-03 0. -1.
        -11    1    3    3    0    0  0.43116869271E+00 -0.24562447611E+01 -0.25698398951E+00  0.25070073394E+01  0.51100000000E-03 0.  1.
         12    1    3    3    0    0  0.30839666401E+02  0.27897205931E+01 -0.20459128191E+02  0.37113925837E+02  0.00000000000E+00 0. -1.
</event>
<event>
 7    1  0.4430431E-010  0.4778727E+02  0.7816164E-02  0.1312668E+00
        -11   -1    0    0    0    0  0.00000000000E+00  0.00000000000E+00  0.45593999997E+02  0.45594000000E+02  0.51100000000E-03 0.  1.
         11   -1    0    0    0    0 -0.00000000000E+00 -0.00000000000E+00 -0.45593999997E+02  0.45594000000E+02  0.51100000000E-03 0. -1.
    9900012    2    1    2    0    0  0.35180108781E+02  0.16597727200E+02 -0.19248341580E+02  0.47787271255E+02  0.20000000959E+02 0.  0.
        -12    1    1    2    0    0 -0.35180108781E+02 -0.16597727200E+02  0.19248341580E+02  0.43400728745E+02  0.00000000000E+00 0.  1.
         11    1    3    3    0    0  0.15497191702E+02  0.76935699712E+01 -0.34931820166E+01  0.17650957209E+02  0.51100000000E-03 0.  1.
        -11    1    3    3    0    0  0.15737818800E+02  0.11972211130E+02 -0.15512666434E+02  0.25132759500E+02  0.51100000000E-03 0. -1.
        -12    1    3    3    0    0  0.39450982792E+01 -0.30680539012E+01 -0.24249312930E+00  0.50035545456E+01  0.00000000000E+00 0.  1.
</event>
<event>
 7    1  0.4430431E-010  0.4778727E+02  0.7816164E-02  0.1312668E+00
        -11   -1    0    0    0    0  0.00000000000E+00  0.00000000000E+00  0.45593999997E+02  0.45594000000E+02  0.51100000000E-03 0.  1.
         11   -1    0    0    0    0 -0.00000000000E+00 -0.00000000000E+00 -0.45593999997E+02  0.45594000000E+02  0.51100000000E-03 0. -1.
    9900012    2    1    2    0    0 -0.26142431064E+02  0.27280800070E+02 -0.21353096336E+02  0.47787268699E+02  0.19999989304E+02 0.  0.
        -12    1    1    2    0    0  0.26142431064E+02 -0.27280800070E+02  0.21353096336E+02  0.43400731301E+02  0.00000000000E+00 0.  1.
         11    1    3    3    0    0 -0.20756830941E+02  0.18946979818E+02 -0.13800896525E+02  0.31309724050E+02  0.51100000000E-03 0. -1.
        -11    1    3    3    0    0 -0.59455746793E+01  0.31340469638E+01 -0.88270709095E+01  0.11094561269E+02  0.51100000000E-03 0.  1.
        -12    1    3    3    0    0  0.55997455659E+00  0.51997732882E+01  0.12748710985E+01  0.53829833801E+01  0.00000000000E+00 0.  1.
</event>
<event>
 7    1  0.4430431E-010  0.4778725E+02  0.7816164E-02  0.1312668E+00
        -11   -1    0    0    0    0  0.00000000000E+00  0.00000000000E+00  0.45593999997E+02  0.45594000000E+02  0.51100000000E-03 0. -1.
         11   -1    0    0    0    0 -0.00000000000E+00 -0.00000000000E+00 -0.45593999997E+02  0.45594000000E+02  0.51100000000E-03 0.  1.
    9900012    2    1    2    0    0 -0.28307698402E+02  0.16713548843E+02  0.28336491122E+02  0.47787248476E+02  0.19999897100E+02 0.  0.
        -12    1    1    2    0    0  0.28307698402E+02 -0.16713548843E+02 -0.28336491122E+02  0.43400751524E+02  0.00000000000E+00 0.  1.
         11    1    3    3    0    0 -0.98764282774E+00 -0.53530955333E+00  0.67816673327E+01  0.68740822475E+01  0.51100000000E-03 0. -1.
        -11    1    3    3    0    0 -0.89485883042E+01  0.36226450080E-02  0.24091261492E+01  0.92672074988E+01  0.51100000000E-03 0.  1.
        -12    1    3    3    0    0 -0.18371467270E+02  0.17245235751E+02  0.19145697640E+02  0.31645958729E+02  0.00000000000E+00 0.  1.
</event>
<event>
 7    1  0.4430431E-010  0.4778727E+02  0.7816164E-02  0.1312668E+00
        -11   -1    0    0    0    0  0.00000000000E+00  0.00000000000E+00  0.45593999997E+02  0.45594000000E+02  0.51100000000E-03 0. -1.
         11   -1    0    0    0    0 -0.00000000000E+00 -0.00000000000E+00 -0.45593999997E+02  0.45594000000E+02  0.51100000000E-03 0.  1.
    9900012    2    1    2    0    0 -0.36676601629E+02 -0.18972475114E+02 -0.13360210822E+02  0.47787272446E+02  0.20000006390E+02 0.  0.
        -12    1    1    2    0    0  0.36676601629E+02  0.18972475114E+02  0.13360210822E+02  0.43400727554E+02  0.00000000000E+00 0.  1.
         11    1    3    3    0    0 -0.52486766443E+01  0.42927854224E+00  0.42909433059E+01  0.67930170984E+01  0.51100000000E-03 0.  1.
        -11    1    3    3    0    0 -0.60501794081E+01 -0.47823622364E+01 -0.36907083924E+01  0.85496776623E+01  0.51100000000E-03 0. -1.
        -12    1    3    3    0    0 -0.25377745577E+02 -0.14619391420E+02 -0.13960445735E+02  0.32444577685E+02  0.00000000000E+00 0.  1.
</event>
<event>
 7    1  0.4430431E-010  0.4778727E+02  0.7816164E-02  0.1312668E+00
        -11   -1    0    0    0    0  0.00000000000E+00  0.00000000000E+00  0.45593999997E+02  0.45594000000E+02  0.51100000000E-03 0. -1.
         11   -1    0    0    0    0 -0.00000000000E+00 -0.00000000000E+00 -0.45593999997E+02  0.45594000000E+02  0.51100000000E-03 0.  1.
    9900012    2    1    2    0    0 -0.33410946416E+02 -0.42824262474E+01  0.27367733336E+02  0.47787270249E+02  0.19999996375E+02 0.  0.
        -12    1    1    2    0    0  0.33410946416E+02  0.42824262474E+01 -0.27367733336E+02  0.43400729751E+02  0.00000000000E+00 0.  1.
         11    1    3    3    0    0 -0.11147873306E+02 -0.55793769372E+01  0.10500091955E+02  0.16298971059E+02  0.51100000000E-03 0. -1.
        -11    1    3    3    0    0 -0.16044205584E+02 -0.55786203227E+01  0.13224722170E+02  0.21527443282E+02  0.51100000000E-03 0.  1.
        -12    1    3    3    0    0 -0.62188675253E+01  0.68755710126E+01  0.36429192108E+01  0.99608559081E+01  0.00000000000E+00 0.  1.
</event>
<event>
 7    1  0.4430431E-010  0.4778727E+02  0.7816164E-02  0.1312668E+00
        -11   -1    0    0    0    0  0.00000000000E+00  0.00000000000E+00  0.45593999997E+02  0.45594000000E+02  0.51100000000E-03 0.  1.
         11   -1    0    0    0    0 -0.00000000000E+00 -0.00000000000E+00 -0.45593999997E+02  0.45594000000E+02  0.51100000000E-03 0. -1.
    9900012    2    1    2    0    0  0.11257370020E+02  0.67204352787E+01 -0.41373063792E+02  0.47787273766E+02  0.20000012409E+02 0.  0.
        -12    1    1    2    0    0 -0.11257370020E+02 -0.67204352787E+01  0.41373063792E+02  0.43400726234E+02  0.00000000000E+00 0.  1.
         11    1    3    3    0    0  0.77467201784E+01  0.47228234702E+00 -0.11765120792E+02  0.14094424134E+02  0.51100000000E-03 0. -1.
        -11    1    3    3    0    0 -0.48436326765E+00 -0.44346615484E+01 -0.10966217222E+02  0.11838866130E+02  0.51100000000E-03 0.  1.
        -12    1    3    3    0    0  0.39950131097E+01  0.10682814480E+02 -0.18641725777E+02  0.21853983502E+02  0.00000000000E+00 0.  1.
</event>
<event>
 7    1  0.4430431E-010  0.4778727E+02  0.7816164E-02  0.1312668E+00
        -11   -1    0    0    0    0  0.00000000000E+00  0.00000000000E+00  0.45593999997E+02  0.45594000000E+02  0.51100000000E-03 0.  1.
         11   -1    0    0    0    0 -0.00000000000E+00 -0.00000000000E+00 -0.45593999997E+02  0.45594000000E+02  0.51100000000E-03 0. -1.
    9900012    2    1    2    0    0 -0.20972870396E+02  0.34223008522E+02 -0.16509022168E+02  0.47787269385E+02  0.19999992435E+02 0.  0.
        -12    1    1    2    0    0  0.20972870396E+02 -0.34223008522E+02  0.16509022168E+02  0.43400730615E+02  0.00000000000E+00 0.  1.
         11    1    3    3    0    0 -0.70107938923E+01  0.10320848298E+02 -0.93776829465E+01  0.15608077342E+02  0.51100000000E-03 0. -1.
        -11    1    3    3    0    0  0.81610975774E+00  0.44641328103E+00 -0.41998031859E+01  0.43015888943E+01  0.51100000000E-03 0.  1.
         12    1    3    3    0    0 -0.14778186261E+02  0.23455746943E+02 -0.29315360356E+01  0.27877603149E+02  0.00000000000E+00 0. -1.
</event>
<event>
 7    1  0.4430431E-010  0.4778727E+02  0.7816164E-02  0.1312668E+00
        -11   -1    0    0    0    0  0.00000000000E+00  0.00000000000E+00  0.45593999997E+02  0.45594000000E+02  0.51100000000E-03 0.  1.
         11   -1    0    0    0    0 -0.00000000000E+00 -0.00000000000E+00 -0.45593999997E+02  0.45594000000E+02  0.51100000000E-03 0. -1.
    9900012    2    1    2    0    0  0.27324835533E+02  0.26820044755E+02 -0.20436770269E+02  0.47787274008E+02  0.20000013514E+02 0.  0.
        -12    1    1    2    0    0 -0.27324835533E+02 -0.26820044755E+02  0.20436770269E+02  0.43400725992E+02  0.00000000000E+00 0.  1.
         11    1    3    3    0    0  0.12082608114E+02  0.19249041786E+02 -0.12203701891E+02  0.25796227798E+02  0.51100000000E-03 0. -1.
        -11    1    3    3    0    0 -0.17820584293E+01  0.42767113173E+00 -0.13949223796E+01  0.23031377615E+01  0.51100000000E-03 0.  1.
        -12    1    3    3    0    0  0.17024285849E+02  0.71433318376E+01 -0.68381459978E+01  0.19687908449E+02  0.00000000000E+00 0.  1.
</event>
<event>
 7    1  0.4430431E-010  0.4778727E+02  0.7816164E-02  0.1312668E+00
        -11   -1    0    0    0    0  0.00000000000E+00  0.00000000000E+00  0.45593999997E+02  0.45594000000E+02  0.51100000000E-03 0.  1.
         11   -1    0    0    0    0 -0.00000000000E+00 -0.00000000000E+00 -0.45593999997E+02  0.45594000000E+02  0.51100000000E-03 0. -1.
    9900012    2    1    2    0    0 -0.22368586592E+01  0.23203226899E+02 -0.36609153135E+02  0.47787269955E+02  0.19999995033E+02 0.  0.
        -12    1    1    2    0    0  0.22368586592E+01 -0.23203226899E+02  0.36609153135E+02  0.43400730045E+02  0.00000000000E+00 0.  1.
         11    1    3    3    0    0  0.16221204682E+01  0.69398182863E+01 -0.74228889646E+01  0.10290366053E+02  0.51100000000E-03 0. -1.
        -11    1    3    3    0    0  0.50118534295E+01  0.10809082133E+02 -0.21404204978E+02  0.24496834945E+02  0.51100000000E-03 0.  1.
        -12    1    3    3    0    0 -0.88708325570E+01  0.54543264794E+01 -0.77820591928E+01  0.13000068957E+02  0.00000000000E+00 0.  1.
</event>
<event>
 7    1  0.4430431E-010  0.4778727E+02  0.7816164E-02  0.1312668E+00
        -11   -1    0    0    0    0  0.00000000000E+00  0.00000000000E+00  0.45593999997E+02  0.45594000000E+02  0.51100000000E-03 0.  1.
         11   -1    0    0    0    0 -0.00000000000E+00 -0.00000000000E+00 -0.45593999997E+02  0.45594000000E+02  0.51100000000E-03 0. -1.
    9900012    2    1    2    0    0  0.18481223129E+02 -0.29233953051E+02 -0.26219147696E+02  0.47787270452E+02  0.19999997301E+02 0.  0.
        -12    1    1    2    0    0 -0.18481223129E+02  0.29233953051E+02  0.26219147696E+02  0.43400729548E+02  0.00000000000E+00 0.  1.
         11    1    3    3    0    0  0.17848340831E+01  0.16810867010E+00  0.40219276861E+00  0.18372948902E+01  0.51100000000E-03 0. -1.
        -11    1    3    3    0    0  0.31556066951E+01  0.16046945304E+01 -0.16949109663E+01  0.39249995662E+01  0.51100000000E-03 0.  1.
         12    1    3    3    0    0  0.13540782351E+02 -0.31006756252E+02 -0.24926429498E+02  0.42024975996E+02  0.00000000000E+00 0. -1.
</event>
<event>
 7    1  0.4430431E-010  0.4778727E+02  0.7816164E-02  0.1312668E+00
        -11   -1    0    0    0    0  0.00000000000E+00  0.00000000000E+00  0.45593999997E+02  0.45594000000E+02  0.51100000000E-03 0.  1.
         11   -1    0    0    0    0 -0.00000000000E+00 -0.00000000000E+00 -0.45593999997E+02  0.45594000000E+02  0.51100000000E-03 0. -1.
    9900012    2    1    2    0    0  0.11686320031E+02 -0.36878252506E+02 -0.19673530755E+02  0.47787269636E+02  0.19999993579E+02 0.  0.
        -12    1    1    2    0    0 -0.11686320031E+02  0.36878252506E+02  0.19673530755E+02  0.43400730364E+02  0.00000000000E+00 0.  1.
         11    1    3    3    0    0  0.37029482544E+01 -0.10911591297E+02 -0.92228371843E+00  0.11559639178E+02  0.51100000000E-03 0. -1.
        -11    1    3    3    0    0 -0.41508008144E+01 -0.75128112463E+01 -0.29681246349E+01  0.90819185381E+01  0.51100000000E-03 0.  1.
         12    1    3    3    0    0  0.12134172591E+02 -0.18453849963E+02 -0.15783122402E+02  0.27145711920E+02  0.00000000000E+00 0. -1.
</event>
<event>
 7    1  0.4430431E-010  0.4778727E+02  0.7816164E-02  0.1312668E+00
        -11   -1    0    0    0    0  0.00000000000E+00  0.00000000000E+00  0.45593999997E+02  0.45594000000E+02  0.51100000000E-03 0.  1.
         11   -1    0    0    0    0 -0.00000000000E+00 -0.00000000000E+00 -0.45593999997E+02  0.45594000000E+02  0.51100000000E-03 0. -1.
    9900012    2    1    2    0    0  0.41382756515E+02 -0.11688167995E+01 -0.13027832471E+02  0.47787273182E+02  0.20000009745E+02 0.  0.
        -12    1    1    2    0    0 -0.41382756515E+02  0.11688167995E+01  0.13027832471E+02  0.43400726818E+02  0.00000000000E+00 0.  1.
         11    1    3    3    0    0  0.58448163488E+01 -0.95934301946E+00  0.11263785849E+01  0.60291745835E+01  0.51100000000E-03 0. -1.
        -11    1    3    3    0    0  0.88830875073E+01 -0.47688295496E+01  0.19713642762E+01  0.10273132741E+02  0.51100000000E-03 0.  1.
         12    1    3    3    0    0  0.26654852659E+02  0.45593557696E+01 -0.16125575332E+02  0.31484965858E+02  0.00000000000E+00 0. -1.
</event>
<event>
 7    1  0.4430431E-010  0.4778728E+02  0.7816164E-02  0.1312668E+00
        -11   -1    0    0    0    0  0.00000000000E+00  0.00000000000E+00  0.45593999997E+02  0.45594000000E+02  0.51100000000E-03 0.  1.
         11   -1    0    0    0    0 -0.00000000000E+00 -0.00000000000E+00 -0.45593999997E+02  0.45594000000E+02  0.51100000000E-03 0. -1.
    9900012    2    1    2    0    0  0.33483422931E+02 -0.20734176499E+01 -0.27535134564E+02  0.47787282179E+02  0.20000050765E+02 0.  0.
        -12    1    1    2    0    0 -0.33483422931E+02  0.20734176499E+01  0.27535134564E+02  0.43400717821E+02  0.00000000000E+00 0.  1.
         11    1    3    3    0    0  0.13484414237E+02  0.21170350961E+01 -0.77720808764E+01  0.15707211921E+02  0.51100000000E-03 0. -1.
        -11    1    3    3    0    0  0.13614817622E+02 -0.96247183456E+01 -0.11135095141E+02  0.20049658506E+02  0.51100000000E-03 0.  1.
        -12    1    3    3    0    0  0.63841910717E+01  0.54342655996E+01 -0.86279585465E+01  0.12030411752E+02  0.00000000000E+00 0.  1.
</event>
<event>
 7    1  0.4430431E-010  0.4778727E+02  0.7816164E-02  0.1312668E+00
        -11   -1    0    0    0    0  0.00000000000E+00  0.00000000000E+00  0.45593999997E+02  0.45594000000E+02  0.51100000000E-03 0.  1.
         11   -1    0    0    0    0 -0.00000000000E+00 -0.00000000000E+00 -0.45593999997E+02  0.45594000000E+02  0.51100000000E-03 0. -1.
    9900012    2    1    2    0    0  0.48648345609E+00  0.42917450140E+02 -0.64404318704E+01  0.47787270106E+02  0.19999995719E+02 0.  0.
        -12    1    1    2    0    0 -0.48648345609E+00 -0.42917450140E+02  0.64404318704E+01  0.43400729894E+02  0.00000000000E+00 0.  1.
         11    1    3    3    0    0  0.14108111260E+01  0.43684821516E+02 -0.76704374311E+01  0.44375552161E+02  0.51100000000E-03 0.  1.
        -11    1    3    3    0    0 -0.14983923007E+01  0.62845936024E+00  0.34154467408E+00  0.16603595032E+01  0.51100000000E-03 0. -1.
        -12    1    3    3    0    0  0.57406463077E+00 -0.13958307361E+01  0.88846088657E+00  0.17513584417E+01  0.00000000000E+00 0.  1.
</event>
<event>
 7    1  0.4430431E-010  0.4778727E+02  0.7816164E-02  0.1312668E+00
        -11   -1    0    0    0    0  0.00000000000E+00  0.00000000000E+00  0.45593999997E+02  0.45594000000E+02  0.51100000000E-03 0.  1.
         11   -1    0    0    0    0 -0.00000000000E+00 -0.00000000000E+00 -0.45593999997E+02  0.45594000000E+02  0.51100000000E-03 0. -1.
    9900012    2    1    2    0    0 -0.34419829443E+02 -0.26431838190E+02 -0.50626756711E+00  0.47787273787E+02  0.20000012502E+02 0.  0.
        -12    1    1    2    0    0  0.34419829443E+02  0.26431838190E+02  0.50626756711E+00  0.43400726213E+02  0.00000000000E+00 0.  1.
         11    1    3    3    0    0 -0.99240780445E+01 -0.83239607594E+01 -0.22441635983E+01  0.13145794699E+02  0.51100000000E-03 0.  1.
        -11    1    3    3    0    0 -0.97507749263E+01 -0.15746990753E+02 -0.34365226146E+01  0.18837595849E+02  0.51100000000E-03 0. -1.
        -12    1    3    3    0    0 -0.14744976473E+02 -0.23608866775E+01  0.51744186457E+01  0.15803883238E+02  0.00000000000E+00 0.  1.
</event>
<event>
 7    1  0.4430431E-010  0.4778727E+02  0.7816164E-02  0.1312668E+00
        -11   -1    0    0    0    0  0.00000000000E+00  0.00000000000E+00  0.45593999997E+02  0.45594000000E+02  0.51100000000E-03 0.  1.
         11   -1    0    0    0    0 -0.00000000000E+00 -0.00000000000E+00 -0.45593999997E+02  0.45594000000E+02  0.51100000000E-03 0. -1.
    9900012    2    1    2    0    0 -0.53549112834E+01  0.42956775919E+02  0.31086198625E+01  0.47787272015E+02  0.20000004425E+02 0.  0.
        -12    1    1    2    0    0  0.53549112834E+01 -0.42956775919E+02 -0.31086198625E+01  0.43400727985E+02  0.00000000000E+00 0.  1.
         11    1    3    3    0    0  0.18607339295E+01  0.86902332050E+01 -0.25970539463E+01  0.92588969848E+01  0.51100000000E-03 0. -1.
        -11    1    3    3    0    0 -0.19475290125E+01  0.25830554359E+02 -0.19502720028E+01  0.25977181697E+02  0.51100000000E-03 0.  1.
        -12    1    3    3    0    0 -0.52681162004E+01  0.84359883544E+01  0.76559458116E+01  0.12551193333E+02  0.00000000000E+00 0.  1.
</event>
<event>
 7    1  0.4430431E-010  0.4778727E+02  0.7816164E-02  0.1312668E+00
        -11   -1    0    0    0    0  0.00000000000E+00  0.00000000000E+00  0.45593999997E+02  0.45594000000E+02  0.51100000000E-03 0.  1.
         11   -1    0    0    0    0 -0.00000000000E+00 -0.00000000000E+00 -0.45593999997E+02  0.45594000000E+02  0.51100000000E-03 0. -1.
    9900012    2    1    2    0    0 -0.17284315873E+02 -0.34504777152E+02 -0.19856884907E+02  0.47787273051E+02  0.20000009147E+02 0.  0.
        -12    1    1    2    0    0  0.17284315873E+02  0.34504777152E+02  0.19856884907E+02  0.43400726949E+02  0.00000000000E+00 0.  1.
         11    1    3    3    0    0 -0.33457736331E+01 -0.64935808606E+01 -0.27783538448E+01  0.78153722845E+01  0.51100000000E-03 0. -1.
        -11    1    3    3    0    0 -0.27447430943E+01 -0.16754678849E+02 -0.45229759068E+00  0.16984035191E+02  0.51100000000E-03 0.  1.
         12    1    3    3    0    0 -0.11193799145E+02 -0.11256517442E+02 -0.16626233472E+02  0.22987865575E+02  0.00000000000E+00 0. -1.
</event>
<event>
 7    1  0.4430431E-010  0.4778723E+02  0.7816164E-02  0.1312668E+00
        -11   -1    0    0    0    0  0.00000000000E+00  0.00000000000E+00  0.45593999997E+02  0.45594000000E+02  0.51100000000E-03 0. -1.
         11   -1    0    0    0    0 -0.00000000000E+00 -0.00000000000E+00 -0.45593999997E+02  0.45594000000E+02  0.51100000000E-03 0.  1.
    9900012    2    1    2    0    0  0.24324402434E+02 -0.28972293035E+02  0.21273367712E+02  0.47787233978E+02  0.19999831001E+02 0.  0.
        -12    1    1    2    0    0 -0.24324402434E+02  0.28972293035E+02 -0.21273367712E+02  0.43400766022E+02  0.00000000000E+00 0.  1.
         11    1    3    3    0    0  0.20872732527E+02 -0.20991220211E+02  0.93805660064E+01  0.31053136846E+02  0.51100000000E-03 0.  1.
        -11    1    3    3    0    0  0.31575943791E+01  0.43107983679E+00  0.20792668887E+01  0.38052047441E+01  0.51100000000E-03 0. -1.
        -12    1    3    3    0    0  0.29407552757E+00 -0.84121526603E+01  0.98135348165E+01  0.12928892388E+02  0.00000000000E+00 0.  1.
</event>
<event>
 7    1  0.4430431E-010  0.4778727E+02  0.7816164E-02  0.1312668E+00
        -11   -1    0    0    0    0  0.00000000000E+00  0.00000000000E+00  0.45593999997E+02  0.45594000000E+02  0.51100000000E-03 0. -1.
         11   -1    0    0    0    0 -0.00000000000E+00 -0.00000000000E+00 -0.45593999997E+02  0.45594000000E+02  0.51100000000E-03 0.  1.
    9900012    2    1    2    0    0 -0.39045968387E+02 -0.34869094865E+01  0.18624647081E+02  0.47787266551E+02  0.19999979513E+02 0.  0.
        -12    1    1    2    0    0  0.39045968387E+02  0.34869094865E+01 -0.18624647081E+02  0.43400733449E+02  0.00000000000E+00 0.  1.
         11    1    3    3    0    0 -0.23404344477E+02 -0.57866742897E+00  0.11481460628E+02  0.26075316581E+02  0.51100000000E-03 0. -1.
        -11    1    3    3    0    0 -0.11029585012E+02 -0.72821122169E+01  0.77591115853E+01  0.15325949130E+02  0.51100000000E-03 0.  1.
        -12    1    3    3    0    0 -0.46120388983E+01  0.43738701594E+01 -0.61592513166E+00  0.63860008408E+01  0.00000000000E+00 0.  1.
</event>
<event>
 7    1  0.4430431E-010  0.4778727E+02  0.7816164E-02  0.1312668E+00
        -11   -1    0    0    0    0  0.00000000000E+00  0.00000000000E+00  0.45593999997E+02  0.45594000000E+02  0.51100000000E-03 0. -1.
         11   -1    0    0    0    0 -0.00000000000E+00 -0.00000000000E+00 -0.45593999997E+02  0.45594000000E+02  0.51100000000E-03 0.  1.
    9900012    2    1    2    0    0  0.29528401932E+02 -0.19310126892E+02  0.25274807167E+02  0.47787269608E+02  0.19999993452E+02 0.  0.
        -12    1    1    2    0    0 -0.29528401932E+02  0.19310126892E+02 -0.25274807167E+02  0.43400730392E+02  0.00000000000E+00 0.  1.
         11    1    3    3    0    0  0.35566926989E+01  0.10548463830E+00  0.58890930193E+01  0.68805963997E+01  0.51100000000E-03 0. -1.
        -11    1    3    3    0    0  0.59952965708E+01 -0.37092214306E+01 -0.23871874236E+01  0.74431558260E+01  0.51100000000E-03 0.  1.
         12    1    3    3    0    0  0.19976412662E+02 -0.15706390100E+02  0.21772901571E+02  0.33463517383E+02  0.00000000000E+00 0. -1.
</event>
<event>
 7    1  0.4430431E-010  0.4778727E+02  0.7816164E-02  0.1312668E+00
        -11   -1    0    0    0    0  0.00000000000E+00  0.00000000000E+00  0.45593999997E+02  0.45594000000E+02  0.51100000000E-03 0. -1.
         11   -1    0    0    0    0 -0.00000000000E+00 -0.00000000000E+00 -0.45593999997E+02  0.45594000000E+02  0.51100000000E-03 0.  1.
    9900012    2    1    2    0    0  0.28433649578E+02  0.25381610151E+02  0.20758733500E+02  0.47787267533E+02  0.19999983990E+02 0.  0.
        -12    1    1    2    0    0 -0.28433649578E+02 -0.25381610151E+02 -0.20758733500E+02  0.43400732467E+02  0.00000000000E+00 0.  1.
         11    1    3    3    0    0  0.82070041347E+01  0.40817759102E+01  0.76562774000E+01  0.11942964261E+02  0.51100000000E-03 0. -1.
        -11    1    3    3    0    0  0.22087477161E+02  0.15790557033E+02  0.12810890774E+02  0.30021946330E+02  0.51100000000E-03 0.  1.
         12    1    3    3    0    0 -0.18608317174E+01  0.55092772076E+01  0.29156532565E+00  0.58223569428E+01  0.00000000000E+00 0. -1.
</event>
<event>
 7    1  0.4430431E-010  0.4778726E+02  0.7816164E-02  0.1312668E+00
        -11   -1    0    0    0    0  0.00000000000E+00  0.00000000000E+00  0.45593999997E+02  0.45594000000E+02  0.51100000000E-03 0. -1.
         11   -1    0    0    0    0 -0.00000000000E+00 -0.00000000000E+00 -0.45593999997E+02  0.45594000000E+02  0.51100000000E-03 0.  1.
    9900012    2    1    2    0    0 -0.38937946336E+02  0.68483563974E+01  0.17904198083E+02  0.47787263149E+02  0.19999964001E+02 0.  0.
        -12    1    1    2    0    0  0.38937946336E+02 -0.68483563974E+01 -0.17904198083E+02  0.43400736851E+02  0.00000000000E+00 0.  1.
         11    1    3    3    0    0 -0.79419412581E+01  0.22845961826E+01  0.12190658939E+02  0.14727728145E+02  0.51100000000E-03 0. -1.
        -11    1    3    3    0    0 -0.26491763841E+01  0.20495238742E+01 -0.15476018185E+01  0.36896822729E+01  0.51100000000E-03 0.  1.
        -12    1    3    3    0    0 -0.28346828694E+02  0.25142363406E+01  0.72611409623E+01  0.29369852731E+02  0.00000000000E+00 0.  1.
</event>
<event>
 7    1  0.4430431E-010  0.4778727E+02  0.7816164E-02  0.1312668E+00
        -11   -1    0    0    0    0  0.00000000000E+00  0.00000000000E+00  0.45593999997E+02  0.45594000000E+02  0.51100000000E-03 0.  1.
         11   -1    0    0    0    0 -0.00000000000E+00 -0.00000000000E+00 -0.45593999997E+02  0.45594000000E+02  0.51100000000E-03 0. -1.
    9900012    2    1    2    0    0  0.77313761249E+01 -0.16277909124E+02 -0.39482637546E+02  0.47787272243E+02  0.20000005465E+02 0.  0.
        -12    1    1    2    0    0 -0.77313761249E+01  0.16277909124E+02  0.39482637546E+02  0.43400727757E+02  0.00000000000E+00 0.  1.
         11    1    3    3    0    0  0.10490501423E+02 -0.65182526767E+01 -0.28608496352E+02  0.31160621012E+02  0.51100000000E-03 0. -1.
        -11    1    3    3    0    0  0.14276631041E+01  0.19433470161E+00 -0.22117044281E+00  0.14577052312E+01  0.51100000000E-03 0.  1.
        -12    1    3    3    0    0 -0.41867884027E+01 -0.99539911485E+01 -0.10652970752E+02  0.15168946000E+02  0.00000000000E+00 0.  1.
</event>
<event>
 7    1  0.4430431E-010  0.4778727E+02  0.7816164E-02  0.1312668E+00
        -11   -1    0    0    0    0  0.00000000000E+00  0.00000000000E+00  0.45593999997E+02  0.45594000000E+02  0.51100000000E-03 0. -1.
         11   -1    0    0    0    0 -0.00000000000E+00 -0.00000000000E+00 -0.45593999997E+02  0.45594000000E+02  0.51100000000E-03 0.  1.
    9900012    2    1    2    0    0 -0.45891391511E+01  0.34116609351E+02  0.26431417017E+02  0.47787273770E+02  0.20000012427E+02 0.  0.
        -12    1    1    2    0    0  0.45891391511E+01 -0.34116609351E+02 -0.26431417017E+02  0.43400726230E+02  0.00000000000E+00 0.  1.
         11    1    3    3    0    0 -0.76392235653E+01  0.54776813551E+01  0.24577618887E+01  0.97161372711E+01  0.51100000000E-03 0. -1.
        -11    1    3    3    0    0  0.40084006607E+00  0.68391590904E+01  0.23260560674E+01  0.72350056609E+01  0.51100000000E-03 0.  1.
         12    1    3    3    0    0  0.26492443481E+01  0.21799768906E+02  0.21647599061E+02  0.30836130838E+02  0.00000000000E+00 0. -1.
</event>
<event>
 7    1  0.4430431E-010  0.4778729E+02  0.7816164E-02  0.1312668E+00
        -11   -1    0    0    0    0  0.00000000000E+00  0.00000000000E+00  0.45593999997E+02  0.45594000000E+02  0.51100000000E-03 0.  1.
         11   -1    0    0    0    0 -0.00000000000E+00 -0.00000000000E+00 -0.45593999997E+02  0.45594000000E+02  0.51100000000E-03 0. -1.
    9900012    2    1    2    0    0  0.49580532750E+01  0.38286308077E+02 -0.19829219805E+02  0.47787289907E+02  0.20000086004E+02 0.  0.
        -12    1    1    2    0    0 -0.49580532750E+01 -0.38286308077E+02  0.19829219805E+02  0.43400710093E+02  0.00000000000E+00 0.  1.
         11    1    3    3    0    0 -0.45346975194E+01  0.87991209716E+01 -0.22604305866E+01  0.10153696773E+02  0.51100000000E-03 0. -1.
        -11    1    3    3    0    0 -0.36563569601E+00  0.14111936774E+02 -0.12031703445E+02  0.18548378285E+02  0.51100000000E-03 0.  1.
         12    1    3    3    0    0  0.98583864904E+01  0.15375250332E+02 -0.55370857737E+01  0.19085214849E+02  0.00000000000E+00 0. -1.
</event>
<event>
 7    1  0.4430431E-010  0.4778727E+02  0.7816164E-02  0.1312668E+00
        -11   -1    0    0    0    0  0.00000000000E+00  0.00000000000E+00  0.45593999997E+02  0.45594000000E+02  0.51100000000E-03 0.  1.
         11   -1    0    0    0    0 -0.00000000000E+00 -0.00000000000E+00 -0.45593999997E+02  0.45594000000E+02  0.51100000000E-03 0. -1.
    9900012    2    1    2    0    0  0.31003512900E+02  0.15514120200E+02 -0.26109723905E+02  0.47787269360E+02  0.19999992319E+02 0.  0.
        -12    1    1    2    0    0 -0.31003512900E+02 -0.15514120200E+02  0.26109723905E+02  0.43400730640E+02  0.00000000000E+00 0.  1.
         11    1    3    3    0    0  0.21303019397E+01 -0.45982261432E+00 -0.16280446793E+01  0.27203222107E+01  0.51100000000E-03 0. -1.
        -11    1    3    3    0    0  0.45707772292E+01 -0.32871266212E+01 -0.11827218629E+00  0.56312693484E+01  0.51100000000E-03 0.  1.
         12    1    3    3    0    0  0.24302433731E+02  0.19261069435E+02 -0.24363407039E+02  0.39435677801E+02  0.00000000000E+00 0. -1.
</event>
<event>
 7    1  0.4430431E-010  0.4778727E+02  0.7816164E-02  0.1312668E+00
        -11   -1    0    0    0    0  0.00000000000E+00  0.00000000000E+00  0.45593999997E+02  0.45594000000E+02  0.51100000000E-03 0. -1.
         11   -1    0    0    0    0 -0.00000000000E+00 -0.00000000000E+00 -0.45593999997E+02  0.45594000000E+02  0.51100000000E-03 0.  1.
    9900012    2    1    2    0    0 -0.17651910750E+02  0.37871147590E+02  0.11739226625E+02  0.47787271726E+02  0.20000003109E+02 0.  0.
        -12    1    1    2    0    0  0.17651910750E+02 -0.37871147590E+02 -0.11739226625E+02  0.43400728274E+02  0.00000000000E+00 0.  1.
         11    1    3    3    0    0 -0.14707979827E+02  0.34154023533E+02  0.14415426600E+02  0.39882659370E+02  0.51100000000E-03 0. -1.
        -11    1    3    3    0    0  0.66241359345E+00  0.35790701161E+01 -0.45829972102E+00  0.36685928583E+01  0.51100000000E-03 0.  1.
        -12    1    3    3    0    0 -0.36063445156E+01  0.13805394164E+00 -0.22179002536E+01  0.42360194984E+01  0.00000000000E+00 0.  1.
</event>
<event>
 7    1  0.4430431E-010  0.4778727E+02  0.7816164E-02  0.1312668E+00
        -11   -1    0    0    0    0  0.00000000000E+00  0.00000000000E+00  0.45593999997E+02  0.45594000000E+02  0.51100000000E-03 0.  1.
         11   -1    0    0    0    0 -0.00000000000E+00 -0.00000000000E+00 -0.45593999997E+02  0.45594000000E+02  0.51100000000E-03 0. -1.
    9900012    2    1    2    0    0 -0.68832384777E+00 -0.34609040118E+02 -0.26179450356E+02  0.47787273410E+02  0.20000010784E+02 0.  0.
        -12    1    1    2    0    0  0.68832384777E+00  0.34609040118E+02  0.26179450356E+02  0.43400726590E+02  0.00000000000E+00 0.  1.
         11    1    3    3    0    0  0.30720978164E+01 -0.23161259263E+02 -0.19519734273E+02  0.30445061044E+02  0.51100000000E-03 0. -1.
        -11    1    3    3    0    0  0.24806279485E+01 -0.79967947685E+01 -0.14190881978E+01  0.84921171190E+01  0.51100000000E-03 0.  1.
         12    1    3    3    0    0 -0.62410496126E+01 -0.34509860870E+01 -0.52406278848E+01  0.88500952462E+01  0.00000000000E+00 0. -1.
</event>
<event>
 7    1  0.4430431E-010  0.4778727E+02  0.7816164E-02  0.1312668E+00
        -11   -1    0    0    0    0  0.00000000000E+00  0.00000000000E+00  0.45593999997E+02  0.45594000000E+02  0.51100000000E-03 0.  1.
         11   -1    0    0    0    0 -0.00000000000E+00 -0.00000000000E+00 -0.45593999997E+02  0.45594000000E+02  0.51100000000E-03 0. -1.
    9900012    2    1    2    0    0  0.24655607899E+02  0.35711057034E+02 -0.66703257458E+00  0.47787268119E+02  0.19999986661E+02 0.  0.
        -12    1    1    2    0    0 -0.24655607899E+02 -0.35711057034E+02  0.66703257458E+00  0.43400731881E+02  0.00000000000E+00 0.  1.
         11    1    3    3    0    0  0.10085531401E+02  0.92802413876E+01 -0.55719753693E+01  0.14794854971E+02  0.51100000000E-03 0. -1.
        -11    1    3    3    0    0  0.51361197955E+01  0.61778385182E+01 -0.39582936193E+01  0.89561991910E+01  0.51100000000E-03 0.  1.
         12    1    3    3    0    0  0.94339567029E+01  0.20252977128E+02  0.88632364140E+01  0.24036213956E+02  0.00000000000E+00 0. -1.
</event>
<event>
 7    1  0.4430431E-010  0.4778730E+02  0.7816164E-02  0.1312668E+00
        -11   -1    0    0    0    0  0.00000000000E+00  0.00000000000E+00  0.45593999997E+02  0.45594000000E+02  0.51100000000E-03 0. -1.
         11   -1    0    0    0    0 -0.00000000000E+00 -0.00000000000E+00 -0.45593999997E+02  0.45594000000E+02  0.51100000000E-03 0.  1.
    9900012    2    1    2    0    0 -0.17294149302E+02  0.39339365132E+02 -0.60784109449E+01  0.47787304974E+02  0.20000154700E+02 0.  0.
        -12    1    1    2    0    0  0.17294149302E+02 -0.39339365132E+02  0.60784109449E+01  0.43400695026E+02  0.00000000000E+00 0.  1.
         11    1    3    3    0    0 -0.83538697537E+01  0.20947448938E+02 -0.65667340727E+00  0.22561338106E+02  0.51100000000E-03 0. -1.
        -11    1    3    3    0    0 -0.11658321254E+02  0.91120789556E+01 -0.47174983011E+01  0.15530654456E+02  0.51100000000E-03 0.  1.
         12    1    3    3    0    0  0.27180417054E+01  0.92798372382E+01 -0.70423923646E+00  0.96953124129E+01  0.00000000000E+00 0. -1.
</event>
<event>
 7    1  0.4430431E-010  0.4778727E+02  0.7816164E-02  0.1312668E+00
        -11   -1    0    0    0    0  0.00000000000E+00  0.00000000000E+00  0.45593999997E+02  0.45594000000E+02  0.51100000000E-03 0.  1.
         11   -1    0    0    0    0 -0.00000000000E+00 -0.00000000000E+00 -0.45593999997E+02  0.45594000000E+02  0.51100000000E-03 0. -1.
    9900012    2    1    2    0    0  0.36035461699E+01 -0.11079075076E+02 -0.41807797115E+02  0.47787270177E+02  0.19999996045E+02 0.  0.
        -12    1    1    2    0    0 -0.36035461699E+01  0.11079075076E+02  0.41807797115E+02  0.43400729823E+02  0.00000000000E+00 0.  1.
         11    1    3    3    0    0  0.29656481891E+01 -0.17927893351E+01 -0.14979052291E+01  0.37752990766E+01  0.51100000000E-03 0. -1.
        -11    1    3    3    0    0 -0.63880566993E+01 -0.68957044939E+01 -0.15614828361E+02  0.18225829854E+02  0.51100000000E-03 0.  1.
         12    1    3    3    0    0  0.70259546801E+01 -0.23905812471E+01 -0.24695063525E+02  0.25786141247E+02  0.00000000000E+00 0. -1.
</event>
<event>
 7    1  0.6122780E-010  0.4778727E+02  0.7816164E-02  0.1312668E+00
        -11   -1    0    0    0    0  0.00000000000E+00  0.00000000000E+00  0.45593999997E+02  0.45594000000E+02  0.51100000000E-03 0. -1.
         11   -1    0    0    0    0 -0.00000000000E+00 -0.00000000000E+00 -0.45593999997E+02  0.45594000000E+02  0.51100000000E-03 0.  1.
    9900012    2    1    2    0    0  0.33588668811E+01  0.10326776767E+02  0.42020221882E+02  0.47787270143E+02  0.19999995890E+02 0.  0.
        -12    1    1    2    0    0 -0.33588668811E+01 -0.10326776767E+02 -0.42020221882E+02  0.43400729857E+02  0.00000000000E+00 0.  1.
         11    1    3    3    0    0  0.58814806542E+01  0.17220384838E+01  0.23618136490E+02  0.24400278743E+02  0.51100000000E-03 0. -1.
        -11    1    3    3    0    0 -0.18082244058E+01  0.56233906463E+01  0.19307064287E+02  0.20190466302E+02  0.51100000000E-03 0.  1.
        -12    1    3    3    0    0 -0.71438936740E+00  0.29813476371E+01 -0.90497889464E+00  0.31965250979E+01  0.00000000000E+00 0.  1.
</event>
<event>
 7    1  0.4430431E-010  0.4778728E+02  0.7816164E-02  0.1312668E+00
        -11   -1    0    0    0    0  0.00000000000E+00  0.00000000000E+00  0.45593999997E+02  0.45594000000E+02  0.51100000000E-03 0.  1.
         11   -1    0    0    0    0 -0.00000000000E+00 -0.00000000000E+00 -0.45593999997E+02  0.45594000000E+02  0.51100000000E-03 0. -1.
    9900012    2    1    2    0    0 -0.92125003809E+01  0.38037850110E+02 -0.18758317136E+02  0.47787278048E+02  0.20000031930E+02 0.  0.
        -12    1    1    2    0    0  0.92125003809E+01 -0.38037850110E+02  0.18758317136E+02  0.43400721952E+02  0.00000000000E+00 0.  1.
         11    1    3    3    0    0  0.25544523308E+01  0.11273399168E+02 -0.32279113053E+01  0.12001423547E+02  0.51100000000E-03 0. -1.
        -11    1    3    3    0    0 -0.28536575513E+01  0.11714907286E+02 -0.13620820534E+02  0.18190908895E+02  0.51100000000E-03 0.  1.
        -12    1    3    3    0    0 -0.89132951604E+01  0.15049543656E+02 -0.19095852966E+01  0.17594945606E+02  0.00000000000E+00 0.  1.
</event>
<event>
 7    1  0.4430431E-010  0.4778727E+02  0.7816164E-02  0.1312668E+00
        -11   -1    0    0    0    0  0.00000000000E+00  0.00000000000E+00  0.45593999997E+02  0.45594000000E+02  0.51100000000E-03 0. -1.
         11   -1    0    0    0    0 -0.00000000000E+00 -0.00000000000E+00 -0.45593999997E+02  0.45594000000E+02  0.51100000000E-03 0.  1.
    9900012    2    1    2    0    0 -0.53405487219E+01 -0.38345387330E+02  0.19614617077E+02  0.47787269670E+02  0.19999993732E+02 0.  0.
        -12    1    1    2    0    0  0.53405487219E+01  0.38345387330E+02 -0.19614617077E+02  0.43400730330E+02  0.00000000000E+00 0.  1.
         11    1    3    3    0    0  0.30808912234E+01 -0.11741536451E+02  0.13539866147E+02  0.18184706335E+02  0.51100000000E-03 0. -1.
        -11    1    3    3    0    0 -0.42727001469E+01 -0.70332829518E+01  0.48664780877E+01  0.95606299408E+01  0.51100000000E-03 0.  1.
         12    1    3    3    0    0 -0.41487397984E+01 -0.19570567927E+02  0.12082728426E+01  0.20041933394E+02  0.00000000000E+00 0. -1.
</event>
<event>
 7    1  0.4430431E-010  0.4778727E+02  0.7816164E-02  0.1312668E+00
        -11   -1    0    0    0    0  0.00000000000E+00  0.00000000000E+00  0.45593999997E+02  0.45594000000E+02  0.51100000000E-03 0. -1.
         11   -1    0    0    0    0 -0.00000000000E+00 -0.00000000000E+00 -0.45593999997E+02  0.45594000000E+02  0.51100000000E-03 0.  1.
    9900012    2    1    2    0    0 -0.37300079179E+02 -0.17421588388E+02  0.13741012562E+02  0.47787273336E+02  0.20000010449E+02 0.  0.
        -12    1    1    2    0    0  0.37300079179E+02  0.17421588388E+02 -0.13741012562E+02  0.43400726664E+02  0.00000000000E+00 0.  1.
         11    1    3    3    0    0 -0.20501450079E+02 -0.76029928588E+01  0.18793067916E+01  0.21946451878E+02  0.51100000000E-03 0. -1.
        -11    1    3    3    0    0 -0.72333164448E+01  0.12428712983E+01  0.56319207625E+00  0.73608954231E+01  0.51100000000E-03 0.  1.
         12    1    3    3    0    0 -0.95653126553E+01 -0.11061466827E+02  0.11298513694E+02  0.18479926035E+02  0.00000000000E+00 0. -1.
</event>
<event>
 7    1  0.4430431E-010  0.4778727E+02  0.7816164E-02  0.1312668E+00
        -11   -1    0    0    0    0  0.00000000000E+00  0.00000000000E+00  0.45593999997E+02  0.45594000000E+02  0.51100000000E-03 0.  1.
         11   -1    0    0    0    0 -0.00000000000E+00 -0.00000000000E+00 -0.45593999997E+02  0.45594000000E+02  0.51100000000E-03 0. -1.
    9900012    2    1    2    0    0 -0.38530622789E+02  0.51208920871E+01 -0.19307796967E+02  0.47787268993E+02  0.19999990645E+02 0.  0.
        -12    1    1    2    0    0  0.38530622789E+02 -0.51208920871E+01  0.19307796967E+02  0.43400731007E+02  0.00000000000E+00 0.  1.
         11    1    3    3    0    0 -0.13700200640E+02  0.71476107809E+01 -0.52520835060E+01  0.16320791000E+02  0.51100000000E-03 0. -1.
        -11    1    3    3    0    0 -0.12924192531E+02 -0.23467290989E+00  0.42690857800E-01  0.12926393415E+02  0.51100000000E-03 0.  1.
        -12    1    3    3    0    0 -0.11906229618E+02 -0.17920457839E+01 -0.14098404318E+02  0.18540084577E+02  0.00000000000E+00 0.  1.
</event>
<event>
 7    1  0.4430431E-010  0.4778727E+02  0.7816164E-02  0.1312668E+00
        -11   -1    0    0    0    0  0.00000000000E+00  0.00000000000E+00  0.45593999997E+02  0.45594000000E+02  0.51100000000E-03 0.  1.
         11   -1    0    0    0    0 -0.00000000000E+00 -0.00000000000E+00 -0.45593999997E+02  0.45594000000E+02  0.51100000000E-03 0. -1.
    9900012    2    1    2    0    0 -0.25158990855E+02  0.29434631828E+02 -0.19602323377E+02  0.47787268975E+02  0.19999990565E+02 0.  0.
        -12    1    1    2    0    0  0.25158990855E+02 -0.29434631828E+02  0.19602323377E+02  0.43400731025E+02  0.00000000000E+00 0.  1.
         11    1    3    3    0    0 -0.66560777388E+01  0.35618682122E+01 -0.62955674705E+01  0.98297734492E+01  0.51100000000E-03 0. -1.
        -11    1    3    3    0    0 -0.38381877747E+01 -0.17581272367E+01 -0.22183866251E+01  0.47690603114E+01  0.51100000000E-03 0.  1.
        -12    1    3    3    0    0 -0.14664725342E+02  0.27630890853E+02 -0.11088369281E+02  0.33188435215E+02  0.00000000000E+00 0.  1.
</event>
<event>
 7    1  0.4430431E-010  0.4778730E+02  0.7816164E-02  0.1312668E+00
        -11   -1    0    0    0    0  0.00000000000E+00  0.00000000000E+00  0.45593999997E+02  0.45594000000E+02  0.51100000000E-03 0.  1.
         11   -1    0    0    0    0 -0.00000000000E+00 -0.00000000000E+00 -0.45593999997E+02  0.45594000000E+02  0.51100000000E-03 0. -1.
    9900012    2    1    2    0    0 -0.32407717766E+02  0.18868116228E+01 -0.28806265381E+02  0.47787295465E+02  0.20000111344E+02 0.  0.
        -12    1    1    2    0    0  0.32407717766E+02 -0.18868116228E+01  0.28806265381E+02  0.43400704535E+02  0.00000000000E+00 0.  1.
         11    1    3    3    0    0 -0.20467873679E+02 -0.50148946971E+01 -0.16807493666E+02  0.26955052687E+02  0.51100000000E-03 0. -1.
        -11    1    3    3    0    0 -0.84213829676E+01  0.39182188855E+00 -0.25041322451E+01  0.87945377389E+01  0.51100000000E-03 0.  1.
        -12    1    3    3    0    0 -0.35184611200E+01  0.65098844313E+01 -0.94946394698E+01  0.12037705040E+02  0.00000000000E+00 0.  1.
</event>
<event>
 7    1  0.4430431E-010  0.4778727E+02  0.7816164E-02  0.1312668E+00
        -11   -1    0    0    0    0  0.00000000000E+00  0.00000000000E+00  0.45593999997E+02  0.45594000000E+02  0.51100000000E-03 0.  1.
         11   -1    0    0    0    0 -0.00000000000E+00 -0.00000000000E+00 -0.45593999997E+02  0.45594000000E+02  0.51100000000E-03 0. -1.
    9900012    2    1    2    0    0 -0.14550618579E+02  0.18861578912E+02 -0.36278696320E+02  0.47787268822E+02  0.19999989867E+02 0.  0.
        -12    1    1    2    0    0  0.14550618579E+02 -0.18861578912E+02  0.36278696320E+02  0.43400731178E+02  0.00000000000E+00 0.  1.
         11    1    3    3    0    0 -0.12140398291E+02  0.18315027019E+02 -0.29623048929E+02  0.36882984064E+02  0.51100000000E-03 0. -1.
        -11    1    3    3    0    0 -0.29456940565E+01  0.23264720140E+01 -0.78455917108E+01  0.86972923982E+01  0.51100000000E-03 0.  1.
        -12    1    3    3    0    0  0.53547376858E+00 -0.17799201203E+01  0.11899443198E+01  0.22069923597E+01  0.00000000000E+00 0.  1.
</event>
<event>
 7    1  0.4430431E-010  0.4778727E+02  0.7816164E-02  0.1312668E+00
        -11   -1    0    0    0    0  0.00000000000E+00  0.00000000000E+00  0.45593999997E+02  0.45594000000E+02  0.51100000000E-03 0.  1.
         11   -1    0    0    0    0 -0.00000000000E+00 -0.00000000000E+00 -0.45593999997E+02  0.45594000000E+02  0.51100000000E-03 0. -1.
    9900012    2    1    2    0    0  0.41045972616E+02 -0.91820738404E+01 -0.10702364969E+02  0.47787274615E+02  0.20000016282E+02 0.  0.
        -12    1    1    2    0    0 -0.41045972616E+02  0.91820738404E+01  0.10702364969E+02  0.43400725385E+02  0.00000000000E+00 0.  1.
         11    1    3    3    0    0  0.13566946914E+02 -0.38389813907E+01 -0.13118193937E+02  0.19258422550E+02  0.51100000000E-03 0. -1.
        -11    1    3    3    0    0  0.10342421755E+02 -0.36052421708E+01 -0.89408692303E+00  0.10989215193E+02  0.51100000000E-03 0.  1.
         12    1    3    3    0    0  0.17136603947E+02 -0.17378502789E+01  0.33099158907E+01  0.17539636873E+02  0.00000000000E+00 0. -1.
</event>
<event>
 7    1  0.4430431E-010  0.4778726E+02  0.7816164E-02  0.1312668E+00
        -11   -1    0    0    0    0  0.00000000000E+00  0.00000000000E+00  0.45593999997E+02  0.45594000000E+02  0.51100000000E-03 0. -1.
         11   -1    0    0    0    0 -0.00000000000E+00 -0.00000000000E+00 -0.45593999997E+02  0.45594000000E+02  0.51100000000E-03 0.  1.
    9900012    2    1    2    0    0  0.81617548741E+01  0.10470269567E+02  0.41320493134E+02  0.47787263367E+02  0.19999964996E+02 0.  0.
        -12    1    1    2    0    0 -0.81617548741E+01 -0.10470269567E+02 -0.41320493134E+02  0.43400736633E+02  0.00000000000E+00 0.  1.
         11    1    3    3    0    0  0.26342295415E+01  0.47147852662E+01  0.58239635880E+01  0.79427273351E+01  0.51100000000E-03 0. -1.
        -11    1    3    3    0    0  0.10167224180E+02  0.13341750578E+01  0.13620743018E+02  0.17049255446E+02  0.51100000000E-03 0.  1.
         12    1    3    3    0    0 -0.46396988475E+01  0.44213092435E+01  0.21875786527E+02  0.22795280587E+02  0.00000000000E+00 0. -1.
</event>
<event>
 7    1  0.4430431E-010  0.4778727E+02  0.7816164E-02  0.1312668E+00
        -11   -1    0    0    0    0  0.00000000000E+00  0.00000000000E+00  0.45593999997E+02  0.45594000000E+02  0.51100000000E-03 0.  1.
         11   -1    0    0    0    0 -0.00000000000E+00 -0.00000000000E+00 -0.45593999997E+02  0.45594000000E+02  0.51100000000E-03 0. -1.
    9900012    2    1    2    0    0 -0.75829324329E+00  0.13949125989E+02 -0.41090999170E+02  0.47787270314E+02  0.19999996671E+02 0.  0.
        -12    1    1    2    0    0  0.75829324329E+00 -0.13949125989E+02  0.41090999170E+02  0.43400729686E+02  0.00000000000E+00 0.  1.
         11    1    3    3    0    0  0.34786430832E+01  0.48929084578E+01 -0.28326864754E+02  0.28956049073E+02  0.51100000000E-03 0. -1.
        -11    1    3    3    0    0 -0.12643599489E+01  0.59580782884E+01 -0.13178285532E+02  0.14517730979E+02  0.51100000000E-03 0.  1.
        -12    1    3    3    0    0 -0.29725763776E+01  0.30981392429E+01  0.41415111627E+00  0.43134902615E+01  0.00000000000E+00 0.  1.
</event>
<event>
 7    1  0.4430431E-010  0.4778727E+02  0.7816164E-02  0.1312668E+00
        -11   -1    0    0    0    0  0.00000000000E+00  0.00000000000E+00  0.45593999997E+02  0.45594000000E+02  0.51100000000E-03 0. -1.
         11   -1    0    0    0    0 -0.00000000000E+00 -0.00000000000E+00 -0.45593999997E+02  0.45594000000E+02  0.51100000000E-03 0.  1.
    9900012    2    1    2    0    0  0.40150778822E+02  0.16449336946E+02  0.97854449246E+00  0.47787271028E+02  0.19999999925E+02 0.  0.
        -12    1    1    2    0    0 -0.40150778822E+02 -0.16449336946E+02 -0.97854449246E+00  0.43400728972E+02  0.00000000000E+00 0.  1.
         11    1    3    3    0    0  0.20154842420E+01 -0.25643037396E+01 -0.48025742858E+00  0.32967374566E+01  0.51100000000E-03 0. -1.
        -11    1    3    3    0    0  0.55502979944E+01  0.45493865082E+01 -0.43166168267E+01  0.83747182947E+01  0.51100000000E-03 0.  1.
         12    1    3    3    0    0  0.32584996586E+02  0.14464254178E+02  0.57754187477E+01  0.36115815277E+02  0.00000000000E+00 0. -1.
</event>
<event>
 7    1  0.4430431E-010  0.4778727E+02  0.7816164E-02  0.1312668E+00
        -11   -1    0    0    0    0  0.00000000000E+00  0.00000000000E+00  0.45593999997E+02  0.45594000000E+02  0.51100000000E-03 0.  1.
         11   -1    0    0    0    0 -0.00000000000E+00 -0.00000000000E+00 -0.45593999997E+02  0.45594000000E+02  0.51100000000E-03 0. -1.
    9900012    2    1    2    0    0  0.25551083475E+02  0.32066630967E+02  0.14230135681E+02  0.47787269017E+02  0.19999990758E+02 0.  0.
        -12    1    1    2    0    0 -0.25551083475E+02 -0.32066630967E+02 -0.14230135681E+02  0.43400730983E+02  0.00000000000E+00 0.  1.
         11    1    3    3    0    0  0.46296971722E+01 -0.10552258988E+01  0.11117461576E+01  0.48768409226E+01  0.51100000000E-03 0. -1.
        -11    1    3    3    0    0  0.79660952302E+01  0.38591147005E+01  0.30201026189E+01  0.93526712537E+01  0.51100000000E-03 0.  1.
         12    1    3    3    0    0  0.12955291073E+02  0.29262742165E+02  0.10098286904E+02  0.33557756841E+02  0.00000000000E+00 0. -1.
</event>
<event>
 7    1  0.4430431E-010  0.4778727E+02  0.7816164E-02  0.1312668E+00
        -11   -1    0    0    0    0  0.00000000000E+00  0.00000000000E+00  0.45593999997E+02  0.45594000000E+02  0.51100000000E-03 0.  1.
         11   -1    0    0    0    0 -0.00000000000E+00 -0.00000000000E+00 -0.45593999997E+02  0.45594000000E+02  0.51100000000E-03 0. -1.
    9900012    2    1    2    0    0  0.18848851509E+02  0.37681972852E+02 -0.10412151670E+02  0.47787272084E+02  0.20000004739E+02 0.  0.
        -12    1    1    2    0    0 -0.18848851509E+02 -0.37681972852E+02  0.10412151670E+02  0.43400727916E+02  0.00000000000E+00 0.  1.
         11    1    3    3    0    0  0.38494233800E+01  0.46936820926E+00 -0.87554381689E+00  0.39755432472E+01  0.51100000000E-03 0. -1.
        -11    1    3    3    0    0  0.25689756816E+00  0.67822467594E+01  0.34210372873E+01  0.76005502333E+01  0.51100000000E-03 0.  1.
         12    1    3    3    0    0  0.14742530561E+02  0.30430357884E+02 -0.12957645140E+02  0.36211178603E+02  0.00000000000E+00 0. -1.
</event>
<event>
 7    1  0.4430431E-010  0.4778727E+02  0.7816164E-02  0.1312668E+00
        -11   -1    0    0    0    0  0.00000000000E+00  0.00000000000E+00  0.45593999997E+02  0.45594000000E+02  0.51100000000E-03 0.  1.
         11   -1    0    0    0    0 -0.00000000000E+00 -0.00000000000E+00 -0.45593999997E+02  0.45594000000E+02  0.51100000000E-03 0. -1.
    9900012    2    1    2    0    0 -0.30104448173E+02  0.43561783433E+01 -0.30957539779E+02  0.47787270067E+02  0.19999995542E+02 0.  0.
        -12    1    1    2    0    0  0.30104448173E+02 -0.43561783433E+01  0.30957539779E+02  0.43400729933E+02  0.00000000000E+00 0.  1.
         11    1    3    3    0    0 -0.29718039945E+01 -0.50845095988E+01 -0.19517666497E+01  0.62042928814E+01  0.51100000000E-03 0. -1.
        -11    1    3    3    0    0 -0.60894965049E+01  0.53236522686E+00 -0.10620402792E+02  0.12253911055E+02  0.51100000000E-03 0.  1.
        -12    1    3    3    0    0 -0.21043147673E+02  0.89083227153E+01 -0.18385370338E+02  0.29329066130E+02  0.00000000000E+00 0.  1.
</event>
<event>
 7    1  0.4430431E-010  0.4778727E+02  0.7816164E-02  0.1312668E+00
        -11   -1    0    0    0    0  0.00000000000E+00  0.00000000000E+00  0.45593999997E+02  0.45594000000E+02  0.51100000000E-03 0.  1.
         11   -1    0    0    0    0 -0.00000000000E+00 -0.00000000000E+00 -0.45593999997E+02  0.45594000000E+02  0.51100000000E-03 0. -1.
    9900012    2    1    2    0    0  0.34733691278E+02 -0.47741526623E+01 -0.25581273503E+02  0.47787269620E+02  0.19999993508E+02 0.  0.
        -12    1    1    2    0    0 -0.34733691278E+02  0.47741526623E+01  0.25581273503E+02  0.43400730380E+02  0.00000000000E+00 0.  1.
         11    1    3    3    0    0  0.54480633696E+00  0.15098205099E+01 -0.49525035151E+01  0.52061178670E+01  0.51100000000E-03 0. -1.
        -11    1    3    3    0    0  0.55707597305E+01  0.31267444360E+01 -0.71185853939E+01  0.95647348638E+01  0.51100000000E-03 0.  1.
         12    1    3    3    0    0  0.28618125211E+02 -0.94107176081E+01 -0.13510184594E+02  0.33016416890E+02  0.00000000000E+00 0. -1.
</event>
<event>
 7    1  0.4430431E-010  0.4778723E+02  0.7816164E-02  0.1312668E+00
        -11   -1    0    0    0    0  0.00000000000E+00  0.00000000000E+00  0.45593999997E+02  0.45594000000E+02  0.51100000000E-03 0.  1.
         11   -1    0    0    0    0 -0.00000000000E+00 -0.00000000000E+00 -0.45593999997E+02  0.45594000000E+02  0.51100000000E-03 0. -1.
    9900012    2    1    2    0    0  0.39267454937E+02 -0.18104110941E+02 -0.37329560753E+01  0.47787230292E+02  0.19999814191E+02 0.  0.
        -12    1    1    2    0    0 -0.39267454937E+02  0.18104110941E+02  0.37329560753E+01  0.43400769708E+02  0.00000000000E+00 0.  1.
         11    1    3    3    0    0  0.45382151746E+01  0.13329472361E+01  0.32620621066E+01  0.57457109877E+01  0.51100000000E-03 0. -1.
        -11    1    3    3    0    0  0.60498211557E+01 -0.79693156356E+01  0.12224133958E+01  0.10079911829E+02  0.51100000000E-03 0.  1.
         12    1    3    3    0    0  0.28679418607E+02 -0.11467742541E+02 -0.82174315777E+01  0.31961607475E+02  0.00000000000E+00 0. -1.
</event>
<event>
 7    1  0.4430431E-010  0.4778727E+02  0.7816164E-02  0.1312668E+00
        -11   -1    0    0    0    0  0.00000000000E+00  0.00000000000E+00  0.45593999997E+02  0.45594000000E+02  0.51100000000E-03 0.  1.
         11   -1    0    0    0    0 -0.00000000000E+00 -0.00000000000E+00 -0.45593999997E+02  0.45594000000E+02  0.51100000000E-03 0. -1.
    9900012    2    1    2    0    0  0.28436683688E+02 -0.25316628894E+02 -0.20833788836E+02  0.47787269188E+02  0.19999991536E+02 0.  0.
        -12    1    1    2    0    0 -0.28436683688E+02  0.25316628894E+02  0.20833788836E+02  0.43400730812E+02  0.00000000000E+00 0.  1.
         11    1    3    3    0    0  0.69854536262E+01  0.13468857290E+01  0.57582102336E+00  0.71373828287E+01  0.51100000000E-03 0. -1.
        -11    1    3    3    0    0  0.44888295232E+01 -0.48815421247E+01 -0.64442920756E+01  0.92470505903E+01  0.51100000000E-03 0.  1.
         12    1    3    3    0    0  0.16962400539E+02 -0.21781972499E+02 -0.14965317784E+02  0.31402835769E+02  0.00000000000E+00 0. -1.
</event>
<event>
 7    1  0.4430431E-010  0.4778732E+02  0.7816164E-02  0.1312668E+00
        -11   -1    0    0    0    0  0.00000000000E+00  0.00000000000E+00  0.45593999997E+02  0.45594000000E+02  0.51100000000E-03 0.  1.
         11   -1    0    0    0    0 -0.00000000000E+00 -0.00000000000E+00 -0.45593999997E+02  0.45594000000E+02  0.51100000000E-03 0. -1.
    9900012    2    1    2    0    0  0.42710589600E+02  0.61934957045E+01 -0.45896601880E+01  0.47787322198E+02  0.20000233227E+02 0.  0.
        -12    1    1    2    0    0 -0.42710589600E+02 -0.61934957045E+01  0.45896601880E+01  0.43400677802E+02  0.00000000000E+00 0.  1.
         11    1    3    3    0    0  0.31877163669E+02  0.61400062036E+01  0.85886602734E+00  0.32474465213E+02  0.51100000000E-03 0. -1.
        -11    1    3    3    0    0  0.23232654245E+01  0.18003885040E+01  0.22527334219E+01  0.37032106515E+01  0.51100000000E-03 0.  1.
        -12    1    3    3    0    0  0.85101605069E+01 -0.17468990031E+01 -0.77012596372E+01  0.11609646333E+02  0.00000000000E+00 0.  1.
</event>
<event>
 7    1  0.4430431E-010  0.4778727E+02  0.7816164E-02  0.1312668E+00
        -11   -1    0    0    0    0  0.00000000000E+00  0.00000000000E+00  0.45593999997E+02  0.45594000000E+02  0.51100000000E-03 0.  1.
         11   -1    0    0    0    0 -0.00000000000E+00 -0.00000000000E+00 -0.45593999997E+02  0.45594000000E+02  0.51100000000E-03 0. -1.
    9900012    2    1    2    0    0 -0.72371853168E+01 -0.33979790260E+02 -0.26011926055E+02  0.47787270806E+02  0.19999998915E+02 0.  0.
        -12    1    1    2    0    0  0.72371853168E+01  0.33979790260E+02  0.26011926055E+02  0.43400729194E+02  0.00000000000E+00 0.  1.
         11    1    3    3    0    0 -0.38737810938E+01 -0.72467727115E+01 -0.98283469928E+01  0.12810866464E+02  0.51100000000E-03 0. -1.
        -11    1    3    3    0    0  0.52865095645E+01 -0.15257864088E+02 -0.11637670422E+02  0.19904395822E+02  0.51100000000E-03 0.  1.
        -12    1    3    3    0    0 -0.86499137875E+01 -0.11475153461E+02 -0.45459086404E+01  0.15072008521E+02  0.00000000000E+00 0.  1.
</event>
<event>
 7    1  0.4430431E-010  0.4778727E+02  0.7816164E-02  0.1312668E+00
        -11   -1    0    0    0    0  0.00000000000E+00  0.00000000000E+00  0.45593999997E+02  0.45594000000E+02  0.51100000000E-03 0. -1.
         11   -1    0    0    0    0 -0.00000000000E+00 -0.00000000000E+00 -0.45593999997E+02  0.45594000000E+02  0.51100000000E-03 0.  1.
    9900012    2    1    2    0    0  0.41487712730E+02 -0.12107384907E+02  0.39754363734E+01  0.47787272227E+02  0.20000005391E+02 0.  0.
        -12    1    1    2    0    0 -0.41487712730E+02  0.12107384907E+02 -0.39754363734E+01  0.43400727773E+02  0.00000000000E+00 0.  1.
         11    1    3    3    0    0  0.21680371183E+02 -0.61558748675E+01 -0.59860934216E+00  0.22545323759E+02  0.51100000000E-03 0. -1.
        -11    1    3    3    0    0  0.84305871293E+01 -0.96487830252E+01  0.15765541241E+01  0.12909660583E+02  0.51100000000E-03 0.  1.
         12    1    3    3    0    0  0.11376754418E+02  0.36972729854E+01  0.29974915915E+01  0.12332287884E+02  0.00000000000E+00 0. -1.
</event>
<event>
 7    1  0.4430431E-010  0.4778729E+02  0.7816164E-02  0.1312668E+00
        -11   -1    0    0    0    0  0.00000000000E+00  0.00000000000E+00  0.45593999997E+02  0.45594000000E+02  0.51100000000E-03 0. -1.
         11   -1    0    0    0    0 -0.00000000000E+00 -0.00000000000E+00 -0.45593999997E+02  0.45594000000E+02  0.51100000000E-03 0.  1.
    9900012    2    1    2    0    0  0.30433352526E+02 -0.30089371474E+02  0.72154137629E+01  0.47787292431E+02  0.20000097511E+02 0.  0.
        -12    1    1    2    0    0 -0.30433352526E+02  0.30089371474E+02 -0.72154137629E+01  0.43400707569E+02  0.00000000000E+00 0.  1.
         11    1    3    3    0    0  0.11579419345E+02 -0.14728979355E+02 -0.26093954890E+01  0.18916520036E+02  0.51100000000E-03 0. -1.
        -11    1    3    3    0    0 -0.25685683793E+00 -0.36308636564E+01 -0.12669810575E+01  0.38541390203E+01  0.51100000000E-03 0.  1.
         12    1    3    3    0    0  0.19110790020E+02 -0.11729528462E+02  0.11091790309E+02  0.25016633374E+02  0.00000000000E+00 0. -1.
</event>
<event>
 7    1  0.4430431E-010  0.4778727E+02  0.7816164E-02  0.1312668E+00
        -11   -1    0    0    0    0  0.00000000000E+00  0.00000000000E+00  0.45593999997E+02  0.45594000000E+02  0.51100000000E-03 0. -1.
         11   -1    0    0    0    0 -0.00000000000E+00 -0.00000000000E+00 -0.45593999997E+02  0.45594000000E+02  0.51100000000E-03 0.  1.
    9900012    2    1    2    0    0 -0.13287892648E+02  0.38509358393E+02 -0.14969467021E+02  0.47787265931E+02  0.19999976685E+02 0.  0.
        -12    1    1    2    0    0  0.13287892648E+02 -0.38509358393E+02  0.14969467021E+02  0.43400734069E+02  0.00000000000E+00 0.  1.
         11    1    3    3    0    0 -0.10591020922E+02  0.51400960954E+01 -0.27510957203E+01  0.12089617031E+02  0.51100000000E-03 0. -1.
        -11    1    3    3    0    0 -0.22790302209E+01  0.15564640036E+02 -0.58926164515E+01  0.16798063195E+02  0.51100000000E-03 0.  1.
         12    1    3    3    0    0 -0.41784150543E+00  0.17804622261E+02 -0.63257548494E+01  0.18899585705E+02  0.00000000000E+00 0. -1.
</event>
<event>
 7    1  0.4430431E-010  0.4778727E+02  0.7816164E-02  0.1312668E+00
        -11   -1    0    0    0    0  0.00000000000E+00  0.00000000000E+00  0.45593999997E+02  0.45594000000E+02  0.51100000000E-03 0.  1.
         11   -1    0    0    0    0 -0.00000000000E+00 -0.00000000000E+00 -0.45593999997E+02  0.45594000000E+02  0.51100000000E-03 0. -1.
    9900012    2    1    2    0    0  0.97561877133E+00  0.15028010112E+02 -0.40704179285E+02  0.47787272688E+02  0.20000007495E+02 0.  0.
        -12    1    1    2    0    0 -0.97561877133E+00 -0.15028010112E+02  0.40704179285E+02  0.43400727312E+02  0.00000000000E+00 0.  1.
         11    1    3    3    0    0  0.38843180636E+00  0.27227164147E+01 -0.41680260577E+01  0.49936465055E+01  0.51100000000E-03 0. -1.
        -11    1    3    3    0    0  0.73438873887E+01  0.33456607907E+00 -0.19892534327E+02  0.21207487797E+02  0.51100000000E-03 0.  1.
        -12    1    3    3    0    0 -0.67567004237E+01  0.11970727618E+02 -0.16643618901E+02  0.21586138386E+02  0.00000000000E+00 0.  1.
</event>
<event>
 7    1  0.4430431E-010  0.4778728E+02  0.7816164E-02  0.1312668E+00
        -11   -1    0    0    0    0  0.00000000000E+00  0.00000000000E+00  0.45593999997E+02  0.45594000000E+02  0.51100000000E-03 0.  1.
         11   -1    0    0    0    0 -0.00000000000E+00 -0.00000000000E+00 -0.45593999997E+02  0.45594000000E+02  0.51100000000E-03 0. -1.
    9900012    2    1    2    0    0  0.42010514968E+02 -0.96220011587E+01  0.51143514627E+01  0.47787275754E+02  0.20000021472E+02 0.  0.
        -12    1    1    2    0    0 -0.42010514968E+02  0.96220011587E+01 -0.51143514627E+01  0.43400724246E+02  0.00000000000E+00 0.  1.
         11    1    3    3    0    0  0.15151584096E+01  0.23320119319E+01  0.18643233405E+01  0.33480869815E+01  0.51100000000E-03 0. -1.
        -11    1    3    3    0    0  0.72008362352E+01 -0.47112260224E+01 -0.41779734178E+01  0.95657281616E+01  0.51100000000E-03 0.  1.
         12    1    3    3    0    0  0.33294520324E+02 -0.72427870682E+01  0.74280015400E+01  0.34873460611E+02  0.00000000000E+00 0. -1.
</event>
<event>
 7    1  0.4430431E-010  0.4778728E+02  0.7816164E-02  0.1312668E+00
        -11   -1    0    0    0    0  0.00000000000E+00  0.00000000000E+00  0.45593999997E+02  0.45594000000E+02  0.51100000000E-03 0.  1.
         11   -1    0    0    0    0 -0.00000000000E+00 -0.00000000000E+00 -0.45593999997E+02  0.45594000000E+02  0.51100000000E-03 0. -1.
    9900012    2    1    2    0    0 -0.90635826145E+01  0.37803068235E+02 -0.19297712127E+02  0.47787283518E+02  0.20000056874E+02 0.  0.
        -12    1    1    2    0    0  0.90635826145E+01 -0.37803068235E+02  0.19297712127E+02  0.43400716482E+02  0.00000000000E+00 0.  1.
         11    1    3    3    0    0 -0.10693243170E+01  0.42984701201E+01  0.56324400486E+00  0.44651476950E+01  0.51100000000E-03 0. -1.
        -11    1    3    3    0    0  0.51028849499E+01  0.50791276899E+01 -0.39549500173E+01  0.82145360674E+01  0.51100000000E-03 0.  1.
         12    1    3    3    0    0 -0.13097143247E+02  0.28425470425E+02 -0.15906006114E+02  0.35107599756E+02  0.00000000000E+00 0. -1.
</event>
<event>
 7    1  0.4430431E-010  0.4778727E+02  0.7816164E-02  0.1312668E+00
        -11   -1    0    0    0    0  0.00000000000E+00  0.00000000000E+00  0.45593999997E+02  0.45594000000E+02  0.51100000000E-03 0.  1.
         11   -1    0    0    0    0 -0.00000000000E+00 -0.00000000000E+00 -0.45593999997E+02  0.45594000000E+02  0.51100000000E-03 0. -1.
    9900012    2    1    2    0    0 -0.18739463630E+02  0.75224928482E+01 -0.38417027488E+02  0.47787269628E+02  0.19999993542E+02 0.  0.
        -12    1    1    2    0    0  0.18739463630E+02 -0.75224928482E+01  0.38417027488E+02  0.43400730372E+02  0.00000000000E+00 0.  1.
         11    1    3    3    0    0 -0.27108028667E+01  0.31550249670E+01 -0.17415012766E+02  0.17904896108E+02  0.51100000000E-03 0. -1.
        -11    1    3    3    0    0 -0.80259843092E+01  0.29549853544E+01 -0.19927420434E+02  0.21685258772E+02  0.51100000000E-03 0.  1.
        -12    1    3    3    0    0 -0.80026764539E+01  0.14124825268E+01 -0.10745942880E+01  0.81971147483E+01  0.00000000000E+00 0.  1.
</event>
<event>
 7    1  0.4430431E-010  0.4778727E+02  0.7816164E-02  0.1312668E+00
        -11   -1    0    0    0    0  0.00000000000E+00  0.00000000000E+00  0.45593999997E+02  0.45594000000E+02  0.51100000000E-03 0. -1.
         11   -1    0    0    0    0 -0.00000000000E+00 -0.00000000000E+00 -0.45593999997E+02  0.45594000000E+02  0.51100000000E-03 0.  1.
    9900012    2    1    2    0    0  0.77657748565E+01  0.23834807669E+02  0.35429050564E+02  0.47787274895E+02  0.20000017558E+02 0.  0.
        -12    1    1    2    0    0 -0.77657748565E+01 -0.23834807669E+02 -0.35429050564E+02  0.43400725105E+02  0.00000000000E+00 0.  1.
         11    1    3    3    0    0 -0.14528849030E+01 -0.65528745940E+00  0.64597260426E+01  0.66534454986E+01  0.51100000000E-03 0.  1.
        -11    1    3    3    0    0 -0.14360005229E+01 -0.30230554379E+00  0.44044621741E+01  0.46424964672E+01  0.51100000000E-03 0. -1.
         12    1    3    3    0    0  0.10654660282E+02  0.24792400673E+02  0.24564862347E+02  0.36491332930E+02  0.00000000000E+00 0. -1.
</event>
<event>
 7    1  0.4430431E-010  0.4778725E+02  0.7816164E-02  0.1312668E+00
        -11   -1    0    0    0    0  0.00000000000E+00  0.00000000000E+00  0.45593999997E+02  0.45594000000E+02  0.51100000000E-03 0.  1.
         11   -1    0    0    0    0 -0.00000000000E+00 -0.00000000000E+00 -0.45593999997E+02  0.45594000000E+02  0.51100000000E-03 0. -1.
    9900012    2    1    2    0    0  0.42736600588E+01  0.28989337281E+02 -0.32015294461E+02  0.47787252015E+02  0.19999913235E+02 0.  0.
        -12    1    1    2    0    0 -0.42736600588E+01 -0.28989337281E+02  0.32015294461E+02  0.43400747985E+02  0.00000000000E+00 0.  1.
         11    1    3    3    0    0 -0.21088108729E+01  0.49249621925E+01 -0.12146743138E+02  0.13275756288E+02  0.51100000000E-03 0.  1.
        -11    1    3    3    0    0 -0.39103630854E+01  0.49872214248E+01 -0.63130366333E+01  0.89452640428E+01  0.51100000000E-03 0. -1.
        -12    1    3    3    0    0  0.10292834017E+02  0.19077153664E+02 -0.13555514689E+02  0.25566231683E+02  0.00000000000E+00 0.  1.
</event>
<event>
 7    1  0.4430431E-010  0.4778729E+02  0.7816164E-02  0.1312668E+00
        -11   -1    0    0    0    0  0.00000000000E+00  0.00000000000E+00  0.45593999997E+02  0.45594000000E+02  0.51100000000E-03 0.  1.
         11   -1    0    0    0    0 -0.00000000000E+00 -0.00000000000E+00 -0.45593999997E+02  0.45594000000E+02  0.51100000000E-03 0. -1.
    9900012    2    1    2    0    0 -0.17524660188E+02  0.33853826929E+01 -0.39560681479E+02  0.47787285146E+02  0.20000064296E+02 0.  0.
        -12    1    1    2    0    0  0.17524660188E+02 -0.33853826929E+01  0.39560681479E+02  0.43400714854E+02  0.00000000000E+00 0.  1.
         11    1    3    3    0    0 -0.81000022827E+01  0.83438408501E-01 -0.21860576463E+02  0.23313125113E+02  0.51100000000E-03 0. -1.
        -11    1    3    3    0    0  0.75816639596E+00  0.44965594038E+01 -0.11787506197E+02  0.12638796041E+02  0.51100000000E-03 0.  1.
        -12    1    3    3    0    0 -0.10182824302E+02 -0.11946151194E+01 -0.59125988187E+01  0.11835363992E+02  0.00000000000E+00 0.  1.
</event>
<event>
 7    1  0.4430431E-010  0.4778727E+02  0.7816164E-02  0.1312668E+00
        -11   -1    0    0    0    0  0.00000000000E+00  0.00000000000E+00  0.45593999997E+02  0.45594000000E+02  0.51100000000E-03 0.  1.
         11   -1    0    0    0    0 -0.00000000000E+00 -0.00000000000E+00 -0.45593999997E+02  0.45594000000E+02  0.51100000000E-03 0. -1.
    9900012    2    1    2    0    0  0.68388899374E+01 -0.21349463474E+02 -0.37162522835E+02  0.47787272936E+02  0.20000008624E+02 0.  0.
        -12    1    1    2    0    0 -0.68388899374E+01  0.21349463474E+02  0.37162522835E+02  0.43400727064E+02  0.00000000000E+00 0.  1.
         11    1    3    3    0    0  0.11063878451E+02 -0.91386189052E+01 -0.22599094602E+02  0.26770185636E+02  0.51100000000E-03 0. -1.
        -11    1    3    3    0    0  0.94030442508E+00 -0.23709885097E+01  0.17699878445E+00  0.25567729183E+01  0.51100000000E-03 0.  1.
         12    1    3    3    0    0 -0.51652929391E+01 -0.98398560592E+01 -0.14740427018E+02  0.18460314382E+02  0.00000000000E+00 0. -1.
</event>
<event>
 7    1  0.4430431E-010  0.4778727E+02  0.7816164E-02  0.1312668E+00
        -11   -1    0    0    0    0  0.00000000000E+00  0.00000000000E+00  0.45593999997E+02  0.45594000000E+02  0.51100000000E-03 0.  1.
         11   -1    0    0    0    0 -0.00000000000E+00 -0.00000000000E+00 -0.45593999997E+02  0.45594000000E+02  0.51100000000E-03 0. -1.
    9900012    2    1    2    0    0  0.36057005708E+02  0.63042636159E+01 -0.23318917683E+02  0.47787270487E+02  0.19999997460E+02 0.  0.
        -12    1    1    2    0    0 -0.36057005708E+02 -0.63042636159E+01  0.23318917683E+02  0.43400729513E+02  0.00000000000E+00 0.  1.
         11    1    3    3    0    0  0.16742361708E+02  0.96560727471E+01 -0.15450532741E+02  0.24743996822E+02  0.51100000000E-03 0. -1.
        -11    1    3    3    0    0  0.55653579424E+00  0.87241946756E+00  0.13653455951E+01  0.17131890359E+01  0.51100000000E-03 0.  1.
        -12    1    3    3    0    0  0.18758108205E+02 -0.42242285988E+01 -0.92337305363E+01  0.21330084630E+02  0.00000000000E+00 0.  1.
</event>
<event>
 7    1  0.4430431E-010  0.4778727E+02  0.7816164E-02  0.1312668E+00
        -11   -1    0    0    0    0  0.00000000000E+00  0.00000000000E+00  0.45593999997E+02  0.45594000000E+02  0.51100000000E-03 0. -1.
         11   -1    0    0    0    0 -0.00000000000E+00 -0.00000000000E+00 -0.45593999997E+02  0.45594000000E+02  0.51100000000E-03 0.  1.
    9900012    2    1    2    0    0  0.11471934349E+02  0.37760372382E+02  0.18060236947E+02  0.47787272370E+02  0.20000006046E+02 0.  0.
        -12    1    1    2    0    0 -0.11471934349E+02 -0.37760372382E+02 -0.18060236947E+02  0.43400727630E+02  0.00000000000E+00 0.  1.
         11    1    3    3    0    0  0.83798606255E+01  0.20964395018E+02  0.52686189775E+01  0.23183750102E+02  0.51100000000E-03 0. -1.
        -11    1    3    3    0    0  0.25619556720E+01  0.18778201989E+02  0.11790885479E+02  0.22320606342E+02  0.51100000000E-03 0.  1.
        -12    1    3    3    0    0  0.53011805188E+00 -0.19822246249E+01  0.10007324908E+01  0.22829159272E+01  0.00000000000E+00 0.  1.
</event>
<event>
 7    1  0.4430431E-010  0.4778727E+02  0.7816164E-02  0.1312668E+00
        -11   -1    0    0    0    0  0.00000000000E+00  0.00000000000E+00  0.45593999997E+02  0.45594000000E+02  0.51100000000E-03 0.  1.
         11   -1    0    0    0    0 -0.00000000000E+00 -0.00000000000E+00 -0.45593999997E+02  0.45594000000E+02  0.51100000000E-03 0. -1.
    9900012    2    1    2    0    0 -0.40721064817E+02 -0.13360533298E+02  0.68494032609E+01  0.47787270803E+02  0.19999998897E+02 0.  0.
        -12    1    1    2    0    0  0.40721064817E+02  0.13360533298E+02 -0.68494032609E+01  0.43400729197E+02  0.00000000000E+00 0.  1.
         11    1    3    3    0    0 -0.90019493060E+01 -0.10210844252E+02 -0.25979181548E+01  0.13858052196E+02  0.51100000000E-03 0. -1.
        -11    1    3    3    0    0 -0.45696121897E+01 -0.67395481958E+00  0.40387916173E+01  0.61357484183E+01  0.51100000000E-03 0.  1.
         12    1    3    3    0    0 -0.27149503321E+02 -0.24757342257E+01  0.54085297984E+01  0.27793470189E+02  0.00000000000E+00 0. -1.
</event>
<event>
 7    1  0.4430431E-010  0.4778727E+02  0.7816164E-02  0.1312668E+00
        -11   -1    0    0    0    0  0.00000000000E+00  0.00000000000E+00  0.45593999997E+02  0.45594000000E+02  0.51100000000E-03 0. -1.
         11   -1    0    0    0    0 -0.00000000000E+00 -0.00000000000E+00 -0.45593999997E+02  0.45594000000E+02  0.51100000000E-03 0.  1.
    9900012    2    1    2    0    0 -0.20590772984E+02  0.37443832916E+02  0.75896678006E+01  0.47787267139E+02  0.19999982194E+02 0.  0.
        -12    1    1    2    0    0  0.20590772984E+02 -0.37443832916E+02 -0.75896678006E+01  0.43400732861E+02  0.00000000000E+00 0.  1.
         11    1    3    3    0    0 -0.14959679953E+02  0.22210670089E+02  0.86250447760E+01  0.28133561590E+02  0.51100000000E-03 0. -1.
        -11    1    3    3    0    0 -0.65438886053E+01  0.33387503222E+01  0.13990923011E+01  0.74784484567E+01  0.51100000000E-03 0.  1.
        -12    1    3    3    0    0  0.91279557391E+00  0.11894412505E+02 -0.24344692765E+01  0.12175257092E+02  0.00000000000E+00 0.  1.
</event>
<event>
 7    1  0.4430431E-010  0.4778727E+02  0.7816164E-02  0.1312668E+00
        -11   -1    0    0    0    0  0.00000000000E+00  0.00000000000E+00  0.45593999997E+02  0.45594000000E+02  0.51100000000E-03 0.  1.
         11   -1    0    0    0    0 -0.00000000000E+00 -0.00000000000E+00 -0.45593999997E+02  0.45594000000E+02  0.51100000000E-03 0. -1.
    9900012    2    1    2    0    0 -0.21420476587E+02  0.75777290691E+01 -0.36977892768E+02  0.47787270183E+02  0.19999996074E+02 0.  0.
        -12    1    1    2    0    0  0.21420476587E+02 -0.75777290691E+01  0.36977892768E+02  0.43400729817E+02  0.00000000000E+00 0.  1.
         11    1    3    3    0    0 -0.35438512665E+00  0.12690347209E+01  0.12412298477E+01  0.18101629034E+01  0.51100000000E-03 0. -1.
        -11    1    3    3    0    0 -0.69428208068E+01  0.84339151148E+01 -0.12867170913E+02  0.16878915027E+02  0.51100000000E-03 0.  1.
         12    1    3    3    0    0 -0.14123270653E+02 -0.21252207667E+01 -0.25351951703E+02  0.29098192253E+02  0.00000000000E+00 0. -1.
</event>
<event>
 7    1  0.4430431E-010  0.4778727E+02  0.7816164E-02  0.1312668E+00
        -11   -1    0    0    0    0  0.00000000000E+00  0.00000000000E+00  0.45593999997E+02  0.45594000000E+02  0.51100000000E-03 0.  1.
         11   -1    0    0    0    0 -0.00000000000E+00 -0.00000000000E+00 -0.45593999997E+02  0.45594000000E+02  0.51100000000E-03 0. -1.
    9900012    2    1    2    0    0 -0.36272212392E+02 -0.19267149352E+02  0.14025924386E+02  0.47787274305E+02  0.20000014866E+02 0.  0.
        -12    1    1    2    0    0  0.36272212392E+02  0.19267149352E+02 -0.14025924386E+02  0.43400725695E+02  0.00000000000E+00 0.  1.
         11    1    3    3    0    0 -0.13725005062E+02 -0.42090654549E+01 -0.12850906136E+00  0.14356479749E+02  0.51100000000E-03 0. -1.
        -11    1    3    3    0    0 -0.18583380589E+02 -0.11551028779E+02  0.43791287220E+01  0.22314682802E+02  0.51100000000E-03 0.  1.
        -12    1    3    3    0    0 -0.39638267416E+01 -0.35070551187E+01  0.97753047251E+01  0.11116111753E+02  0.00000000000E+00 0.  1.
</event>
<event>
 7    1  0.4430431E-010  0.4778727E+02  0.7816164E-02  0.1312668E+00
        -11   -1    0    0    0    0  0.00000000000E+00  0.00000000000E+00  0.45593999997E+02  0.45594000000E+02  0.51100000000E-03 0. -1.
         11   -1    0    0    0    0 -0.00000000000E+00 -0.00000000000E+00 -0.45593999997E+02  0.45594000000E+02  0.51100000000E-03 0.  1.
    9900012    2    1    2    0    0 -0.10043196470E+02 -0.17451487100E+01  0.42186628782E+02  0.47787274346E+02  0.20000015051E+02 0.  0.
        -12    1    1    2    0    0  0.10043196470E+02  0.17451487100E+01 -0.42186628782E+02  0.43400725654E+02  0.00000000000E+00 0.  1.
         11    1    3    3    0    0 -0.24783344832E+01  0.24643063903E+01  0.19447229091E+02  0.19758787093E+02  0.51100000000E-03 0. -1.
        -11    1    3    3    0    0 -0.80804890554E+01  0.33187734141E+01  0.13770392202E+02  0.16307429656E+02  0.51100000000E-03 0.  1.
        -12    1    3    3    0    0  0.51562706853E+00 -0.75282285144E+01  0.89690074887E+01  0.11721057596E+02  0.00000000000E+00 0.  1.
</event>
<event>
 7    1  0.4430431E-010  0.4778728E+02  0.7816164E-02  0.1312668E+00
        -11   -1    0    0    0    0  0.00000000000E+00  0.00000000000E+00  0.45593999997E+02  0.45594000000E+02  0.51100000000E-03 0.  1.
         11   -1    0    0    0    0 -0.00000000000E+00 -0.00000000000E+00 -0.45593999997E+02  0.45594000000E+02  0.51100000000E-03 0. -1.
    9900012    2    1    2    0    0  0.23197351431E+02 -0.32187830711E+02 -0.17591159511E+02  0.47787280510E+02  0.20000043159E+02 0.  0.
        -12    1    1    2    0    0 -0.23197351431E+02  0.32187830711E+02  0.17591159511E+02  0.43400719490E+02  0.00000000000E+00 0.  1.
         11    1    3    3    0    0  0.31714845211E+01 -0.42773942760E+00  0.85435006832E+00  0.33122785791E+01  0.51100000000E-03 0. -1.
        -11    1    3    3    0    0  0.25979984635E+01  0.12960753767E+01 -0.25559810011E+01  0.38681321769E+01  0.51100000000E-03 0.  1.
         12    1    3    3    0    0  0.17427868446E+02 -0.33056166660E+02 -0.15889528578E+02  0.40606869755E+02  0.00000000000E+00 0. -1.
</event>
<event>
 7    1  0.4430431E-010  0.4778727E+02  0.7816164E-02  0.1312668E+00
        -11   -1    0    0    0    0  0.00000000000E+00  0.00000000000E+00  0.45593999997E+02  0.45594000000E+02  0.51100000000E-03 0. -1.
         11   -1    0    0    0    0 -0.00000000000E+00 -0.00000000000E+00 -0.45593999997E+02  0.45594000000E+02  0.51100000000E-03 0.  1.
    9900012    2    1    2    0    0  0.17718886564E+02  0.34093917877E+02  0.20180903269E+02  0.47787273808E+02  0.20000012598E+02 0.  0.
        -12    1    1    2    0    0 -0.17718886564E+02 -0.34093917877E+02 -0.20180903269E+02  0.43400726192E+02  0.00000000000E+00 0.  1.
         11    1    3    3    0    0  0.11216903423E+01  0.15640880403E+01  0.35294815611E+01  0.40201742466E+01  0.51100000000E-03 0. -1.
        -11    1    3    3    0    0 -0.24857310053E+01  0.28776289788E+01  0.56843330831E+01  0.68389509452E+01  0.51100000000E-03 0.  1.
         12    1    3    3    0    0  0.19082927227E+02  0.29652200858E+02  0.10967088624E+02  0.36928148616E+02  0.00000000000E+00 0. -1.
</event>
<event>
 7    1  0.4430431E-010  0.4778727E+02  0.7816164E-02  0.1312668E+00
        -11   -1    0    0    0    0  0.00000000000E+00  0.00000000000E+00  0.45593999997E+02  0.45594000000E+02  0.51100000000E-03 0.  1.
         11   -1    0    0    0    0 -0.00000000000E+00 -0.00000000000E+00 -0.45593999997E+02  0.45594000000E+02  0.51100000000E-03 0. -1.
    9900012    2    1    2    0    0 -0.28016014498E+02  0.19227122614E+02 -0.27000814435E+02  0.47787270830E+02  0.19999999022E+02 0.  0.
        -12    1    1    2    0    0  0.28016014498E+02 -0.19227122614E+02  0.27000814435E+02  0.43400729170E+02  0.00000000000E+00 0.  1.
         11    1    3    3    0    0 -0.18525488443E+02  0.80129928766E+01 -0.13945502768E+02  0.24533218798E+02  0.51100000000E-03 0. -1.
        -11    1    3    3    0    0 -0.28968263980E+01 -0.22540532931E+01 -0.51594259627E+00  0.37065558747E+01  0.51100000000E-03 0.  1.
         12    1    3    3    0    0 -0.65936996564E+01  0.13468183030E+02 -0.12539369071E+02  0.19547496157E+02  0.00000000000E+00 0. -1.
</event>
<event>
 7    1  0.4430431E-010  0.4778726E+02  0.7816164E-02  0.1312668E+00
        -11   -1    0    0    0    0  0.00000000000E+00  0.00000000000E+00  0.45593999997E+02  0.45594000000E+02  0.51100000000E-03 0.  1.
         11   -1    0    0    0    0 -0.00000000000E+00 -0.00000000000E+00 -0.45593999997E+02  0.45594000000E+02  0.51100000000E-03 0. -1.
    9900012    2    1    2    0    0  0.19043191760E+02  0.23191884965E+02 -0.31354698567E+02  0.47787264950E+02  0.19999972213E+02 0.  0.
        -12    1    1    2    0    0 -0.19043191760E+02 -0.23191884965E+02  0.31354698567E+02  0.43400735050E+02  0.00000000000E+00 0.  1.
         11    1    3    3    0    0  0.92606616566E+01  0.18134814142E+02 -0.21820050805E+02  0.29845367407E+02  0.51100000000E-03 0. -1.
        -11    1    3    3    0    0 -0.11231280313E+00  0.52207152208E+01 -0.41870836349E+01  0.66932915079E+01  0.51100000000E-03 0.  1.
         12    1    3    3    0    0  0.98948429063E+01 -0.16364439789E+00 -0.53475641275E+01  0.11248606035E+02  0.00000000000E+00 0. -1.
</event>
<event>
 7    1  0.4430431E-010  0.4778728E+02  0.7816164E-02  0.1312668E+00
        -11   -1    0    0    0    0  0.00000000000E+00  0.00000000000E+00  0.45593999997E+02  0.45594000000E+02  0.51100000000E-03 0.  1.
         11   -1    0    0    0    0 -0.00000000000E+00 -0.00000000000E+00 -0.45593999997E+02  0.45594000000E+02  0.51100000000E-03 0. -1.
    9900012    2    1    2    0    0  0.10106127516E+02  0.21441097899E+02 -0.36356131765E+02  0.47787276396E+02  0.20000024400E+02 0.  0.
        -12    1    1    2    0    0 -0.10106127516E+02 -0.21441097899E+02  0.36356131765E+02  0.43400723604E+02  0.00000000000E+00 0.  1.
         11    1    3    3    0    0  0.72479759579E+01  0.76709767799E+01 -0.13969681104E+02  0.17507970489E+02  0.51100000000E-03 0. -1.
        -11    1    3    3    0    0 -0.42294543038E+00  0.13160538608E+02 -0.23349137180E+02  0.26805985649E+02  0.51100000000E-03 0.  1.
        -12    1    3    3    0    0  0.32810969882E+01  0.60958251050E+00  0.96268651883E+00  0.34733202583E+01  0.00000000000E+00 0.  1.
</event>
<event>
 7    1  0.4430431E-010  0.4778727E+02  0.7816164E-02  0.1312668E+00
        -11   -1    0    0    0    0  0.00000000000E+00  0.00000000000E+00  0.45593999997E+02  0.45594000000E+02  0.51100000000E-03 0.  1.
         11   -1    0    0    0    0 -0.00000000000E+00 -0.00000000000E+00 -0.45593999997E+02  0.45594000000E+02  0.51100000000E-03 0. -1.
    9900012    2    1    2    0    0 -0.17048107732E+02  0.26034521762E+02 -0.30252090136E+02  0.47787271225E+02  0.20000000823E+02 0.  0.
        -12    1    1    2    0    0  0.17048107732E+02 -0.26034521762E+02  0.30252090136E+02  0.43400728775E+02  0.00000000000E+00 0.  1.
         11    1    3    3    0    0 -0.46182015805E+01  0.10173291127E+02 -0.19385621932E+02  0.22374672649E+02  0.51100000000E-03 0. -1.
        -11    1    3    3    0    0 -0.16141314951E+01  0.84536419383E+01 -0.84907940752E+01  0.12089791842E+02  0.51100000000E-03 0.  1.
        -12    1    3    3    0    0 -0.10815774656E+02  0.74075886965E+01 -0.23756741294E+01  0.13322806734E+02  0.00000000000E+00 0.  1.
</event>
<event>
 7    1  0.4430431E-010  0.4778727E+02  0.7816164E-02  0.1312668E+00
        -11   -1    0    0    0    0  0.00000000000E+00  0.00000000000E+00  0.45593999997E+02  0.45594000000E+02  0.51100000000E-03 0.  1.
         11   -1    0    0    0    0 -0.00000000000E+00 -0.00000000000E+00 -0.45593999997E+02  0.45594000000E+02  0.51100000000E-03 0. -1.
    9900012    2    1    2    0    0  0.13735417581E+02  0.36793505672E+02 -0.18471585824E+02  0.47787271451E+02  0.20000001852E+02 0.  0.
        -12    1    1    2    0    0 -0.13735417581E+02 -0.36793505672E+02  0.18471585824E+02  0.43400728549E+02  0.00000000000E+00 0.  1.
         11    1    3    3    0    0  0.27876336087E+01  0.12276848741E+02 -0.26616245565E+01  0.12867640098E+02  0.51100000000E-03 0. -1.
        -11    1    3    3    0    0  0.32692510326E+01  0.10912677017E+02  0.16283007787E+01  0.11507644662E+02  0.51100000000E-03 0.  1.
         12    1    3    3    0    0  0.76785329395E+01  0.13603979914E+02 -0.17438262046E+02  0.23411986690E+02  0.00000000000E+00 0. -1.
</event>
<event>
 7    1  0.4461050E-010  0.4778727E+02  0.7816164E-02  0.1312668E+00
        -11   -1    0    0    0    0  0.00000000000E+00  0.00000000000E+00  0.45593999997E+02  0.45594000000E+02  0.51100000000E-03 0. -1.
         11   -1    0    0    0    0 -0.00000000000E+00 -0.00000000000E+00 -0.45593999997E+02  0.45594000000E+02  0.51100000000E-03 0.  1.
    9900012    2    1    2    0    0  0.13519053314E+02  0.31667006760E+02  0.26420810779E+02  0.47787270031E+02  0.19999995379E+02 0.  0.
        -12    1    1    2    0    0 -0.13519053314E+02 -0.31667006760E+02 -0.26420810779E+02  0.43400729969E+02  0.00000000000E+00 0.  1.
         11    1    3    3    0    0  0.18478179914E+01  0.80296963693E+01  0.10595582222E+02  0.13422250855E+02  0.51100000000E-03 0. -1.
        -11    1    3    3    0    0  0.20491117519E+00 -0.22093530014E+01  0.13802559880E+01  0.26131085182E+01  0.51100000000E-03 0.  1.
         12    1    3    3    0    0  0.11466324147E+02  0.25846663392E+02  0.14444972569E+02  0.31751910658E+02  0.00000000000E+00 0. -1.
</event>
<event>
 7    1  0.4430431E-010  0.4778726E+02  0.7816164E-02  0.1312668E+00
        -11   -1    0    0    0    0  0.00000000000E+00  0.00000000000E+00  0.45593999997E+02  0.45594000000E+02  0.51100000000E-03 0.  1.
         11   -1    0    0    0    0 -0.00000000000E+00 -0.00000000000E+00 -0.45593999997E+02  0.45594000000E+02  0.51100000000E-03 0. -1.
    9900012    2    1    2    0    0 -0.31178598908E+02 -0.19034146020E+02 -0.23435449376E+02  0.47787262310E+02  0.19999960176E+02 0.  0.
        -12    1    1    2    0    0  0.31178598908E+02  0.19034146020E+02  0.23435449376E+02  0.43400737690E+02  0.00000000000E+00 0.  1.
         11    1    3    3    0    0 -0.13176521420E+01  0.53515426897E+00  0.15655667838E+01  0.21150879118E+01  0.51100000000E-03 0. -1.
        -11    1    3    3    0    0 -0.14562161501E+01 -0.70175604620E+01 -0.46257056970E+01  0.85301743107E+01  0.51100000000E-03 0.  1.
         12    1    3    3    0    0 -0.28404730616E+02 -0.12551739827E+02 -0.20375310463E+02  0.37142000088E+02  0.00000000000E+00 0. -1.
</event>
<event>
 7    1  0.4758482E-010  0.4778727E+02  0.7816164E-02  0.1312668E+00
        -11   -1    0    0    0    0  0.00000000000E+00  0.00000000000E+00  0.45593999997E+02  0.45594000000E+02  0.51100000000E-03 0. -1.
         11   -1    0    0    0    0 -0.00000000000E+00 -0.00000000000E+00 -0.45593999997E+02  0.45594000000E+02  0.51100000000E-03 0.  1.
    9900012    2    1    2    0    0 -0.20265699344E+02  0.23466985002E+02  0.30368162670E+02  0.47787271217E+02  0.20000000786E+02 0.  0.
        -12    1    1    2    0    0  0.20265699344E+02 -0.23466985002E+02 -0.30368162670E+02  0.43400728783E+02  0.00000000000E+00 0.  1.
         11    1    3    3    0    0 -0.19174515889E+02  0.18277636193E+02  0.18980516537E+02  0.32588250224E+02  0.51100000000E-03 0. -1.
        -11    1    3    3    0    0 -0.24017678416E+00  0.56869815099E+01  0.24329262649E+01  0.61901998395E+01  0.51100000000E-03 0.  1.
        -12    1    3    3    0    0 -0.85100667058E+00 -0.49763270145E+00  0.89547198682E+01  0.90088211535E+01  0.00000000000E+00 0.  1.
</event>
<event>
 7    1  0.4430431E-010  0.4778727E+02  0.7816164E-02  0.1312668E+00
        -11   -1    0    0    0    0  0.00000000000E+00  0.00000000000E+00  0.45593999997E+02  0.45594000000E+02  0.51100000000E-03 0. -1.
         11   -1    0    0    0    0 -0.00000000000E+00 -0.00000000000E+00 -0.45593999997E+02  0.45594000000E+02  0.51100000000E-03 0.  1.
    9900012    2    1    2    0    0 -0.32089013503E+02  0.29198454205E+02 -0.11698795896E+01  0.47787272658E+02  0.20000007356E+02 0.  0.
        -12    1    1    2    0    0  0.32089013503E+02 -0.29198454205E+02  0.11698795896E+01  0.43400727342E+02  0.00000000000E+00 0.  1.
         11    1    3    3    0    0 -0.20102166765E+02  0.75146924518E+01  0.53098841674E+01  0.22107975516E+02  0.51100000000E-03 0. -1.
        -11    1    3    3    0    0 -0.33868278746E+01  0.45051743395E+01 -0.15681836364E+01  0.58503332435E+01  0.51100000000E-03 0.  1.
         12    1    3    3    0    0 -0.86000188640E+01  0.17178587414E+02 -0.49115801207E+01  0.19828963898E+02  0.00000000000E+00 0. -1.
</event>
<event>
 7    1  0.4430431E-010  0.4778727E+02  0.7816164E-02  0.1312668E+00
        -11   -1    0    0    0    0  0.00000000000E+00  0.00000000000E+00  0.45593999997E+02  0.45594000000E+02  0.51100000000E-03 0. -1.
         11   -1    0    0    0    0 -0.00000000000E+00 -0.00000000000E+00 -0.45593999997E+02  0.45594000000E+02  0.51100000000E-03 0.  1.
    9900012    2    1    2    0    0 -0.12955887930E+02  0.33172080464E+02  0.24806886104E+02  0.47787267834E+02  0.19999985364E+02 0.  0.
        -12    1    1    2    0    0  0.12955887930E+02 -0.33172080464E+02 -0.24806886104E+02  0.43400732166E+02  0.00000000000E+00 0.  1.
         11    1    3    3    0    0 -0.65306308442E+01  0.17771089721E+02  0.54129526461E+01  0.19691643550E+02  0.51100000000E-03 0. -1.
        -11    1    3    3    0    0 -0.37069868577E+01  0.56633048691E-02  0.78113843705E+00  0.37883982308E+01  0.51100000000E-03 0.  1.
         12    1    3    3    0    0 -0.27182702286E+01  0.15395327438E+02  0.18612795020E+02  0.24307226054E+02  0.00000000000E+00 0. -1.
</event>
<event>
 7    1  0.4430431E-010  0.4778727E+02  0.7816164E-02  0.1312668E+00
        -11   -1    0    0    0    0  0.00000000000E+00  0.00000000000E+00  0.45593999997E+02  0.45594000000E+02  0.51100000000E-03 0. -1.
         11   -1    0    0    0    0 -0.00000000000E+00 -0.00000000000E+00 -0.45593999997E+02  0.45594000000E+02  0.51100000000E-03 0.  1.
    9900012    2    1    2    0    0 -0.69055082618E+01 -0.41046149622E+02  0.12294346604E+02  0.47787269573E+02  0.19999993293E+02 0.  0.
        -12    1    1    2    0    0  0.69055082618E+01  0.41046149622E+02 -0.12294346604E+02  0.43400730427E+02  0.00000000000E+00 0.  1.
         11    1    3    3    0    0  0.81755134618E+00 -0.84179202301E+01  0.11311364245E+01  0.85328331213E+01  0.51100000000E-03 0. -1.
        -11    1    3    3    0    0 -0.61993465141E+01 -0.13488731614E+02  0.13305485515E+02  0.19935238218E+02  0.51100000000E-03 0.  1.
         12    1    3    3    0    0 -0.15237130939E+01 -0.19139497778E+02 -0.21422753359E+01  0.19319198234E+02  0.00000000000E+00 0. -1.
</event>
<event>
 7    1  0.4430431E-010  0.4778728E+02  0.7816164E-02  0.1312668E+00
        -11   -1    0    0    0    0  0.00000000000E+00  0.00000000000E+00  0.45593999997E+02  0.45594000000E+02  0.51100000000E-03 0.  1.
         11   -1    0    0    0    0 -0.00000000000E+00 -0.00000000000E+00 -0.45593999997E+02  0.45594000000E+02  0.51100000000E-03 0. -1.
    9900012    2    1    2    0    0  0.43503552817E+01  0.42427237002E+02  0.80390500337E+01  0.47787281617E+02  0.20000048206E+02 0.  0.
        -12    1    1    2    0    0 -0.43503552817E+01 -0.42427237002E+02 -0.80390500337E+01  0.43400718383E+02  0.00000000000E+00 0.  1.
         11    1    3    3    0    0 -0.13706749690E+01  0.30699393886E+01 -0.29487520660E+01  0.44719589364E+01  0.51100000000E-03 0. -1.
        -11    1    3    3    0    0  0.18596908358E+01 -0.25607102775E+00 -0.39531788343E+00  0.19184105051E+01  0.51100000000E-03 0.  1.
         12    1    3    3    0    0  0.38613394149E+01  0.39613368641E+02  0.11383119983E+02  0.41396912176E+02  0.00000000000E+00 0. -1.
</event>
<event>
 7    1  0.4430431E-010  0.4778727E+02  0.7816164E-02  0.1312668E+00
        -11   -1    0    0    0    0  0.00000000000E+00  0.00000000000E+00  0.45593999997E+02  0.45594000000E+02  0.51100000000E-03 0.  1.
         11   -1    0    0    0    0 -0.00000000000E+00 -0.00000000000E+00 -0.45593999997E+02  0.45594000000E+02  0.51100000000E-03 0. -1.
    9900012    2    1    2    0    0 -0.31223801891E+02 -0.27052395088E+02 -0.13299062315E+02  0.47787274856E+02  0.20000017380E+02 0.  0.
        -12    1    1    2    0    0  0.31223801891E+02  0.27052395088E+02  0.13299062315E+02  0.43400725144E+02  0.00000000000E+00 0.  1.
         11    1    3    3    0    0 -0.20100096060E+02 -0.21162773091E+02 -0.11383356574E+02  0.31328224234E+02  0.51100000000E-03 0. -1.
        -11    1    3    3    0    0 -0.79164018799E+01 -0.86184648118E+01 -0.30587173950E+01  0.12095582119E+02  0.51100000000E-03 0.  1.
        -12    1    3    3    0    0 -0.32073039506E+01  0.27288428143E+01  0.11430116536E+01  0.43634685030E+01  0.00000000000E+00 0.  1.
</event>
<event>
 7    1  0.4430431E-010  0.4778727E+02  0.7816164E-02  0.1312668E+00
        -11   -1    0    0    0    0  0.00000000000E+00  0.00000000000E+00  0.45593999997E+02  0.45594000000E+02  0.51100000000E-03 0.  1.
         11   -1    0    0    0    0 -0.00000000000E+00 -0.00000000000E+00 -0.45593999997E+02  0.45594000000E+02  0.51100000000E-03 0. -1.
    9900012    2    1    2    0    0  0.22456125908E+02  0.62585224413E+01 -0.36608427040E+02  0.47787267007E+02  0.19999981594E+02 0.  0.
        -12    1    1    2    0    0 -0.22456125908E+02 -0.62585224413E+01  0.36608427040E+02  0.43400732993E+02  0.00000000000E+00 0.  1.
         11    1    3    3    0    0  0.22967522830E+00 -0.18277665101E+01 -0.24924973451E+01  0.30993587082E+01  0.51100000000E-03 0. -1.
        -11    1    3    3    0    0 -0.77265621402E+00 -0.15564270432E+01  0.69010132155E+00  0.18696798820E+01  0.51100000000E-03 0.  1.
         12    1    3    3    0    0  0.22999106894E+02  0.96427159946E+01 -0.34806031016E+02  0.42818228417E+02  0.00000000000E+00 0. -1.
</event>
<event>
 7    1  0.4430431E-010  0.4778729E+02  0.7816164E-02  0.1312668E+00
        -11   -1    0    0    0    0  0.00000000000E+00  0.00000000000E+00  0.45593999997E+02  0.45594000000E+02  0.51100000000E-03 0.  1.
         11   -1    0    0    0    0 -0.00000000000E+00 -0.00000000000E+00 -0.45593999997E+02  0.45594000000E+02  0.51100000000E-03 0. -1.
    9900012    2    1    2    0    0 -0.42941243942E+02  0.25803335822E+01 -0.57456696655E+01  0.47787294100E+02  0.20000105120E+02 0.  0.
        -12    1    1    2    0    0  0.42941243942E+02 -0.25803335822E+01  0.57456696655E+01  0.43400705900E+02  0.00000000000E+00 0.  1.
         11    1    3    3    0    0 -0.13937679021E+02  0.24850262096E+00 -0.66445105634E+01  0.15442479429E+02  0.51100000000E-03 0. -1.
        -11    1    3    3    0    0 -0.11645831519E+01  0.42691132071E+01  0.39717112479E-01  0.44252863414E+01  0.51100000000E-03 0.  1.
        -12    1    3    3    0    0 -0.27838981769E+02 -0.19372822459E+01  0.85912378545E+00  0.27919528329E+02  0.00000000000E+00 0.  1.
</event>
<event>
 7    1  0.4430431E-010  0.4778727E+02  0.7816164E-02  0.1312668E+00
        -11   -1    0    0    0    0  0.00000000000E+00  0.00000000000E+00  0.45593999997E+02  0.45594000000E+02  0.51100000000E-03 0.  1.
         11   -1    0    0    0    0 -0.00000000000E+00 -0.00000000000E+00 -0.45593999997E+02  0.45594000000E+02  0.51100000000E-03 0. -1.
    9900012    2    1    2    0    0 -0.27933443691E+01 -0.29760335225E+02 -0.31466536921E+02  0.47787271075E+02  0.20000000138E+02 0.  0.
        -12    1    1    2    0    0  0.27933443691E+01  0.29760335225E+02  0.31466536921E+02  0.43400728925E+02  0.00000000000E+00 0.  1.
         11    1    3    3    0    0 -0.87614125267E+00 -0.40571363369E+01 -0.81492974369E+01  0.91454375361E+01  0.51100000000E-03 0. -1.
        -11    1    3    3    0    0 -0.29254406335E+01 -0.81528231197E+01  0.90918030473E+00  0.87093821141E+01  0.51100000000E-03 0.  1.
        -12    1    3    3    0    0  0.10082375171E+01 -0.17550375768E+02 -0.24226419789E+02  0.29932451424E+02  0.00000000000E+00 0.  1.
</event>
<event>
 7    1  0.4430431E-010  0.4778727E+02  0.7816164E-02  0.1312668E+00
        -11   -1    0    0    0    0  0.00000000000E+00  0.00000000000E+00  0.45593999997E+02  0.45594000000E+02  0.51100000000E-03 0.  1.
         11   -1    0    0    0    0 -0.00000000000E+00 -0.00000000000E+00 -0.45593999997E+02  0.45594000000E+02  0.51100000000E-03 0. -1.
    9900012    2    1    2    0    0 -0.10450404246E+02 -0.38077165672E+02 -0.18015047283E+02  0.47787269325E+02  0.19999992162E+02 0.  0.
        -12    1    1    2    0    0  0.10450404246E+02  0.38077165672E+02  0.18015047283E+02  0.43400730675E+02  0.00000000000E+00 0.  1.
         11    1    3    3    0    0 -0.62173591828E+00 -0.71085306015E+01 -0.51524309671E+01  0.88014378369E+01  0.51100000000E-03 0. -1.
        -11    1    3    3    0    0 -0.13691858989E+02 -0.17037146514E+02 -0.10808284662E+02  0.24383403813E+02  0.51100000000E-03 0.  1.
         12    1    3    3    0    0  0.38631906615E+01 -0.13931488556E+02 -0.20543316537E+01  0.14602427676E+02  0.00000000000E+00 0. -1.
</event>
<event>
 7    1  0.4430431E-010  0.4778727E+02  0.7816164E-02  0.1312668E+00
        -11   -1    0    0    0    0  0.00000000000E+00  0.00000000000E+00  0.45593999997E+02  0.45594000000E+02  0.51100000000E-03 0. -1.
         11   -1    0    0    0    0 -0.00000000000E+00 -0.00000000000E+00 -0.45593999997E+02  0.45594000000E+02  0.51100000000E-03 0.  1.
    9900012    2    1    2    0    0 -0.37492375761E+02  0.30557557780E+01  0.21647340680E+02  0.47787271411E+02  0.20000001671E+02 0.  0.
        -12    1    1    2    0    0  0.37492375761E+02 -0.30557557780E+01 -0.21647340680E+02  0.43400728589E+02  0.00000000000E+00 0.  1.
         11    1    3    3    0    0 -0.13690466479E+01 -0.11196662302E+01  0.16576896687E+00  0.17763504166E+01  0.51100000000E-03 0. -1.
        -11    1    3    3    0    0 -0.98602823223E+01 -0.29011865042E+01 -0.15191225621E+01  0.10389888557E+02  0.51100000000E-03 0.  1.
         12    1    3    3    0    0 -0.26263046790E+02  0.70766085124E+01  0.23000694275E+02  0.35621032437E+02  0.00000000000E+00 0. -1.
</event>
<event>
 7    1  0.4430431E-010  0.4778728E+02  0.7816164E-02  0.1312668E+00
        -11   -1    0    0    0    0  0.00000000000E+00  0.00000000000E+00  0.45593999997E+02  0.45594000000E+02  0.51100000000E-03 0. -1.
         11   -1    0    0    0    0 -0.00000000000E+00 -0.00000000000E+00 -0.45593999997E+02  0.45594000000E+02  0.51100000000E-03 0.  1.
    9900012    2    1    2    0    0 -0.34413970592E+02 -0.21968696749E+02 -0.14719966335E+02  0.47787280909E+02  0.20000044977E+02 0.  0.
        -12    1    1    2    0    0  0.34413970592E+02  0.21968696749E+02  0.14719966335E+02  0.43400719091E+02  0.00000000000E+00 0.  1.
         11    1    3    3    0    0 -0.38278615202E+01  0.33736786542E+00 -0.15064290446E+01  0.41274289361E+01  0.51100000000E-03 0. -1.
        -11    1    3    3    0    0 -0.16589307669E+02 -0.24112943574E+01 -0.88158086576E+01  0.18940378876E+02  0.51100000000E-03 0.  1.
         12    1    3    3    0    0 -0.13996801402E+02 -0.19894770257E+02 -0.43977286326E+01  0.24719473097E+02  0.00000000000E+00 0. -1.
</event>
<event>
 7    1  0.4430431E-010  0.4778729E+02  0.7816164E-02  0.1312668E+00
        -11   -1    0    0    0    0  0.00000000000E+00  0.00000000000E+00  0.45593999997E+02  0.45594000000E+02  0.51100000000E-03 0.  1.
         11   -1    0    0    0    0 -0.00000000000E+00 -0.00000000000E+00 -0.45593999997E+02  0.45594000000E+02  0.51100000000E-03 0. -1.
    9900012    2    1    2    0    0 -0.13203169852E+02  0.18800309642E+02 -0.36821815721E+02  0.47787292059E+02  0.20000095814E+02 0.  0.
        -12    1    1    2    0    0  0.13203169852E+02 -0.18800309642E+02  0.36821815721E+02  0.43400707941E+02  0.00000000000E+00 0.  1.
         11    1    3    3    0    0 -0.36815191721E+00 -0.85957566757E-01  0.10415564120E+01  0.11080453772E+01  0.51100000000E-03 0. -1.
        -11    1    3    3    0    0 -0.12478107459E+02  0.15939104549E+02 -0.19601325475E+02  0.28177476470E+02  0.51100000000E-03 0.  1.
         12    1    3    3    0    0 -0.35691047561E+00  0.29471626599E+01 -0.18262046658E+02  0.18501770212E+02  0.00000000000E+00 0. -1.
</event>
<event>
 7    1  0.4430431E-010  0.4778726E+02  0.7816164E-02  0.1312668E+00
        -11   -1    0    0    0    0  0.00000000000E+00  0.00000000000E+00  0.45593999997E+02  0.45594000000E+02  0.51100000000E-03 0.  1.
         11   -1    0    0    0    0 -0.00000000000E+00 -0.00000000000E+00 -0.45593999997E+02  0.45594000000E+02  0.51100000000E-03 0. -1.
    9900012    2    1    2    0    0 -0.22302778637E+02  0.26242490283E+02 -0.26411024019E+02  0.47787257829E+02  0.19999939747E+02 0.  0.
        -12    1    1    2    0    0  0.22302778637E+02 -0.26242490283E+02  0.26411024019E+02  0.43400742171E+02  0.00000000000E+00 0.  1.
         11    1    3    3    0    0 -0.11248224842E+02  0.75122822362E+01 -0.29882662183E+01  0.13852316837E+02  0.51100000000E-03 0. -1.
        -11    1    3    3    0    0 -0.99440470385E+01  0.59459139391E+01 -0.12905114884E+02  0.17343008807E+02  0.51100000000E-03 0.  1.
        -12    1    3    3    0    0 -0.11105067565E+01  0.12784294108E+02 -0.10517642917E+02  0.16591932185E+02  0.00000000000E+00 0.  1.
</event>
<event>
 7    1  0.4430431E-010  0.4778727E+02  0.7816164E-02  0.1312668E+00
        -11   -1    0    0    0    0  0.00000000000E+00  0.00000000000E+00  0.45593999997E+02  0.45594000000E+02  0.51100000000E-03 0.  1.
         11   -1    0    0    0    0 -0.00000000000E+00 -0.00000000000E+00 -0.45593999997E+02  0.45594000000E+02  0.51100000000E-03 0. -1.
    9900012    2    1    2    0    0  0.35612181942E+01 -0.16921032849E+02 -0.39807282250E+02  0.47787270192E+02  0.19999996115E+02 0.  0.
        -12    1    1    2    0    0 -0.35612181942E+01  0.16921032849E+02  0.39807282250E+02  0.43400729808E+02  0.00000000000E+00 0.  1.
         11    1    3    3    0    0  0.24351943751E+00 -0.15688826703E+02 -0.25710328619E+02  0.30120086039E+02  0.51100000000E-03 0. -1.
        -11    1    3    3    0    0 -0.34171003586E+01 -0.92985291672E+00 -0.28125510606E+01  0.45223495041E+01  0.51100000000E-03 0.  1.
        -12    1    3    3    0    0  0.67347991152E+01 -0.30235322971E+00 -0.11284402570E+02  0.13144834649E+02  0.00000000000E+00 0.  1.
</event>
<event>
 7    1  0.4430431E-010  0.4778727E+02  0.7816164E-02  0.1312668E+00
        -11   -1    0    0    0    0  0.00000000000E+00  0.00000000000E+00  0.45593999997E+02  0.45594000000E+02  0.51100000000E-03 0.  1.
         11   -1    0    0    0    0 -0.00000000000E+00 -0.00000000000E+00 -0.45593999997E+02  0.45594000000E+02  0.51100000000E-03 0. -1.
    9900012    2    1    2    0    0  0.50998080963E+01  0.73534549478E+01 -0.42468127567E+02  0.47787271880E+02  0.20000003810E+02 0.  0.
        -12    1    1    2    0    0 -0.50998080963E+01 -0.73534549478E+01  0.42468127567E+02  0.43400728120E+02  0.00000000000E+00 0.  1.
         11    1    3    3    0    0  0.80307167291E+01  0.90830444441E+01 -0.30670607050E+02  0.32979997644E+02  0.51100000000E-03 0. -1.
        -11    1    3    3    0    0  0.28599231721E+01  0.11350475954E-01 -0.44739266512E+01  0.53099255480E+01  0.51100000000E-03 0.  1.
        -12    1    3    3    0    0 -0.57908318049E+01 -0.17409399723E+01 -0.73235938662E+01  0.94973486878E+01  0.00000000000E+00 0.  1.
</event>
<event>
 7    1  0.4430431E-010  0.4778727E+02  0.7816164E-02  0.1312668E+00
        -11   -1    0    0    0    0  0.00000000000E+00  0.00000000000E+00  0.45593999997E+02  0.45594000000E+02  0.51100000000E-03 0.  1.
         11   -1    0    0    0    0 -0.00000000000E+00 -0.00000000000E+00 -0.45593999997E+02  0.45594000000E+02  0.51100000000E-03 0. -1.
    9900012    2    1    2    0    0 -0.37045473296E+02  0.15936220359E+02 -0.16040362823E+02  0.47787269009E+02  0.19999990718E+02 0.  0.
        -12    1    1    2    0    0  0.37045473296E+02 -0.15936220359E+02  0.16040362823E+02  0.43400730991E+02  0.00000000000E+00 0.  1.
         11    1    3    3    0    0 -0.10118945658E+01  0.89315942020E+00 -0.11710001539E+00  0.13547608781E+01  0.51100000000E-03 0. -1.
        -11    1    3    3    0    0  0.10010336588E+01  0.17622582523E+01 -0.53079414982E+01  0.56817132753E+01  0.51100000000E-03 0.  1.
        -12    1    3    3    0    0 -0.37034612389E+02  0.13280802686E+02 -0.10615321309E+02  0.40750794855E+02  0.00000000000E+00 0.  1.
</event>
<event>
 7    1  0.4430431E-010  0.4778727E+02  0.7816164E-02  0.1312668E+00
        -11   -1    0    0    0    0  0.00000000000E+00  0.00000000000E+00  0.45593999997E+02  0.45594000000E+02  0.51100000000E-03 0.  1.
         11   -1    0    0    0    0 -0.00000000000E+00 -0.00000000000E+00 -0.45593999997E+02  0.45594000000E+02  0.51100000000E-03 0. -1.
    9900012    2    1    2    0    0  0.67186565093E+00  0.29123890243E+02 -0.32170960563E+02  0.47787273164E+02  0.20000009664E+02 0.  0.
        -12    1    1    2    0    0 -0.67186565093E+00 -0.29123890243E+02  0.32170960563E+02  0.43400726836E+02  0.00000000000E+00 0.  1.
         11    1    3    3    0    0 -0.30024711050E+01  0.13821705471E+02 -0.10651747613E+02  0.17706329443E+02  0.51100000000E-03 0. -1.
        -11    1    3    3    0    0  0.24487363970E+01  0.16623266194E+02 -0.12654353445E+02  0.21034779540E+02  0.51100000000E-03 0.  1.
        -12    1    3    3    0    0  0.12256003590E+01 -0.13210814220E+01 -0.88648595047E+01  0.90461641816E+01  0.00000000000E+00 0.  1.
</event>
<event>
 7    1  0.4430431E-010  0.4778726E+02  0.7816164E-02  0.1312668E+00
        -11   -1    0    0    0    0  0.00000000000E+00  0.00000000000E+00  0.45593999997E+02  0.45594000000E+02  0.51100000000E-03 0. -1.
         11   -1    0    0    0    0 -0.00000000000E+00 -0.00000000000E+00 -0.45593999997E+02  0.45594000000E+02  0.51100000000E-03 0.  1.
    9900012    2    1    2    0    0  0.22160741765E+02 -0.32676344957E+02  0.18021722148E+02  0.47787257328E+02  0.19999937460E+02 0.  0.
        -12    1    1    2    0    0 -0.22160741765E+02  0.32676344957E+02 -0.18021722148E+02  0.43400742672E+02  0.00000000000E+00 0.  1.
         11    1    3    3    0    0 -0.21696758243E+00 -0.67654195668E+01 -0.10427021928E+01  0.68487374728E+01  0.51100000000E-03 0.  1.
        -11    1    3    3    0    0  0.35717478445E+01 -0.47336119398E+01 -0.12803037449E+01  0.60666005804E+01  0.51100000000E-03 0. -1.
         12    1    3    3    0    0  0.18805961503E+02 -0.21177313451E+02  0.20344728085E+02  0.34871919275E+02  0.00000000000E+00 0. -1.
</event>
<event>
 7    1  0.4430431E-010  0.4778727E+02  0.7816164E-02  0.1312668E+00
        -11   -1    0    0    0    0  0.00000000000E+00  0.00000000000E+00  0.45593999997E+02  0.45594000000E+02  0.51100000000E-03 0. -1.
         11   -1    0    0    0    0 -0.00000000000E+00 -0.00000000000E+00 -0.45593999997E+02  0.45594000000E+02  0.51100000000E-03 0.  1.
    9900012    2    1    2    0    0  0.13814718772E+02  0.13087657760E+02  0.39006285356E+02  0.47787268005E+02  0.19999986143E+02 0.  0.
        -12    1    1    2    0    0 -0.13814718772E+02 -0.13087657760E+02 -0.39006285356E+02  0.43400731995E+02  0.00000000000E+00 0.  1.
         11    1    3    3    0    0  0.46738477439E+01 -0.14344426684E+01  0.15617931501E+02  0.16365276140E+02  0.51100000000E-03 0. -1.
        -11    1    3    3    0    0  0.33703009385E+01  0.78909733939E+00 -0.26208694978E+00  0.34713531738E+01  0.51100000000E-03 0.  1.
         12    1    3    3    0    0  0.57705700895E+01  0.13733003089E+02  0.23650440805E+02  0.27950638692E+02  0.00000000000E+00 0. -1.
</event>
<event>
 7    1  0.4430431E-010  0.4778727E+02  0.7816164E-02  0.1312668E+00
        -11   -1    0    0    0    0  0.00000000000E+00  0.00000000000E+00  0.45593999997E+02  0.45594000000E+02  0.51100000000E-03 0. -1.
         11   -1    0    0    0    0 -0.00000000000E+00 -0.00000000000E+00 -0.45593999997E+02  0.45594000000E+02  0.51100000000E-03 0.  1.
    9900012    2    1    2    0    0  0.18879021624E+02  0.34682148376E+02  0.18009842425E+02  0.47787270771E+02  0.19999998753E+02 0.  0.
        -12    1    1    2    0    0 -0.18879021624E+02 -0.34682148376E+02 -0.18009842425E+02  0.43400729229E+02  0.00000000000E+00 0.  1.
         11    1    3    3    0    0  0.29871243882E+01  0.73003608733E+01  0.69682072989E+00  0.79185693393E+01  0.51100000000E-03 0. -1.
        -11    1    3    3    0    0  0.49925820645E+01  0.12415889247E+02 -0.15093144243E+01  0.13466930302E+02  0.51100000000E-03 0.  1.
         12    1    3    3    0    0  0.10899315171E+02  0.14965898256E+02  0.18822336119E+02  0.26401771130E+02  0.00000000000E+00 0. -1.
</event>
<event>
 7    1  0.4430431E-010  0.4778727E+02  0.7816164E-02  0.1312668E+00
        -11   -1    0    0    0    0  0.00000000000E+00  0.00000000000E+00  0.45593999997E+02  0.45594000000E+02  0.51100000000E-03 0.  1.
         11   -1    0    0    0    0 -0.00000000000E+00 -0.00000000000E+00 -0.45593999997E+02  0.45594000000E+02  0.51100000000E-03 0. -1.
    9900012    2    1    2    0    0  0.41891570217E+01  0.27209411100E+02 -0.33551783986E+02  0.47787270771E+02  0.19999998755E+02 0.  0.
        -12    1    1    2    0    0 -0.41891570217E+01 -0.27209411100E+02  0.33551783986E+02  0.43400729229E+02  0.00000000000E+00 0.  1.
         11    1    3    3    0    0  0.59754916914E+01  0.49405734361E+01 -0.10006789182E+02  0.12659051972E+02  0.51100000000E-03 0. -1.
        -11    1    3    3    0    0 -0.43141354636E+01  0.10148727731E+01 -0.59592979742E+01  0.74266388191E+01  0.51100000000E-03 0.  1.
         12    1    3    3    0    0  0.25278007939E+01  0.21253964891E+02 -0.17585696830E+02  0.27701579980E+02  0.00000000000E+00 0. -1.
</event>
<event>
 7    1  0.4430431E-010  0.4778728E+02  0.7816164E-02  0.1312668E+00
        -11   -1    0    0    0    0  0.00000000000E+00  0.00000000000E+00  0.45593999997E+02  0.45594000000E+02  0.51100000000E-03 0.  1.
         11   -1    0    0    0    0 -0.00000000000E+00 -0.00000000000E+00 -0.45593999997E+02  0.45594000000E+02  0.51100000000E-03 0. -1.
    9900012    2    1    2    0    0  0.27017298348E+02 -0.33932689816E+02  0.15035376362E+01  0.47787280264E+02  0.20000042035E+02 0.  0.
        -12    1    1    2    0    0 -0.27017298348E+02  0.33932689816E+02 -0.15035376362E+01  0.43400719736E+02  0.00000000000E+00 0.  1.
         11    1    3    3    0    0  0.10862452132E+02 -0.48429534889E+01  0.72497126093E+00  0.11915227585E+02  0.51100000000E-03 0. -1.
        -11    1    3    3    0    0  0.14830095000E+01 -0.37385938363E+01 -0.45799452965E+01  0.60952686758E+01  0.51100000000E-03 0.  1.
        -12    1    3    3    0    0  0.14671836717E+02 -0.25351142491E+02  0.53585116718E+01  0.29776784003E+02  0.00000000000E+00 0.  1.
</event>
<event>
 7    1  0.4430431E-010  0.4778728E+02  0.7816164E-02  0.1312668E+00
        -11   -1    0    0    0    0  0.00000000000E+00  0.00000000000E+00  0.45593999997E+02  0.45594000000E+02  0.51100000000E-03 0.  1.
         11   -1    0    0    0    0 -0.00000000000E+00 -0.00000000000E+00 -0.45593999997E+02  0.45594000000E+02  0.51100000000E-03 0. -1.
    9900012    2    1    2    0    0  0.32547172710E+02  0.26840875090E+02  0.10191731068E+02  0.47787281006E+02  0.20000045418E+02 0.  0.
        -12    1    1    2    0    0 -0.32547172710E+02 -0.26840875090E+02 -0.10191731068E+02  0.43400718994E+02  0.00000000000E+00 0.  1.
         11    1    3    3    0    0  0.71819764858E+01  0.73889344235E+01  0.54718898699E+01  0.11666992636E+02  0.51100000000E-03 0. -1.
        -11    1    3    3    0    0 -0.79085485740E-01 -0.20432687001E+01  0.17289738262E+01  0.26777886861E+01  0.51100000000E-03 0.  1.
         12    1    3    3    0    0  0.25444281710E+02  0.21495209367E+02  0.29908673721E+01  0.33442499684E+02  0.00000000000E+00 0. -1.
</event>
<event>
 7    1  0.4430431E-010  0.4778727E+02  0.7816164E-02  0.1312668E+00
        -11   -1    0    0    0    0  0.00000000000E+00  0.00000000000E+00  0.45593999997E+02  0.45594000000E+02  0.51100000000E-03 0.  1.
         11   -1    0    0    0    0 -0.00000000000E+00 -0.00000000000E+00 -0.45593999997E+02  0.45594000000E+02  0.51100000000E-03 0. -1.
    9900012    2    1    2    0    0  0.48702725838E+01 -0.24604550951E+02 -0.35419202780E+02  0.47787269498E+02  0.19999992949E+02 0.  0.
        -12    1    1    2    0    0 -0.48702725838E+01  0.24604550951E+02  0.35419202780E+02  0.43400730502E+02  0.00000000000E+00 0.  1.
         11    1    3    3    0    0 -0.88516356966E+00 -0.70194059912E+01 -0.35877766399E+01  0.79326991934E+01  0.51100000000E-03 0. -1.
        -11    1    3    3    0    0  0.52574929844E+00 -0.61933200718E+01 -0.65186445104E+00  0.62496842608E+01  0.51100000000E-03 0.  1.
         12    1    3    3    0    0  0.52296868550E+01 -0.11391824888E+02 -0.31179561689E+02  0.33604886044E+02  0.00000000000E+00 0. -1.
</event>
<event>
 7    1  0.4430431E-010  0.4778726E+02  0.7816164E-02  0.1312668E+00
        -11   -1    0    0    0    0  0.00000000000E+00  0.00000000000E+00  0.45593999997E+02  0.45594000000E+02  0.51100000000E-03 0.  1.
         11   -1    0    0    0    0 -0.00000000000E+00 -0.00000000000E+00 -0.45593999997E+02  0.45594000000E+02  0.51100000000E-03 0. -1.
    9900012    2    1    2    0    0 -0.90626859903E+01  0.26435554906E+02 -0.33206224604E+02  0.47787260455E+02  0.19999951720E+02 0.  0.
        -12    1    1    2    0    0  0.90626859903E+01 -0.26435554906E+02  0.33206224604E+02  0.43400739545E+02  0.00000000000E+00 0.  1.
         11    1    3    3    0    0  0.88885050366E+00  0.11278772182E+02 -0.18354425079E+02  0.21561207698E+02  0.51100000000E-03 0. -1.
        -11    1    3    3    0    0  0.24371233681E+01  0.22055232429E+01 -0.43542345763E+01  0.54555716559E+01  0.51100000000E-03 0.  1.
         12    1    3    3    0    0 -0.12388659862E+02  0.12951259481E+02 -0.10497564949E+02  0.20770481101E+02  0.00000000000E+00 0. -1.
</event>
<event>
 7    1  0.4430431E-010  0.4778727E+02  0.7816164E-02  0.1312668E+00
        -11   -1    0    0    0    0  0.00000000000E+00  0.00000000000E+00  0.45593999997E+02  0.45594000000E+02  0.51100000000E-03 0. -1.
         11   -1    0    0    0    0 -0.00000000000E+00 -0.00000000000E+00 -0.45593999997E+02  0.45594000000E+02  0.51100000000E-03 0.  1.
    9900012    2    1    2    0    0 -0.86990337282E+01  0.30253183758E+02  0.29878002676E+02  0.47787270061E+02  0.19999995517E+02 0.  0.
        -12    1    1    2    0    0  0.86990337282E+01 -0.30253183758E+02 -0.29878002676E+02  0.43400729939E+02  0.00000000000E+00 0.  1.
         11    1    3    3    0    0 -0.57479974753E+01  0.96000826404E+01  0.22767502763E+02  0.25368489195E+02  0.51100000000E-03 0. -1.
        -11    1    3    3    0    0 -0.79957159960E-01  0.79591303508E+01  0.45047836617E+01  0.91458856974E+01  0.51100000000E-03 0.  1.
         12    1    3    3    0    0 -0.28710790929E+01  0.12693970767E+02  0.26057162506E+01  0.13272895169E+02  0.00000000000E+00 0. -1.
</event>
<event>
 7    1  0.4430431E-010  0.4778727E+02  0.7816164E-02  0.1312668E+00
        -11   -1    0    0    0    0  0.00000000000E+00  0.00000000000E+00  0.45593999997E+02  0.45594000000E+02  0.51100000000E-03 0.  1.
         11   -1    0    0    0    0 -0.00000000000E+00 -0.00000000000E+00 -0.45593999997E+02  0.45594000000E+02  0.51100000000E-03 0. -1.
    9900012    2    1    2    0    0  0.12421560810E+02 -0.41441036407E+02 -0.34595364986E+01  0.47787273460E+02  0.20000011014E+02 0.  0.
        -12    1    1    2    0    0 -0.12421560810E+02  0.41441036407E+02  0.34595364986E+01  0.43400726540E+02  0.00000000000E+00 0.  1.
         11    1    3    3    0    0 -0.20289232756E-01 -0.11124279570E+02 -0.13728062878E+01  0.11208684355E+02  0.51100000000E-03 0. -1.
        -11    1    3    3    0    0 -0.95979479666E+00 -0.10833525985E+01  0.36368795971E+01  0.39143010064E+01  0.51100000000E-03 0.  1.
        -12    1    3    3    0    0  0.13401644840E+02 -0.29233404238E+02 -0.57236098078E+01  0.32664288098E+02  0.00000000000E+00 0.  1.
</event>
<event>
 7    1  0.4430431E-010  0.4778727E+02  0.7816164E-02  0.1312668E+00
        -11   -1    0    0    0    0  0.00000000000E+00  0.00000000000E+00  0.45593999997E+02  0.45594000000E+02  0.51100000000E-03 0.  1.
         11   -1    0    0    0    0 -0.00000000000E+00 -0.00000000000E+00 -0.45593999997E+02  0.45594000000E+02  0.51100000000E-03 0. -1.
    9900012    2    1    2    0    0  0.30871547308E+02  0.14573708003E+02 -0.26798837002E+02  0.47787273477E+02  0.20000011090E+02 0.  0.
        -12    1    1    2    0    0 -0.30871547308E+02 -0.14573708003E+02  0.26798837002E+02  0.43400726523E+02  0.00000000000E+00 0.  1.
         11    1    3    3    0    0  0.11917858910E+02 -0.31699527343E+01 -0.43408916851E+01  0.13073916866E+02  0.51100000000E-03 0. -1.
        -11    1    3    3    0    0  0.43765523483E+01  0.14810819667E+01 -0.42904852447E+01  0.63052421163E+01  0.51100000000E-03 0.  1.
        -12    1    3    3    0    0  0.14577136049E+02  0.16262578770E+02 -0.18167460072E+02  0.28408114494E+02  0.00000000000E+00 0.  1.
</event>
<event>
 7    1  0.4430431E-010  0.4778727E+02  0.7816164E-02  0.1312668E+00
        -11   -1    0    0    0    0  0.00000000000E+00  0.00000000000E+00  0.45593999997E+02  0.45594000000E+02  0.51100000000E-03 0.  1.
         11   -1    0    0    0    0 -0.00000000000E+00 -0.00000000000E+00 -0.45593999997E+02  0.45594000000E+02  0.51100000000E-03 0. -1.
    9900012    2    1    2    0    0 -0.99583625439E+01  0.38327668647E+02 -0.17760747388E+02  0.47787270556E+02  0.19999997775E+02 0.  0.
        -12    1    1    2    0    0  0.99583625439E+01 -0.38327668647E+02  0.17760747388E+02  0.43400729444E+02  0.00000000000E+00 0.  1.
         11    1    3    3    0    0 -0.12854647337E+02  0.29153086872E+02 -0.12831359259E+02  0.34348045258E+02  0.51100000000E-03 0. -1.
        -11    1    3    3    0    0  0.13911704050E+01  0.10373595578E+02 -0.34789587147E+01  0.11029505624E+02  0.51100000000E-03 0.  1.
        -12    1    3    3    0    0  0.15051143883E+01 -0.11990138036E+01 -0.14504294146E+01  0.24097196745E+01  0.00000000000E+00 0.  1.
</event>
<event>
 7    1  0.4430431E-010  0.4778728E+02  0.7816164E-02  0.1312668E+00
        -11   -1    0    0    0    0  0.00000000000E+00  0.00000000000E+00  0.45593999997E+02  0.45594000000E+02  0.51100000000E-03 0.  1.
         11   -1    0    0    0    0 -0.00000000000E+00 -0.00000000000E+00 -0.45593999997E+02  0.45594000000E+02  0.51100000000E-03 0. -1.
    9900012    2    1    2    0    0 -0.18022837491E+02 -0.25745419038E+02 -0.29932819033E+02  0.47787275030E+02  0.20000018173E+02 0.  0.
        -12    1    1    2    0    0  0.18022837491E+02  0.25745419038E+02  0.29932819033E+02  0.43400724970E+02  0.00000000000E+00 0.  1.
         11    1    3    3    0    0 -0.62343310513E+01 -0.14164478902E+02 -0.12325725034E+02  0.19784409117E+02  0.51100000000E-03 0. -1.
        -11    1    3    3    0    0 -0.12604580606E+02 -0.14183692300E+02 -0.16109296190E+02  0.24891002460E+02  0.51100000000E-03 0.  1.
        -12    1    3    3    0    0  0.81607416624E+00  0.26027521641E+01 -0.14977978091E+01  0.31118634529E+01  0.00000000000E+00 0.  1.
</event>
<event>
 7    1  0.4430431E-010  0.4778727E+02  0.7816164E-02  0.1312668E+00
        -11   -1    0    0    0    0  0.00000000000E+00  0.00000000000E+00  0.45593999997E+02  0.45594000000E+02  0.51100000000E-03 0.  1.
         11   -1    0    0    0    0 -0.00000000000E+00 -0.00000000000E+00 -0.45593999997E+02  0.45594000000E+02  0.51100000000E-03 0. -1.
    9900012    2    1    2    0    0  0.10378791530E+01 -0.35505257017E+02 -0.24938380982E+02  0.47787270571E+02  0.19999997841E+02 0.  0.
        -12    1    1    2    0    0 -0.10378791530E+01  0.35505257017E+02  0.24938380982E+02  0.43400729429E+02  0.00000000000E+00 0.  1.
         11    1    3    3    0    0  0.42542785333E+01 -0.36086763930E+02 -0.24198448552E+02  0.43656824545E+02  0.51100000000E-03 0. -1.
        -11    1    3    3    0    0 -0.21554977128E+00 -0.18861296819E+00  0.66846775663E+00  0.72724545956E+00  0.51100000000E-03 0.  1.
         12    1    3    3    0    0 -0.30008496090E+01  0.77011988146E+00 -0.14084001863E+01  0.34032005660E+01  0.00000000000E+00 0. -1.
</event>
<event>
 7    1  0.4430431E-010  0.4778727E+02  0.7816164E-02  0.1312668E+00
        -11   -1    0    0    0    0  0.00000000000E+00  0.00000000000E+00  0.45593999997E+02  0.45594000000E+02  0.51100000000E-03 0.  1.
         11   -1    0    0    0    0 -0.00000000000E+00 -0.00000000000E+00 -0.45593999997E+02  0.45594000000E+02  0.51100000000E-03 0. -1.
    9900012    2    1    2    0    0 -0.68896147085E+01 -0.31538244629E+02 -0.29008540539E+02  0.47787273171E+02  0.20000009695E+02 0.  0.
        -12    1    1    2    0    0  0.68896147085E+01  0.31538244629E+02  0.29008540539E+02  0.43400726829E+02  0.00000000000E+00 0.  1.
         11    1    3    3    0    0  0.20449361477E+01 -0.29622116615E+01  0.15164045326E+00  0.36027013287E+01  0.51100000000E-03 0. -1.
        -11    1    3    3    0    0  0.18378974161E+01  0.15500718583E-01 -0.46983085422E+01  0.50450183948E+01  0.51100000000E-03 0.  1.
        -12    1    3    3    0    0 -0.10772448272E+02 -0.28591533686E+02 -0.24461872450E+02  0.39139553447E+02  0.00000000000E+00 0.  1.
</event>
<event>
 7    1  0.4430431E-010  0.4778727E+02  0.7816164E-02  0.1312668E+00
        -11   -1    0    0    0    0  0.00000000000E+00  0.00000000000E+00  0.45593999997E+02  0.45594000000E+02  0.51100000000E-03 0.  1.
         11   -1    0    0    0    0 -0.00000000000E+00 -0.00000000000E+00 -0.45593999997E+02  0.45594000000E+02  0.51100000000E-03 0. -1.
    9900012    2    1    2    0    0 -0.12779800692E+02 -0.19426017947E+02 -0.36646005370E+02  0.47787272027E+02  0.20000004481E+02 0.  0.
        -12    1    1    2    0    0  0.12779800692E+02  0.19426017947E+02  0.36646005370E+02  0.43400727973E+02  0.00000000000E+00 0.  1.
         11    1    3    3    0    0 -0.11085153046E+02 -0.45158247356E+01 -0.12277996554E+02  0.17147084030E+02  0.51100000000E-03 0. -1.
        -11    1    3    3    0    0 -0.26084006388E+01 -0.90768570257E+00 -0.29706610239E+00  0.27777501251E+01  0.51100000000E-03 0.  1.
         12    1    3    3    0    0  0.91375299276E+00 -0.14002507509E+02 -0.24070942714E+02  0.27862437872E+02  0.00000000000E+00 0. -1.
</event>
<event>
 7    1  0.4430431E-010  0.4778727E+02  0.7816164E-02  0.1312668E+00
        -11   -1    0    0    0    0  0.00000000000E+00  0.00000000000E+00  0.45593999997E+02  0.45594000000E+02  0.51100000000E-03 0.  1.
         11   -1    0    0    0    0 -0.00000000000E+00 -0.00000000000E+00 -0.45593999997E+02  0.45594000000E+02  0.51100000000E-03 0. -1.
    9900012    2    1    2    0    0  0.28735937030E+02 -0.15800445828E+02 -0.28429120679E+02  0.47787273416E+02  0.20000010814E+02 0.  0.
        -12    1    1    2    0    0 -0.28735937030E+02  0.15800445828E+02  0.28429120679E+02  0.43400726584E+02  0.00000000000E+00 0.  1.
         11    1    3    3    0    0  0.11347368031E+02 -0.29964173198E+01 -0.80167327987E+01  0.14212996975E+02  0.51100000000E-03 0. -1.
        -11    1    3    3    0    0  0.13064486848E+02 -0.30567082652E+01 -0.39979702090E+01  0.14000287428E+02  0.51100000000E-03 0.  1.
        -12    1    3    3    0    0  0.43240821512E+01 -0.97473202435E+01 -0.16414417672E+02  0.19573989013E+02  0.00000000000E+00 0.  1.
</event>
<event>
 7    1  0.4430431E-010  0.4778728E+02  0.7816164E-02  0.1312668E+00
        -11   -1    0    0    0    0  0.00000000000E+00  0.00000000000E+00  0.45593999997E+02  0.45594000000E+02  0.51100000000E-03 0. -1.
         11   -1    0    0    0    0 -0.00000000000E+00 -0.00000000000E+00 -0.45593999997E+02  0.45594000000E+02  0.51100000000E-03 0.  1.
    9900012    2    1    2    0    0  0.32225000430E+02 -0.28861824980E+02  0.34881480381E+01  0.47787276842E+02  0.20000026435E+02 0.  0.
        -12    1    1    2    0    0 -0.32225000430E+02  0.28861824980E+02 -0.34881480381E+01  0.43400723158E+02  0.00000000000E+00 0.  1.
         11    1    3    3    0    0  0.12210889967E+01 -0.72150184262E+01 -0.29743398738E+01  0.78990029228E+01  0.51100000000E-03 0. -1.
        -11    1    3    3    0    0  0.61465842761E+01 -0.57798456024E+01  0.60735674280E+01  0.10395928771E+02  0.51100000000E-03 0.  1.
         12    1    3    3    0    0  0.24857327157E+02 -0.15866960951E+02  0.38892048390E+00  0.29492345149E+02  0.00000000000E+00 0. -1.
</event>
<event>
 7    1  0.4430431E-010  0.4778727E+02  0.7816164E-02  0.1312668E+00
        -11   -1    0    0    0    0  0.00000000000E+00  0.00000000000E+00  0.45593999997E+02  0.45594000000E+02  0.51100000000E-03 0.  1.
         11   -1    0    0    0    0 -0.00000000000E+00 -0.00000000000E+00 -0.45593999997E+02  0.45594000000E+02  0.51100000000E-03 0. -1.
    9900012    2    1    2    0    0  0.26195019434E+02  0.31467050894E+02  0.14396851526E+02  0.47787266493E+02  0.19999979249E+02 0.  0.
        -12    1    1    2    0    0 -0.26195019434E+02 -0.31467050894E+02 -0.14396851526E+02  0.43400733507E+02  0.00000000000E+00 0.  1.
         11    1    3    3    0    0  0.54509372149E+01  0.18034558735E+02  0.11792084848E+02  0.22226364764E+02  0.51100000000E-03 0.  1.
        -11    1    3    3    0    0  0.41320163930E+00 -0.59425586031E+00 -0.53744023090E-03  0.72379290698E+00  0.51100000000E-03 0. -1.
         12    1    3    3    0    0  0.20330880579E+02  0.14026748019E+02  0.26053041181E+01  0.24837108823E+02  0.00000000000E+00 0. -1.
</event>
<event>
 7    1  0.4430431E-010  0.4778727E+02  0.7816164E-02  0.1312668E+00
        -11   -1    0    0    0    0  0.00000000000E+00  0.00000000000E+00  0.45593999997E+02  0.45594000000E+02  0.51100000000E-03 0.  1.
         11   -1    0    0    0    0 -0.00000000000E+00 -0.00000000000E+00 -0.45593999997E+02  0.45594000000E+02  0.51100000000E-03 0. -1.
    9900012    2    1    2    0    0 -0.14479829411E+02  0.32422103360E+02 -0.24955262080E+02  0.47787270150E+02  0.19999995923E+02 0.  0.
        -12    1    1    2    0    0  0.14479829411E+02 -0.32422103360E+02  0.24955262080E+02  0.43400729850E+02  0.00000000000E+00 0.  1.
         11    1    3    3    0    0 -0.71549747569E+01  0.70885963395E+01 -0.73624215158E+01  0.12475861200E+02  0.51100000000E-03 0. -1.
        -11    1    3    3    0    0 -0.97208294288E+01  0.24553073013E+02 -0.18898764802E+02  0.32473238682E+02  0.51100000000E-03 0.  1.
        -12    1    3    3    0    0  0.23959747746E+01  0.78043400678E+00  0.13059242380E+01  0.28381702688E+01  0.00000000000E+00 0.  1.
</event>
<event>
 7    1  0.4430431E-010  0.4778727E+02  0.7816164E-02  0.1312668E+00
        -11   -1    0    0    0    0  0.00000000000E+00  0.00000000000E+00  0.45593999997E+02  0.45594000000E+02  0.51100000000E-03 0. -1.
         11   -1    0    0    0    0 -0.00000000000E+00 -0.00000000000E+00 -0.45593999997E+02  0.45594000000E+02  0.51100000000E-03 0.  1.
    9900012    2    1    2    0    0 -0.32892837540E+02 -0.26441236331E+02 -0.10126466580E+02  0.47787273444E+02  0.20000010942E+02 0.  0.
        -12    1    1    2    0    0  0.32892837540E+02  0.26441236331E+02  0.10126466580E+02  0.43400726556E+02  0.00000000000E+00 0.  1.
         11    1    3    3    0    0 -0.16288123784E+02 -0.98638650031E+01 -0.33709039864E+01  0.19338092024E+02  0.51100000000E-03 0. -1.
        -11    1    3    3    0    0 -0.14453265161E+02 -0.84309161144E+01  0.13120151105E+01  0.16783879297E+02  0.51100000000E-03 0.  1.
         12    1    3    3    0    0 -0.21514485951E+01 -0.81464552135E+01 -0.80675777043E+01  0.11665302123E+02  0.00000000000E+00 0. -1.
</event>
<event>
 7    1  0.4430431E-010  0.4778727E+02  0.7816164E-02  0.1312668E+00
        -11   -1    0    0    0    0  0.00000000000E+00  0.00000000000E+00  0.45593999997E+02  0.45594000000E+02  0.51100000000E-03 0.  1.
         11   -1    0    0    0    0 -0.00000000000E+00 -0.00000000000E+00 -0.45593999997E+02  0.45594000000E+02  0.51100000000E-03 0. -1.
    9900012    2    1    2    0    0 -0.40746671320E+02 -0.10496103877E+02 -0.10637850303E+02  0.47787270981E+02  0.19999999713E+02 0.  0.
        -12    1    1    2    0    0  0.40746671320E+02  0.10496103877E+02  0.10637850303E+02  0.43400729019E+02  0.00000000000E+00 0.  1.
         11    1    3    3    0    0 -0.89606181799E+01 -0.42049699128E+01 -0.85061158211E+01  0.13050994474E+02  0.51100000000E-03 0. -1.
        -11    1    3    3    0    0 -0.84355714839E+01  0.20593587753E+01 -0.45797751052E+01  0.98170344352E+01  0.51100000000E-03 0.  1.
        -12    1    3    3    0    0 -0.23350481656E+02 -0.83504927395E+01  0.24480406233E+01  0.24919242072E+02  0.00000000000E+00 0.  1.
</event>
<event>
 7    1  0.4430431E-010  0.4778727E+02  0.7816164E-02  0.1312668E+00
        -11   -1    0    0    0    0  0.00000000000E+00  0.00000000000E+00  0.45593999997E+02  0.45594000000E+02  0.51100000000E-03 0. -1.
         11   -1    0    0    0    0 -0.00000000000E+00 -0.00000000000E+00 -0.45593999997E+02  0.45594000000E+02  0.51100000000E-03 0.  1.
    9900012    2    1    2    0    0 -0.11184255996E+02  0.32589654909E+02  0.26390344781E+02  0.47787268590E+02  0.19999988809E+02 0.  0.
        -12    1    1    2    0    0  0.11184255996E+02 -0.32589654909E+02 -0.26390344781E+02  0.43400731410E+02  0.00000000000E+00 0.  1.
         11    1    3    3    0    0 -0.55603260326E+01  0.25486658613E+02  0.15303705361E+02  0.30243848811E+02  0.51100000000E-03 0. -1.
        -11    1    3    3    0    0 -0.35891659577E+01  0.39350604109E+01 -0.51044282408E+00  0.53504546393E+01  0.51100000000E-03 0.  1.
         12    1    3    3    0    0 -0.20347640058E+01  0.31679358846E+01  0.11597082244E+02  0.12192965140E+02  0.00000000000E+00 0. -1.
</event>
<event>
 7    1  0.4430431E-010  0.4778727E+02  0.7816164E-02  0.1312668E+00
        -11   -1    0    0    0    0  0.00000000000E+00  0.00000000000E+00  0.45593999997E+02  0.45594000000E+02  0.51100000000E-03 0.  1.
         11   -1    0    0    0    0 -0.00000000000E+00 -0.00000000000E+00 -0.45593999997E+02  0.45594000000E+02  0.51100000000E-03 0. -1.
    9900012    2    1    2    0    0 -0.38312930330E+02  0.19099826949E+02 -0.71371734325E+01  0.47787271152E+02  0.20000000491E+02 0.  0.
        -12    1    1    2    0    0  0.38312930330E+02 -0.19099826949E+02  0.71371734325E+01  0.43400728848E+02  0.00000000000E+00 0.  1.
         11    1    3    3    0    0 -0.21360962885E+02  0.67786112527E+01 -0.25569852797E+00  0.22412177223E+02  0.51100000000E-03 0. -1.
        -11    1    3    3    0    0 -0.12630308446E+02  0.12028002143E+02 -0.23635545459E+00  0.17442860751E+02  0.51100000000E-03 0.  1.
         12    1    3    3    0    0 -0.43216589989E+01  0.29321355251E+00 -0.66451194500E+01  0.79322331783E+01  0.00000000000E+00 0. -1.
</event>
<event>
 7    1  0.4430431E-010  0.4778727E+02  0.7816164E-02  0.1312668E+00
        -11   -1    0    0    0    0  0.00000000000E+00  0.00000000000E+00  0.45593999997E+02  0.45594000000E+02  0.51100000000E-03 0.  1.
         11   -1    0    0    0    0 -0.00000000000E+00 -0.00000000000E+00 -0.45593999997E+02  0.45594000000E+02  0.51100000000E-03 0. -1.
    9900012    2    1    2    0    0 -0.28582661074E+02 -0.24234044590E+02 -0.21894420331E+02  0.47787273359E+02  0.20000010555E+02 0.  0.
        -12    1    1    2    0    0  0.28582661074E+02  0.24234044590E+02  0.21894420331E+02  0.43400726641E+02  0.00000000000E+00 0.  1.
         11    1    3    3    0    0 -0.16034270158E+02 -0.13403971954E+02 -0.12597799634E+02  0.24402230216E+02  0.51100000000E-03 0. -1.
        -11    1    3    3    0    0 -0.36359268242E+01 -0.87593437786E+01 -0.10508387732E+02  0.14155291601E+02  0.51100000000E-03 0.  1.
        -12    1    3    3    0    0 -0.89124640925E+01 -0.20707288579E+01  0.12117670347E+01  0.92297515432E+01  0.00000000000E+00 0.  1.
</event>
<event>
 7    1  0.4430431E-010  0.4778727E+02  0.7816164E-02  0.1312668E+00
        -11   -1    0    0    0    0  0.00000000000E+00  0.00000000000E+00  0.45593999997E+02  0.45594000000E+02  0.51100000000E-03 0.  1.
         11   -1    0    0    0    0 -0.00000000000E+00 -0.00000000000E+00 -0.45593999997E+02  0.45594000000E+02  0.51100000000E-03 0. -1.
    9900012    2    1    2    0    0  0.34755232156E+02 -0.51493599524E+01 -0.25479031899E+02  0.47787272625E+02  0.20000007206E+02 0.  0.
        -12    1    1    2    0    0 -0.34755232156E+02  0.51493599524E+01  0.25479031899E+02  0.43400727375E+02  0.00000000000E+00 0.  1.
         11    1    3    3    0    0  0.23938785668E+02 -0.27639190867E+01 -0.85521521707E+01  0.25570373775E+02  0.51100000000E-03 0. -1.
        -11    1    3    3    0    0  0.51051674098E+01  0.24312230747E+01 -0.29722385433E+01  0.63880969106E+01  0.51100000000E-03 0.  1.
        -12    1    3    3    0    0  0.57112790784E+01 -0.48166639404E+01 -0.13954641185E+02  0.15828801939E+02  0.00000000000E+00 0.  1.
</event>
<event>
 7    1  0.4430431E-010  0.4778727E+02  0.7816164E-02  0.1312668E+00
        -11   -1    0    0    0    0  0.00000000000E+00  0.00000000000E+00  0.45593999997E+02  0.45594000000E+02  0.51100000000E-03 0.  1.
         11   -1    0    0    0    0 -0.00000000000E+00 -0.00000000000E+00 -0.45593999997E+02  0.45594000000E+02  0.51100000000E-03 0. -1.
    9900012    2    1    2    0    0  0.17975819544E+02  0.13007306178E+02 -0.37300176768E+02  0.47787270868E+02  0.19999999193E+02 0.  0.
        -12    1    1    2    0    0 -0.17975819544E+02 -0.13007306178E+02  0.37300176768E+02  0.43400729132E+02  0.00000000000E+00 0.  1.
         11    1    3    3    0    0  0.59804630626E+01  0.30992904227E+01 -0.83948305833E+01  0.10763118523E+02  0.51100000000E-03 0. -1.
        -11    1    3    3    0    0 -0.10199895916E+01  0.42835250754E+01  0.44777100328E+00  0.44259987541E+01  0.51100000000E-03 0.  1.
        -12    1    3    3    0    0  0.13015346073E+02  0.56244906799E+01 -0.29353117188E+02  0.32598153590E+02  0.00000000000E+00 0.  1.
</event>
<event>
 7    1  0.4430431E-010  0.4778727E+02  0.7816164E-02  0.1312668E+00
        -11   -1    0    0    0    0  0.00000000000E+00  0.00000000000E+00  0.45593999997E+02  0.45594000000E+02  0.51100000000E-03 0. -1.
         11   -1    0    0    0    0 -0.00000000000E+00 -0.00000000000E+00 -0.45593999997E+02  0.45594000000E+02  0.51100000000E-03 0.  1.
    9900012    2    1    2    0    0  0.26015438672E+02 -0.35109540223E+01  0.34561449571E+02  0.47787266781E+02  0.19999980562E+02 0.  0.
        -12    1    1    2    0    0 -0.26015438672E+02  0.35109540223E+01 -0.34561449571E+02  0.43400733219E+02  0.00000000000E+00 0.  1.
         11    1    3    3    0    0  0.91084609930E+01  0.54651135647E+01  0.97888864437E+01  0.14444854655E+02  0.51100000000E-03 0. -1.
        -11    1    3    3    0    0  0.12652080483E+02 -0.16680350500E+01  0.95885966696E+01  0.15962414223E+02  0.51100000000E-03 0.  1.
         12    1    3    3    0    0  0.42548971967E+01 -0.73080325370E+01  0.15183966458E+02  0.17379997903E+02  0.00000000000E+00 0. -1.
</event>
<event>
 7    1  0.4430431E-010  0.4778727E+02  0.7816164E-02  0.1312668E+00
        -11   -1    0    0    0    0  0.00000000000E+00  0.00000000000E+00  0.45593999997E+02  0.45594000000E+02  0.51100000000E-03 0.  1.
         11   -1    0    0    0    0 -0.00000000000E+00 -0.00000000000E+00 -0.45593999997E+02  0.45594000000E+02  0.51100000000E-03 0. -1.
    9900012    2    1    2    0    0 -0.73173125071E+01  0.87790571008E+01 -0.41868948513E+02  0.47787265496E+02  0.19999974702E+02 0.  0.
        -12    1    1    2    0    0  0.73173125071E+01 -0.87790571008E+01  0.41868948513E+02  0.43400734504E+02  0.00000000000E+00 0.  1.
         11    1    3    3    0    0 -0.73274261293E+00  0.50110685642E+01 -0.21698985728E+02  0.22282138627E+02  0.51100000000E-03 0. -1.
        -11    1    3    3    0    0  0.42298690303E+01  0.96362088265E+00 -0.44025188933E+01  0.61808195319E+01  0.51100000000E-03 0.  1.
         12    1    3    3    0    0 -0.10814438925E+02  0.28043676540E+01 -0.15767443891E+02  0.19324307337E+02  0.00000000000E+00 0. -1.
</event>
<event>
 7    1  0.4430431E-010  0.4778727E+02  0.7816164E-02  0.1312668E+00
        -11   -1    0    0    0    0  0.00000000000E+00  0.00000000000E+00  0.45593999997E+02  0.45594000000E+02  0.51100000000E-03 0. -1.
         11   -1    0    0    0    0 -0.00000000000E+00 -0.00000000000E+00 -0.45593999997E+02  0.45594000000E+02  0.51100000000E-03 0.  1.
    9900012    2    1    2    0    0  0.16467271274E+02  0.28461460818E+02  0.28326627876E+02  0.47787267035E+02  0.19999981717E+02 0.  0.
        -12    1    1    2    0    0 -0.16467271274E+02 -0.28461460818E+02 -0.28326627876E+02  0.43400732965E+02  0.00000000000E+00 0.  1.
         11    1    3    3    0    0  0.22939930901E+01 -0.85985294534E-01  0.31887375633E+01  0.39291023500E+01  0.51100000000E-03 0. -1.
        -11    1    3    3    0    0  0.14980333120E+02  0.21627400510E+02  0.11849574033E+02  0.28854241252E+02  0.51100000000E-03 0.  1.
        -12    1    3    3    0    0 -0.80705493655E+00  0.69200456030E+01  0.13288316280E+02  0.15003923432E+02  0.00000000000E+00 0.  1.
</event>
<event>
 7    1  0.4430431E-010  0.4778727E+02  0.7816164E-02  0.1312668E+00
        -11   -1    0    0    0    0  0.00000000000E+00  0.00000000000E+00  0.45593999997E+02  0.45594000000E+02  0.51100000000E-03 0.  1.
         11   -1    0    0    0    0 -0.00000000000E+00 -0.00000000000E+00 -0.45593999997E+02  0.45594000000E+02  0.51100000000E-03 0. -1.
    9900012    2    1    2    0    0  0.13590092581E+02  0.23080100396E+02 -0.34150279730E+02  0.47787271247E+02  0.20000000925E+02 0.  0.
        -12    1    1    2    0    0 -0.13590092581E+02 -0.23080100396E+02  0.34150279730E+02  0.43400728753E+02  0.00000000000E+00 0.  1.
         11    1    3    3    0    0  0.25338133838E+01  0.10154126303E+02 -0.19295955653E+02  0.21951318777E+02  0.51100000000E-03 0. -1.
        -11    1    3    3    0    0  0.17189182018E+00  0.95520949447E+01 -0.50653826792E+01  0.10813425294E+02  0.51100000000E-03 0.  1.
        -12    1    3    3    0    0  0.10884387377E+02  0.33738791480E+01 -0.97889413978E+01  0.15022527177E+02  0.00000000000E+00 0.  1.
</event>
<event>
 7    1  0.4430431E-010  0.4778726E+02  0.7816164E-02  0.1312668E+00
        -11   -1    0    0    0    0  0.00000000000E+00  0.00000000000E+00  0.45593999997E+02  0.45594000000E+02  0.51100000000E-03 0. -1.
         11   -1    0    0    0    0 -0.00000000000E+00 -0.00000000000E+00 -0.45593999997E+02  0.45594000000E+02  0.51100000000E-03 0.  1.
    9900012    2    1    2    0    0  0.26210729882E+01  0.53061181337E+01  0.42995336692E+02  0.47787263940E+02  0.19999967608E+02 0.  0.
        -12    1    1    2    0    0 -0.26210729882E+01 -0.53061181337E+01 -0.42995336692E+02  0.43400736060E+02  0.00000000000E+00 0.  1.
         11    1    3    3    0    0 -0.93764090332E+00  0.58291454966E+01  0.85773963535E+01  0.10412964811E+02  0.51100000000E-03 0. -1.
        -11    1    3    3    0    0  0.38250142159E+00  0.10594329855E+01 -0.11617191815E+01  0.16181153563E+01  0.51100000000E-03 0.  1.
        -12    1    3    3    0    0  0.31762124699E+01 -0.15824603484E+01  0.35579659521E+02  0.35756183773E+02  0.00000000000E+00 0.  1.
</event>
<event>
 7    1  0.4430431E-010  0.4778726E+02  0.7816164E-02  0.1312668E+00
        -11   -1    0    0    0    0  0.00000000000E+00  0.00000000000E+00  0.45593999997E+02  0.45594000000E+02  0.51100000000E-03 0. -1.
         11   -1    0    0    0    0 -0.00000000000E+00 -0.00000000000E+00 -0.45593999997E+02  0.45594000000E+02  0.51100000000E-03 0.  1.
    9900012    2    1    2    0    0 -0.29950872288E+00  0.28981894941E+02  0.32304552467E+02  0.47787262104E+02  0.19999959236E+02 0.  0.
        -12    1    1    2    0    0  0.29950872288E+00 -0.28981894941E+02 -0.32304552467E+02  0.43400737896E+02  0.00000000000E+00 0.  1.
         11    1    3    3    0    0  0.28086754297E+01  0.13523607800E+02  0.26935206173E+02  0.30270149611E+02  0.51100000000E-03 0. -1.
        -11    1    3    3    0    0  0.71374229706E-01  0.17012495693E+01 -0.10566093216E+01  0.20039380972E+01  0.51100000000E-03 0.  1.
        -12    1    3    3    0    0 -0.31795583823E+01  0.13757037572E+02  0.64259556149E+01  0.15513174396E+02  0.00000000000E+00 0.  1.
</event>
<event>
 7    1  0.4430431E-010  0.4778727E+02  0.7816164E-02  0.1312668E+00
        -11   -1    0    0    0    0  0.00000000000E+00  0.00000000000E+00  0.45593999997E+02  0.45594000000E+02  0.51100000000E-03 0.  1.
         11   -1    0    0    0    0 -0.00000000000E+00 -0.00000000000E+00 -0.45593999997E+02  0.45594000000E+02  0.51100000000E-03 0. -1.
    9900012    2    1    2    0    0  0.32910590056E+02 -0.13292557338E+02 -0.24976467922E+02  0.47787274565E+02  0.20000016053E+02 0.  0.
        -12    1    1    2    0    0 -0.32910590056E+02  0.13292557338E+02  0.24976467922E+02  0.43400725435E+02  0.00000000000E+00 0.  1.
         11    1    3    3    0    0  0.17571406354E+02 -0.66336923701E+01 -0.11784269789E+02  0.22172713196E+02  0.51100000000E-03 0. -1.
        -11    1    3    3    0    0  0.16325118957E+02 -0.50041510815E+01 -0.15179755937E+02  0.22846794689E+02  0.51100000000E-03 0.  1.
        -12    1    3    3    0    0 -0.98593525558E+00 -0.16547138868E+01  0.19875578037E+01  0.27677666806E+01  0.00000000000E+00 0.  1.
</event>
<event>
 7    1  0.4430431E-010  0.4778726E+02  0.7816164E-02  0.1312668E+00
        -11   -1    0    0    0    0  0.00000000000E+00  0.00000000000E+00  0.45593999997E+02  0.45594000000E+02  0.51100000000E-03 0.  1.
         11   -1    0    0    0    0 -0.00000000000E+00 -0.00000000000E+00 -0.45593999997E+02  0.45594000000E+02  0.51100000000E-03 0. -1.
    9900012    2    1    2    0    0  0.40101236341E+02 -0.10297145181E+02 -0.13018593741E+02  0.47787261090E+02  0.19999954615E+02 0.  0.
        -12    1    1    2    0    0 -0.40101236341E+02  0.10297145181E+02  0.13018593741E+02  0.43400738910E+02  0.00000000000E+00 0.  1.
         11    1    3    3    0    0  0.94606246840E+01 -0.17492502693E+01  0.13726483451E+01  0.97184082882E+01  0.51100000000E-03 0. -1.
        -11    1    3    3    0    0  0.67697418710E+01 -0.67414323894E+01  0.10043219551E+01  0.96065070922E+01  0.51100000000E-03 0.  1.
         12    1    3    3    0    0  0.23870869786E+02 -0.18064625219E+01 -0.15395564041E+02  0.28462345710E+02  0.00000000000E+00 0. -1.
</event>
<event>
 7    1  0.4430431E-010  0.4778726E+02  0.7816164E-02  0.1312668E+00
        -11   -1    0    0    0    0  0.00000000000E+00  0.00000000000E+00  0.45593999997E+02  0.45594000000E+02  0.51100000000E-03 0. -1.
         11   -1    0    0    0    0 -0.00000000000E+00 -0.00000000000E+00 -0.45593999997E+02  0.45594000000E+02  0.51100000000E-03 0.  1.
    9900012    2    1    2    0    0  0.18107923283E+02 -0.26121387051E+02  0.29553348869E+02  0.47787260646E+02  0.19999952591E+02 0.  0.
        -12    1    1    2    0    0 -0.18107923283E+02  0.26121387051E+02 -0.29553348869E+02  0.43400739354E+02  0.00000000000E+00 0.  1.
         11    1    3    3    0    0  0.10150260658E+02 -0.81759138680E+01  0.21028706001E+02  0.24740247278E+02  0.51100000000E-03 0. -1.
        -11    1    3    3    0    0  0.75589880597E+01 -0.10086989835E+02  0.84551504371E+01  0.15178116931E+02  0.51100000000E-03 0.  1.
        -12    1    3    3    0    0  0.39867456524E+00 -0.78584833483E+01  0.69492430347E-01  0.78688964374E+01  0.00000000000E+00 0.  1.
</event>
<event>
 7    1  0.4430431E-010  0.4778727E+02  0.7816164E-02  0.1312668E+00
        -11   -1    0    0    0    0  0.00000000000E+00  0.00000000000E+00  0.45593999997E+02  0.45594000000E+02  0.51100000000E-03 0.  1.
         11   -1    0    0    0    0 -0.00000000000E+00 -0.00000000000E+00 -0.45593999997E+02  0.45594000000E+02  0.51100000000E-03 0. -1.
    9900012    2    1    2    0    0 -0.27164569798E+02 -0.11640916100E+02 -0.31783626236E+02  0.47787266405E+02  0.19999978845E+02 0.  0.
        -12    1    1    2    0    0  0.27164569798E+02  0.11640916100E+02  0.31783626236E+02  0.43400733595E+02  0.00000000000E+00 0.  1.
         11    1    3    3    0    0 -0.62115724882E+01 -0.94700725146E+01 -0.10091453015E+02  0.15169157209E+02  0.51100000000E-03 0. -1.
        -11    1    3    3    0    0  0.15154974338E+01 -0.28074042897E+00 -0.36969160979E+00  0.15849983621E+01  0.51100000000E-03 0.  1.
         12    1    3    3    0    0 -0.22468494743E+02 -0.18901031563E+01 -0.21322481611E+02  0.31033110834E+02  0.00000000000E+00 0. -1.
</event>
<event>
 7    1  0.4430431E-010  0.4778727E+02  0.7816164E-02  0.1312668E+00
        -11   -1    0    0    0    0  0.00000000000E+00  0.00000000000E+00  0.45593999997E+02  0.45594000000E+02  0.51100000000E-03 0. -1.
         11   -1    0    0    0    0 -0.00000000000E+00 -0.00000000000E+00 -0.45593999997E+02  0.45594000000E+02  0.51100000000E-03 0.  1.
    9900012    2    1    2    0    0  0.13869576701E+02 -0.41533077478E+01  0.40914644800E+02  0.47787270949E+02  0.19999999563E+02 0.  0.
        -12    1    1    2    0    0 -0.13869576701E+02  0.41533077478E+01 -0.40914644800E+02  0.43400729051E+02  0.00000000000E+00 0.  1.
         11    1    3    3    0    0  0.42762932132E+01 -0.10915451673E+01  0.19912347790E+02  0.20395581611E+02  0.51100000000E-03 0. -1.
        -11    1    3    3    0    0  0.11114295028E+01  0.33693406915E+01  0.14479384980E+02  0.14907726919E+02  0.51100000000E-03 0.  1.
         12    1    3    3    0    0  0.84818539845E+01 -0.64311032719E+01  0.65229120296E+01  0.12483962418E+02  0.00000000000E+00 0. -1.
</event>
<event>
 7    1  0.4430431E-010  0.4778727E+02  0.7816164E-02  0.1312668E+00
        -11   -1    0    0    0    0  0.00000000000E+00  0.00000000000E+00  0.45593999997E+02  0.45594000000E+02  0.51100000000E-03 0. -1.
         11   -1    0    0    0    0 -0.00000000000E+00 -0.00000000000E+00 -0.45593999997E+02  0.45594000000E+02  0.51100000000E-03 0.  1.
    9900012    2    1    2    0    0  0.25959493294E+01 -0.25084657642E+02  0.35322006307E+02  0.47787272685E+02  0.20000007480E+02 0.  0.
        -12    1    1    2    0    0 -0.25959493294E+01  0.25084657642E+02 -0.35322006307E+02  0.43400727315E+02  0.00000000000E+00 0.  1.
         11    1    3    3    0    0  0.20582859672E+01 -0.94303891667E+01  0.13079344377E+02  0.16255400043E+02  0.51100000000E-03 0. -1.
        -11    1    3    3    0    0  0.24922324107E+00 -0.77169903529E+01  0.22289841188E+02  0.23589215179E+02  0.51100000000E-03 0.  1.
        -12    1    3    3    0    0  0.28844012109E+00 -0.79372781223E+01 -0.47179258019E-01  0.79426574631E+01  0.00000000000E+00 0.  1.
</event>
<event>
 7    1  0.4430431E-010  0.4778727E+02  0.7816164E-02  0.1312668E+00
        -11   -1    0    0    0    0  0.00000000000E+00  0.00000000000E+00  0.45593999997E+02  0.45594000000E+02  0.51100000000E-03 0. -1.
         11   -1    0    0    0    0 -0.00000000000E+00 -0.00000000000E+00 -0.45593999997E+02  0.45594000000E+02  0.51100000000E-03 0.  1.
    9900012    2    1    2    0    0 -0.43370454739E+02 -0.35928233861E+00  0.15805593814E+01  0.47787267333E+02  0.19999983079E+02 0.  0.
        -12    1    1    2    0    0  0.43370454739E+02  0.35928233861E+00 -0.15805593814E+01  0.43400732667E+02  0.00000000000E+00 0.  1.
         11    1    3    3    0    0 -0.36168083726E+02 -0.37727020953E+01  0.56522195115E+01  0.36800966660E+02  0.51100000000E-03 0. -1.
        -11    1    3    3    0    0 -0.18301979239E-01 -0.12298709387E+01  0.45123731049E+00  0.13101652032E+01  0.51100000000E-03 0.  1.
        -12    1    3    3    0    0 -0.71840690340E+01  0.46432906953E+01 -0.45228974406E+01  0.96761354696E+01  0.00000000000E+00 0.  1.
</event>
<event>
 7    1  0.4430431E-010  0.4778727E+02  0.7816164E-02  0.1312668E+00
        -11   -1    0    0    0    0  0.00000000000E+00  0.00000000000E+00  0.45593999997E+02  0.45594000000E+02  0.51100000000E-03 0.  1.
         11   -1    0    0    0    0 -0.00000000000E+00 -0.00000000000E+00 -0.45593999997E+02  0.45594000000E+02  0.51100000000E-03 0. -1.
    9900012    2    1    2    0    0 -0.38460345490E+01  0.43126830481E+02  0.29845751949E+01  0.47787272146E+02  0.20000005024E+02 0.  0.
        -12    1    1    2    0    0  0.38460345490E+01 -0.43126830481E+02 -0.29845751949E+01  0.43400727854E+02  0.00000000000E+00 0.  1.
         11    1    3    3    0    0 -0.27962097511E+01  0.18243660295E+01  0.22956713477E+01  0.40518153437E+01  0.51100000000E-03 0. -1.
        -11    1    3    3    0    0  0.26303976089E+01  0.57611026507E+01 -0.43034930693E+01  0.76569803572E+01  0.51100000000E-03 0.  1.
         12    1    3    3    0    0 -0.36802224068E+01  0.35541361801E+02  0.49923969165E+01  0.36078476445E+02  0.00000000000E+00 0. -1.
</event>
<event>
 7    1  0.4430431E-010  0.4778727E+02  0.7816164E-02  0.1312668E+00
        -11   -1    0    0    0    0  0.00000000000E+00  0.00000000000E+00  0.45593999997E+02  0.45594000000E+02  0.51100000000E-03 0. -1.
         11   -1    0    0    0    0 -0.00000000000E+00 -0.00000000000E+00 -0.45593999997E+02  0.45594000000E+02  0.51100000000E-03 0.  1.
    9900012    2    1    2    0    0  0.59311580313E+01  0.97532596687E+00  0.42982478399E+02  0.47787270218E+02  0.19999996230E+02 0.  0.
        -12    1    1    2    0    0 -0.59311580313E+01 -0.97532596687E+00 -0.42982478399E+02  0.43400729782E+02  0.00000000000E+00 0.  1.
         11    1    3    3    0    0  0.58901309841E+01 -0.18675795397E+01  0.98046762173E+01  0.11589355993E+02  0.51100000000E-03 0. -1.
        -11    1    3    3    0    0  0.39477739966E+01 -0.23873987303E+01  0.26351956927E+02  0.26752761098E+02  0.51100000000E-03 0.  1.
        -12    1    3    3    0    0 -0.39067469494E+01  0.52303042369E+01  0.68258452543E+01  0.94451531260E+01  0.00000000000E+00 0.  1.
</event>
<event>
 7    1  0.4430431E-010  0.4778727E+02  0.7816164E-02  0.1312668E+00
        -11   -1    0    0    0    0  0.00000000000E+00  0.00000000000E+00  0.45593999997E+02  0.45594000000E+02  0.51100000000E-03 0.  1.
         11   -1    0    0    0    0 -0.00000000000E+00 -0.00000000000E+00 -0.45593999997E+02  0.45594000000E+02  0.51100000000E-03 0. -1.
    9900012    2    1    2    0    0  0.37503415377E+02  0.19402413580E+02  0.10033105525E+02  0.47787273922E+02  0.20000013118E+02 0.  0.
        -12    1    1    2    0    0 -0.37503415377E+02 -0.19402413580E+02 -0.10033105525E+02  0.43400726078E+02  0.00000000000E+00 0.  1.
         11    1    3    3    0    0  0.56445247119E+01  0.38032097673E+01 -0.52505348375E+01  0.85961142442E+01  0.51100000000E-03 0. -1.
        -11    1    3    3    0    0  0.20142427657E+02  0.69335921883E+01  0.11146662509E+02  0.24042466136E+02  0.51100000000E-03 0.  1.
         12    1    3    3    0    0  0.11716463008E+02  0.86656116247E+01  0.41369778535E+01  0.15148693541E+02  0.00000000000E+00 0. -1.
</event>
<event>
 7    1  0.4430431E-010  0.4778728E+02  0.7816164E-02  0.1312668E+00
        -11   -1    0    0    0    0  0.00000000000E+00  0.00000000000E+00  0.45593999997E+02  0.45594000000E+02  0.51100000000E-03 0.  1.
         11   -1    0    0    0    0 -0.00000000000E+00 -0.00000000000E+00 -0.45593999997E+02  0.45594000000E+02  0.51100000000E-03 0. -1.
    9900012    2    1    2    0    0 -0.35796827257E+01  0.40112205482E+02 -0.16180835733E+02  0.47787278784E+02  0.20000035290E+02 0.  0.
        -12    1    1    2    0    0  0.35796827257E+01 -0.40112205482E+02  0.16180835733E+02  0.43400721216E+02  0.00000000000E+00 0.  1.
         11    1    3    3    0    0 -0.32354920823E+01  0.17772685728E+02 -0.12154473322E+02  0.21773102420E+02  0.51100000000E-03 0. -1.
        -11    1    3    3    0    0 -0.20115424921E+01 -0.10377759293E+01 -0.40283507149E+00  0.22990342392E+01  0.51100000000E-03 0.  1.
        -12    1    3    3    0    0  0.16673518488E+01  0.23377295683E+02 -0.36235273395E+01  0.23715142125E+02  0.00000000000E+00 0.  1.
</event>
<event>
 7    1  0.4430431E-010  0.4778727E+02  0.7816164E-02  0.1312668E+00
        -11   -1    0    0    0    0  0.00000000000E+00  0.00000000000E+00  0.45593999997E+02  0.45594000000E+02  0.51100000000E-03 0. -1.
         11   -1    0    0    0    0 -0.00000000000E+00 -0.00000000000E+00 -0.45593999997E+02  0.45594000000E+02  0.51100000000E-03 0.  1.
    9900012    2    1    2    0    0  0.42198715861E+02  0.80019765103E+01 -0.62337725176E+01  0.47787272262E+02  0.20000005552E+02 0.  0.
        -12    1    1    2    0    0 -0.42198715861E+02 -0.80019765103E+01  0.62337725176E+01  0.43400727738E+02  0.00000000000E+00 0.  1.
         11    1    3    3    0    0  0.10676914415E+02  0.43431531178E+01 -0.45820353352E+01  0.12403811048E+02  0.51100000000E-03 0. -1.
        -11    1    3    3    0    0  0.11253392308E+02  0.88828747536E+01 -0.18206863758E+01  0.14451961855E+02  0.51100000000E-03 0.  1.
         12    1    3    3    0    0  0.20268409137E+02 -0.52240513611E+01  0.16894919333E+00  0.20931499359E+02  0.00000000000E+00 0. -1.
</event>
<event>
 7    1  0.4430431E-010  0.4778728E+02  0.7816164E-02  0.1312668E+00
        -11   -1    0    0    0    0  0.00000000000E+00  0.00000000000E+00  0.45593999997E+02  0.45594000000E+02  0.51100000000E-03 0.  1.
         11   -1    0    0    0    0 -0.00000000000E+00 -0.00000000000E+00 -0.45593999997E+02  0.45594000000E+02  0.51100000000E-03 0. -1.
    9900012    2    1    2    0    0 -0.28708572408E+01 -0.28283127211E+02 -0.32793990018E+02  0.47787275496E+02  0.20000020297E+02 0.  0.
        -12    1    1    2    0    0  0.28708572408E+01  0.28283127211E+02  0.32793990018E+02  0.43400724504E+02  0.00000000000E+00 0.  1.
         11    1    3    3    0    0 -0.69551055370E+01 -0.90135630169E+01 -0.33701929547E+01  0.11873331971E+02  0.51100000000E-03 0. -1.
        -11    1    3    3    0    0  0.23877302858E+01 -0.26796500788E+01 -0.30496515314E+01  0.47097935397E+01  0.51100000000E-03 0.  1.
         12    1    3    3    0    0  0.16965180103E+01 -0.16589914116E+02 -0.26374145532E+02  0.31204149985E+02  0.00000000000E+00 0. -1.
</event>
<event>
 7    1  0.4430431E-010  0.4778727E+02  0.7816164E-02  0.1312668E+00
        -11   -1    0    0    0    0  0.00000000000E+00  0.00000000000E+00  0.45593999997E+02  0.45594000000E+02  0.51100000000E-03 0.  1.
         11   -1    0    0    0    0 -0.00000000000E+00 -0.00000000000E+00 -0.45593999997E+02  0.45594000000E+02  0.51100000000E-03 0. -1.
    9900012    2    1    2    0    0 -0.40935447558E+02 -0.34717479184E+01 -0.13994968422E+02  0.47787273722E+02  0.20000012207E+02 0.  0.
        -12    1    1    2    0    0  0.40935447558E+02  0.34717479184E+01  0.13994968422E+02  0.43400726278E+02  0.00000000000E+00 0.  1.
         11    1    3    3    0    0 -0.48424732754E+01 -0.12378759487E+01  0.11276426839E+01  0.51238132842E+01  0.51100000000E-03 0. -1.
        -11    1    3    3    0    0 -0.59609809216E+01 -0.62772337544E+00  0.37523495444E+01  0.70715951205E+01  0.51100000000E-03 0.  1.
         12    1    3    3    0    0 -0.30131993361E+02 -0.16061485943E+01 -0.18874960651E+02  0.35591865317E+02  0.00000000000E+00 0. -1.
</event>
<event>
 7    1  0.4430431E-010  0.4778728E+02  0.7816164E-02  0.1312668E+00
        -11   -1    0    0    0    0  0.00000000000E+00  0.00000000000E+00  0.45593999997E+02  0.45594000000E+02  0.51100000000E-03 0.  1.
         11   -1    0    0    0    0 -0.00000000000E+00 -0.00000000000E+00 -0.45593999997E+02  0.45594000000E+02  0.51100000000E-03 0. -1.
    9900012    2    1    2    0    0 -0.43266157873E+02 -0.24555227218E+01 -0.23733586256E+01  0.47787276042E+02  0.20000022786E+02 0.  0.
        -12    1    1    2    0    0  0.43266157873E+02  0.24555227218E+01  0.23733586256E+01  0.43400723958E+02  0.00000000000E+00 0.  1.
         11    1    3    3    0    0 -0.21392516048E+02  0.52127501963E+01 -0.59410952847E+01  0.22805901011E+02  0.51100000000E-03 0. -1.
        -11    1    3    3    0    0 -0.10136644084E+02  0.90362655440E+00  0.18913795869E+01  0.10351106764E+02  0.51100000000E-03 0.  1.
        -12    1    3    3    0    0 -0.11736997740E+02 -0.85718994726E+01  0.16763570722E+01  0.14630268267E+02  0.00000000000E+00 0.  1.
</event>
<event>
 7    1  0.4430431E-010  0.4778725E+02  0.7816164E-02  0.1312668E+00
        -11   -1    0    0    0    0  0.00000000000E+00  0.00000000000E+00  0.45593999997E+02  0.45594000000E+02  0.51100000000E-03 0.  1.
         11   -1    0    0    0    0 -0.00000000000E+00 -0.00000000000E+00 -0.45593999997E+02  0.45594000000E+02  0.51100000000E-03 0. -1.
    9900012    2    1    2    0    0  0.33531731216E+02  0.26466138120E+02 -0.76675554468E+01  0.47787252635E+02  0.19999916064E+02 0.  0.
        -12    1    1    2    0    0 -0.33531731216E+02 -0.26466138120E+02  0.76675554468E+01  0.43400747365E+02  0.00000000000E+00 0.  1.
         11    1    3    3    0    0  0.14400045818E+02  0.16575944550E+02 -0.90794493091E+01  0.23760464164E+02  0.51100000000E-03 0. -1.
        -11    1    3    3    0    0  0.36004501479E+01  0.73541004382E+01 -0.32288000958E+00  0.81945278255E+01  0.51100000000E-03 0.  1.
        -12    1    3    3    0    0  0.15531235250E+02  0.25360931318E+01  0.17347738718E+01  0.15832260645E+02  0.00000000000E+00 0.  1.
</event>
<event>
 7    1  0.4430431E-010  0.4778727E+02  0.7816164E-02  0.1312668E+00
        -11   -1    0    0    0    0  0.00000000000E+00  0.00000000000E+00  0.45593999997E+02  0.45594000000E+02  0.51100000000E-03 0.  1.
         11   -1    0    0    0    0 -0.00000000000E+00 -0.00000000000E+00 -0.45593999997E+02  0.45594000000E+02  0.51100000000E-03 0. -1.
    9900012    2    1    2    0    0 -0.14503788361E+02  0.35538462215E+02 -0.20255395654E+02  0.47787271590E+02  0.20000002486E+02 0.  0.
        -12    1    1    2    0    0  0.14503788361E+02 -0.35538462215E+02  0.20255395654E+02  0.43400728410E+02  0.00000000000E+00 0.  1.
         11    1    3    3    0    0 -0.18342449039E+01  0.11916224794E+02 -0.43245949134E+01  0.12808707551E+02  0.51100000000E-03 0. -1.
        -11    1    3    3    0    0  0.28657916298E+01  0.48193131337E+00 -0.63130682339E-01  0.29067172550E+01  0.51100000000E-03 0.  1.
         12    1    3    3    0    0 -0.15535335086E+02  0.23140306108E+02 -0.15867670058E+02  0.32071846784E+02  0.00000000000E+00 0. -1.
</event>
<event>
 7    1  0.4430431E-010  0.4778728E+02  0.7816164E-02  0.1312668E+00
        -11   -1    0    0    0    0  0.00000000000E+00  0.00000000000E+00  0.45593999997E+02  0.45594000000E+02  0.51100000000E-03 0.  1.
         11   -1    0    0    0    0 -0.00000000000E+00 -0.00000000000E+00 -0.45593999997E+02  0.45594000000E+02  0.51100000000E-03 0. -1.
    9900012    2    1    2    0    0 -0.41141669280E+02  0.90004806579E+01  0.10486975198E+02  0.47787282816E+02  0.20000053673E+02 0.  0.
        -12    1    1    2    0    0  0.41141669280E+02 -0.90004806579E+01 -0.10486975198E+02  0.43400717184E+02  0.00000000000E+00 0.  1.
         11    1    3    3    0    0 -0.14009120582E+02  0.28237585350E+01  0.77102231012E+01  0.16238122190E+02  0.51100000000E-03 0. -1.
        -11    1    3    3    0    0 -0.19005101581E+02 -0.17254745785E+01  0.55599050091E+01  0.19876712318E+02  0.51100000000E-03 0.  1.
         12    1    3    3    0    0 -0.81274471182E+01  0.79021967014E+01 -0.27831529122E+01  0.11672448308E+02  0.00000000000E+00 0. -1.
</event>
<event>
 7    1  0.4430431E-010  0.4778726E+02  0.7816164E-02  0.1312668E+00
        -11   -1    0    0    0    0  0.00000000000E+00  0.00000000000E+00  0.45593999997E+02  0.45594000000E+02  0.51100000000E-03 0.  1.
         11   -1    0    0    0    0 -0.00000000000E+00 -0.00000000000E+00 -0.45593999997E+02  0.45594000000E+02  0.51100000000E-03 0. -1.
    9900012    2    1    2    0    0 -0.36017284885E+02 -0.24160649880E+02  0.16255355947E+01  0.47787260616E+02  0.19999952453E+02 0.  0.
        -12    1    1    2    0    0  0.36017284885E+02  0.24160649880E+02 -0.16255355947E+01  0.43400739384E+02  0.00000000000E+00 0.  1.
         11    1    3    3    0    0 -0.10906226459E+02 -0.12593644026E+02  0.68290201048E+01  0.18005031555E+02  0.51100000000E-03 0. -1.
        -11    1    3    3    0    0 -0.58997046096E+01  0.14801014168E+00  0.18772536888E+01  0.61929397830E+01  0.51100000000E-03 0.  1.
         12    1    3    3    0    0 -0.19211353816E+02 -0.11715015995E+02 -0.70807381988E+01  0.23589289278E+02  0.00000000000E+00 0. -1.
</event>
<event>
 7    1  0.4430431E-010  0.4778728E+02  0.7816164E-02  0.1312668E+00
        -11   -1    0    0    0    0  0.00000000000E+00  0.00000000000E+00  0.45593999997E+02  0.45594000000E+02  0.51100000000E-03 0.  1.
         11   -1    0    0    0    0 -0.00000000000E+00 -0.00000000000E+00 -0.45593999997E+02  0.45594000000E+02  0.51100000000E-03 0. -1.
    9900012    2    1    2    0    0 -0.24175284933E+02 -0.33404593425E+02 -0.13539263537E+02  0.47787275114E+02  0.20000018556E+02 0.  0.
        -12    1    1    2    0    0  0.24175284933E+02  0.33404593425E+02  0.13539263537E+02  0.43400724886E+02  0.00000000000E+00 0.  1.
         11    1    3    3    0    0 -0.24544446026E+01 -0.54854616659E+01 -0.27397800715E+01  0.66046183158E+01  0.51100000000E-03 0. -1.
        -11    1    3    3    0    0 -0.20728544602E+02 -0.12756356541E+02 -0.45929589677E+01  0.24768780064E+02  0.51100000000E-03 0.  1.
        -12    1    3    3    0    0 -0.99229572865E+00 -0.15162775217E+02 -0.62065244982E+01  0.16413876734E+02  0.00000000000E+00 0.  1.
</event>
<event>
 7    1  0.4430431E-010  0.4778727E+02  0.7816164E-02  0.1312668E+00
        -11   -1    0    0    0    0  0.00000000000E+00  0.00000000000E+00  0.45593999997E+02  0.45594000000E+02  0.51100000000E-03 0.  1.
         11   -1    0    0    0    0 -0.00000000000E+00 -0.00000000000E+00 -0.45593999997E+02  0.45594000000E+02  0.51100000000E-03 0. -1.
    9900012    2    1    2    0    0  0.21354491125E+02  0.35043514908E+02 -0.14126597223E+02  0.47787274460E+02  0.20000015571E+02 0.  0.
        -12    1    1    2    0    0 -0.21354491125E+02 -0.35043514908E+02  0.14126597223E+02  0.43400725540E+02  0.00000000000E+00 0.  1.
         11    1    3    3    0    0 -0.16450887106E+01  0.10845480121E+01 -0.48657914552E+01  0.52496178912E+01  0.51100000000E-03 0. -1.
        -11    1    3    3    0    0  0.36503425966E+01  0.52720624653E+01 -0.39462096564E+01  0.75294232597E+01  0.51100000000E-03 0.  1.
        -12    1    3    3    0    0  0.19349237239E+02  0.28686904431E+02 -0.53145961109E+01  0.35008233309E+02  0.00000000000E+00 0.  1.
</event>
<event>
 7    1  0.4430431E-010  0.4778727E+02  0.7816164E-02  0.1312668E+00
        -11   -1    0    0    0    0  0.00000000000E+00  0.00000000000E+00  0.45593999997E+02  0.45594000000E+02  0.51100000000E-03 0. -1.
         11   -1    0    0    0    0 -0.00000000000E+00 -0.00000000000E+00 -0.45593999997E+02  0.45594000000E+02  0.51100000000E-03 0.  1.
    9900012    2    1    2    0    0  0.31594336718E+02 -0.77204947884E+01  0.28736998274E+02  0.47787271639E+02  0.20000002711E+02 0.  0.
        -12    1    1    2    0    0 -0.31594336718E+02  0.77204947884E+01 -0.28736998274E+02  0.43400728361E+02  0.00000000000E+00 0.  1.
         11    1    3    3    0    0  0.41132161004E+01 -0.49972275131E+01  0.93699209606E+01  0.11387987029E+02  0.51100000000E-03 0. -1.
        -11    1    3    3    0    0  0.12850211684E+02 -0.53867501824E+01  0.29395679204E+01  0.14240297668E+02  0.51100000000E-03 0.  1.
        -12    1    3    3    0    0  0.14630908934E+02  0.26634829071E+01  0.16427509393E+02  0.22158986942E+02  0.00000000000E+00 0.  1.
</event>
<event>
 7    1  0.4430431E-010  0.4778728E+02  0.7816164E-02  0.1312668E+00
        -11   -1    0    0    0    0  0.00000000000E+00  0.00000000000E+00  0.45593999997E+02  0.45594000000E+02  0.51100000000E-03 0. -1.
         11   -1    0    0    0    0 -0.00000000000E+00 -0.00000000000E+00 -0.45593999997E+02  0.45594000000E+02  0.51100000000E-03 0.  1.
    9900012    2    1    2    0    0  0.47587780812E+01  0.12522896975E+02  0.41281399557E+02  0.47787275734E+02  0.20000021380E+02 0.  0.
        -12    1    1    2    0    0 -0.47587780812E+01 -0.12522896975E+02 -0.41281399557E+02  0.43400724266E+02  0.00000000000E+00 0.  1.
         11    1    3    3    0    0 -0.88819931357E+00 -0.28815723459E+01  0.45863323441E+00  0.30500330998E+01  0.51100000000E-03 0. -1.
        -11    1    3    3    0    0 -0.60518029595E+00 -0.67228457461E+00  0.35986007849E+01  0.37105441124E+01  0.51100000000E-03 0.  1.
         12    1    3    3    0    0  0.62521576907E+01  0.16076753895E+02  0.37224165538E+02  0.41026698521E+02  0.00000000000E+00 0. -1.
</event>
<event>
 7    1  0.4430431E-010  0.4778727E+02  0.7816164E-02  0.1312668E+00
        -11   -1    0    0    0    0  0.00000000000E+00  0.00000000000E+00  0.45593999997E+02  0.45594000000E+02  0.51100000000E-03 0. -1.
         11   -1    0    0    0    0 -0.00000000000E+00 -0.00000000000E+00 -0.45593999997E+02  0.45594000000E+02  0.51100000000E-03 0.  1.
    9900012    2    1    2    0    0  0.41439692586E+02 -0.12806689276E+02  0.15376172770E+01  0.47787266381E+02  0.19999978735E+02 0.  0.
        -12    1    1    2    0    0 -0.41439692586E+02  0.12806689276E+02 -0.15376172770E+01  0.43400733619E+02  0.00000000000E+00 0.  1.
         11    1    3    3    0    0  0.98708455025E+01 -0.94608316982E+01 -0.49379368155E+01  0.14536992385E+02  0.51100000000E-03 0. -1.
        -11    1    3    3    0    0  0.11377699265E+01  0.10626027462E+01  0.13835801910E+01  0.20827720490E+01  0.51100000000E-03 0.  1.
         12    1    3    3    0    0  0.30431077157E+02 -0.44084603237E+01  0.50919739015E+01  0.31167501946E+02  0.00000000000E+00 0. -1.
</event>
<event>
 7    1  0.4430431E-010  0.4778728E+02  0.7816164E-02  0.1312668E+00
        -11   -1    0    0    0    0  0.00000000000E+00  0.00000000000E+00  0.45593999997E+02  0.45594000000E+02  0.51100000000E-03 0.  1.
         11   -1    0    0    0    0 -0.00000000000E+00 -0.00000000000E+00 -0.45593999997E+02  0.45594000000E+02  0.51100000000E-03 0. -1.
    9900012    2    1    2    0    0  0.25263279055E+02 -0.58079774504E+01 -0.34808852505E+02  0.47787284759E+02  0.20000062532E+02 0.  0.
        -12    1    1    2    0    0 -0.25263279055E+02  0.58079774504E+01  0.34808852505E+02  0.43400715241E+02  0.00000000000E+00 0.  1.
         11    1    3    3    0    0  0.22502058489E+01 -0.29990736013E+01 -0.50674806711E+01  0.63037472539E+01  0.51100000000E-03 0. -1.
        -11    1    3    3    0    0  0.19764322991E+02 -0.32315838744E+01 -0.11798108572E+02  0.23243643513E+02  0.51100000000E-03 0.  1.
         12    1    3    3    0    0  0.32487502151E+01  0.42268002519E+00 -0.17943263262E+02  0.18239893992E+02  0.00000000000E+00 0. -1.
</event>
<event>
 7    1  0.4430431E-010  0.4778727E+02  0.7816164E-02  0.1312668E+00
        -11   -1    0    0    0    0  0.00000000000E+00  0.00000000000E+00  0.45593999997E+02  0.45594000000E+02  0.51100000000E-03 0.  1.
         11   -1    0    0    0    0 -0.00000000000E+00 -0.00000000000E+00 -0.45593999997E+02  0.45594000000E+02  0.51100000000E-03 0. -1.
    9900012    2    1    2    0    0  0.72309426711E+01  0.46793047724E+01 -0.42537525979E+02  0.47787267962E+02  0.19999985945E+02 0.  0.
        -12    1    1    2    0    0 -0.72309426711E+01 -0.46793047724E+01  0.42537525979E+02  0.43400732038E+02  0.00000000000E+00 0.  1.
         11    1    3    3    0    0 -0.18620487124E+01  0.29979567246E+01 -0.16871025581E+02  0.17236196632E+02  0.51100000000E-03 0. -1.
        -11    1    3    3    0    0 -0.20560695841E+01  0.20471890694E+00  0.45117002348E+00  0.21149200024E+01  0.51100000000E-03 0.  1.
        -12    1    3    3    0    0  0.11149060968E+02  0.14766291408E+01 -0.26117670421E+02  0.28436151327E+02  0.00000000000E+00 0.  1.
</event>
<event>
 7    1  0.4430431E-010  0.4778727E+02  0.7816164E-02  0.1312668E+00
        -11   -1    0    0    0    0  0.00000000000E+00  0.00000000000E+00  0.45593999997E+02  0.45594000000E+02  0.51100000000E-03 0.  1.
         11   -1    0    0    0    0 -0.00000000000E+00 -0.00000000000E+00 -0.45593999997E+02  0.45594000000E+02  0.51100000000E-03 0. -1.
    9900012    2    1    2    0    0  0.22667521168E+02  0.36364085267E+02 -0.68891305858E+01  0.47787270358E+02  0.19999996872E+02 0.  0.
        -12    1    1    2    0    0 -0.22667521168E+02 -0.36364085267E+02  0.68891305858E+01  0.43400729642E+02  0.00000000000E+00 0.  1.
         11    1    3    3    0    0  0.15471314802E+02  0.31512925434E+02 -0.52986116283E+01  0.35503539775E+02  0.51100000000E-03 0. -1.
        -11    1    3    3    0    0  0.73573030612E+01  0.68701134783E+01 -0.76051341822E+00  0.10094887243E+02  0.51100000000E-03 0.  1.
        -12    1    3    3    0    0 -0.16109669436E+00 -0.20189536461E+01 -0.83000553930E+00  0.21888433396E+01  0.00000000000E+00 0.  1.
</event>
<event>
 7    1  0.4430431E-010  0.4778726E+02  0.7816164E-02  0.1312668E+00
        -11   -1    0    0    0    0  0.00000000000E+00  0.00000000000E+00  0.45593999997E+02  0.45594000000E+02  0.51100000000E-03 0.  1.
         11   -1    0    0    0    0 -0.00000000000E+00 -0.00000000000E+00 -0.45593999997E+02  0.45594000000E+02  0.51100000000E-03 0. -1.
    9900012    2    1    2    0    0 -0.96943779071E+01  0.57251795078E+01 -0.41914980329E+02  0.47787260151E+02  0.19999950333E+02 0.  0.
        -12    1    1    2    0    0  0.96943779071E+01 -0.57251795078E+01  0.41914980329E+02  0.43400739849E+02  0.00000000000E+00 0.  1.
         11    1    3    3    0    0 -0.57431223801E+01  0.32772652660E+01 -0.11329128146E+02  0.13117662410E+02  0.51100000000E-03 0. -1.
        -11    1    3    3    0    0  0.26921422552E+01  0.17187754497E+01  0.16750197798E+00  0.31984177561E+01  0.51100000000E-03 0.  1.
         12    1    3    3    0    0 -0.66433977822E+01  0.72913879206E+00 -0.30753354162E+02  0.31471179985E+02  0.00000000000E+00 0. -1.
</event>
<event>
 7    1  0.4430431E-010  0.4778727E+02  0.7816164E-02  0.1312668E+00
        -11   -1    0    0    0    0  0.00000000000E+00  0.00000000000E+00  0.45593999997E+02  0.45594000000E+02  0.51100000000E-03 0. -1.
         11   -1    0    0    0    0 -0.00000000000E+00 -0.00000000000E+00 -0.45593999997E+02  0.45594000000E+02  0.51100000000E-03 0.  1.
    9900012    2    1    2    0    0  0.72168472403E+01  0.37966983647E+02 -0.19749645851E+02  0.47787271405E+02  0.20000001643E+02 0.  0.
        -12    1    1    2    0    0 -0.72168472403E+01 -0.37966983647E+02  0.19749645851E+02  0.43400728595E+02  0.00000000000E+00 0.  1.
         11    1    3    3    0    0 -0.19165546654E+00  0.13933685106E+02 -0.10279715125E+02  0.17316375364E+02  0.51100000000E-03 0. -1.
        -11    1    3    3    0    0  0.17857013752E+01  0.14912301518E+01 -0.66772040844E+01  0.70708946685E+01  0.51100000000E-03 0.  1.
         12    1    3    3    0    0  0.56228013317E+01  0.22542068390E+02 -0.27927266412E+01  0.23400001372E+02  0.00000000000E+00 0. -1.
</event>
<event>
 7    1  0.4430431E-010  0.4778727E+02  0.7816164E-02  0.1312668E+00
        -11   -1    0    0    0    0  0.00000000000E+00  0.00000000000E+00  0.45593999997E+02  0.45594000000E+02  0.51100000000E-03 0. -1.
         11   -1    0    0    0    0 -0.00000000000E+00 -0.00000000000E+00 -0.45593999997E+02  0.45594000000E+02  0.51100000000E-03 0.  1.
    9900012    2    1    2    0    0 -0.13715650861E+02  0.29389200408E+02  0.28840579357E+02  0.47787271933E+02  0.20000004049E+02 0.  0.
        -12    1    1    2    0    0  0.13715650861E+02 -0.29389200408E+02 -0.28840579357E+02  0.43400728067E+02  0.00000000000E+00 0.  1.
         11    1    3    3    0    0 -0.77749984375E+01  0.81297393840E+01  0.55567145161E+01  0.12546726251E+02  0.51100000000E-03 0.  1.
        -11    1    3    3    0    0 -0.93868328296E+01  0.85400905275E+01  0.77488366462E+01  0.14869103753E+02  0.51100000000E-03 0. -1.
         12    1    3    3    0    0  0.34461804064E+01  0.12719370496E+02  0.15535028195E+02  0.20371441928E+02  0.00000000000E+00 0. -1.
</event>
<event>
 7    1  0.4430431E-010  0.4778728E+02  0.7816164E-02  0.1312668E+00
        -11   -1    0    0    0    0  0.00000000000E+00  0.00000000000E+00  0.45593999997E+02  0.45594000000E+02  0.51100000000E-03 0. -1.
         11   -1    0    0    0    0 -0.00000000000E+00 -0.00000000000E+00 -0.45593999997E+02  0.45594000000E+02  0.51100000000E-03 0.  1.
    9900012    2    1    2    0    0  0.28202138346E+02 -0.32808259810E+02  0.34467376526E+01  0.47787279736E+02  0.20000039627E+02 0.  0.
        -12    1    1    2    0    0 -0.28202138346E+02  0.32808259810E+02 -0.34467376526E+01  0.43400720264E+02  0.00000000000E+00 0.  1.
         11    1    3    3    0    0  0.13636587337E+02 -0.16861710365E+02  0.56015366353E+01  0.22397566911E+02  0.51100000000E-03 0. -1.
        -11    1    3    3    0    0  0.15946516391E+01 -0.11424846984E+02 -0.40985821239E+00  0.11542877738E+02  0.51100000000E-03 0.  1.
         12    1    3    3    0    0  0.12970899370E+02 -0.45217024607E+01 -0.17449407704E+01  0.13846835086E+02  0.00000000000E+00 0. -1.
</event>
<event>
 7    1  0.4430431E-010  0.4778727E+02  0.7816164E-02  0.1312668E+00
        -11   -1    0    0    0    0  0.00000000000E+00  0.00000000000E+00  0.45593999997E+02  0.45594000000E+02  0.51100000000E-03 0.  1.
         11   -1    0    0    0    0 -0.00000000000E+00 -0.00000000000E+00 -0.45593999997E+02  0.45594000000E+02  0.51100000000E-03 0. -1.
    9900012    2    1    2    0    0 -0.24275982831E+02  0.18042980899E+02 -0.31124767987E+02  0.47787266315E+02  0.19999978437E+02 0.  0.
        -12    1    1    2    0    0  0.24275982831E+02 -0.18042980899E+02  0.31124767987E+02  0.43400733685E+02  0.00000000000E+00 0.  1.
         11    1    3    3    0    0 -0.14755620059E+02  0.76128169348E+01 -0.27475965593E+02  0.32103146116E+02  0.51100000000E-03 0. -1.
        -11    1    3    3    0    0 -0.31476136065E+01  0.57147315408E+01 -0.41639518953E+01  0.77397754261E+01  0.51100000000E-03 0.  1.
         12    1    3    3    0    0 -0.63727491651E+01  0.47154324238E+01  0.51514950123E+00  0.79443447731E+01  0.00000000000E+00 0. -1.
</event>
<event>
 7    1  0.4430431E-010  0.4778727E+02  0.7816164E-02  0.1312668E+00
        -11   -1    0    0    0    0  0.00000000000E+00  0.00000000000E+00  0.45593999997E+02  0.45594000000E+02  0.51100000000E-03 0. -1.
         11   -1    0    0    0    0 -0.00000000000E+00 -0.00000000000E+00 -0.45593999997E+02  0.45594000000E+02  0.51100000000E-03 0.  1.
    9900012    2    1    2    0    0  0.21817223660E+02  0.13801963142E+02  0.34887503078E+02  0.47787270677E+02  0.19999998323E+02 0.  0.
        -12    1    1    2    0    0 -0.21817223660E+02 -0.13801963142E+02 -0.34887503078E+02  0.43400729323E+02  0.00000000000E+00 0.  1.
         11    1    3    3    0    0  0.19677799122E+01 -0.10005719643E+01  0.79816138544E+01  0.82812717635E+01  0.51100000000E-03 0. -1.
        -11    1    3    3    0    0 -0.20415278818E+00  0.67477561161E+01  0.10012931988E+02  0.12076120992E+02  0.51100000000E-03 0.  1.
         12    1    3    3    0    0  0.20053596536E+02  0.80547789901E+01  0.16892957236E+02  0.27429877921E+02  0.00000000000E+00 0. -1.
</event>
<event>
 7    1  0.4430431E-010  0.4778727E+02  0.7816164E-02  0.1312668E+00
        -11   -1    0    0    0    0  0.00000000000E+00  0.00000000000E+00  0.45593999997E+02  0.45594000000E+02  0.51100000000E-03 0.  1.
         11   -1    0    0    0    0 -0.00000000000E+00 -0.00000000000E+00 -0.45593999997E+02  0.45594000000E+02  0.51100000000E-03 0. -1.
    9900012    2    1    2    0    0 -0.33017259430E+02  0.18331913690E+02 -0.21387487127E+02  0.47787273216E+02  0.20000009902E+02 0.  0.
        -12    1    1    2    0    0  0.33017259430E+02 -0.18331913690E+02  0.21387487127E+02  0.43400726784E+02  0.00000000000E+00 0.  1.
         11    1    3    3    0    0 -0.15287750635E+02  0.12226537274E+02 -0.13667277351E+02  0.23874630963E+02  0.51100000000E-03 0. -1.
        -11    1    3    3    0    0 -0.15919126654E+02  0.85766054103E+01 -0.94412723623E+01  0.20398881780E+02  0.51100000000E-03 0.  1.
        -12    1    3    3    0    0 -0.18103821412E+01 -0.24712289944E+01  0.17210625862E+01  0.35137604736E+01  0.00000000000E+00 0.  1.
</event>
<event>
 7    1  0.4430431E-010  0.4778727E+02  0.7816164E-02  0.1312668E+00
        -11   -1    0    0    0    0  0.00000000000E+00  0.00000000000E+00  0.45593999997E+02  0.45594000000E+02  0.51100000000E-03 0. -1.
         11   -1    0    0    0    0 -0.00000000000E+00 -0.00000000000E+00 -0.45593999997E+02  0.45594000000E+02  0.51100000000E-03 0.  1.
    9900012    2    1    2    0    0 -0.37049486851E+02  0.22479429122E+02  0.23736336788E+01  0.47787270209E+02  0.19999996190E+02 0.  0.
        -12    1    1    2    0    0  0.37049486851E+02 -0.22479429122E+02 -0.23736336788E+01  0.43400729791E+02  0.00000000000E+00 0.  1.
         11    1    3    3    0    0 -0.88612613973E+01  0.10763742436E+02 -0.28441865276E+01  0.14229177842E+02  0.51100000000E-03 0. -1.
        -11    1    3    3    0    0 -0.66843281467E+01  0.90405828712E+01 -0.10687191055E+00  0.11243834012E+02  0.51100000000E-03 0.  1.
        -12    1    3    3    0    0 -0.21503897307E+02  0.26751038149E+01  0.53246921170E+01  0.22314258355E+02  0.00000000000E+00 0.  1.
</event>
<event>
 7    1  0.4430431E-010  0.4778728E+02  0.7816164E-02  0.1312668E+00
        -11   -1    0    0    0    0  0.00000000000E+00  0.00000000000E+00  0.45593999997E+02  0.45594000000E+02  0.51100000000E-03 0.  1.
         11   -1    0    0    0    0 -0.00000000000E+00 -0.00000000000E+00 -0.45593999997E+02  0.45594000000E+02  0.51100000000E-03 0. -1.
    9900012    2    1    2    0    0 -0.40940722168E+02  0.12805512785E+02 -0.65953772378E+01  0.47787275464E+02  0.20000020151E+02 0.  0.
        -12    1    1    2    0    0  0.40940722168E+02 -0.12805512785E+02  0.65953772378E+01  0.43400724536E+02  0.00000000000E+00 0.  1.
         11    1    3    3    0    0 -0.33370731499E+02  0.66200012507E+01 -0.77920851143E+01  0.34901958799E+02  0.51100000000E-03 0. -1.
        -11    1    3    3    0    0 -0.60337050307E+01  0.31405299348E+01 -0.30365377329E+01  0.74490996996E+01  0.51100000000E-03 0.  1.
        -12    1    3    3    0    0 -0.15362856380E+01  0.30449815996E+01  0.42332456094E+01  0.54362169652E+01  0.00000000000E+00 0.  1.
</event>
<event>
 7    1  0.4430431E-010  0.4778727E+02  0.7816164E-02  0.1312668E+00
        -11   -1    0    0    0    0  0.00000000000E+00  0.00000000000E+00  0.45593999997E+02  0.45594000000E+02  0.51100000000E-03 0.  1.
         11   -1    0    0    0    0 -0.00000000000E+00 -0.00000000000E+00 -0.45593999997E+02  0.45594000000E+02  0.51100000000E-03 0. -1.
    9900012    2    1    2    0    0 -0.16903129923E+01  0.42972105507E+02  0.58450399671E+01  0.47787268417E+02  0.19999988022E+02 0.  0.
        -12    1    1    2    0    0  0.16903129923E+01 -0.42972105507E+02 -0.58450399671E+01  0.43400731583E+02  0.00000000000E+00 0.  1.
         11    1    3    3    0    0 -0.10777665545E+01  0.23285819944E+02 -0.38552269565E+01  0.23627394404E+02  0.51100000000E-03 0. -1.
        -11    1    3    3    0    0 -0.38408688807E+01  0.13444481634E+02  0.26995201962E+01  0.14240567746E+02  0.51100000000E-03 0.  1.
        -12    1    3    3    0    0  0.32283224429E+01  0.62418039287E+01  0.70007467274E+01  0.99193062672E+01  0.00000000000E+00 0.  1.
</event>
<event>
 7    1  0.4430431E-010  0.4778724E+02  0.7816164E-02  0.1312668E+00
        -11   -1    0    0    0    0  0.00000000000E+00  0.00000000000E+00  0.45593999997E+02  0.45594000000E+02  0.51100000000E-03 0.  1.
         11   -1    0    0    0    0 -0.00000000000E+00 -0.00000000000E+00 -0.45593999997E+02  0.45594000000E+02  0.51100000000E-03 0. -1.
    9900012    2    1    2    0    0  0.41190289676E+02  0.10744407705E+02 -0.84583526576E+01  0.47787239751E+02  0.19999857322E+02 0.  0.
        -12    1    1    2    0    0 -0.41190289676E+02 -0.10744407705E+02  0.84583526576E+01  0.43400760249E+02  0.00000000000E+00 0.  1.
         11    1    3    3    0    0  0.24424407714E+02  0.94459129409E+01 -0.50386313439E+01  0.26667672743E+02  0.51100000000E-03 0. -1.
        -11    1    3    3    0    0  0.10054354364E+02  0.67307310746E+01 -0.93826652221E+00  0.12135613985E+02  0.51100000000E-03 0.  1.
         12    1    3    3    0    0  0.67115275983E+01 -0.54322363110E+01 -0.24814547915E+01  0.89839530232E+01  0.00000000000E+00 0. -1.
</event>
<event>
 7    1  0.4430431E-010  0.4778727E+02  0.7816164E-02  0.1312668E+00
        -11   -1    0    0    0    0  0.00000000000E+00  0.00000000000E+00  0.45593999997E+02  0.45594000000E+02  0.51100000000E-03 0.  1.
         11   -1    0    0    0    0 -0.00000000000E+00 -0.00000000000E+00 -0.45593999997E+02  0.45594000000E+02  0.51100000000E-03 0. -1.
    9900012    2    1    2    0    0 -0.18132461998E+02 -0.39357388606E+02 -0.24151578031E+01  0.47787271859E+02  0.20000003713E+02 0.  0.
        -12    1    1    2    0    0  0.18132461998E+02  0.39357388606E+02  0.24151578031E+01  0.43400728141E+02  0.00000000000E+00 0.  1.
         11    1    3    3    0    0 -0.12880236374E+02 -0.22758885320E+02  0.54432943840E+01  0.26711360955E+02  0.51100000000E-03 0. -1.
        -11    1    3    3    0    0  0.50382432796E+00  0.66625084514E+00  0.57878546646E+00  0.10162293144E+01  0.51100000000E-03 0.  1.
        -12    1    3    3    0    0 -0.57560499519E+01 -0.17264754131E+02 -0.84372376535E+01  0.20059681589E+02  0.00000000000E+00 0.  1.
</event>
<event>
 7    1  0.4430431E-010  0.4778727E+02  0.7816164E-02  0.1312668E+00
        -11   -1    0    0    0    0  0.00000000000E+00  0.00000000000E+00  0.45593999997E+02  0.45594000000E+02  0.51100000000E-03 0. -1.
         11   -1    0    0    0    0 -0.00000000000E+00 -0.00000000000E+00 -0.45593999997E+02  0.45594000000E+02  0.51100000000E-03 0.  1.
    9900012    2    1    2    0    0  0.29928180561E+01  0.21769955277E+02  0.37426396939E+02  0.47787273042E+02  0.20000009106E+02 0.  0.
        -12    1    1    2    0    0 -0.29928180561E+01 -0.21769955277E+02 -0.37426396939E+02  0.43400726958E+02  0.00000000000E+00 0.  1.
         11    1    3    3    0    0  0.29210100424E+01 -0.70262720821E+00  0.29809289113E+01  0.42322478775E+01  0.51100000000E-03 0. -1.
        -11    1    3    3    0    0  0.85327586129E+00  0.10187503053E+02  0.27682030604E+02  0.29509458090E+02  0.51100000000E-03 0.  1.
         12    1    3    3    0    0 -0.78146784759E+00  0.12285079432E+02  0.67634374241E+01  0.14045567074E+02  0.00000000000E+00 0. -1.
</event>
<event>
 7    1  0.4430431E-010  0.4778728E+02  0.7816164E-02  0.1312668E+00
        -11   -1    0    0    0    0  0.00000000000E+00  0.00000000000E+00  0.45593999997E+02  0.45594000000E+02  0.51100000000E-03 0. -1.
         11   -1    0    0    0    0 -0.00000000000E+00 -0.00000000000E+00 -0.45593999997E+02  0.45594000000E+02  0.51100000000E-03 0.  1.
    9900012    2    1    2    0    0 -0.15613989945E+01 -0.33406595770E+02  0.27661953048E+02  0.47787282792E+02  0.20000053562E+02 0.  0.
        -12    1    1    2    0    0  0.15613989945E+01  0.33406595770E+02 -0.27661953048E+02  0.43400717208E+02  0.00000000000E+00 0.  1.
         11    1    3    3    0    0  0.15827974470E+01 -0.31609893580E+01  0.47945332014E+01  0.59568993915E+01  0.51100000000E-03 0.  1.
        -11    1    3    3    0    0 -0.46048362789E+01 -0.29118338114E+02  0.25250979210E+02  0.38816157499E+02  0.51100000000E-03 0. -1.
         12    1    3    3    0    0  0.14606398374E+01 -0.11272682972E+01 -0.23835593629E+01  0.30142259014E+01  0.00000000000E+00 0. -1.
</event>
<event>
 7    1  0.4430431E-010  0.4778727E+02  0.7816164E-02  0.1312668E+00
        -11   -1    0    0    0    0  0.00000000000E+00  0.00000000000E+00  0.45593999997E+02  0.45594000000E+02  0.51100000000E-03 0.  1.
         11   -1    0    0    0    0 -0.00000000000E+00 -0.00000000000E+00 -0.45593999997E+02  0.45594000000E+02  0.51100000000E-03 0. -1.
    9900012    2    1    2    0    0 -0.10730233602E+02 -0.36682999412E+02  0.20563147711E+02  0.47787269559E+02  0.19999993226E+02 0.  0.
        -12    1    1    2    0    0  0.10730233602E+02  0.36682999412E+02 -0.20563147711E+02  0.43400730441E+02  0.00000000000E+00 0.  1.
         11    1    3    3    0    0 -0.13244697370E+01 -0.14553516925E+02  0.77417823362E+00  0.14634152766E+02  0.51100000000E-03 0. -1.
        -11    1    3    3    0    0 -0.10825353750E+01  0.92144668074E-01 -0.10951404709E+01  0.15426296996E+01  0.51100000000E-03 0.  1.
        -12    1    3    3    0    0 -0.83232284900E+01 -0.22221627156E+02  0.20884109949E+02  0.31610487093E+02  0.00000000000E+00 0.  1.
</event>
<event>
 7    1  0.4430431E-010  0.4778730E+02  0.7816164E-02  0.1312668E+00
        -11   -1    0    0    0    0  0.00000000000E+00  0.00000000000E+00  0.45593999997E+02  0.45594000000E+02  0.51100000000E-03 0. -1.
         11   -1    0    0    0    0 -0.00000000000E+00 -0.00000000000E+00 -0.45593999997E+02  0.45594000000E+02  0.51100000000E-03 0.  1.
    9900012    2    1    2    0    0  0.13905914037E+02  0.36573612486E+02  0.18778114900E+02  0.47787295228E+02  0.20000110262E+02 0.  0.
        -12    1    1    2    0    0 -0.13905914037E+02 -0.36573612486E+02 -0.18778114900E+02  0.43400704772E+02  0.00000000000E+00 0.  1.
         11    1    3    3    0    0  0.39928005081E+01  0.22555116711E+01 -0.60523004972E+00  0.46255910401E+01  0.51100000000E-03 0. -1.
        -11    1    3    3    0    0  0.94606276444E+00 -0.88280023849E+00 -0.88209817679E+00  0.15660359095E+01  0.51100000000E-03 0.  1.
         12    1    3    3    0    0  0.89670507646E+01  0.35200901054E+02  0.20265443127E+02  0.41595668278E+02  0.00000000000E+00 0. -1.
</event>
<event>
 7    1  0.4430431E-010  0.4778727E+02  0.7816164E-02  0.1312668E+00
        -11   -1    0    0    0    0  0.00000000000E+00  0.00000000000E+00  0.45593999997E+02  0.45594000000E+02  0.51100000000E-03 0.  1.
         11   -1    0    0    0    0 -0.00000000000E+00 -0.00000000000E+00 -0.45593999997E+02  0.45594000000E+02  0.51100000000E-03 0. -1.
    9900012    2    1    2    0    0  0.35884586363E+02  0.23182536577E+02  0.76478488676E+01  0.47787272669E+02  0.20000007407E+02 0.  0.
        -12    1    1    2    0    0 -0.35884586363E+02 -0.23182536577E+02 -0.76478488676E+01  0.43400727331E+02  0.00000000000E+00 0.  1.
         11    1    3    3    0    0  0.17754243950E+02  0.13979909489E+02  0.56849155619E+01  0.23301701929E+02  0.51100000000E-03 0. -1.
        -11    1    3    3    0    0  0.12187193702E+02  0.12233369434E+02  0.35476160958E+01  0.17628630073E+02  0.51100000000E-03 0.  1.
        -12    1    3    3    0    0  0.59431487104E+01 -0.30307423464E+01 -0.15846827901E+01  0.68569406669E+01  0.00000000000E+00 0.  1.
</event>
<event>
 7    1  0.4430431E-010  0.4778727E+02  0.7816164E-02  0.1312668E+00
        -11   -1    0    0    0    0  0.00000000000E+00  0.00000000000E+00  0.45593999997E+02  0.45594000000E+02  0.51100000000E-03 0.  1.
         11   -1    0    0    0    0 -0.00000000000E+00 -0.00000000000E+00 -0.45593999997E+02  0.45594000000E+02  0.51100000000E-03 0. -1.
    9900012    2    1    2    0    0  0.29625745356E+02  0.69379974196E+01 -0.30948385432E+02  0.47787272391E+02  0.20000006141E+02 0.  0.
        -12    1    1    2    0    0 -0.29625745356E+02 -0.69379974196E+01  0.30948385432E+02  0.43400727609E+02  0.00000000000E+00 0.  1.
         11    1    3    3    0    0  0.74680578279E+01  0.53951763680E+01 -0.14678636902E+02  0.17330383646E+02  0.51100000000E-03 0. -1.
        -11    1    3    3    0    0 -0.46669175992E+00  0.18950253803E+01  0.80405606631E+00  0.21107886700E+01  0.51100000000E-03 0.  1.
        -12    1    3    3    0    0  0.22624379288E+02 -0.35220432870E+00 -0.17073804596E+02  0.28346100075E+02  0.00000000000E+00 0.  1.
</event>
<event>
 7    1  0.4430431E-010  0.4778727E+02  0.7816164E-02  0.1312668E+00
        -11   -1    0    0    0    0  0.00000000000E+00  0.00000000000E+00  0.45593999997E+02  0.45594000000E+02  0.51100000000E-03 0.  1.
         11   -1    0    0    0    0 -0.00000000000E+00 -0.00000000000E+00 -0.45593999997E+02  0.45594000000E+02  0.51100000000E-03 0. -1.
    9900012    2    1    2    0    0  0.38571462642E+02 -0.14743785110E+02 -0.13359875994E+02  0.47787271708E+02  0.20000003024E+02 0.  0.
        -12    1    1    2    0    0 -0.38571462642E+02  0.14743785110E+02  0.13359875994E+02  0.43400728292E+02  0.00000000000E+00 0.  1.
         11    1    3    3    0    0  0.51215769460E+01 -0.50571705282E+01 -0.37944457176E+01  0.81365436599E+01  0.51100000000E-03 0. -1.
        -11    1    3    3    0    0  0.27544581574E+02 -0.69277431419E+01 -0.40155870447E+00  0.28405260935E+02  0.51100000000E-03 0.  1.
         12    1    3    3    0    0  0.59053041221E+01 -0.27588714396E+01 -0.91638715719E+01  0.11245467113E+02  0.00000000000E+00 0. -1.
</event>
<event>
 7    1  0.4430431E-010  0.4778728E+02  0.7816164E-02  0.1312668E+00
        -11   -1    0    0    0    0  0.00000000000E+00  0.00000000000E+00  0.45593999997E+02  0.45594000000E+02  0.51100000000E-03 0.  1.
         11   -1    0    0    0    0 -0.00000000000E+00 -0.00000000000E+00 -0.45593999997E+02  0.45594000000E+02  0.51100000000E-03 0. -1.
    9900012    2    1    2    0    0 -0.14127922199E+02 -0.11954721186E+01 -0.41019450708E+02  0.47787277936E+02  0.20000031423E+02 0.  0.
        -12    1    1    2    0    0  0.14127922199E+02  0.11954721186E+01  0.41019450708E+02  0.43400722064E+02  0.00000000000E+00 0.  1.
         11    1    3    3    0    0 -0.38112639568E+01 -0.17030050129E+01 -0.21098985901E+02  0.21507979109E+02  0.51100000000E-03 0. -1.
        -11    1    3    3    0    0 -0.11857861360E+02 -0.37699363984E+01 -0.16050727384E+02  0.20308794802E+02  0.51100000000E-03 0.  1.
         12    1    3    3    0    0  0.15412031178E+01  0.42774692927E+01 -0.38697374228E+01  0.59705040257E+01  0.00000000000E+00 0. -1.
</event>
<event>
 7    1  0.4430431E-010  0.4778728E+02  0.7816164E-02  0.1312668E+00
        -11   -1    0    0    0    0  0.00000000000E+00  0.00000000000E+00  0.45593999997E+02  0.45594000000E+02  0.51100000000E-03 0.  1.
         11   -1    0    0    0    0 -0.00000000000E+00 -0.00000000000E+00 -0.45593999997E+02  0.45594000000E+02  0.51100000000E-03 0. -1.
    9900012    2    1    2    0    0  0.30230190731E+02  0.14816627027E+02 -0.27390240385E+02  0.47787284148E+02  0.20000059745E+02 0.  0.
        -12    1    1    2    0    0 -0.30230190731E+02 -0.14816627027E+02  0.27390240385E+02  0.43400715852E+02  0.00000000000E+00 0.  1.
         11    1    3    3    0    0  0.10986036587E+02 -0.15227498837E+01 -0.13322967570E+02  0.17335317482E+02  0.51100000000E-03 0.  1.
        -11    1    3    3    0    0  0.11182710660E+02  0.84806224280E+01 -0.13021916629E+02  0.19145346365E+02  0.51100000000E-03 0. -1.
        -12    1    3    3    0    0  0.80614434840E+01  0.78587544831E+01 -0.10453561866E+01  0.11306620301E+02  0.00000000000E+00 0.  1.
</event>
<event>
 7    1  0.4430431E-010  0.4778727E+02  0.7816164E-02  0.1312668E+00
        -11   -1    0    0    0    0  0.00000000000E+00  0.00000000000E+00  0.45593999997E+02  0.45594000000E+02  0.51100000000E-03 0. -1.
         11   -1    0    0    0    0 -0.00000000000E+00 -0.00000000000E+00 -0.45593999997E+02  0.45594000000E+02  0.51100000000E-03 0.  1.
    9900012    2    1    2    0    0 -0.39266208312E+02  0.17039841902E+02  0.71716029909E+01  0.47787271703E+02  0.20000003004E+02 0.  0.
        -12    1    1    2    0    0  0.39266208312E+02 -0.17039841902E+02 -0.71716029909E+01  0.43400728297E+02  0.00000000000E+00 0.  1.
         11    1    3    3    0    0 -0.46832438623E+01  0.28937292770E+01  0.20364155894E+01  0.58697044999E+01  0.51100000000E-03 0.  1.
        -11    1    3    3    0    0 -0.51527348864E+01  0.82973248309E+01  0.67431865164E+01  0.11868733749E+02  0.51100000000E-03 0. -1.
        -12    1    3    3    0    0 -0.29430229563E+02  0.58487877938E+01 -0.16079991148E+01  0.30048833454E+02  0.00000000000E+00 0.  1.
</event>
<event>
 7    1  0.4430431E-010  0.4778728E+02  0.7816164E-02  0.1312668E+00
        -11   -1    0    0    0    0  0.00000000000E+00  0.00000000000E+00  0.45593999997E+02  0.45594000000E+02  0.51100000000E-03 0. -1.
         11   -1    0    0    0    0 -0.00000000000E+00 -0.00000000000E+00 -0.45593999997E+02  0.45594000000E+02  0.51100000000E-03 0.  1.
    9900012    2    1    2    0    0  0.15469259752E+02  0.24178458766E+02  0.32553443478E+02  0.47787279409E+02  0.20000038137E+02 0.  0.
        -12    1    1    2    0    0 -0.15469259752E+02 -0.24178458766E+02 -0.32553443478E+02  0.43400720591E+02  0.00000000000E+00 0.  1.
         11    1    3    3    0    0  0.12467570716E+02  0.12580538614E+02  0.12456400042E+02  0.21653456391E+02  0.51100000000E-03 0. -1.
        -11    1    3    3    0    0 -0.37298238870E+00  0.94961108334E+01  0.54466993336E+01  0.10953619069E+02  0.51100000000E-03 0.  1.
        -12    1    3    3    0    0  0.33746714245E+01  0.21018093178E+01  0.14650344102E+02  0.15180203949E+02  0.00000000000E+00 0.  1.
</event>
<event>
 7    1  0.4430431E-010  0.4778727E+02  0.7816164E-02  0.1312668E+00
        -11   -1    0    0    0    0  0.00000000000E+00  0.00000000000E+00  0.45593999997E+02  0.45594000000E+02  0.51100000000E-03 0. -1.
         11   -1    0    0    0    0 -0.00000000000E+00 -0.00000000000E+00 -0.45593999997E+02  0.45594000000E+02  0.51100000000E-03 0.  1.
    9900012    2    1    2    0    0 -0.23677396219E+02 -0.15933147296E+02  0.32697694566E+02  0.47787268388E+02  0.19999987890E+02 0.  0.
        -12    1    1    2    0    0  0.23677396219E+02  0.15933147296E+02 -0.32697694566E+02  0.43400731612E+02  0.00000000000E+00 0.  1.
         11    1    3    3    0    0 -0.23026022673E+01 -0.65466012179E+01  0.20448741500E+01  0.72347408563E+01  0.51100000000E-03 0. -1.
        -11    1    3    3    0    0 -0.42423719122E+00 -0.65863902719E+00  0.94853333763E+01  0.95176326932E+01  0.51100000000E-03 0.  1.
        -12    1    3    3    0    0 -0.20950556761E+02 -0.87279070505E+01  0.21167487040E+02  0.31034894839E+02  0.00000000000E+00 0.  1.
</event>
<event>
 7    1  0.4430431E-010  0.4778726E+02  0.7816164E-02  0.1312668E+00
        -11   -1    0    0    0    0  0.00000000000E+00  0.00000000000E+00  0.45593999997E+02  0.45594000000E+02  0.51100000000E-03 0.  1.
         11   -1    0    0    0    0 -0.00000000000E+00 -0.00000000000E+00 -0.45593999997E+02  0.45594000000E+02  0.51100000000E-03 0. -1.
    9900012    2    1    2    0    0  0.34368513092E+01  0.22912503491E+02 -0.36699171161E+02  0.47787263519E+02  0.19999965691E+02 0.  0.
        -12    1    1    2    0    0 -0.34368513092E+01 -0.22912503491E+02  0.36699171161E+02  0.43400736481E+02  0.00000000000E+00 0.  1.
         11    1    3    3    0    0  0.54588999722E+01  0.62355665408E+01 -0.98123059369E+01  0.12843801114E+02  0.51100000000E-03 0. -1.
        -11    1    3    3    0    0  0.55865451782E+00  0.10622343850E+01  0.18099598937E+01  0.21717255437E+01  0.51100000000E-03 0.  1.
        -12    1    3    3    0    0 -0.25807031808E+01  0.15614702565E+02 -0.28696825118E+02  0.32771736862E+02  0.00000000000E+00 0.  1.
</event>
<event>
 7    1  0.4430431E-010  0.4778728E+02  0.7816164E-02  0.1312668E+00
        -11   -1    0    0    0    0  0.00000000000E+00  0.00000000000E+00  0.45593999997E+02  0.45594000000E+02  0.51100000000E-03 0.  1.
         11   -1    0    0    0    0 -0.00000000000E+00 -0.00000000000E+00 -0.45593999997E+02  0.45594000000E+02  0.51100000000E-03 0. -1.
    9900012    2    1    2    0    0  0.35555612964E+02  0.24485574477E+02  0.44584561115E+01  0.47787276485E+02  0.20000024804E+02 0.  0.
        -12    1    1    2    0    0 -0.35555612964E+02 -0.24485574477E+02 -0.44584561115E+01  0.43400723515E+02  0.00000000000E+00 0.  1.
         11    1    3    3    0    0  0.13786068624E+02  0.49337664598E+01  0.66804684949E+00  0.14657558679E+02  0.51100000000E-03 0. -1.
        -11    1    3    3    0    0  0.11338149217E+02  0.11022941402E+01 -0.88471144362E+00  0.11425908920E+02  0.51100000000E-03 0.  1.
        -12    1    3    3    0    0  0.10431395124E+02  0.18449513877E+02  0.46751207056E+01  0.21703808886E+02  0.00000000000E+00 0.  1.
</event>
<event>
 7    1  0.4430431E-010  0.4778727E+02  0.7816164E-02  0.1312668E+00
        -11   -1    0    0    0    0  0.00000000000E+00  0.00000000000E+00  0.45593999997E+02  0.45594000000E+02  0.51100000000E-03 0.  1.
         11   -1    0    0    0    0 -0.00000000000E+00 -0.00000000000E+00 -0.45593999997E+02  0.45594000000E+02  0.51100000000E-03 0. -1.
    9900012    2    1    2    0    0  0.33223273393E+02 -0.72930507098E+01 -0.26956427284E+02  0.47787268952E+02  0.19999990459E+02 0.  0.
        -12    1    1    2    0    0 -0.33223273393E+02  0.72930507098E+01  0.26956427284E+02  0.43400731048E+02  0.00000000000E+00 0.  1.
         11    1    3    3    0    0  0.17680869448E+02 -0.47676791176E+01 -0.18427913867E+02  0.25979451848E+02  0.51100000000E-03 0. -1.
        -11    1    3    3    0    0  0.85100105243E+01 -0.75827752300E+01 -0.44922238238E+01  0.12251482949E+02  0.51100000000E-03 0.  1.
         12    1    3    3    0    0  0.70323934211E+01  0.50574036378E+01 -0.40362895931E+01  0.95563341541E+01  0.00000000000E+00 0. -1.
</event>
<event>
 7    1  0.4430431E-010  0.4778727E+02  0.7816164E-02  0.1312668E+00
        -11   -1    0    0    0    0  0.00000000000E+00  0.00000000000E+00  0.45593999997E+02  0.45594000000E+02  0.51100000000E-03 0.  1.
         11   -1    0    0    0    0 -0.00000000000E+00 -0.00000000000E+00 -0.45593999997E+02  0.45594000000E+02  0.51100000000E-03 0. -1.
    9900012    2    1    2    0    0 -0.77503756905E+01 -0.28784110362E+02 -0.31544097916E+02  0.47787269061E+02  0.19999990959E+02 0.  0.
        -12    1    1    2    0    0  0.77503756905E+01  0.28784110362E+02  0.31544097916E+02  0.43400730939E+02  0.00000000000E+00 0.  1.
         11    1    3    3    0    0 -0.38542913181E+01 -0.69866832270E+01 -0.18498865383E+02  0.20146397315E+02  0.51100000000E-03 0. -1.
        -11    1    3    3    0    0  0.69338094763E+00  0.58855121428E+00  0.53834634792E+00  0.10568759255E+01  0.51100000000E-03 0.  1.
        -12    1    3    3    0    0 -0.45894653201E+01 -0.22385978349E+02 -0.13583578881E+02  0.26583995821E+02  0.00000000000E+00 0.  1.
</event>
<event>
 7    1  0.4430431E-010  0.4778727E+02  0.7816164E-02  0.1312668E+00
        -11   -1    0    0    0    0  0.00000000000E+00  0.00000000000E+00  0.45593999997E+02  0.45594000000E+02  0.51100000000E-03 0.  1.
         11   -1    0    0    0    0 -0.00000000000E+00 -0.00000000000E+00 -0.45593999997E+02  0.45594000000E+02  0.51100000000E-03 0. -1.
    9900012    2    1    2    0    0  0.51196628410E+00  0.20221977665E+02 -0.38398343824E+02  0.47787270760E+02  0.19999998703E+02 0.  0.
        -12    1    1    2    0    0 -0.51196628410E+00 -0.20221977665E+02  0.38398343824E+02  0.43400729240E+02  0.00000000000E+00 0.  1.
         11    1    3    3    0    0 -0.58958852771E+00  0.55047269609E+01 -0.20735268612E+02  0.21461616859E+02  0.51100000000E-03 0. -1.
        -11    1    3    3    0    0 -0.42057890189E+01  0.92568665543E+01 -0.15267065522E+02  0.18342887711E+02  0.51100000000E-03 0.  1.
         12    1    3    3    0    0  0.53073438307E+01  0.54603841494E+01 -0.23960096898E+01  0.79827661891E+01  0.00000000000E+00 0. -1.
</event>
<event>
 7    1  0.4430431E-010  0.4778728E+02  0.7816164E-02  0.1312668E+00
        -11   -1    0    0    0    0  0.00000000000E+00  0.00000000000E+00  0.45593999997E+02  0.45594000000E+02  0.51100000000E-03 0.  1.
         11   -1    0    0    0    0 -0.00000000000E+00 -0.00000000000E+00 -0.45593999997E+02  0.45594000000E+02  0.51100000000E-03 0. -1.
    9900012    2    1    2    0    0  0.31202633888E+02 -0.29819297371E+02 -0.45637780531E+01  0.47787275036E+02  0.20000018201E+02 0.  0.
        -12    1    1    2    0    0 -0.31202633888E+02  0.29819297371E+02  0.45637780531E+01  0.43400724964E+02  0.00000000000E+00 0.  1.
         11    1    3    3    0    0  0.18408148320E+02 -0.16368002726E+02  0.43277812715E+01  0.25010020568E+02  0.51100000000E-03 0. -1.
        -11    1    3    3    0    0  0.11574181285E+02 -0.65984719513E+01 -0.29966125001E+01  0.13655811629E+02  0.51100000000E-03 0.  1.
        -12    1    3    3    0    0  0.12203042832E+01 -0.68528226933E+01 -0.58949468245E+01  0.91214428395E+01  0.00000000000E+00 0.  1.
</event>
<event>
 7    1  0.4430431E-010  0.4778726E+02  0.7816164E-02  0.1312668E+00
        -11   -1    0    0    0    0  0.00000000000E+00  0.00000000000E+00  0.45593999997E+02  0.45594000000E+02  0.51100000000E-03 0. -1.
         11   -1    0    0    0    0 -0.00000000000E+00 -0.00000000000E+00 -0.45593999997E+02  0.45594000000E+02  0.51100000000E-03 0.  1.
    9900012    2    1    2    0    0 -0.38337725630E+02 -0.19845655450E+02  0.44713835807E+01  0.47787256713E+02  0.19999934658E+02 0.  0.
        -12    1    1    2    0    0  0.38337725630E+02  0.19845655450E+02 -0.44713835807E+01  0.43400743287E+02  0.00000000000E+00 0.  1.
         11    1    3    3    0    0 -0.89763899193E+01 -0.98367011707E+00 -0.27880909697E+01  0.94507478222E+01  0.51100000000E-03 0. -1.
        -11    1    3    3    0    0  0.71360914862E+00 -0.32657237998E+01 -0.95486822649E+00  0.34764872421E+01  0.51100000000E-03 0.  1.
         12    1    3    3    0    0 -0.30074944859E+02 -0.15596261533E+02  0.82143427769E+01  0.34860021649E+02  0.00000000000E+00 0. -1.
</event>
<event>
 7    1  0.4430431E-010  0.4778727E+02  0.7816164E-02  0.1312668E+00
        -11   -1    0    0    0    0  0.00000000000E+00  0.00000000000E+00  0.45593999997E+02  0.45594000000E+02  0.51100000000E-03 0.  1.
         11   -1    0    0    0    0 -0.00000000000E+00 -0.00000000000E+00 -0.45593999997E+02  0.45594000000E+02  0.51100000000E-03 0. -1.
    9900012    2    1    2    0    0 -0.40240556639E+02 -0.15219269723E+02  0.57179325839E+01  0.47787270483E+02  0.19999997442E+02 0.  0.
        -12    1    1    2    0    0  0.40240556639E+02  0.15219269723E+02 -0.57179325839E+01  0.43400729517E+02  0.00000000000E+00 0.  1.
         11    1    3    3    0    0 -0.40939676652E+02 -0.14372912557E+02  0.48012127054E+01  0.43654202357E+02  0.51100000000E-03 0. -1.
        -11    1    3    3    0    0  0.97465425131E-02 -0.21924271655E+01  0.13312352941E+01  0.25649599491E+01  0.51100000000E-03 0.  1.
        -12    1    3    3    0    0  0.68937346983E+00  0.13460700001E+01 -0.41451541564E+00  0.15681081773E+01  0.00000000000E+00 0.  1.
</event>
<event>
 7    1  0.4430431E-010  0.4778727E+02  0.7816164E-02  0.1312668E+00
        -11   -1    0    0    0    0  0.00000000000E+00  0.00000000000E+00  0.45593999997E+02  0.45594000000E+02  0.51100000000E-03 0.  1.
         11   -1    0    0    0    0 -0.00000000000E+00 -0.00000000000E+00 -0.45593999997E+02  0.45594000000E+02  0.51100000000E-03 0. -1.
    9900012    2    1    2    0    0  0.41067455719E+02 -0.35106581590E+01 -0.13592737115E+02  0.47787272561E+02  0.20000006914E+02 0.  0.
        -12    1    1    2    0    0 -0.41067455719E+02  0.35106581590E+01  0.13592737115E+02  0.43400727439E+02  0.00000000000E+00 0.  1.
         11    1    3    3    0    0  0.27613911740E+02 -0.81867607442E+01 -0.13816759830E+02  0.31944546099E+02  0.51100000000E-03 0. -1.
        -11    1    3    3    0    0 -0.22122618067E+00 -0.74087249580E+00  0.81348885852E+00  0.11223178971E+01  0.51100000000E-03 0.  1.
         12    1    3    3    0    0  0.13674770160E+02  0.54169750811E+01 -0.58946614430E+00  0.14720408564E+02  0.00000000000E+00 0. -1.
</event>
<event>
 7    1  0.4430431E-010  0.4778727E+02  0.7816164E-02  0.1312668E+00
        -11   -1    0    0    0    0  0.00000000000E+00  0.00000000000E+00  0.45593999997E+02  0.45594000000E+02  0.51100000000E-03 0. -1.
         11   -1    0    0    0    0 -0.00000000000E+00 -0.00000000000E+00 -0.45593999997E+02  0.45594000000E+02  0.51100000000E-03 0.  1.
    9900012    2    1    2    0    0  0.53728774216E+01  0.20647410639E+02  0.37794711719E+02  0.47787267152E+02  0.19999982252E+02 0.  0.
        -12    1    1    2    0    0 -0.53728774216E+01 -0.20647410639E+02 -0.37794711719E+02  0.43400732848E+02  0.00000000000E+00 0.  1.
         11    1    3    3    0    0 -0.48322930759E+00  0.26795677195E+01  0.12071829978E+02  0.12375082747E+02  0.51100000000E-03 0. -1.
        -11    1    3    3    0    0  0.39896180088E+01 -0.43746012014E+00  0.11186299390E+02  0.11884515873E+02  0.51100000000E-03 0.  1.
        -12    1    3    3    0    0  0.18664887204E+01  0.18405303040E+02  0.14536582350E+02  0.23527668532E+02  0.00000000000E+00 0.  1.
</event>
