<event>
 7    1  0.4937359E-010  0.4778726E+02  0.7816164E-02  0.1312668E+00
        -11   -1    0    0    0    0  0.00000000000E+00  0.00000000000E+00  0.45593999997E+02  0.45594000000E+02  0.51100000000E-03 0.  1.
         11   -1    0    0    0    0 -0.00000000000E+00 -0.00000000000E+00 -0.45593999997E+02  0.45594000000E+02  0.51100000000E-03 0. -1.
    9900012    2    1    2    0    0 -0.12427839257E+02  0.17032645484E+02  0.37934973093E+02  0.47787258251E+02  0.19999941669E+02 0.  0.
         12    1    1    2    0    0  0.12427839257E+02 -0.17032645484E+02 -0.37934973093E+02  0.43400741749E+02  0.00000000000E+00 0. -1.
         11    1    3    3    0    0 -0.31065048541E+01 -0.19189875922E+01  0.30691518821E+01  0.47699663861E+01  0.51100000000E-03 0. -1.
        -11    1    3    3    0    0 -0.10839883804E+02  0.20063818320E+02  0.29218505906E+02  0.37064551449E+02  0.51100000000E-03 0.  1.
        -12    1    3    3    0    0  0.15185494011E+01 -0.11121852444E+01  0.56473153049E+01  0.59527404154E+01  0.00000000000E+00 0.  1.
</event>
<event>
 7    1  0.4937359E-010  0.4778732E+02  0.7816164E-02  0.1312668E+00
        -11   -1    0    0    0    0  0.00000000000E+00  0.00000000000E+00  0.45593999997E+02  0.45594000000E+02  0.51100000000E-03 0. -1.
         11   -1    0    0    0    0 -0.00000000000E+00 -0.00000000000E+00 -0.45593999997E+02  0.45594000000E+02  0.51100000000E-03 0.  1.
    9900012    2    1    2    0    0  0.96922088706E+01  0.71815918102E+00 -0.42298519892E+02  0.47787315093E+02  0.20000200832E+02 0.  0.
         12    1    1    2    0    0 -0.96922088706E+01 -0.71815918102E+00  0.42298519892E+02  0.43400684907E+02  0.00000000000E+00 0. -1.
         11    1    3    3    0    0  0.72765134513E+01 -0.52181317468E+01 -0.10045257293E+02  0.13456735907E+02  0.51100000000E-03 0. -1.
        -11    1    3    3    0    0 -0.32745158303E+01  0.37138840522E+01 -0.20441898973E+02  0.21032988912E+02  0.51100000000E-03 0.  1.
         12    1    3    3    0    0  0.56902112496E+01  0.22224068756E+01 -0.11811363626E+02  0.13297590274E+02  0.00000000000E+00 0. -1.
</event>
<event>
 7    1  0.4937359E-010  0.4778727E+02  0.7816164E-02  0.1312668E+00
        -11   -1    0    0    0    0  0.00000000000E+00  0.00000000000E+00  0.45593999997E+02  0.45594000000E+02  0.51100000000E-03 0. -1.
         11   -1    0    0    0    0 -0.00000000000E+00 -0.00000000000E+00 -0.45593999997E+02  0.45594000000E+02  0.51100000000E-03 0.  1.
    9900012    2    1    2    0    0  0.54927586283E+01 -0.24372043738E+02 -0.35488819809E+02  0.47787271380E+02  0.20000001528E+02 0.  0.
         12    1    1    2    0    0 -0.54927586283E+01  0.24372043738E+02  0.35488819809E+02  0.43400728620E+02  0.00000000000E+00 0. -1.
         11    1    3    3    0    0 -0.63841493578E+01 -0.13625318603E+02 -0.19987690492E+02  0.25018282146E+02  0.51100000000E-03 0. -1.
        -11    1    3    3    0    0  0.82043165279E+01 -0.95329218781E+01 -0.13356628105E+02  0.18346305454E+02  0.51100000000E-03 0.  1.
         12    1    3    3    0    0  0.36725914582E+01 -0.12138032571E+01 -0.21445012121E+01  0.44226837796E+01  0.00000000000E+00 0. -1.
</event>
<event>
 7    1  0.4937359E-010  0.4778727E+02  0.7816164E-02  0.1312668E+00
        -11   -1    0    0    0    0  0.00000000000E+00  0.00000000000E+00  0.45593999997E+02  0.45594000000E+02  0.51100000000E-03 0.  1.
         11   -1    0    0    0    0 -0.00000000000E+00 -0.00000000000E+00 -0.45593999997E+02  0.45594000000E+02  0.51100000000E-03 0. -1.
    9900012    2    1    2    0    0  0.34820673854E+02  0.24847436280E+02  0.73313577751E+01  0.47787271617E+02  0.20000002612E+02 0.  0.
         12    1    1    2    0    0 -0.34820673854E+02 -0.24847436280E+02 -0.73313577751E+01  0.43400728383E+02  0.00000000000E+00 0. -1.
         11    1    3    3    0    0  0.16519614138E+02  0.16147106300E+01  0.58352597487E+01  0.17594180808E+02  0.51100000000E-03 0. -1.
        -11    1    3    3    0    0  0.78927892219E+01  0.14634773963E+02  0.17545052970E+00  0.16628394806E+02  0.51100000000E-03 0.  1.
         12    1    3    3    0    0  0.10408270494E+02  0.85979516861E+01  0.13206474967E+01  0.13564696004E+02  0.00000000000E+00 0. -1.
</event>
<event>
 7    1  0.4937359E-010  0.4778726E+02  0.7816164E-02  0.1312668E+00
        -11   -1    0    0    0    0  0.00000000000E+00  0.00000000000E+00  0.45593999997E+02  0.45594000000E+02  0.51100000000E-03 0.  1.
         11   -1    0    0    0    0 -0.00000000000E+00 -0.00000000000E+00 -0.45593999997E+02  0.45594000000E+02  0.51100000000E-03 0. -1.
    9900012    2    1    2    0    0  0.11779855022E+01 -0.35410943597E+02  0.25065948986E+02  0.47787258360E+02  0.19999942168E+02 0.  0.
         12    1    1    2    0    0 -0.11779855022E+01  0.35410943597E+02 -0.25065948986E+02  0.43400741640E+02  0.00000000000E+00 0. -1.
         11    1    3    3    0    0 -0.80299344775E+00 -0.82273738740E+01  0.14676915358E+02  0.16844771415E+02  0.51100000000E-03 0. -1.
        -11    1    3    3    0    0  0.72667952157E+00 -0.20639787459E+02  0.27966492162E+01  0.20841068508E+02  0.51100000000E-03 0.  1.
        -12    1    3    3    0    0  0.12542994284E+01 -0.65437822646E+01  0.75923844118E+01  0.10101418437E+02  0.00000000000E+00 0.  1.
</event>
<event>
 7    1  0.4937359E-010  0.4778727E+02  0.7816164E-02  0.1312668E+00
        -11   -1    0    0    0    0  0.00000000000E+00  0.00000000000E+00  0.45593999997E+02  0.45594000000E+02  0.51100000000E-03 0.  1.
         11   -1    0    0    0    0 -0.00000000000E+00 -0.00000000000E+00 -0.45593999997E+02  0.45594000000E+02  0.51100000000E-03 0. -1.
    9900012    2    1    2    0    0 -0.38046917412E+02  0.17265241401E+02 -0.11745914840E+02  0.47787274192E+02  0.20000014353E+02 0.  0.
         12    1    1    2    0    0  0.38046917412E+02 -0.17265241401E+02  0.11745914840E+02  0.43400725808E+02  0.00000000000E+00 0. -1.
         11    1    3    3    0    0 -0.10038139308E+01  0.86007135460E+00  0.35008192367E+01  0.37420717165E+01  0.51100000000E-03 0. -1.
        -11    1    3    3    0    0 -0.31035045778E+02  0.15492405186E+02 -0.10227422385E+02  0.36163363419E+02  0.51100000000E-03 0.  1.
         12    1    3    3    0    0 -0.60080577032E+01  0.91276486045E+00 -0.50193116914E+01  0.78818390564E+01  0.00000000000E+00 0. -1.
</event>
<event>
 7    1  0.4937359E-010  0.4778729E+02  0.7816164E-02  0.1312668E+00
        -11   -1    0    0    0    0  0.00000000000E+00  0.00000000000E+00  0.45593999997E+02  0.45594000000E+02  0.51100000000E-03 0.  1.
         11   -1    0    0    0    0 -0.00000000000E+00 -0.00000000000E+00 -0.45593999997E+02  0.45594000000E+02  0.51100000000E-03 0. -1.
    9900012    2    1    2    0    0 -0.20573287056E+02 -0.82456450597E+01  0.37314484481E+02  0.47787290849E+02  0.20000090295E+02 0.  0.
         12    1    1    2    0    0  0.20573287056E+02  0.82456450597E+01 -0.37314484481E+02  0.43400709151E+02  0.00000000000E+00 0. -1.
         11    1    3    3    0    0 -0.43810560232E+01 -0.51869666979E+00 -0.10066570319E+01  0.45250477074E+01  0.51100000000E-03 0. -1.
        -11    1    3    3    0    0 -0.15616199934E+01 -0.22770649713E+00  0.12846659249E+02  0.12943228398E+02  0.51100000000E-03 0.  1.
         12    1    3    3    0    0 -0.14630611039E+02 -0.74992418928E+01  0.25474482264E+02  0.30319014743E+02  0.00000000000E+00 0. -1.
</event>
<event>
 7    1  0.4937359E-010  0.4778727E+02  0.7816164E-02  0.1312668E+00
        -11   -1    0    0    0    0  0.00000000000E+00  0.00000000000E+00  0.45593999997E+02  0.45594000000E+02  0.51100000000E-03 0.  1.
         11   -1    0    0    0    0 -0.00000000000E+00 -0.00000000000E+00 -0.45593999997E+02  0.45594000000E+02  0.51100000000E-03 0. -1.
    9900012    2    1    2    0    0 -0.97011607158E+01  0.42129919063E+02  0.38184460136E+01  0.47787272709E+02  0.20000007588E+02 0.  0.
         12    1    1    2    0    0  0.97011607158E+01 -0.42129919063E+02 -0.38184460136E+01  0.43400727291E+02  0.00000000000E+00 0. -1.
         11    1    3    3    0    0 -0.83476897794E+01  0.26550997636E+02  0.61287848098E+01  0.28499147419E+02  0.51100000000E-03 0. -1.
        -11    1    3    3    0    0 -0.62354385622E+01  0.85628973263E+01 -0.98104093739E+00  0.10637967206E+02  0.51100000000E-03 0.  1.
         12    1    3    3    0    0  0.48819676259E+01  0.70160241003E+01 -0.13292978588E+01  0.86501580837E+01  0.00000000000E+00 0. -1.
</event>
<event>
 7    1  0.4937359E-010  0.4778727E+02  0.7816164E-02  0.1312668E+00
        -11   -1    0    0    0    0  0.00000000000E+00  0.00000000000E+00  0.45593999997E+02  0.45594000000E+02  0.51100000000E-03 0.  1.
         11   -1    0    0    0    0 -0.00000000000E+00 -0.00000000000E+00 -0.45593999997E+02  0.45594000000E+02  0.51100000000E-03 0. -1.
    9900012    2    1    2    0    0 -0.10201132445E+02  0.31084303954E+02  0.28518872176E+02  0.47787272752E+02  0.20000007786E+02 0.  0.
         12    1    1    2    0    0  0.10201132445E+02 -0.31084303954E+02 -0.28518872176E+02  0.43400727248E+02  0.00000000000E+00 0. -1.
         11    1    3    3    0    0 -0.46248530158E+01  0.38758606574E+01  0.76783108443E+01  0.97656550695E+01  0.51100000000E-03 0. -1.
        -11    1    3    3    0    0  0.56320412757E+00  0.23499917635E+02  0.11289288366E+02  0.26077027434E+02  0.51100000000E-03 0.  1.
        -12    1    3    3    0    0 -0.61394835571E+01  0.37085256613E+01  0.95512729660E+01  0.11944590248E+02  0.00000000000E+00 0.  1.
</event>
<event>
 7    1  0.4937359E-010  0.4778727E+02  0.7816164E-02  0.1312668E+00
        -11   -1    0    0    0    0  0.00000000000E+00  0.00000000000E+00  0.45593999997E+02  0.45594000000E+02  0.51100000000E-03 0.  1.
         11   -1    0    0    0    0 -0.00000000000E+00 -0.00000000000E+00 -0.45593999997E+02  0.45594000000E+02  0.51100000000E-03 0. -1.
    9900012    2    1    2    0    0 -0.12477569506E+02 -0.35230544105E+02  0.22062232050E+02  0.47787273488E+02  0.20000011143E+02 0.  0.
         12    1    1    2    0    0  0.12477569506E+02  0.35230544105E+02 -0.22062232050E+02  0.43400726512E+02  0.00000000000E+00 0. -1.
         11    1    3    3    0    0 -0.12393009170E+02 -0.13189698065E+02  0.62959257273E+01  0.19162293504E+02  0.51100000000E-03 0. -1.
        -11    1    3    3    0    0  0.40135448518E+01 -0.11636795597E+02  0.10854462586E+02  0.16411670005E+02  0.51100000000E-03 0.  1.
        -12    1    3    3    0    0 -0.40981051880E+01 -0.10404050444E+02  0.49118437358E+01  0.12213309980E+02  0.00000000000E+00 0.  1.
</event>
<event>
 7    1  0.4937359E-010  0.4778727E+02  0.7816164E-02  0.1312668E+00
        -11   -1    0    0    0    0  0.00000000000E+00  0.00000000000E+00  0.45593999997E+02  0.45594000000E+02  0.51100000000E-03 0.  1.
         11   -1    0    0    0    0 -0.00000000000E+00 -0.00000000000E+00 -0.45593999997E+02  0.45594000000E+02  0.51100000000E-03 0. -1.
    9900012    2    1    2    0    0  0.38119436447E+02 -0.18648042096E+02  0.90984788582E+01  0.47787271589E+02  0.20000002483E+02 0.  0.
         12    1    1    2    0    0 -0.38119436447E+02  0.18648042096E+02 -0.90984788582E+01  0.43400728411E+02  0.00000000000E+00 0. -1.
         11    1    3    3    0    0  0.12139403320E+02 -0.64098635829E+01 -0.58352628439E+01  0.14916492779E+02  0.51100000000E-03 0. -1.
        -11    1    3    3    0    0  0.11781304478E+02 -0.39028750802E+01  0.37427864773E+01  0.12963025109E+02  0.51100000000E-03 0.  1.
         12    1    3    3    0    0  0.14198728649E+02 -0.83353034333E+01  0.11190955225E+02  0.19907753701E+02  0.00000000000E+00 0. -1.
</event>
<event>
 7    1  0.4937359E-010  0.4778730E+02  0.7816164E-02  0.1312668E+00
        -11   -1    0    0    0    0  0.00000000000E+00  0.00000000000E+00  0.45593999997E+02  0.45594000000E+02  0.51100000000E-03 0.  1.
         11   -1    0    0    0    0 -0.00000000000E+00 -0.00000000000E+00 -0.45593999997E+02  0.45594000000E+02  0.51100000000E-03 0. -1.
    9900012    2    1    2    0    0  0.14825743126E+02  0.24039430560E+02  0.32953362411E+02  0.47787297528E+02  0.20000120747E+02 0.  0.
         12    1    1    2    0    0 -0.14825743126E+02 -0.24039430560E+02 -0.32953362411E+02  0.43400702472E+02  0.00000000000E+00 0. -1.
         11    1    3    3    0    0 -0.37266962744E+00  0.72279236995E+01  0.12523251685E+02  0.14464217804E+02  0.51100000000E-03 0. -1.
        -11    1    3    3    0    0  0.95855894871E+01  0.17886789632E+01  0.45730455765E+01  0.10770127407E+02  0.51100000000E-03 0.  1.
        -12    1    3    3    0    0  0.56128232660E+01  0.15022827897E+02  0.15857065149E+02  0.22552952317E+02  0.00000000000E+00 0.  1.
</event>
<event>
 7    1  0.4937359E-010  0.4778727E+02  0.7816164E-02  0.1312668E+00
        -11   -1    0    0    0    0  0.00000000000E+00  0.00000000000E+00  0.45593999997E+02  0.45594000000E+02  0.51100000000E-03 0. -1.
         11   -1    0    0    0    0 -0.00000000000E+00 -0.00000000000E+00 -0.45593999997E+02  0.45594000000E+02  0.51100000000E-03 0.  1.
    9900012    2    1    2    0    0  0.33318215030E+00 -0.38793040996E+02 -0.19457965950E+02  0.47787268681E+02  0.19999989225E+02 0.  0.
         12    1    1    2    0    0 -0.33318215030E+00  0.38793040996E+02  0.19457965950E+02  0.43400731319E+02  0.00000000000E+00 0. -1.
         11    1    3    3    0    0  0.60469208219E+01 -0.51810617134E+01 -0.11664142683E+01  0.80479298214E+01  0.51100000000E-03 0. -1.
        -11    1    3    3    0    0 -0.57482429981E+01 -0.15126586764E+02 -0.48819634441E+01  0.16902351671E+02  0.51100000000E-03 0.  1.
         12    1    3    3    0    0  0.34504326559E-01 -0.18485392519E+02 -0.13409588238E+02  0.22836987188E+02  0.00000000000E+00 0. -1.
</event>
<event>
 7    1  0.4937359E-010  0.4778727E+02  0.7816164E-02  0.1312668E+00
        -11   -1    0    0    0    0  0.00000000000E+00  0.00000000000E+00  0.45593999997E+02  0.45594000000E+02  0.51100000000E-03 0.  1.
         11   -1    0    0    0    0 -0.00000000000E+00 -0.00000000000E+00 -0.45593999997E+02  0.45594000000E+02  0.51100000000E-03 0. -1.
    9900012    2    1    2    0    0 -0.26632015047E+02  0.11477109992E+02  0.32289857629E+02  0.47787272070E+02  0.20000004674E+02 0.  0.
         12    1    1    2    0    0  0.26632015047E+02 -0.11477109992E+02 -0.32289857629E+02  0.43400727930E+02  0.00000000000E+00 0. -1.
         11    1    3    3    0    0 -0.10397513076E+02  0.11258386851E+02  0.23950553604E+02  0.28433933440E+02  0.51100000000E-03 0. -1.
        -11    1    3    3    0    0 -0.70666111805E+01 -0.29209237175E+01  0.25265663006E+01  0.80530942173E+01  0.51100000000E-03 0.  1.
        -12    1    3    3    0    0 -0.91678907902E+01  0.31396468579E+01  0.58127377242E+01  0.11300244413E+02  0.00000000000E+00 0.  1.
</event>
<event>
 7    1  0.4937359E-010  0.4778728E+02  0.7816164E-02  0.1312668E+00
        -11   -1    0    0    0    0  0.00000000000E+00  0.00000000000E+00  0.45593999997E+02  0.45594000000E+02  0.51100000000E-03 0.  1.
         11   -1    0    0    0    0 -0.00000000000E+00 -0.00000000000E+00 -0.45593999997E+02  0.45594000000E+02  0.51100000000E-03 0. -1.
    9900012    2    1    2    0    0  0.57038159055E+01  0.36989831508E+02  0.21973656341E+02  0.47787277381E+02  0.20000028892E+02 0.  0.
         12    1    1    2    0    0 -0.57038159055E+01 -0.36989831508E+02 -0.21973656341E+02  0.43400722619E+02  0.00000000000E+00 0. -1.
         11    1    3    3    0    0  0.67081046610E+01  0.15554867302E+02  0.19407021966E+02  0.25760144930E+02  0.51100000000E-03 0. -1.
        -11    1    3    3    0    0 -0.23882544976E+01  0.17315616456E+02  0.14454067546E+01  0.17539199918E+02  0.51100000000E-03 0.  1.
         12    1    3    3    0    0  0.13839657420E+01  0.41193477492E+01  0.11212276200E+01  0.44879325340E+01  0.00000000000E+00 0. -1.
</event>
<event>
 7    1  0.4937359E-010  0.4778727E+02  0.7816164E-02  0.1312668E+00
        -11   -1    0    0    0    0  0.00000000000E+00  0.00000000000E+00  0.45593999997E+02  0.45594000000E+02  0.51100000000E-03 0. -1.
         11   -1    0    0    0    0 -0.00000000000E+00 -0.00000000000E+00 -0.45593999997E+02  0.45594000000E+02  0.51100000000E-03 0.  1.
    9900012    2    1    2    0    0  0.66396548155E+01 -0.38985887703E+02 -0.17878451189E+02  0.47787268751E+02  0.19999989542E+02 0.  0.
         12    1    1    2    0    0 -0.66396548155E+01  0.38985887703E+02  0.17878451189E+02  0.43400731249E+02  0.00000000000E+00 0. -1.
         11    1    3    3    0    0 -0.36277437482E+01 -0.23213729623E+02 -0.88067759475E+01  0.25091772965E+02  0.51100000000E-03 0. -1.
        -11    1    3    3    0    0  0.65988603634E+01 -0.25425952949E+01 -0.32693120287E+01  0.77909017662E+01  0.51100000000E-03 0.  1.
         12    1    3    3    0    0  0.36685382003E+01 -0.13229562785E+02 -0.58023632129E+01  0.14904594019E+02  0.00000000000E+00 0. -1.
</event>
<event>
 7    1  0.4937359E-010  0.4778727E+02  0.7816164E-02  0.1312668E+00
        -11   -1    0    0    0    0  0.00000000000E+00  0.00000000000E+00  0.45593999997E+02  0.45594000000E+02  0.51100000000E-03 0.  1.
         11   -1    0    0    0    0 -0.00000000000E+00 -0.00000000000E+00 -0.45593999997E+02  0.45594000000E+02  0.51100000000E-03 0. -1.
    9900012    2    1    2    0    0  0.66937635115E+01  0.22164570057E+02  0.36708972659E+02  0.47787270635E+02  0.19999998132E+02 0.  0.
         12    1    1    2    0    0 -0.66937635115E+01 -0.22164570057E+02 -0.36708972659E+02  0.43400729365E+02  0.00000000000E+00 0. -1.
         11    1    3    3    0    0  0.33678993783E+01 -0.33493381718E+00  0.96361576231E+01  0.10213249281E+02  0.51100000000E-03 0. -1.
        -11    1    3    3    0    0  0.57104431462E+01  0.22855657519E+02  0.23596518784E+02  0.33343454238E+02  0.51100000000E-03 0.  1.
        -12    1    3    3    0    0 -0.23845790129E+01 -0.35615364434E+00  0.34762962515E+01  0.42305671151E+01  0.00000000000E+00 0.  1.
</event>
<event>
 7    1  0.4937359E-010  0.4778727E+02  0.7816164E-02  0.1312668E+00
        -11   -1    0    0    0    0  0.00000000000E+00  0.00000000000E+00  0.45593999997E+02  0.45594000000E+02  0.51100000000E-03 0. -1.
         11   -1    0    0    0    0 -0.00000000000E+00 -0.00000000000E+00 -0.45593999997E+02  0.45594000000E+02  0.51100000000E-03 0.  1.
    9900012    2    1    2    0    0  0.18833566436E+02  0.38981464478E+02 -0.30603233328E+01  0.47787269863E+02  0.19999994612E+02 0.  0.
         12    1    1    2    0    0 -0.18833566436E+02 -0.38981464478E+02  0.30603233328E+01  0.43400730137E+02  0.00000000000E+00 0. -1.
         11    1    3    3    0    0  0.42520768609E+00  0.59043359242E+01  0.23083070772E+01  0.63537599975E+01  0.51100000000E-03 0. -1.
        -11    1    3    3    0    0  0.10819616041E+01  0.97031232782E+01  0.44450778072E+01  0.10727532766E+02  0.51100000000E-03 0.  1.
        -12    1    3    3    0    0  0.17326397145E+02  0.23374005276E+02 -0.98137082172E+01  0.30705977100E+02  0.00000000000E+00 0.  1.
</event>
<event>
 7    1  0.4937359E-010  0.4778727E+02  0.7816164E-02  0.1312668E+00
        -11   -1    0    0    0    0  0.00000000000E+00  0.00000000000E+00  0.45593999997E+02  0.45594000000E+02  0.51100000000E-03 0. -1.
         11   -1    0    0    0    0 -0.00000000000E+00 -0.00000000000E+00 -0.45593999997E+02  0.45594000000E+02  0.51100000000E-03 0.  1.
    9900012    2    1    2    0    0 -0.38696669051E+02 -0.16362349788E+02  0.10884149182E+02  0.47787269711E+02  0.19999993920E+02 0.  0.
         12    1    1    2    0    0  0.38696669051E+02  0.16362349788E+02 -0.10884149182E+02  0.43400730289E+02  0.00000000000E+00 0. -1.
         11    1    3    3    0    0 -0.99515298397E+00 -0.40562048295E+01  0.50459846415E+01  0.65501975805E+01  0.51100000000E-03 0. -1.
        -11    1    3    3    0    0 -0.28073421731E+02 -0.89314309122E+01  0.85590614034E+01  0.30678086613E+02  0.51100000000E-03 0.  1.
         12    1    3    3    0    0 -0.96280943354E+01 -0.33747140468E+01 -0.27208968626E+01  0.10558985518E+02  0.00000000000E+00 0. -1.
</event>
<event>
 7    1  0.4937359E-010  0.4778727E+02  0.7816164E-02  0.1312668E+00
        -11   -1    0    0    0    0  0.00000000000E+00  0.00000000000E+00  0.45593999997E+02  0.45594000000E+02  0.51100000000E-03 0.  1.
         11   -1    0    0    0    0 -0.00000000000E+00 -0.00000000000E+00 -0.45593999997E+02  0.45594000000E+02  0.51100000000E-03 0. -1.
    9900012    2    1    2    0    0 -0.28100253302E+02  0.32940966735E+02  0.29818865329E+01  0.47787272213E+02  0.20000005330E+02 0.  0.
         12    1    1    2    0    0  0.28100253302E+02 -0.32940966735E+02 -0.29818865329E+01  0.43400727787E+02  0.00000000000E+00 0. -1.
         11    1    3    3    0    0 -0.91102619662E+01  0.15477023010E+02 -0.53071734813E+01  0.18727018048E+02  0.51100000000E-03 0. -1.
        -11    1    3    3    0    0 -0.18833003570E+02  0.18636154498E+02  0.85664028193E+01  0.27845493989E+02  0.51100000000E-03 0.  1.
        -12    1    3    3    0    0 -0.15698776579E+00 -0.11722107731E+01 -0.27734280513E+00  0.12147601766E+01  0.00000000000E+00 0.  1.
</event>
<event>
 7    1  0.4937359E-010  0.4778727E+02  0.7816164E-02  0.1312668E+00
        -11   -1    0    0    0    0  0.00000000000E+00  0.00000000000E+00  0.45593999997E+02  0.45594000000E+02  0.51100000000E-03 0. -1.
         11   -1    0    0    0    0 -0.00000000000E+00 -0.00000000000E+00 -0.45593999997E+02  0.45594000000E+02  0.51100000000E-03 0.  1.
    9900012    2    1    2    0    0 -0.49217187010E+01 -0.29669074450E+01 -0.43018570730E+02  0.47787270946E+02  0.19999999553E+02 0.  0.
         12    1    1    2    0    0  0.49217187010E+01  0.29669074450E+01  0.43018570730E+02  0.43400729054E+02  0.00000000000E+00 0. -1.
         11    1    3    3    0    0 -0.99375713098E+00 -0.40810250451E-01  0.16176212447E+00  0.10076636135E+01  0.51100000000E-03 0. -1.
        -11    1    3    3    0    0 -0.41261579590E+00 -0.19649602688E+01  0.11405458480E+01  0.23091482727E+01  0.51100000000E-03 0.  1.
        -12    1    3    3    0    0 -0.35153457741E+01 -0.96113692577E+00 -0.44320878702E+02  0.44470459060E+02  0.00000000000E+00 0.  1.
</event>
<event>
 7    1  0.4937359E-010  0.4778725E+02  0.7816164E-02  0.1312668E+00
        -11   -1    0    0    0    0  0.00000000000E+00  0.00000000000E+00  0.45593999997E+02  0.45594000000E+02  0.51100000000E-03 0. -1.
         11   -1    0    0    0    0 -0.00000000000E+00 -0.00000000000E+00 -0.45593999997E+02  0.45594000000E+02  0.51100000000E-03 0.  1.
    9900012    2    1    2    0    0 -0.24215908070E+02 -0.95806709608E+01 -0.34719238808E+02  0.47787251123E+02  0.19999909168E+02 0.  0.
         12    1    1    2    0    0  0.24215908070E+02  0.95806709608E+01  0.34719238808E+02  0.43400748877E+02  0.00000000000E+00 0. -1.
         11    1    3    3    0    0  0.79542043360E+00 -0.27617344144E+01 -0.96401830763E+00  0.30313696905E+01  0.51100000000E-03 0. -1.
        -11    1    3    3    0    0 -0.23882331827E+02 -0.18295564606E+01 -0.30107388546E+02  0.38472950181E+02  0.51100000000E-03 0.  1.
        -12    1    3    3    0    0 -0.11289966765E+01 -0.49893800858E+01 -0.36478319548E+01  0.62829312511E+01  0.00000000000E+00 0.  1.
</event>
<event>
 7    1  0.4937359E-010  0.4778727E+02  0.7816164E-02  0.1312668E+00
        -11   -1    0    0    0    0  0.00000000000E+00  0.00000000000E+00  0.45593999997E+02  0.45594000000E+02  0.51100000000E-03 0.  1.
         11   -1    0    0    0    0 -0.00000000000E+00 -0.00000000000E+00 -0.45593999997E+02  0.45594000000E+02  0.51100000000E-03 0. -1.
    9900012    2    1    2    0    0 -0.18812091348E+02  0.39102827360E+02 -0.83516000368E+00  0.47787269814E+02  0.19999994391E+02 0.  0.
         12    1    1    2    0    0  0.18812091348E+02 -0.39102827360E+02  0.83516000368E+00  0.43400730186E+02  0.00000000000E+00 0. -1.
         11    1    3    3    0    0 -0.33504055963E+00 -0.68887380992E+00 -0.22491641657E+00  0.79836517844E+00  0.51100000000E-03 0. -1.
        -11    1    3    3    0    0 -0.44777251543E+01 -0.85589212308E-01  0.13579314549E+01  0.46798852729E+01  0.51100000000E-03 0.  1.
        -12    1    3    3    0    0 -0.13999325634E+02  0.39877290382E+02 -0.19681750420E+01  0.42309019363E+02  0.00000000000E+00 0.  1.
</event>
<event>
 7    1  0.4937359E-010  0.4778727E+02  0.7816164E-02  0.1312668E+00
        -11   -1    0    0    0    0  0.00000000000E+00  0.00000000000E+00  0.45593999997E+02  0.45594000000E+02  0.51100000000E-03 0.  1.
         11   -1    0    0    0    0 -0.00000000000E+00 -0.00000000000E+00 -0.45593999997E+02  0.45594000000E+02  0.51100000000E-03 0. -1.
    9900012    2    1    2    0    0 -0.18523854865E+02 -0.32923144087E+02  0.21367190613E+02  0.47787269011E+02  0.19999990729E+02 0.  0.
         12    1    1    2    0    0  0.18523854865E+02  0.32923144087E+02 -0.21367190613E+02  0.43400730989E+02  0.00000000000E+00 0. -1.
         11    1    3    3    0    0 -0.63964152883E+01 -0.10551197167E+02  0.96823845313E+00  0.12376565604E+02  0.51100000000E-03 0. -1.
        -11    1    3    3    0    0 -0.33180598673E+01 -0.96239253531E+01  0.16572798770E+02  0.19449604619E+02  0.51100000000E-03 0.  1.
        -12    1    3    3    0    0 -0.88093797098E+01 -0.12748021567E+02  0.38261533900E+01  0.15961098788E+02  0.00000000000E+00 0.  1.
</event>
<event>
 7    1  0.4937359E-010  0.4778727E+02  0.7816164E-02  0.1312668E+00
        -11   -1    0    0    0    0  0.00000000000E+00  0.00000000000E+00  0.45593999997E+02  0.45594000000E+02  0.51100000000E-03 0.  1.
         11   -1    0    0    0    0 -0.00000000000E+00 -0.00000000000E+00 -0.45593999997E+02  0.45594000000E+02  0.51100000000E-03 0. -1.
    9900012    2    1    2    0    0  0.36065949131E+02  0.23954131987E+02  0.30116730528E+01  0.47787270737E+02  0.19999998599E+02 0.  0.
         12    1    1    2    0    0 -0.36065949131E+02 -0.23954131987E+02 -0.30116730528E+01  0.43400729263E+02  0.00000000000E+00 0. -1.
         11    1    3    3    0    0  0.33344521876E+01  0.10754484952E+02 -0.27778765920E+01  0.11597159850E+02  0.51100000000E-03 0. -1.
        -11    1    3    3    0    0  0.19141202035E+02  0.80156759938E+01  0.64538108114E+00  0.20761820584E+02  0.51100000000E-03 0.  1.
         12    1    3    3    0    0  0.13590294908E+02  0.51839710417E+01  0.51441685636E+01  0.15428290303E+02  0.00000000000E+00 0. -1.
</event>
<event>
 7    1  0.4937359E-010  0.4778727E+02  0.7816164E-02  0.1312668E+00
        -11   -1    0    0    0    0  0.00000000000E+00  0.00000000000E+00  0.45593999997E+02  0.45594000000E+02  0.51100000000E-03 0. -1.
         11   -1    0    0    0    0 -0.00000000000E+00 -0.00000000000E+00 -0.45593999997E+02  0.45594000000E+02  0.51100000000E-03 0.  1.
    9900012    2    1    2    0    0  0.70238091537E+01 -0.28145699321E+02 -0.32281714836E+02  0.47787269613E+02  0.19999993475E+02 0.  0.
         12    1    1    2    0    0 -0.70238091537E+01  0.28145699321E+02  0.32281714836E+02  0.43400730387E+02  0.00000000000E+00 0. -1.
         11    1    3    3    0    0  0.39912231570E+01  0.99915219902E+00 -0.99708496634E+01  0.10786380796E+02  0.51100000000E-03 0. -1.
        -11    1    3    3    0    0  0.55762434465E+00 -0.52582310798E+00 -0.84374813451E+00  0.11398886026E+01  0.51100000000E-03 0.  1.
         12    1    3    3    0    0  0.24749616521E+01 -0.28619028413E+02 -0.21467117038E+02  0.35861000215E+02  0.00000000000E+00 0. -1.
</event>
<event>
 7    1  0.4937359E-010  0.4778728E+02  0.7816164E-02  0.1312668E+00
        -11   -1    0    0    0    0  0.00000000000E+00  0.00000000000E+00  0.45593999997E+02  0.45594000000E+02  0.51100000000E-03 0.  1.
         11   -1    0    0    0    0 -0.00000000000E+00 -0.00000000000E+00 -0.45593999997E+02  0.45594000000E+02  0.51100000000E-03 0. -1.
    9900012    2    1    2    0    0 -0.25590736071E+00 -0.41328159379E+01  0.43202745121E+02  0.47787276019E+02  0.20000022680E+02 0.  0.
         12    1    1    2    0    0  0.25590736071E+00  0.41328159379E+01 -0.43202745121E+02  0.43400723981E+02  0.00000000000E+00 0. -1.
         11    1    3    3    0    0 -0.21873120225E+01 -0.28353335767E+01 -0.29329780100E+00  0.35929756798E+01  0.51100000000E-03 0. -1.
        -11    1    3    3    0    0  0.21949217124E+01  0.24411445294E+01  0.30269723442E+02  0.30447217039E+02  0.51100000000E-03 0.  1.
         12    1    3    3    0    0 -0.26351705064E+00 -0.37386268906E+01  0.13226319480E+02  0.13747083299E+02  0.00000000000E+00 0. -1.
</event>
<event>
 7    1  0.4937359E-010  0.4778727E+02  0.7816164E-02  0.1312668E+00
        -11   -1    0    0    0    0  0.00000000000E+00  0.00000000000E+00  0.45593999997E+02  0.45594000000E+02  0.51100000000E-03 0.  1.
         11   -1    0    0    0    0 -0.00000000000E+00 -0.00000000000E+00 -0.45593999997E+02  0.45594000000E+02  0.51100000000E-03 0. -1.
    9900012    2    1    2    0    0  0.15526924234E+02  0.26186552771E+02  0.30932221272E+02  0.47787271492E+02  0.20000002041E+02 0.  0.
         12    1    1    2    0    0 -0.15526924234E+02 -0.26186552771E+02 -0.30932221272E+02  0.43400728508E+02  0.00000000000E+00 0. -1.
         11    1    3    3    0    0  0.39427952379E+01  0.10774939901E+02  0.65714967275E+01  0.13222311963E+02  0.51100000000E-03 0. -1.
        -11    1    3    3    0    0 -0.19754099397E+01  0.76951399594E+01  0.13112319689E+02  0.15331351907E+02  0.51100000000E-03 0.  1.
        -12    1    3    3    0    0  0.13559538936E+02  0.77164729106E+01  0.11248404856E+02  0.19233607622E+02  0.00000000000E+00 0.  1.
</event>
<event>
 7    1  0.4937359E-010  0.4778727E+02  0.7816164E-02  0.1312668E+00
        -11   -1    0    0    0    0  0.00000000000E+00  0.00000000000E+00  0.45593999997E+02  0.45594000000E+02  0.51100000000E-03 0. -1.
         11   -1    0    0    0    0 -0.00000000000E+00 -0.00000000000E+00 -0.45593999997E+02  0.45594000000E+02  0.51100000000E-03 0.  1.
    9900012    2    1    2    0    0  0.48403607775E+01  0.67935678338E+01 -0.42591565581E+02  0.47787272875E+02  0.20000008346E+02 0.  0.
         12    1    1    2    0    0 -0.48403607775E+01 -0.67935678338E+01  0.42591565581E+02  0.43400727125E+02  0.00000000000E+00 0. -1.
         11    1    3    3    0    0  0.10744179114E+02  0.50088429792E+01 -0.17285616956E+02  0.20959924776E+02  0.51100000000E-03 0. -1.
        -11    1    3    3    0    0 -0.53316485064E+01 -0.88415067635E+00 -0.21334292187E+02  0.22008185332E+02  0.51100000000E-03 0.  1.
        -12    1    3    3    0    0 -0.57216983021E+00  0.26688755310E+01 -0.39716564378E+01  0.48191627670E+01  0.00000000000E+00 0.  1.
</event>
<event>
 7    1  0.4937359E-010  0.4778727E+02  0.7816164E-02  0.1312668E+00
        -11   -1    0    0    0    0  0.00000000000E+00  0.00000000000E+00  0.45593999997E+02  0.45594000000E+02  0.51100000000E-03 0. -1.
         11   -1    0    0    0    0 -0.00000000000E+00 -0.00000000000E+00 -0.45593999997E+02  0.45594000000E+02  0.51100000000E-03 0.  1.
    9900012    2    1    2    0    0 -0.94972415870E+01  0.33382086969E+02 -0.26058815000E+02  0.47787272271E+02  0.20000005594E+02 0.  0.
         12    1    1    2    0    0  0.94972415870E+01 -0.33382086969E+02  0.26058815000E+02  0.43400727729E+02  0.00000000000E+00 0. -1.
         11    1    3    3    0    0 -0.52796228237E+01  0.18016758330E+01 -0.97659170267E+01  0.11246936854E+02  0.51100000000E-03 0. -1.
        -11    1    3    3    0    0 -0.62652759112E+01  0.23393023422E+02 -0.12953002294E+02  0.27463930814E+02  0.51100000000E-03 0.  1.
         12    1    3    3    0    0  0.20476571480E+01  0.81873877137E+01 -0.33398956799E+01  0.90764046033E+01  0.00000000000E+00 0. -1.
</event>
<event>
 7    1  0.4937359E-010  0.4778728E+02  0.7816164E-02  0.1312668E+00
        -11   -1    0    0    0    0  0.00000000000E+00  0.00000000000E+00  0.45593999997E+02  0.45594000000E+02  0.51100000000E-03 0.  1.
         11   -1    0    0    0    0 -0.00000000000E+00 -0.00000000000E+00 -0.45593999997E+02  0.45594000000E+02  0.51100000000E-03 0. -1.
    9900012    2    1    2    0    0  0.86514045616E+01  0.27691509185E+02  0.32279337049E+02  0.47787284773E+02  0.20000062596E+02 0.  0.
         12    1    1    2    0    0 -0.86514045616E+01 -0.27691509185E+02 -0.32279337049E+02  0.43400715227E+02  0.00000000000E+00 0. -1.
         11    1    3    3    0    0  0.50425320885E+01 -0.32282706005E+00  0.49571571414E+01  0.70784711880E+01  0.51100000000E-03 0. -1.
        -11    1    3    3    0    0  0.48536362854E+01  0.21481673353E+02  0.14811765068E+02  0.26540694413E+02  0.51100000000E-03 0.  1.
        -12    1    3    3    0    0 -0.12447638123E+01  0.65326628918E+01  0.12510414840E+02  0.14168119172E+02  0.00000000000E+00 0.  1.
</event>
<event>
 7    1  0.4937359E-010  0.4778727E+02  0.7816164E-02  0.1312668E+00
        -11   -1    0    0    0    0  0.00000000000E+00  0.00000000000E+00  0.45593999997E+02  0.45594000000E+02  0.51100000000E-03 0.  1.
         11   -1    0    0    0    0 -0.00000000000E+00 -0.00000000000E+00 -0.45593999997E+02  0.45594000000E+02  0.51100000000E-03 0. -1.
    9900012    2    1    2    0    0 -0.19752681995E+02  0.35855992256E+02 -0.14415353974E+02  0.47787273544E+02  0.20000011399E+02 0.  0.
         12    1    1    2    0    0  0.19752681995E+02 -0.35855992256E+02  0.14415353974E+02  0.43400726456E+02  0.00000000000E+00 0. -1.
         11    1    3    3    0    0 -0.62776880683E+01  0.31545293948E+01  0.30647389459E+01  0.76650537019E+01  0.51100000000E-03 0.  1.
        -11    1    3    3    0    0 -0.70412352767E+01  0.24646353158E+02 -0.14205081611E+02  0.29305393054E+02  0.51100000000E-03 0. -1.
         12    1    3    3    0    0 -0.64337586496E+01  0.80551097032E+01 -0.32750113089E+01  0.10816826788E+02  0.00000000000E+00 0. -1.
</event>
<event>
 7    1  0.4937359E-010  0.4778727E+02  0.7816164E-02  0.1312668E+00
        -11   -1    0    0    0    0  0.00000000000E+00  0.00000000000E+00  0.45593999997E+02  0.45594000000E+02  0.51100000000E-03 0.  1.
         11   -1    0    0    0    0 -0.00000000000E+00 -0.00000000000E+00 -0.45593999997E+02  0.45594000000E+02  0.51100000000E-03 0. -1.
    9900012    2    1    2    0    0 -0.17548352497E+02  0.50627550449E+00  0.39691593345E+02  0.47787267604E+02  0.19999984314E+02 0.  0.
         12    1    1    2    0    0  0.17548352497E+02 -0.50627550449E+00 -0.39691593345E+02  0.43400732396E+02  0.00000000000E+00 0. -1.
         11    1    3    3    0    0  0.43606275244E+00 -0.18890420726E+01  0.84275168179E+00  0.21139681488E+01  0.51100000000E-03 0. -1.
        -11    1    3    3    0    0 -0.43878154903E+01  0.80138767765E+01  0.12317992006E+02  0.15336494811E+02  0.51100000000E-03 0.  1.
        -12    1    3    3    0    0 -0.13596599759E+02 -0.56185591994E+01  0.26530849657E+02  0.30336804644E+02  0.00000000000E+00 0.  1.
</event>
<event>
 7    1  0.4937359E-010  0.4778727E+02  0.7816164E-02  0.1312668E+00
        -11   -1    0    0    0    0  0.00000000000E+00  0.00000000000E+00  0.45593999997E+02  0.45594000000E+02  0.51100000000E-03 0.  1.
         11   -1    0    0    0    0 -0.00000000000E+00 -0.00000000000E+00 -0.45593999997E+02  0.45594000000E+02  0.51100000000E-03 0. -1.
    9900012    2    1    2    0    0  0.34633080511E+02 -0.20274764048E+02  0.16525950859E+02  0.47787269883E+02  0.19999994705E+02 0.  0.
         12    1    1    2    0    0 -0.34633080511E+02  0.20274764048E+02 -0.16525950859E+02  0.43400730117E+02  0.00000000000E+00 0. -1.
         11    1    3    3    0    0  0.93020978202E+01 -0.95081379556E+00  0.11707957743E+01  0.94235786056E+01  0.51100000000E-03 0. -1.
        -11    1    3    3    0    0  0.99067959974E+01 -0.12242833157E+02  0.14440238829E+02  0.21367079079E+02  0.51100000000E-03 0.  1.
        -12    1    3    3    0    0  0.15424186694E+02 -0.70811170954E+01  0.91491625513E+00  0.16996612199E+02  0.00000000000E+00 0.  1.
</event>
<event>
 7    1  0.4937359E-010  0.4778727E+02  0.7816164E-02  0.1312668E+00
        -11   -1    0    0    0    0  0.00000000000E+00  0.00000000000E+00  0.45593999997E+02  0.45594000000E+02  0.51100000000E-03 0.  1.
         11   -1    0    0    0    0 -0.00000000000E+00 -0.00000000000E+00 -0.45593999997E+02  0.45594000000E+02  0.51100000000E-03 0. -1.
    9900012    2    1    2    0    0 -0.27706687015E+02  0.31704411673E+02  0.10525823209E+02  0.47787272136E+02  0.20000004977E+02 0.  0.
         12    1    1    2    0    0  0.27706687015E+02 -0.31704411673E+02 -0.10525823209E+02  0.43400727864E+02  0.00000000000E+00 0. -1.
         11    1    3    3    0    0 -0.26485135399E+01  0.67584467425E+01  0.82590890864E+00  0.73057068193E+01  0.51100000000E-03 0. -1.
        -11    1    3    3    0    0 -0.25482656796E+02  0.18702811028E+02  0.37226466372E+01  0.31827959972E+02  0.51100000000E-03 0.  1.
        -12    1    3    3    0    0  0.42448332102E+00  0.62431539021E+01  0.59772676633E+01  0.86536053443E+01  0.00000000000E+00 0.  1.
</event>
<event>
 7    1  0.4937359E-010  0.4778727E+02  0.7816164E-02  0.1312668E+00
        -11   -1    0    0    0    0  0.00000000000E+00  0.00000000000E+00  0.45593999997E+02  0.45594000000E+02  0.51100000000E-03 0. -1.
         11   -1    0    0    0    0 -0.00000000000E+00 -0.00000000000E+00 -0.45593999997E+02  0.45594000000E+02  0.51100000000E-03 0.  1.
    9900012    2    1    2    0    0 -0.56160078495E+01  0.20028019295E+02 -0.38091496887E+02  0.47787271479E+02  0.20000001983E+02 0.  0.
         12    1    1    2    0    0  0.56160078495E+01 -0.20028019295E+02  0.38091496887E+02  0.43400728521E+02  0.00000000000E+00 0. -1.
         11    1    3    3    0    0 -0.84656217304E+01  0.44111487332E+01 -0.24726570575E+02  0.26505249992E+02  0.51100000000E-03 0. -1.
        -11    1    3    3    0    0  0.39579367452E+01  0.14198383199E+02 -0.12240440465E+02  0.19159533705E+02  0.51100000000E-03 0.  1.
        -12    1    3    3    0    0 -0.11083228643E+01  0.14184873624E+01 -0.11244858460E+01  0.21224877825E+01  0.00000000000E+00 0.  1.
</event>
<event>
 7    1  0.4937359E-010  0.4778727E+02  0.7816164E-02  0.1312668E+00
        -11   -1    0    0    0    0  0.00000000000E+00  0.00000000000E+00  0.45593999997E+02  0.45594000000E+02  0.51100000000E-03 0. -1.
         11   -1    0    0    0    0 -0.00000000000E+00 -0.00000000000E+00 -0.45593999997E+02  0.45594000000E+02  0.51100000000E-03 0.  1.
    9900012    2    1    2    0    0 -0.54660117648E+01  0.17943391288E+02 -0.39137968993E+02  0.47787271983E+02  0.20000004278E+02 0.  0.
         12    1    1    2    0    0  0.54660117648E+01 -0.17943391288E+02  0.39137968993E+02  0.43400728017E+02  0.00000000000E+00 0. -1.
         11    1    3    3    0    0  0.21936139491E+01 -0.31577795341E+01 -0.72875268504E+01  0.82396335840E+01  0.51100000000E-03 0. -1.
        -11    1    3    3    0    0 -0.75609407879E+01  0.21327778158E+02 -0.29474907981E+02  0.37159280772E+02  0.51100000000E-03 0.  1.
        -12    1    3    3    0    0 -0.98684925904E-01 -0.22660733569E+00 -0.23755341617E+01  0.23883576266E+01  0.00000000000E+00 0.  1.
</event>
<event>
 7    1  0.4937359E-010  0.4778727E+02  0.7816164E-02  0.1312668E+00
        -11   -1    0    0    0    0  0.00000000000E+00  0.00000000000E+00  0.45593999997E+02  0.45594000000E+02  0.51100000000E-03 0.  1.
         11   -1    0    0    0    0 -0.00000000000E+00 -0.00000000000E+00 -0.45593999997E+02  0.45594000000E+02  0.51100000000E-03 0. -1.
    9900012    2    1    2    0    0  0.22484901887E+02  0.36558321013E+02  0.64452832976E+01  0.47787270456E+02  0.19999997317E+02 0.  0.
         12    1    1    2    0    0 -0.22484901887E+02 -0.36558321013E+02 -0.64452832976E+01  0.43400729544E+02  0.00000000000E+00 0. -1.
         11    1    3    3    0    0 -0.10198497808E+01 -0.11833881317E+01  0.15821216860E+00  0.15702013874E+01  0.51100000000E-03 0. -1.
        -11    1    3    3    0    0  0.13205419657E+02  0.30334745110E+02  0.51042324851E+01  0.33475857850E+02  0.51100000000E-03 0.  1.
        -12    1    3    3    0    0  0.10299332011E+02  0.74069640341E+01  0.11828386439E+01  0.12741211219E+02  0.00000000000E+00 0.  1.
</event>
<event>
 7    1  0.4937359E-010  0.4778728E+02  0.7816164E-02  0.1312668E+00
        -11   -1    0    0    0    0  0.00000000000E+00  0.00000000000E+00  0.45593999997E+02  0.45594000000E+02  0.51100000000E-03 0.  1.
         11   -1    0    0    0    0 -0.00000000000E+00 -0.00000000000E+00 -0.45593999997E+02  0.45594000000E+02  0.51100000000E-03 0. -1.
    9900012    2    1    2    0    0 -0.11806289508E+02 -0.41222057492E+02  0.67064204468E+01  0.47787279142E+02  0.20000036918E+02 0.  0.
         12    1    1    2    0    0  0.11806289508E+02  0.41222057492E+02 -0.67064204468E+01  0.43400720858E+02  0.00000000000E+00 0. -1.
         11    1    3    3    0    0 -0.20029759902E+01 -0.87475531588E+01 -0.11556006504E+01  0.90480391360E+01  0.51100000000E-03 0. -1.
        -11    1    3    3    0    0  0.39410123261E+01 -0.15997455442E+02  0.33272617848E+01  0.16808355958E+02  0.51100000000E-03 0.  1.
        -12    1    3    3    0    0 -0.13744325844E+02 -0.16477048891E+02  0.45347593124E+01  0.21930884047E+02  0.00000000000E+00 0.  1.
</event>
<event>
 7    1  0.4937359E-010  0.4778727E+02  0.7816164E-02  0.1312668E+00
        -11   -1    0    0    0    0  0.00000000000E+00  0.00000000000E+00  0.45593999997E+02  0.45594000000E+02  0.51100000000E-03 0.  1.
         11   -1    0    0    0    0 -0.00000000000E+00 -0.00000000000E+00 -0.45593999997E+02  0.45594000000E+02  0.51100000000E-03 0. -1.
    9900012    2    1    2    0    0 -0.28068677308E+02  0.32797634788E+02  0.44819606406E+01  0.47787268846E+02  0.19999989979E+02 0.  0.
         12    1    1    2    0    0  0.28068677308E+02 -0.32797634788E+02 -0.44819606406E+01  0.43400731154E+02  0.00000000000E+00 0. -1.
         11    1    3    3    0    0 -0.92370840524E+01  0.35678532209E+01  0.58401368575E+01  0.11496107914E+02  0.51100000000E-03 0. -1.
        -11    1    3    3    0    0 -0.15150479948E+02  0.22668249160E+02  0.32661358883E+01  0.27460047461E+02  0.51100000000E-03 0.  1.
         12    1    3    3    0    0 -0.36811133075E+01  0.65615324065E+01 -0.46243121052E+01  0.88311134717E+01  0.00000000000E+00 0. -1.
</event>
<event>
 7    1  0.4937359E-010  0.4778727E+02  0.7816164E-02  0.1312668E+00
        -11   -1    0    0    0    0  0.00000000000E+00  0.00000000000E+00  0.45593999997E+02  0.45594000000E+02  0.51100000000E-03 0.  1.
         11   -1    0    0    0    0 -0.00000000000E+00 -0.00000000000E+00 -0.45593999997E+02  0.45594000000E+02  0.51100000000E-03 0. -1.
    9900012    2    1    2    0    0  0.37696204605E+02 -0.19090755389E+02  0.99076973342E+01  0.47787271326E+02  0.20000001285E+02 0.  0.
         12    1    1    2    0    0 -0.37696204605E+02  0.19090755389E+02 -0.99076973342E+01  0.43400728674E+02  0.00000000000E+00 0. -1.
         11    1    3    3    0    0  0.77848863761E+01 -0.19321804991E+01 -0.52624616147E+01  0.95932934844E+01  0.51100000000E-03 0. -1.
        -11    1    3    3    0    0  0.25722846031E+02 -0.17051331954E+02  0.13261899551E+02  0.33590038840E+02  0.51100000000E-03 0.  1.
         12    1    3    3    0    0  0.41884721981E+01 -0.10724293625E+00  0.19082593984E+01  0.46039390019E+01  0.00000000000E+00 0. -1.
</event>
<event>
 7    1  0.4937359E-010  0.4778727E+02  0.7816164E-02  0.1312668E+00
        -11   -1    0    0    0    0  0.00000000000E+00  0.00000000000E+00  0.45593999997E+02  0.45594000000E+02  0.51100000000E-03 0. -1.
         11   -1    0    0    0    0 -0.00000000000E+00 -0.00000000000E+00 -0.45593999997E+02  0.45594000000E+02  0.51100000000E-03 0.  1.
    9900012    2    1    2    0    0  0.15568672172E+01 -0.73765725434E+01 -0.42740914531E+02  0.47787269211E+02  0.19999991642E+02 0.  0.
         12    1    1    2    0    0 -0.15568672172E+01  0.73765725434E+01  0.42740914531E+02  0.43400730789E+02  0.00000000000E+00 0. -1.
         11    1    3    3    0    0  0.83083621440E+01 -0.76198961693E+01 -0.28975577341E+02  0.31091410094E+02  0.51100000000E-03 0. -1.
        -11    1    3    3    0    0 -0.60469797338E+01  0.21003652094E+01 -0.63405391065E+01  0.90099908066E+01  0.51100000000E-03 0.  1.
        -12    1    3    3    0    0 -0.70451519301E+00 -0.18570415834E+01 -0.74247980840E+01  0.76858683106E+01  0.00000000000E+00 0.  1.
</event>
<event>
 7    1  0.4937359E-010  0.4778729E+02  0.7816164E-02  0.1312668E+00
        -11   -1    0    0    0    0  0.00000000000E+00  0.00000000000E+00  0.45593999997E+02  0.45594000000E+02  0.51100000000E-03 0.  1.
         11   -1    0    0    0    0 -0.00000000000E+00 -0.00000000000E+00 -0.45593999997E+02  0.45594000000E+02  0.51100000000E-03 0. -1.
    9900012    2    1    2    0    0  0.30816004288E+02  0.13321570272E+02  0.27505114522E+02  0.47787289411E+02  0.20000083739E+02 0.  0.
         12    1    1    2    0    0 -0.30816004288E+02 -0.13321570272E+02 -0.27505114522E+02  0.43400710589E+02  0.00000000000E+00 0. -1.
         11    1    3    3    0    0  0.26031083758E+02  0.10492272515E+02  0.28164974719E+02  0.39761424841E+02  0.51100000000E-03 0. -1.
        -11    1    3    3    0    0  0.28618044637E+01  0.35303549611E+01  0.17447589172E+01  0.48680093344E+01  0.51100000000E-03 0.  1.
         12    1    3    3    0    0  0.19231160659E+01 -0.70105720421E+00 -0.24046191140E+01  0.31578552358E+01  0.00000000000E+00 0. -1.
</event>
<event>
 7    1  0.4937359E-010  0.4778727E+02  0.7816164E-02  0.1312668E+00
        -11   -1    0    0    0    0  0.00000000000E+00  0.00000000000E+00  0.45593999997E+02  0.45594000000E+02  0.51100000000E-03 0. -1.
         11   -1    0    0    0    0 -0.00000000000E+00 -0.00000000000E+00 -0.45593999997E+02  0.45594000000E+02  0.51100000000E-03 0.  1.
    9900012    2    1    2    0    0  0.51342569290E+01  0.30749222758E+02 -0.30195164372E+02  0.47787271366E+02  0.20000001468E+02 0.  0.
         12    1    1    2    0    0 -0.51342569290E+01 -0.30749222758E+02  0.30195164372E+02  0.43400728634E+02  0.00000000000E+00 0. -1.
         11    1    3    3    0    0  0.50828107627E+01  0.86026839629E+01 -0.15401749368E+02  0.18359058268E+02  0.51100000000E-03 0. -1.
        -11    1    3    3    0    0 -0.32144512358E+01  0.33434004446E+01  0.89424553687E+00  0.47234202249E+01  0.51100000000E-03 0.  1.
        -12    1    3    3    0    0  0.32658974021E+01  0.18803138351E+02 -0.15687660541E+02  0.24704792874E+02  0.00000000000E+00 0.  1.
</event>
<event>
 7    1  0.4937359E-010  0.4778727E+02  0.7816164E-02  0.1312668E+00
        -11   -1    0    0    0    0  0.00000000000E+00  0.00000000000E+00  0.45593999997E+02  0.45594000000E+02  0.51100000000E-03 0. -1.
         11   -1    0    0    0    0 -0.00000000000E+00 -0.00000000000E+00 -0.45593999997E+02  0.45594000000E+02  0.51100000000E-03 0.  1.
    9900012    2    1    2    0    0  0.20107714175E+02  0.28300759735E+02 -0.26045534704E+02  0.47787273636E+02  0.20000011817E+02 0.  0.
         12    1    1    2    0    0 -0.20107714175E+02 -0.28300759735E+02  0.26045534704E+02  0.43400726364E+02  0.00000000000E+00 0. -1.
         11    1    3    3    0    0  0.95210627132E+01  0.24091732543E+02 -0.21639563326E+02  0.33754005885E+02  0.51100000000E-03 0. -1.
        -11    1    3    3    0    0  0.10266043129E+02  0.29688138231E+01 -0.14155603697E+01  0.10780042136E+02  0.51100000000E-03 0.  1.
        -12    1    3    3    0    0  0.32060833291E+00  0.12402133691E+01 -0.29904110082E+01  0.32532256150E+01  0.00000000000E+00 0.  1.
</event>
<event>
 7    1  0.4937359E-010  0.4778728E+02  0.7816164E-02  0.1312668E+00
        -11   -1    0    0    0    0  0.00000000000E+00  0.00000000000E+00  0.45593999997E+02  0.45594000000E+02  0.51100000000E-03 0.  1.
         11   -1    0    0    0    0 -0.00000000000E+00 -0.00000000000E+00 -0.45593999997E+02  0.45594000000E+02  0.51100000000E-03 0. -1.
    9900012    2    1    2    0    0 -0.22427535214E+02  0.23730957858E+02  0.28591428994E+02  0.47787279861E+02  0.20000040200E+02 0.  0.
         12    1    1    2    0    0  0.22427535214E+02 -0.23730957858E+02 -0.28591428994E+02  0.43400720139E+02  0.00000000000E+00 0. -1.
         11    1    3    3    0    0 -0.19361277813E+02  0.13605138463E+02  0.16121946482E+02  0.28633477431E+02  0.51100000000E-03 0. -1.
        -11    1    3    3    0    0  0.28574573983E+00  0.60174583521E+01  0.12472858102E+02  0.13851485304E+02  0.51100000000E-03 0.  1.
         12    1    3    3    0    0 -0.33520031398E+01  0.41083610425E+01 -0.33755897181E-02  0.53023171255E+01  0.00000000000E+00 0. -1.
</event>
<event>
 7    1  0.4937359E-010  0.4778727E+02  0.7816164E-02  0.1312668E+00
        -11   -1    0    0    0    0  0.00000000000E+00  0.00000000000E+00  0.45593999997E+02  0.45594000000E+02  0.51100000000E-03 0. -1.
         11   -1    0    0    0    0 -0.00000000000E+00 -0.00000000000E+00 -0.45593999997E+02  0.45594000000E+02  0.51100000000E-03 0.  1.
    9900012    2    1    2    0    0 -0.26273668596E+02 -0.34412019178E+02  0.30216618878E+01  0.47787272288E+02  0.20000005668E+02 0.  0.
         12    1    1    2    0    0  0.26273668596E+02  0.34412019178E+02 -0.30216618878E+01  0.43400727712E+02  0.00000000000E+00 0. -1.
         11    1    3    3    0    0 -0.26974078183E+01  0.15787780620E+01 -0.18848260529E+01  0.36498107647E+01  0.51100000000E-03 0. -1.
        -11    1    3    3    0    0 -0.13302318300E+02 -0.22249720939E+02  0.70038950430E+01  0.26852491506E+02  0.51100000000E-03 0.  1.
        -12    1    3    3    0    0 -0.10273942478E+02 -0.13741076301E+02 -0.20974071023E+01  0.17284970017E+02  0.00000000000E+00 0.  1.
</event>
<event>
 7    1  0.4937359E-010  0.4778728E+02  0.7816164E-02  0.1312668E+00
        -11   -1    0    0    0    0  0.00000000000E+00  0.00000000000E+00  0.45593999997E+02  0.45594000000E+02  0.51100000000E-03 0.  1.
         11   -1    0    0    0    0 -0.00000000000E+00 -0.00000000000E+00 -0.45593999997E+02  0.45594000000E+02  0.51100000000E-03 0. -1.
    9900012    2    1    2    0    0  0.10938492653E+02  0.27466471481E+02  0.31773647137E+02  0.47787281924E+02  0.20000049604E+02 0.  0.
         12    1    1    2    0    0 -0.10938492653E+02 -0.27466471481E+02 -0.31773647137E+02  0.43400718076E+02  0.00000000000E+00 0. -1.
         11    1    3    3    0    0 -0.99960933970E-02  0.42802695435E+01 -0.13587251512E+01  0.44907618045E+01  0.51100000000E-03 0. -1.
        -11    1    3    3    0    0  0.61757172388E+01  0.11860574385E+02  0.25599159129E+02  0.28881302889E+02  0.51100000000E-03 0.  1.
        -12    1    3    3    0    0  0.47727715080E+01  0.11325627552E+02  0.75332131586E+01  0.14415217231E+02  0.00000000000E+00 0.  1.
</event>
<event>
 7    1  0.4937359E-010  0.4778727E+02  0.7816164E-02  0.1312668E+00
        -11   -1    0    0    0    0  0.00000000000E+00  0.00000000000E+00  0.45593999997E+02  0.45594000000E+02  0.51100000000E-03 0.  1.
         11   -1    0    0    0    0 -0.00000000000E+00 -0.00000000000E+00 -0.45593999997E+02  0.45594000000E+02  0.51100000000E-03 0. -1.
    9900012    2    1    2    0    0 -0.87886813555E+01 -0.25429821199E+02  0.34054466446E+02  0.47787269464E+02  0.19999992793E+02 0.  0.
         12    1    1    2    0    0  0.87886813555E+01  0.25429821199E+02 -0.34054466446E+02  0.43400730536E+02  0.00000000000E+00 0. -1.
         11    1    3    3    0    0  0.16567637108E+01 -0.19259492634E+02  0.17899904258E+02  0.26345388500E+02  0.51100000000E-03 0. -1.
        -11    1    3    3    0    0 -0.69471940868E+01 -0.26443082437E+01  0.42969733216E+01  0.85860265405E+01  0.51100000000E-03 0.  1.
         12    1    3    3    0    0 -0.34982509796E+01 -0.35260203204E+01  0.11857588866E+02  0.12855854423E+02  0.00000000000E+00 0. -1.
</event>
<event>
 7    1  0.4937359E-010  0.4778727E+02  0.7816164E-02  0.1312668E+00
        -11   -1    0    0    0    0  0.00000000000E+00  0.00000000000E+00  0.45593999997E+02  0.45594000000E+02  0.51100000000E-03 0.  1.
         11   -1    0    0    0    0 -0.00000000000E+00 -0.00000000000E+00 -0.45593999997E+02  0.45594000000E+02  0.51100000000E-03 0. -1.
    9900012    2    1    2    0    0  0.38705341085E+02  0.10735481568E+02  0.16439868943E+02  0.47787270929E+02  0.19999999475E+02 0.  0.
         12    1    1    2    0    0 -0.38705341085E+02 -0.10735481568E+02 -0.16439868943E+02  0.43400729071E+02  0.00000000000E+00 0. -1.
         11    1    3    3    0    0  0.42597776078E+01  0.55263662119E+01  0.63289065575E+01  0.94202700200E+01  0.51100000000E-03 0. -1.
        -11    1    3    3    0    0  0.31617729136E+02  0.67170932547E+01  0.55557013906E+01  0.32797346779E+02  0.51100000000E-03 0.  1.
         12    1    3    3    0    0  0.28278343404E+01 -0.15079778982E+01  0.45552609951E+01  0.55696541304E+01  0.00000000000E+00 0. -1.
</event>
<event>
 7    1  0.4937359E-010  0.4778727E+02  0.7816164E-02  0.1312668E+00
        -11   -1    0    0    0    0  0.00000000000E+00  0.00000000000E+00  0.45593999997E+02  0.45594000000E+02  0.51100000000E-03 0.  1.
         11   -1    0    0    0    0 -0.00000000000E+00 -0.00000000000E+00 -0.45593999997E+02  0.45594000000E+02  0.51100000000E-03 0. -1.
    9900012    2    1    2    0    0  0.23775398415E+02  0.33321472315E+02  0.14423363790E+02  0.47787268323E+02  0.19999987593E+02 0.  0.
         12    1    1    2    0    0 -0.23775398415E+02 -0.33321472315E+02 -0.14423363790E+02  0.43400731677E+02  0.00000000000E+00 0. -1.
         11    1    3    3    0    0  0.16638301294E+02  0.14168217771E+02  0.24800206206E+01  0.21993680167E+02  0.51100000000E-03 0. -1.
        -11    1    3    3    0    0 -0.75718456329E+00  0.26264131976E+01  0.59074705619E+01  0.65091922270E+01  0.51100000000E-03 0.  1.
        -12    1    3    3    0    0  0.78942816846E+01  0.16526841347E+02  0.60358726071E+01  0.19284395929E+02  0.00000000000E+00 0.  1.
</event>
<event>
 7    1  0.4937359E-010  0.4778728E+02  0.7816164E-02  0.1312668E+00
        -11   -1    0    0    0    0  0.00000000000E+00  0.00000000000E+00  0.45593999997E+02  0.45594000000E+02  0.51100000000E-03 0.  1.
         11   -1    0    0    0    0 -0.00000000000E+00 -0.00000000000E+00 -0.45593999997E+02  0.45594000000E+02  0.51100000000E-03 0. -1.
    9900012    2    1    2    0    0 -0.21004241608E+02  0.81069980334E+00  0.37970877129E+02  0.47787275240E+02  0.20000019131E+02 0.  0.
         12    1    1    2    0    0  0.21004241608E+02 -0.81069980334E+00 -0.37970877129E+02  0.43400724760E+02  0.00000000000E+00 0. -1.
         11    1    3    3    0    0  0.39714917522E-01  0.34919450560E+01 -0.15230525593E+00  0.34954906238E+01  0.51100000000E-03 0. -1.
        -11    1    3    3    0    0 -0.13871337787E+02 -0.53878703429E+01  0.25230271394E+02  0.29291803524E+02  0.51100000000E-03 0.  1.
         12    1    3    3    0    0 -0.71726187382E+01  0.27066250902E+01  0.12892910991E+02  0.14999981092E+02  0.00000000000E+00 0. -1.
</event>
<event>
 7    1  0.4937359E-010  0.4778727E+02  0.7816164E-02  0.1312668E+00
        -11   -1    0    0    0    0  0.00000000000E+00  0.00000000000E+00  0.45593999997E+02  0.45594000000E+02  0.51100000000E-03 0.  1.
         11   -1    0    0    0    0 -0.00000000000E+00 -0.00000000000E+00 -0.45593999997E+02  0.45594000000E+02  0.51100000000E-03 0. -1.
    9900012    2    1    2    0    0  0.80240033240E+01  0.11859203440E+02  0.40970695425E+02  0.47787271675E+02  0.20000002873E+02 0.  0.
         12    1    1    2    0    0 -0.80240033240E+01 -0.11859203440E+02 -0.40970695425E+02  0.43400728325E+02  0.00000000000E+00 0. -1.
         11    1    3    3    0    0  0.73659327651E+01  0.12366116542E+02  0.19101607981E+02  0.23917550701E+02  0.51100000000E-03 0. -1.
        -11    1    3    3    0    0  0.19167888525E+01 -0.45537545439E+01  0.15056963169E+02  0.15846857735E+02  0.51100000000E-03 0.  1.
        -12    1    3    3    0    0 -0.12587182935E+01  0.40468414417E+01  0.68121242752E+01  0.80228632381E+01  0.00000000000E+00 0.  1.
</event>
<event>
 7    1  0.4937359E-010  0.4778728E+02  0.7816164E-02  0.1312668E+00
        -11   -1    0    0    0    0  0.00000000000E+00  0.00000000000E+00  0.45593999997E+02  0.45594000000E+02  0.51100000000E-03 0. -1.
         11   -1    0    0    0    0 -0.00000000000E+00 -0.00000000000E+00 -0.45593999997E+02  0.45594000000E+02  0.51100000000E-03 0.  1.
    9900012    2    1    2    0    0  0.11422073545E+02  0.40945545369E+02 -0.87533488359E+01  0.47787279206E+02  0.20000037212E+02 0.  0.
         12    1    1    2    0    0 -0.11422073545E+02 -0.40945545369E+02  0.87533488359E+01  0.43400720794E+02  0.00000000000E+00 0. -1.
         11    1    3    3    0    0  0.53474141029E+01  0.39684941132E+00 -0.26434829247E+00  0.53686317926E+01  0.51100000000E-03 0. -1.
        -11    1    3    3    0    0  0.33997673228E+01  0.28111633423E+02 -0.89250665097E+01  0.29689714785E+02  0.51100000000E-03 0.  1.
        -12    1    3    3    0    0  0.26748921192E+01  0.12437062534E+02  0.43606596619E+00  0.12728932628E+02  0.00000000000E+00 0.  1.
</event>
<event>
 7    1  0.4937359E-010  0.4778727E+02  0.7816164E-02  0.1312668E+00
        -11   -1    0    0    0    0  0.00000000000E+00  0.00000000000E+00  0.45593999997E+02  0.45594000000E+02  0.51100000000E-03 0.  1.
         11   -1    0    0    0    0 -0.00000000000E+00 -0.00000000000E+00 -0.45593999997E+02  0.45594000000E+02  0.51100000000E-03 0. -1.
    9900012    2    1    2    0    0 -0.26829011674E+02  0.74302361498E+01  0.33295933927E+02  0.47787268523E+02  0.19999988504E+02 0.  0.
         12    1    1    2    0    0  0.26829011674E+02 -0.74302361498E+01 -0.33295933927E+02  0.43400731477E+02  0.00000000000E+00 0. -1.
         11    1    3    3    0    0 -0.51689805596E+00  0.20251906561E+01  0.30073862021E+01  0.36623698370E+01  0.51100000000E-03 0. -1.
        -11    1    3    3    0    0 -0.12011524883E+02  0.92200433977E+01  0.23224659711E+02  0.27724912069E+02  0.51100000000E-03 0.  1.
        -12    1    3    3    0    0 -0.14300588735E+02 -0.38149979040E+01  0.70638880147E+01  0.16399986618E+02  0.00000000000E+00 0.  1.
</event>
<event>
 7    1  0.4937359E-010  0.4778727E+02  0.7816164E-02  0.1312668E+00
        -11   -1    0    0    0    0  0.00000000000E+00  0.00000000000E+00  0.45593999997E+02  0.45594000000E+02  0.51100000000E-03 0. -1.
         11   -1    0    0    0    0 -0.00000000000E+00 -0.00000000000E+00 -0.45593999997E+02  0.45594000000E+02  0.51100000000E-03 0.  1.
    9900012    2    1    2    0    0  0.40421893054E+02 -0.61026900878E+01 -0.14575695923E+02  0.47787272172E+02  0.20000005139E+02 0.  0.
         12    1    1    2    0    0 -0.40421893054E+02  0.61026900878E+01  0.14575695923E+02  0.43400727828E+02  0.00000000000E+00 0. -1.
         11    1    3    3    0    0  0.23325552274E+02 -0.96258182044E+01 -0.63911826324E+01  0.26030462553E+02  0.51100000000E-03 0. -1.
        -11    1    3    3    0    0  0.45500220336E+01 -0.28481675239E+01 -0.49863805383E+01  0.73265783204E+01  0.51100000000E-03 0.  1.
         12    1    3    3    0    0  0.12546318746E+02  0.63712956404E+01 -0.31981327518E+01  0.14430231298E+02  0.00000000000E+00 0. -1.
</event>
<event>
 7    1  0.4937359E-010  0.4778728E+02  0.7816164E-02  0.1312668E+00
        -11   -1    0    0    0    0  0.00000000000E+00  0.00000000000E+00  0.45593999997E+02  0.45594000000E+02  0.51100000000E-03 0. -1.
         11   -1    0    0    0    0 -0.00000000000E+00 -0.00000000000E+00 -0.45593999997E+02  0.45594000000E+02  0.51100000000E-03 0.  1.
    9900012    2    1    2    0    0  0.41157948229E+02 -0.11781712826E+02  0.71300086065E+01  0.47787280164E+02  0.20000041579E+02 0.  0.
         12    1    1    2    0    0 -0.41157948229E+02  0.11781712826E+02 -0.71300086065E+01  0.43400719836E+02  0.00000000000E+00 0. -1.
         11    1    3    3    0    0  0.51379828555E+01 -0.31321322696E+01  0.28246913952E+01  0.66474056681E+01  0.51100000000E-03 0. -1.
        -11    1    3    3    0    0  0.18890403791E+02 -0.13134901142E+02  0.44385051365E+01  0.23432313404E+02  0.51100000000E-03 0.  1.
        -12    1    3    3    0    0  0.17129561583E+02  0.44853205848E+01 -0.13318792513E+00  0.17707561091E+02  0.00000000000E+00 0.  1.
</event>
<event>
 7    1  0.4937359E-010  0.4778727E+02  0.7816164E-02  0.1312668E+00
        -11   -1    0    0    0    0  0.00000000000E+00  0.00000000000E+00  0.45593999997E+02  0.45594000000E+02  0.51100000000E-03 0.  1.
         11   -1    0    0    0    0 -0.00000000000E+00 -0.00000000000E+00 -0.45593999997E+02  0.45594000000E+02  0.51100000000E-03 0. -1.
    9900012    2    1    2    0    0  0.34984026467E+02  0.12690666799E+02  0.22331324929E+02  0.47787271841E+02  0.20000003631E+02 0.  0.
         12    1    1    2    0    0 -0.34984026467E+02 -0.12690666799E+02 -0.22331324929E+02  0.43400728159E+02  0.00000000000E+00 0. -1.
         11    1    3    3    0    0 -0.10947812523E+01  0.48507028680E+01  0.44613477619E+01  0.66806802362E+01  0.51100000000E-03 0. -1.
        -11    1    3    3    0    0  0.24808558187E+02  0.48645329679E+01  0.13485442952E+02  0.28652843003E+02  0.51100000000E-03 0.  1.
        -12    1    3    3    0    0  0.11270249533E+02  0.29754309630E+01  0.43845342152E+01  0.12453748601E+02  0.00000000000E+00 0.  1.
</event>
<event>
 7    1  0.4937359E-010  0.4778727E+02  0.7816164E-02  0.1312668E+00
        -11   -1    0    0    0    0  0.00000000000E+00  0.00000000000E+00  0.45593999997E+02  0.45594000000E+02  0.51100000000E-03 0.  1.
         11   -1    0    0    0    0 -0.00000000000E+00 -0.00000000000E+00 -0.45593999997E+02  0.45594000000E+02  0.51100000000E-03 0. -1.
    9900012    2    1    2    0    0  0.52169350005E+01 -0.21454441849E+01  0.43032593684E+02  0.47787268892E+02  0.19999990188E+02 0.  0.
         12    1    1    2    0    0 -0.52169350005E+01  0.21454441849E+01 -0.43032593684E+02  0.43400731108E+02  0.00000000000E+00 0. -1.
         11    1    3    3    0    0  0.25909482387E+00  0.61372484188E+01  0.12153159849E+02  0.13617350802E+02  0.51100000000E-03 0. -1.
        -11    1    3    3    0    0  0.53418650975E+01 -0.73375097832E+01  0.31628033253E+02  0.32904514284E+02  0.51100000000E-03 0.  1.
         12    1    3    3    0    0 -0.38402492091E+00 -0.94518282057E+00 -0.74859941864E+00  0.12654038066E+01  0.00000000000E+00 0. -1.
</event>
<event>
 7    1  0.4937359E-010  0.4778727E+02  0.7816164E-02  0.1312668E+00
        -11   -1    0    0    0    0  0.00000000000E+00  0.00000000000E+00  0.45593999997E+02  0.45594000000E+02  0.51100000000E-03 0.  1.
         11   -1    0    0    0    0 -0.00000000000E+00 -0.00000000000E+00 -0.45593999997E+02  0.45594000000E+02  0.51100000000E-03 0. -1.
    9900012    2    1    2    0    0 -0.28918758303E+01  0.24401735765E+02  0.35774510329E+02  0.47787271395E+02  0.20000001598E+02 0.  0.
         12    1    1    2    0    0  0.28918758303E+01 -0.24401735765E+02 -0.35774510329E+02  0.43400728605E+02  0.00000000000E+00 0. -1.
         11    1    3    3    0    0  0.10299166350E+01  0.24298174141E+01 -0.15402459764E+01  0.30556666817E+01  0.51100000000E-03 0. -1.
        -11    1    3    3    0    0  0.15750882915E+01  0.16036026840E+02  0.28698083527E+02  0.32912232655E+02  0.51100000000E-03 0.  1.
        -12    1    3    3    0    0 -0.54968807568E+01  0.59358915113E+01  0.86166727786E+01  0.11819372059E+02  0.00000000000E+00 0.  1.
</event>
<event>
 7    1  0.4937359E-010  0.4778727E+02  0.7816164E-02  0.1312668E+00
        -11   -1    0    0    0    0  0.00000000000E+00  0.00000000000E+00  0.45593999997E+02  0.45594000000E+02  0.51100000000E-03 0. -1.
         11   -1    0    0    0    0 -0.00000000000E+00 -0.00000000000E+00 -0.45593999997E+02  0.45594000000E+02  0.51100000000E-03 0.  1.
    9900012    2    1    2    0    0 -0.14571807545E+02  0.40557329851E+02  0.51370003531E+01  0.47787270139E+02  0.19999995873E+02 0.  0.
         12    1    1    2    0    0  0.14571807545E+02 -0.40557329851E+02 -0.51370003531E+01  0.43400729861E+02  0.00000000000E+00 0. -1.
         11    1    3    3    0    0 -0.14358898076E+01  0.16926696505E+02  0.79230210858E+01  0.18744308403E+02  0.51100000000E-03 0. -1.
        -11    1    3    3    0    0 -0.10056149014E+02  0.84944655997E+01 -0.33609600559E+01  0.13585953466E+02  0.51100000000E-03 0.  1.
        -12    1    3    3    0    0 -0.30797687236E+01  0.15136167747E+02  0.57493932319E+00  0.15457008270E+02  0.00000000000E+00 0.  1.
</event>
<event>
 7    1  0.4937359E-010  0.4778727E+02  0.7816164E-02  0.1312668E+00
        -11   -1    0    0    0    0  0.00000000000E+00  0.00000000000E+00  0.45593999997E+02  0.45594000000E+02  0.51100000000E-03 0.  1.
         11   -1    0    0    0    0 -0.00000000000E+00 -0.00000000000E+00 -0.45593999997E+02  0.45594000000E+02  0.51100000000E-03 0. -1.
    9900012    2    1    2    0    0  0.15113850629E+02  0.21697398442E+02  0.34415371865E+02  0.47787269585E+02  0.19999993345E+02 0.  0.
         12    1    1    2    0    0 -0.15113850629E+02 -0.21697398442E+02 -0.34415371865E+02  0.43400730415E+02  0.00000000000E+00 0. -1.
         11    1    3    3    0    0  0.34008637761E+01  0.16962243164E+01 -0.17431793977E+01  0.41811154048E+01  0.51100000000E-03 0. -1.
        -11    1    3    3    0    0  0.79041815456E+01  0.79484310116E+01  0.21527612074E+02  0.24271211822E+02  0.51100000000E-03 0.  1.
         12    1    3    3    0    0  0.38088053069E+01  0.12052743114E+02  0.14630939188E+02  0.19334942358E+02  0.00000000000E+00 0. -1.
</event>
<event>
 7    1  0.4937359E-010  0.4778727E+02  0.7816164E-02  0.1312668E+00
        -11   -1    0    0    0    0  0.00000000000E+00  0.00000000000E+00  0.45593999997E+02  0.45594000000E+02  0.51100000000E-03 0. -1.
         11   -1    0    0    0    0 -0.00000000000E+00 -0.00000000000E+00 -0.45593999997E+02  0.45594000000E+02  0.51100000000E-03 0.  1.
    9900012    2    1    2    0    0 -0.29025970061E+02  0.40512011611E+01 -0.32011004341E+02  0.47787267659E+02  0.19999984562E+02 0.  0.
         12    1    1    2    0    0  0.29025970061E+02 -0.40512011611E+01  0.32011004341E+02  0.43400732341E+02  0.00000000000E+00 0. -1.
         11    1    3    3    0    0 -0.43207952087E+01 -0.24894778246E+00 -0.26918751292E+01  0.50968066675E+01  0.51100000000E-03 0. -1.
        -11    1    3    3    0    0 -0.26481688107E+02  0.16804818825E+00 -0.25883965822E+02  0.37030902394E+02  0.51100000000E-03 0.  1.
        -12    1    3    3    0    0  0.17765132545E+01  0.41321007553E+01 -0.34351633904E+01  0.56595585971E+01  0.00000000000E+00 0.  1.
</event>
<event>
 7    1  0.4937359E-010  0.4778727E+02  0.7816164E-02  0.1312668E+00
        -11   -1    0    0    0    0  0.00000000000E+00  0.00000000000E+00  0.45593999997E+02  0.45594000000E+02  0.51100000000E-03 0.  1.
         11   -1    0    0    0    0 -0.00000000000E+00 -0.00000000000E+00 -0.45593999997E+02  0.45594000000E+02  0.51100000000E-03 0. -1.
    9900012    2    1    2    0    0  0.85575232914E+01  0.28587998705E+02  0.31513782788E+02  0.47787269817E+02  0.19999994403E+02 0.  0.
         12    1    1    2    0    0 -0.85575232914E+01 -0.28587998705E+02 -0.31513782788E+02  0.43400730183E+02  0.00000000000E+00 0. -1.
         11    1    3    3    0    0  0.11235654540E+02  0.19098427575E+02  0.16313390513E+02  0.27515751473E+02  0.51100000000E-03 0. -1.
        -11    1    3    3    0    0 -0.41908162503E+01  0.97922584465E+01  0.91952299464E+01  0.14071372369E+02  0.51100000000E-03 0.  1.
        -12    1    3    3    0    0  0.15126850014E+01 -0.30268731704E+00  0.60051623280E+01  0.62001459749E+01  0.00000000000E+00 0.  1.
</event>
<event>
 7    1  0.4937359E-010  0.4778727E+02  0.7816164E-02  0.1312668E+00
        -11   -1    0    0    0    0  0.00000000000E+00  0.00000000000E+00  0.45593999997E+02  0.45594000000E+02  0.51100000000E-03 0.  1.
         11   -1    0    0    0    0 -0.00000000000E+00 -0.00000000000E+00 -0.45593999997E+02  0.45594000000E+02  0.51100000000E-03 0. -1.
    9900012    2    1    2    0    0 -0.25272574755E+02 -0.35016317559E+02  0.43333483916E+01  0.47787269149E+02  0.19999991357E+02 0.  0.
         12    1    1    2    0    0  0.25272574755E+02  0.35016317559E+02 -0.43333483916E+01  0.43400730851E+02  0.00000000000E+00 0. -1.
         11    1    3    3    0    0 -0.16270792176E+00 -0.17705158649E+00 -0.40070841831E+01  0.40142925957E+01  0.51100000000E-03 0. -1.
        -11    1    3    3    0    0 -0.11962441722E+02 -0.17772739208E+02  0.38606177822E+01  0.21768661898E+02  0.51100000000E-03 0.  1.
         12    1    3    3    0    0 -0.13147425111E+02 -0.17066526765E+02  0.44798147924E+01  0.22004314655E+02  0.00000000000E+00 0. -1.
</event>
<event>
 7    1  0.4937359E-010  0.4778727E+02  0.7816164E-02  0.1312668E+00
        -11   -1    0    0    0    0  0.00000000000E+00  0.00000000000E+00  0.45593999997E+02  0.45594000000E+02  0.51100000000E-03 0.  1.
         11   -1    0    0    0    0 -0.00000000000E+00 -0.00000000000E+00 -0.45593999997E+02  0.45594000000E+02  0.51100000000E-03 0. -1.
    9900012    2    1    2    0    0 -0.20984608273E+02 -0.37519246359E+02  0.59645309665E+01  0.47787271188E+02  0.20000000656E+02 0.  0.
         12    1    1    2    0    0  0.20984608273E+02  0.37519246359E+02 -0.59645309665E+01  0.43400728812E+02  0.00000000000E+00 0. -1.
         11    1    3    3    0    0 -0.10417786339E+02 -0.55357281932E+01  0.14866374944E+01  0.11890527748E+02  0.51100000000E-03 0. -1.
        -11    1    3    3    0    0 -0.65082037043E+01 -0.27539809625E+02  0.73367936661E+01  0.29233993419E+02  0.51100000000E-03 0.  1.
         12    1    3    3    0    0 -0.40586182296E+01 -0.44437085412E+01 -0.28589001940E+01  0.66627500217E+01  0.00000000000E+00 0. -1.
</event>
<event>
 7    1  0.4937359E-010  0.4778727E+02  0.7816164E-02  0.1312668E+00
        -11   -1    0    0    0    0  0.00000000000E+00  0.00000000000E+00  0.45593999997E+02  0.45594000000E+02  0.51100000000E-03 0. -1.
         11   -1    0    0    0    0 -0.00000000000E+00 -0.00000000000E+00 -0.45593999997E+02  0.45594000000E+02  0.51100000000E-03 0.  1.
    9900012    2    1    2    0    0  0.10450782851E+02  0.42123623397E+02  0.68240712529E-01  0.47787272275E+02  0.20000005609E+02 0.  0.
         12    1    1    2    0    0 -0.10450782851E+02 -0.42123623397E+02 -0.68240712529E-01  0.43400727725E+02  0.00000000000E+00 0. -1.
         11    1    3    3    0    0  0.31330899146E+01 -0.75290721257E+00  0.14916829980E+01  0.35508083743E+01  0.51100000000E-03 0. -1.
        -11    1    3    3    0    0  0.61503795036E+01  0.38324705204E+02 -0.37446799119E+01  0.38995292343E+02  0.51100000000E-03 0.  1.
         12    1    3    3    0    0  0.11673134330E+01  0.45518254053E+01  0.23212376264E+01  0.52411715570E+01  0.00000000000E+00 0. -1.
</event>
<event>
 7    1  0.4937359E-010  0.4778727E+02  0.7816164E-02  0.1312668E+00
        -11   -1    0    0    0    0  0.00000000000E+00  0.00000000000E+00  0.45593999997E+02  0.45594000000E+02  0.51100000000E-03 0.  1.
         11   -1    0    0    0    0 -0.00000000000E+00 -0.00000000000E+00 -0.45593999997E+02  0.45594000000E+02  0.51100000000E-03 0. -1.
    9900012    2    1    2    0    0  0.52920890153E+01 -0.37852842880E+02  0.20561591505E+02  0.47787274598E+02  0.20000016201E+02 0.  0.
         12    1    1    2    0    0 -0.52920890153E+01  0.37852842880E+02 -0.20561591505E+02  0.43400725402E+02  0.00000000000E+00 0. -1.
         11    1    3    3    0    0 -0.38603245993E+01  0.25938690920E+00  0.19413398027E+01  0.43287628800E+01  0.51100000000E-03 0. -1.
        -11    1    3    3    0    0  0.68314344693E+01 -0.23981762684E+02  0.12339146701E+02  0.27821717774E+02  0.51100000000E-03 0.  1.
         12    1    3    3    0    0  0.23209791453E+01 -0.14130467105E+02  0.62811050011E+01  0.15636793943E+02  0.00000000000E+00 0. -1.
</event>
<event>
 7    1  0.4937359E-010  0.4778724E+02  0.7816164E-02  0.1312668E+00
        -11   -1    0    0    0    0  0.00000000000E+00  0.00000000000E+00  0.45593999997E+02  0.45594000000E+02  0.51100000000E-03 0.  1.
         11   -1    0    0    0    0 -0.00000000000E+00 -0.00000000000E+00 -0.45593999997E+02  0.45594000000E+02  0.51100000000E-03 0. -1.
    9900012    2    1    2    0    0 -0.30976662500E+02 -0.30049415883E+02  0.45940600652E+01  0.47787235002E+02  0.19999835668E+02 0.  0.
         12    1    1    2    0    0  0.30976662500E+02  0.30049415883E+02 -0.45940600652E+01  0.43400764998E+02  0.00000000000E+00 0. -1.
         11    1    3    3    0    0 -0.25393536898E+02 -0.23196767959E+02  0.61976027071E+01  0.34947561281E+02  0.51100000000E-03 0. -1.
        -11    1    3    3    0    0 -0.80870390894E+01 -0.48705396199E+01 -0.19092423892E+01  0.96315919860E+01  0.51100000000E-03 0.  1.
         12    1    3    3    0    0  0.25039134876E+01 -0.19821083041E+01  0.30569974740E+00  0.32080817349E+01  0.00000000000E+00 0. -1.
</event>
<event>
 7    1  0.4937359E-010  0.4778726E+02  0.7816164E-02  0.1312668E+00
        -11   -1    0    0    0    0  0.00000000000E+00  0.00000000000E+00  0.45593999997E+02  0.45594000000E+02  0.51100000000E-03 0.  1.
         11   -1    0    0    0    0 -0.00000000000E+00 -0.00000000000E+00 -0.45593999997E+02  0.45594000000E+02  0.51100000000E-03 0. -1.
    9900012    2    1    2    0    0 -0.20633625151E+02  0.37811199678E+02  0.53094723121E+01  0.47787264934E+02  0.19999972142E+02 0.  0.
         12    1    1    2    0    0  0.20633625151E+02 -0.37811199678E+02 -0.53094723121E+01  0.43400735066E+02  0.00000000000E+00 0. -1.
         11    1    3    3    0    0 -0.15462167484E+02  0.10331649300E+02  0.45872265677E+01  0.19153700646E+02  0.51100000000E-03 0. -1.
        -11    1    3    3    0    0  0.83280587276E-01  0.13973948351E+02 -0.11492553272E+01  0.14021374976E+02  0.51100000000E-03 0.  1.
         12    1    3    3    0    0 -0.52547382542E+01  0.13505602027E+02  0.18715010716E+01  0.14612189312E+02  0.00000000000E+00 0. -1.
</event>
<event>
 7    1  0.4937359E-010  0.4778727E+02  0.7816164E-02  0.1312668E+00
        -11   -1    0    0    0    0  0.00000000000E+00  0.00000000000E+00  0.45593999997E+02  0.45594000000E+02  0.51100000000E-03 0.  1.
         11   -1    0    0    0    0 -0.00000000000E+00 -0.00000000000E+00 -0.45593999997E+02  0.45594000000E+02  0.51100000000E-03 0. -1.
    9900012    2    1    2    0    0  0.87921524115E+01 -0.26523685195E+02  0.33208665134E+02  0.47787271200E+02  0.20000000711E+02 0.  0.
         12    1    1    2    0    0 -0.87921524115E+01  0.26523685195E+02 -0.33208665134E+02  0.43400728800E+02  0.00000000000E+00 0. -1.
         11    1    3    3    0    0  0.39638490614E+01 -0.65644897418E+01  0.15245842968E+02  0.17065765527E+02  0.51100000000E-03 0. -1.
        -11    1    3    3    0    0  0.36304873550E+01 -0.75475685749E+01 -0.55844432830E+00  0.83939317460E+01  0.51100000000E-03 0.  1.
        -12    1    3    3    0    0  0.11978159951E+01 -0.12411626878E+02  0.18521266494E+02  0.22327573927E+02  0.00000000000E+00 0.  1.
</event>
<event>
 7    1  0.4937359E-010  0.4778727E+02  0.7816164E-02  0.1312668E+00
        -11   -1    0    0    0    0  0.00000000000E+00  0.00000000000E+00  0.45593999997E+02  0.45594000000E+02  0.51100000000E-03 0.  1.
         11   -1    0    0    0    0 -0.00000000000E+00 -0.00000000000E+00 -0.45593999997E+02  0.45594000000E+02  0.51100000000E-03 0. -1.
    9900012    2    1    2    0    0 -0.12482238791E+02  0.25436737799E+02  0.32875362521E+02  0.47787269868E+02  0.19999994636E+02 0.  0.
         12    1    1    2    0    0  0.12482238791E+02 -0.25436737799E+02 -0.32875362521E+02  0.43400730132E+02  0.00000000000E+00 0. -1.
         11    1    3    3    0    0  0.13749657201E+01 -0.46074471170E+00  0.51941272146E+00  0.15403266722E+01  0.51100000000E-03 0. -1.
        -11    1    3    3    0    0 -0.99951642349E+01  0.15173941502E+02  0.90409542696E+01  0.20295089631E+02  0.51100000000E-03 0.  1.
        -12    1    3    3    0    0 -0.38620402766E+01  0.10723541010E+02  0.23314995530E+02  0.25951853564E+02  0.00000000000E+00 0.  1.
</event>
<event>
 7    1  0.4937359E-010  0.4778727E+02  0.7816164E-02  0.1312668E+00
        -11   -1    0    0    0    0  0.00000000000E+00  0.00000000000E+00  0.45593999997E+02  0.45594000000E+02  0.51100000000E-03 0.  1.
         11   -1    0    0    0    0 -0.00000000000E+00 -0.00000000000E+00 -0.45593999997E+02  0.45594000000E+02  0.51100000000E-03 0. -1.
    9900012    2    1    2    0    0  0.34774928210E+02 -0.25765052240E+02 -0.32388203104E+01  0.47787268371E+02  0.19999987810E+02 0.  0.
         12    1    1    2    0    0 -0.34774928210E+02  0.25765052240E+02  0.32388203104E+01  0.43400731629E+02  0.00000000000E+00 0. -1.
         11    1    3    3    0    0  0.16410165645E+02 -0.15542972858E+02 -0.77652887490E+01  0.23899314873E+02  0.51100000000E-03 0. -1.
        -11    1    3    3    0    0  0.19448764535E+02 -0.81084977951E+01  0.38727903894E+01  0.21424301251E+02  0.51100000000E-03 0.  1.
        -12    1    3    3    0    0 -0.10840019712E+01 -0.21135815871E+01  0.65367804926E+00  0.24636522464E+01  0.00000000000E+00 0.  1.
</event>
<event>
 7    1  0.4937359E-010  0.4778727E+02  0.7816164E-02  0.1312668E+00
        -11   -1    0    0    0    0  0.00000000000E+00  0.00000000000E+00  0.45593999997E+02  0.45594000000E+02  0.51100000000E-03 0. -1.
         11   -1    0    0    0    0 -0.00000000000E+00 -0.00000000000E+00 -0.45593999997E+02  0.45594000000E+02  0.51100000000E-03 0.  1.
    9900012    2    1    2    0    0  0.63910794592E+01 -0.38397109067E+02 -0.19194775770E+02  0.47787270764E+02  0.19999998722E+02 0.  0.
         12    1    1    2    0    0 -0.63910794592E+01  0.38397109067E+02  0.19194775770E+02  0.43400729236E+02  0.00000000000E+00 0. -1.
         11    1    3    3    0    0  0.41096252525E+01 -0.65674400846E+01  0.27798636895E+01  0.82309131556E+01  0.51100000000E-03 0. -1.
        -11    1    3    3    0    0  0.32904509055E+01 -0.20099241331E+02 -0.17847381131E+02  0.27080169548E+02  0.51100000000E-03 0.  1.
         12    1    3    3    0    0 -0.10089966988E+01 -0.11730427651E+02 -0.41272583286E+01  0.12476188061E+02  0.00000000000E+00 0. -1.
</event>
<event>
 7    1  0.4937359E-010  0.4778729E+02  0.7816164E-02  0.1312668E+00
        -11   -1    0    0    0    0  0.00000000000E+00  0.00000000000E+00  0.45593999997E+02  0.45594000000E+02  0.51100000000E-03 0.  1.
         11   -1    0    0    0    0 -0.00000000000E+00 -0.00000000000E+00 -0.45593999997E+02  0.45594000000E+02  0.51100000000E-03 0. -1.
    9900012    2    1    2    0    0 -0.14298246635E+02  0.93471224117E+01  0.39897535940E+02  0.47787286546E+02  0.20000070680E+02 0.  0.
         12    1    1    2    0    0  0.14298246635E+02 -0.93471224117E+01 -0.39897535940E+02  0.43400713454E+02  0.00000000000E+00 0. -1.
         11    1    3    3    0    0 -0.98201457942E+01  0.89208042086E+01  0.13129634150E+02  0.18665564667E+02  0.51100000000E-03 0. -1.
        -11    1    3    3    0    0  0.93892838564E+00 -0.35886676674E+01  0.43761540848E+01  0.57367976237E+01  0.51100000000E-03 0.  1.
        -12    1    3    3    0    0 -0.54170292260E+01  0.40149858705E+01  0.22391747705E+02  0.23384924256E+02  0.00000000000E+00 0.  1.
</event>
<event>
 7    1  0.4937359E-010  0.4778728E+02  0.7816164E-02  0.1312668E+00
        -11   -1    0    0    0    0  0.00000000000E+00  0.00000000000E+00  0.45593999997E+02  0.45594000000E+02  0.51100000000E-03 0.  1.
         11   -1    0    0    0    0 -0.00000000000E+00 -0.00000000000E+00 -0.45593999997E+02  0.45594000000E+02  0.51100000000E-03 0. -1.
    9900012    2    1    2    0    0  0.28926394930E+02 -0.23062877861E+02 -0.22693380220E+02  0.47787283823E+02  0.20000058261E+02 0.  0.
         12    1    1    2    0    0 -0.28926394930E+02  0.23062877861E+02  0.22693380220E+02  0.43400716177E+02  0.00000000000E+00 0. -1.
         11    1    3    3    0    0  0.30097983192E+01 -0.69054683788E+01  0.73308825370E+00  0.75684739612E+01  0.51100000000E-03 0. -1.
        -11    1    3    3    0    0  0.23496261891E+02 -0.16778245645E+02 -0.17436455239E+02  0.33728531266E+02  0.51100000000E-03 0.  1.
        -12    1    3    3    0    0  0.24203347199E+01  0.62083616307E+00 -0.59900132348E+01  0.64902785957E+01  0.00000000000E+00 0.  1.
</event>
<event>
 7    1  0.4937359E-010  0.4778727E+02  0.7816164E-02  0.1312668E+00
        -11   -1    0    0    0    0  0.00000000000E+00  0.00000000000E+00  0.45593999997E+02  0.45594000000E+02  0.51100000000E-03 0.  1.
         11   -1    0    0    0    0 -0.00000000000E+00 -0.00000000000E+00 -0.45593999997E+02  0.45594000000E+02  0.51100000000E-03 0. -1.
    9900012    2    1    2    0    0  0.19102613471E+02 -0.15500999738E+02  0.35755172323E+02  0.47787272102E+02  0.20000004820E+02 0.  0.
         12    1    1    2    0    0 -0.19102613471E+02  0.15500999738E+02 -0.35755172323E+02  0.43400727898E+02  0.00000000000E+00 0. -1.
         11    1    3    3    0    0 -0.26229321549E+01 -0.58318939895E+00 -0.35073372674E+00  0.27097781039E+01  0.51100000000E-03 0. -1.
        -11    1    3    3    0    0  0.19844345737E+02 -0.13623789259E+02  0.29419632242E+02  0.38012109294E+02  0.51100000000E-03 0.  1.
        -12    1    3    3    0    0  0.18811998893E+01 -0.12940210797E+01  0.66862738076E+01  0.70653847035E+01  0.00000000000E+00 0.  1.
</event>
<event>
 7    1  0.4937359E-010  0.4778727E+02  0.7816164E-02  0.1312668E+00
        -11   -1    0    0    0    0  0.00000000000E+00  0.00000000000E+00  0.45593999997E+02  0.45594000000E+02  0.51100000000E-03 0.  1.
         11   -1    0    0    0    0 -0.00000000000E+00 -0.00000000000E+00 -0.45593999997E+02  0.45594000000E+02  0.51100000000E-03 0. -1.
    9900012    2    1    2    0    0  0.26986688956E+02 -0.28276741356E+02  0.18861814067E+02  0.47787268296E+02  0.19999987470E+02 0.  0.
         12    1    1    2    0    0 -0.26986688956E+02  0.28276741356E+02 -0.18861814067E+02  0.43400731704E+02  0.00000000000E+00 0. -1.
         11    1    3    3    0    0  0.48819559716E+01 -0.13641534541E+02  0.36467157905E+01  0.14940665817E+02  0.51100000000E-03 0. -1.
        -11    1    3    3    0    0  0.16046998115E+02 -0.15409603525E+02  0.14809575495E+02  0.26726121228E+02  0.51100000000E-03 0.  1.
         12    1    3    3    0    0  0.60577348694E+01  0.77439671041E+00  0.40552278172E+00  0.61204812507E+01  0.00000000000E+00 0. -1.
</event>
<event>
 7    1  0.4937359E-010  0.4778727E+02  0.7816164E-02  0.1312668E+00
        -11   -1    0    0    0    0  0.00000000000E+00  0.00000000000E+00  0.45593999997E+02  0.45594000000E+02  0.51100000000E-03 0.  1.
         11   -1    0    0    0    0 -0.00000000000E+00 -0.00000000000E+00 -0.45593999997E+02  0.45594000000E+02  0.51100000000E-03 0. -1.
    9900012    2    1    2    0    0 -0.13225269464E+02 -0.25132634301E+01  0.41260134408E+02  0.47787274927E+02  0.20000017703E+02 0.  0.
         12    1    1    2    0    0  0.13225269464E+02  0.25132634301E+01 -0.41260134408E+02  0.43400725073E+02  0.00000000000E+00 0. -1.
         11    1    3    3    0    0 -0.43424911633E+00 -0.28268301015E+01  0.25670684959E+02  0.25829510395E+02  0.51100000000E-03 0. -1.
        -11    1    3    3    0    0 -0.10021259346E+02  0.24956677969E+01  0.15246673582E+02  0.18415076764E+02  0.51100000000E-03 0.  1.
         12    1    3    3    0    0 -0.27697610020E+01 -0.21821011255E+01  0.34277586674E+00  0.35426877684E+01  0.00000000000E+00 0. -1.
</event>
<event>
 7    1  0.4937359E-010  0.4778727E+02  0.7816164E-02  0.1312668E+00
        -11   -1    0    0    0    0  0.00000000000E+00  0.00000000000E+00  0.45593999997E+02  0.45594000000E+02  0.51100000000E-03 0.  1.
         11   -1    0    0    0    0 -0.00000000000E+00 -0.00000000000E+00 -0.45593999997E+02  0.45594000000E+02  0.51100000000E-03 0. -1.
    9900012    2    1    2    0    0 -0.17550211410E+02  0.35339601580E+02  0.18075558532E+02  0.47787272165E+02  0.20000005111E+02 0.  0.
         12    1    1    2    0    0  0.17550211410E+02 -0.35339601580E+02 -0.18075558532E+02  0.43400727835E+02  0.00000000000E+00 0. -1.
         11    1    3    3    0    0 -0.34831880121E+00  0.18658271548E+01  0.75672706869E+01  0.78016807721E+01  0.51100000000E-03 0. -1.
        -11    1    3    3    0    0 -0.94657581566E+01  0.15334670476E+02  0.88431455976E+00  0.18042580430E+02  0.51100000000E-03 0.  1.
        -12    1    3    3    0    0 -0.77361344518E+01  0.18139103949E+02  0.96239732851E+01  0.21943010963E+02  0.00000000000E+00 0.  1.
</event>
<event>
 7    1  0.4937359E-010  0.4778728E+02  0.7816164E-02  0.1312668E+00
        -11   -1    0    0    0    0  0.00000000000E+00  0.00000000000E+00  0.45593999997E+02  0.45594000000E+02  0.51100000000E-03 0.  1.
         11   -1    0    0    0    0 -0.00000000000E+00 -0.00000000000E+00 -0.45593999997E+02  0.45594000000E+02  0.51100000000E-03 0. -1.
    9900012    2    1    2    0    0  0.19230586859E+02 -0.13175399344E+02  0.36608960053E+02  0.47787279096E+02  0.20000036712E+02 0.  0.
         12    1    1    2    0    0 -0.19230586859E+02  0.13175399344E+02 -0.36608960053E+02  0.43400720904E+02  0.00000000000E+00 0. -1.
         11    1    3    3    0    0  0.12766461395E+02 -0.17086247696E+02  0.19619905429E+02  0.28980391408E+02  0.51100000000E-03 0. -1.
        -11    1    3    3    0    0  0.59872347237E+01  0.23769837408E+01  0.13064622079E+02  0.14566447119E+02  0.51100000000E-03 0.  1.
         12    1    3    3    0    0  0.47689074009E+00  0.15338646109E+01  0.39244325451E+01  0.42404405695E+01  0.00000000000E+00 0. -1.
</event>
<event>
 7    1  0.4937359E-010  0.4778727E+02  0.7816164E-02  0.1312668E+00
        -11   -1    0    0    0    0  0.00000000000E+00  0.00000000000E+00  0.45593999997E+02  0.45594000000E+02  0.51100000000E-03 0. -1.
         11   -1    0    0    0    0 -0.00000000000E+00 -0.00000000000E+00 -0.45593999997E+02  0.45594000000E+02  0.51100000000E-03 0.  1.
    9900012    2    1    2    0    0 -0.11658759743E+02  0.26199476958E+02 -0.32577355351E+02  0.47787270130E+02  0.19999995829E+02 0.  0.
         12    1    1    2    0    0  0.11658759743E+02 -0.26199476958E+02  0.32577355351E+02  0.43400729870E+02  0.00000000000E+00 0. -1.
         11    1    3    3    0    0  0.58122863492E+00 -0.93893546688E+00 -0.23928295277E+01  0.26353481642E+01  0.51100000000E-03 0. -1.
        -11    1    3    3    0    0 -0.10498313347E+02  0.63485704366E+01 -0.14835582792E+02  0.19251323247E+02  0.51100000000E-03 0.  1.
        -12    1    3    3    0    0 -0.17416750311E+01  0.20789841988E+02 -0.15348943031E+02  0.25900598719E+02  0.00000000000E+00 0.  1.
</event>
<event>
 7    1  0.4937359E-010  0.4778727E+02  0.7816164E-02  0.1312668E+00
        -11   -1    0    0    0    0  0.00000000000E+00  0.00000000000E+00  0.45593999997E+02  0.45594000000E+02  0.51100000000E-03 0.  1.
         11   -1    0    0    0    0 -0.00000000000E+00 -0.00000000000E+00 -0.45593999997E+02  0.45594000000E+02  0.51100000000E-03 0. -1.
    9900012    2    1    2    0    0  0.13619769635E+02  0.35498556548E+01  0.41055128892E+02  0.47787271798E+02  0.20000003438E+02 0.  0.
         12    1    1    2    0    0 -0.13619769635E+02 -0.35498556548E+01 -0.41055128892E+02  0.43400728202E+02  0.00000000000E+00 0. -1.
         11    1    3    3    0    0  0.75409194355E+01 -0.72121939112E+01  0.15099197489E+02  0.18353936145E+02  0.51100000000E-03 0. -1.
        -11    1    3    3    0    0  0.51736361429E+01  0.58965037805E+01  0.98950727845E+01  0.12627261518E+02  0.51100000000E-03 0.  1.
         12    1    3    3    0    0  0.90521405673E+00  0.48655457854E+01  0.16060858618E+02  0.16806074135E+02  0.00000000000E+00 0. -1.
</event>
<event>
 7    1  0.4937359E-010  0.4778727E+02  0.7816164E-02  0.1312668E+00
        -11   -1    0    0    0    0  0.00000000000E+00  0.00000000000E+00  0.45593999997E+02  0.45594000000E+02  0.51100000000E-03 0.  1.
         11   -1    0    0    0    0 -0.00000000000E+00 -0.00000000000E+00 -0.45593999997E+02  0.45594000000E+02  0.51100000000E-03 0. -1.
    9900012    2    1    2    0    0 -0.82269607827E+01 -0.29370505645E+02  0.30875778956E+02  0.47787271761E+02  0.20000003265E+02 0.  0.
         12    1    1    2    0    0  0.82269607827E+01  0.29370505645E+02 -0.30875778956E+02  0.43400728239E+02  0.00000000000E+00 0. -1.
         11    1    3    3    0    0 -0.24766842359E+01 -0.85399960776E+00  0.50064555222E+01  0.56504758464E+01  0.51100000000E-03 0. -1.
        -11    1    3    3    0    0 -0.10085730855E+02 -0.10133993798E+02  0.97394938104E+01  0.17299639798E+02  0.51100000000E-03 0.  1.
        -12    1    3    3    0    0  0.43354543083E+01 -0.18382512239E+02  0.16129829624E+02  0.24837156117E+02  0.00000000000E+00 0.  1.
</event>
<event>
 7    1  0.5353143E-010  0.4778727E+02  0.7816164E-02  0.1312668E+00
        -11   -1    0    0    0    0  0.00000000000E+00  0.00000000000E+00  0.45593999997E+02  0.45594000000E+02  0.51100000000E-03 0.  1.
         11   -1    0    0    0    0 -0.00000000000E+00 -0.00000000000E+00 -0.45593999997E+02  0.45594000000E+02  0.51100000000E-03 0. -1.
    9900012    2    1    2    0    0  0.33084558916E+02 -0.28034535617E+02 -0.17606231021E+01  0.47787273973E+02  0.20000013354E+02 0.  0.
         12    1    1    2    0    0 -0.33084558916E+02  0.28034535617E+02  0.17606231021E+01  0.43400726027E+02  0.00000000000E+00 0. -1.
         11    1    3    3    0    0  0.11095363570E+02 -0.58236677902E+00 -0.25824415216E+01  0.11406807103E+02  0.51100000000E-03 0. -1.
        -11    1    3    3    0    0  0.12818154333E+02 -0.92677941480E+01 -0.14700363079E+01  0.15885782822E+02  0.51100000000E-03 0.  1.
         12    1    3    3    0    0  0.91710410131E+01 -0.18184374690E+02  0.22918547274E+01  0.20494684048E+02  0.00000000000E+00 0. -1.
</event>
<event>
 7    1  0.4937359E-010  0.4778727E+02  0.7816164E-02  0.1312668E+00
        -11   -1    0    0    0    0  0.00000000000E+00  0.00000000000E+00  0.45593999997E+02  0.45594000000E+02  0.51100000000E-03 0.  1.
         11   -1    0    0    0    0 -0.00000000000E+00 -0.00000000000E+00 -0.45593999997E+02  0.45594000000E+02  0.51100000000E-03 0. -1.
    9900012    2    1    2    0    0 -0.10457180206E+01 -0.23195730064E+02  0.36667259815E+02  0.47787270033E+02  0.19999995387E+02 0.  0.
         12    1    1    2    0    0  0.10457180206E+01  0.23195730064E+02 -0.36667259815E+02  0.43400729967E+02  0.00000000000E+00 0. -1.
         11    1    3    3    0    0  0.26140108259E+01 -0.20753428021E+01 -0.73393510865E+00  0.34174202769E+01  0.51100000000E-03 0. -1.
        -11    1    3    3    0    0  0.58711469369E+00 -0.10834210955E+02  0.27156796357E+02  0.29244083493E+02  0.51100000000E-03 0.  1.
         12    1    3    3    0    0 -0.42468435402E+01 -0.10286176306E+02  0.10244398566E+02  0.15125766263E+02  0.00000000000E+00 0. -1.
</event>
<event>
 7    1  0.4937359E-010  0.4778727E+02  0.7816164E-02  0.1312668E+00
        -11   -1    0    0    0    0  0.00000000000E+00  0.00000000000E+00  0.45593999997E+02  0.45594000000E+02  0.51100000000E-03 0. -1.
         11   -1    0    0    0    0 -0.00000000000E+00 -0.00000000000E+00 -0.45593999997E+02  0.45594000000E+02  0.51100000000E-03 0.  1.
    9900012    2    1    2    0    0 -0.27237299150E+02  0.21808502739E+02 -0.25809722911E+02  0.47787273584E+02  0.20000011577E+02 0.  0.
         12    1    1    2    0    0  0.27237299150E+02 -0.21808502739E+02  0.25809722911E+02  0.43400726416E+02  0.00000000000E+00 0. -1.
         11    1    3    3    0    0 -0.10148373985E+01 -0.49502140998E+00  0.24574253202E+00  0.11555651409E+01  0.51100000000E-03 0. -1.
        -11    1    3    3    0    0 -0.20616695788E+02  0.60780832028E+01 -0.15082406384E+02  0.26257765009E+02  0.51100000000E-03 0.  1.
        -12    1    3    3    0    0 -0.56057659636E+01  0.16225440947E+02 -0.10973059059E+02  0.20373943434E+02  0.00000000000E+00 0.  1.
</event>
<event>
 7    1  0.4937359E-010  0.4778727E+02  0.7816164E-02  0.1312668E+00
        -11   -1    0    0    0    0  0.00000000000E+00  0.00000000000E+00  0.45593999997E+02  0.45594000000E+02  0.51100000000E-03 0.  1.
         11   -1    0    0    0    0 -0.00000000000E+00 -0.00000000000E+00 -0.45593999997E+02  0.45594000000E+02  0.51100000000E-03 0. -1.
    9900012    2    1    2    0    0  0.40432841889E+02 -0.89738548067E+01 -0.12972224537E+02  0.47787269790E+02  0.19999994280E+02 0.  0.
         12    1    1    2    0    0 -0.40432841889E+02  0.89738548067E+01  0.12972224537E+02  0.43400730210E+02  0.00000000000E+00 0. -1.
         11    1    3    3    0    0  0.94011680325E+01 -0.41709659843E+01  0.46399772252E+01  0.11283098268E+02  0.51100000000E-03 0. -1.
        -11    1    3    3    0    0  0.27742949880E+02 -0.38704195229E+01 -0.13320672487E+02  0.31017603568E+02  0.51100000000E-03 0.  1.
        -12    1    3    3    0    0  0.32887239765E+01 -0.93246929963E+00 -0.42915292753E+01  0.54865679536E+01  0.00000000000E+00 0.  1.
</event>
<event>
 7    1  0.4937359E-010  0.4778727E+02  0.7816164E-02  0.1312668E+00
        -11   -1    0    0    0    0  0.00000000000E+00  0.00000000000E+00  0.45593999997E+02  0.45594000000E+02  0.51100000000E-03 0.  1.
         11   -1    0    0    0    0 -0.00000000000E+00 -0.00000000000E+00 -0.45593999997E+02  0.45594000000E+02  0.51100000000E-03 0. -1.
    9900012    2    1    2    0    0  0.42143525187E+02  0.64702413163E+01  0.81044819227E+01  0.47787269993E+02  0.19999995206E+02 0.  0.
         12    1    1    2    0    0 -0.42143525187E+02 -0.64702413163E+01 -0.81044819227E+01  0.43400730007E+02  0.00000000000E+00 0. -1.
         11    1    3    3    0    0  0.23109448770E+02  0.68271836054E+01 -0.15645123888E+01  0.24147562148E+02  0.51100000000E-03 0. -1.
        -11    1    3    3    0    0  0.53052114167E+01 -0.38099341966E+01  0.63283469060E+01  0.90944401468E+01  0.51100000000E-03 0.  1.
        -12    1    3    3    0    0  0.13728865001E+02  0.34529919075E+01  0.33406474055E+01  0.14545267698E+02  0.00000000000E+00 0.  1.
</event>
<event>
 7    1  0.4937359E-010  0.4778728E+02  0.7816164E-02  0.1312668E+00
        -11   -1    0    0    0    0  0.00000000000E+00  0.00000000000E+00  0.45593999997E+02  0.45594000000E+02  0.51100000000E-03 0. -1.
         11   -1    0    0    0    0 -0.00000000000E+00 -0.00000000000E+00 -0.45593999997E+02  0.45594000000E+02  0.51100000000E-03 0.  1.
    9900012    2    1    2    0    0  0.37125061274E+01  0.40827074865E+02 -0.14247445981E+02  0.47787280412E+02  0.20000042712E+02 0.  0.
         12    1    1    2    0    0 -0.37125061274E+01 -0.40827074865E+02  0.14247445981E+02  0.43400719588E+02  0.00000000000E+00 0. -1.
         11    1    3    3    0    0  0.54275635542E+01  0.17740052116E+01 -0.56488819998E+00  0.57379996136E+01  0.51100000000E-03 0. -1.
        -11    1    3    3    0    0 -0.34799396944E+01  0.22498917662E+02 -0.10621436057E+02  0.25122224830E+02  0.51100000000E-03 0.  1.
        -12    1    3    3    0    0  0.17648822676E+01  0.16554151991E+02 -0.30611217236E+01  0.16927055968E+02  0.00000000000E+00 0.  1.
</event>
<event>
 7    1  0.4937359E-010  0.4778727E+02  0.7816164E-02  0.1312668E+00
        -11   -1    0    0    0    0  0.00000000000E+00  0.00000000000E+00  0.45593999997E+02  0.45594000000E+02  0.51100000000E-03 0.  1.
         11   -1    0    0    0    0 -0.00000000000E+00 -0.00000000000E+00 -0.45593999997E+02  0.45594000000E+02  0.51100000000E-03 0. -1.
    9900012    2    1    2    0    0  0.19471811846E+02 -0.59247950740E+01  0.38332346629E+02  0.47787269000E+02  0.19999990681E+02 0.  0.
         12    1    1    2    0    0 -0.19471811846E+02  0.59247950740E+01 -0.38332346629E+02  0.43400731000E+02  0.00000000000E+00 0. -1.
         11    1    3    3    0    0 -0.92088569014E-01  0.19412994060E+01 -0.93542799771E+00  0.21568842084E+01  0.51100000000E-03 0. -1.
        -11    1    3    3    0    0  0.13005952816E+02 -0.61264569700E+01  0.34390243545E+02  0.37274349558E+02  0.51100000000E-03 0.  1.
        -12    1    3    3    0    0  0.65579475990E+01 -0.17396375100E+01  0.48775310816E+01  0.83560352338E+01  0.00000000000E+00 0.  1.
</event>
<event>
 7    1  0.4937359E-010  0.4778727E+02  0.7816164E-02  0.1312668E+00
        -11   -1    0    0    0    0  0.00000000000E+00  0.00000000000E+00  0.45593999997E+02  0.45594000000E+02  0.51100000000E-03 0. -1.
         11   -1    0    0    0    0 -0.00000000000E+00 -0.00000000000E+00 -0.45593999997E+02  0.45594000000E+02  0.51100000000E-03 0.  1.
    9900012    2    1    2    0    0 -0.85795633867E+01  0.18852933358E+02 -0.38138977183E+02  0.47787267464E+02  0.19999983674E+02 0.  0.
         12    1    1    2    0    0  0.85795633867E+01 -0.18852933358E+02  0.38138977183E+02  0.43400732536E+02  0.00000000000E+00 0. -1.
         11    1    3    3    0    0  0.89752702012E+00  0.72769421067E+01 -0.13112546690E+02  0.15023259371E+02  0.51100000000E-03 0. -1.
        -11    1    3    3    0    0 -0.88086124645E+01  0.31346547018E+01 -0.41380389824E+01  0.10224533267E+02  0.51100000000E-03 0.  1.
        -12    1    3    3    0    0 -0.66847794232E+00  0.84413365495E+01 -0.20888391511E+02  0.22539474826E+02  0.00000000000E+00 0.  1.
</event>
<event>
 7    1  0.4937359E-010  0.4778730E+02  0.7816164E-02  0.1312668E+00
        -11   -1    0    0    0    0  0.00000000000E+00  0.00000000000E+00  0.45593999997E+02  0.45594000000E+02  0.51100000000E-03 0. -1.
         11   -1    0    0    0    0 -0.00000000000E+00 -0.00000000000E+00 -0.45593999997E+02  0.45594000000E+02  0.51100000000E-03 0.  1.
    9900012    2    1    2    0    0  0.28380957022E+02 -0.14254165576E+02 -0.29579732740E+02  0.47787302463E+02  0.20000143250E+02 0.  0.
         12    1    1    2    0    0 -0.28380957022E+02  0.14254165576E+02  0.29579732740E+02  0.43400697537E+02  0.00000000000E+00 0. -1.
         11    1    3    3    0    0 -0.16011328479E+01  0.11861043026E+01  0.29035477459E-01  0.19928153787E+01  0.51100000000E-03 0. -1.
        -11    1    3    3    0    0  0.29129166752E+02 -0.12227242078E+02 -0.26328578445E+02  0.41124297535E+02  0.51100000000E-03 0.  1.
        -12    1    3    3    0    0  0.85292311711E+00 -0.32130278008E+01 -0.32801897717E+01  0.46701895497E+01  0.00000000000E+00 0.  1.
</event>
<event>
 7    1  0.4937359E-010  0.4778727E+02  0.7816164E-02  0.1312668E+00
        -11   -1    0    0    0    0  0.00000000000E+00  0.00000000000E+00  0.45593999997E+02  0.45594000000E+02  0.51100000000E-03 0.  1.
         11   -1    0    0    0    0 -0.00000000000E+00 -0.00000000000E+00 -0.45593999997E+02  0.45594000000E+02  0.51100000000E-03 0. -1.
    9900012    2    1    2    0    0 -0.19860941284E+02 -0.34301315452E+02  0.17680106502E+02  0.47787269634E+02  0.19999993569E+02 0.  0.
         12    1    1    2    0    0  0.19860941284E+02  0.34301315452E+02 -0.17680106502E+02  0.43400730366E+02  0.00000000000E+00 0. -1.
         11    1    3    3    0    0 -0.95570295109E+01 -0.78164658954E+01  0.13264094431E+01  0.12417460064E+02  0.51100000000E-03 0. -1.
        -11    1    3    3    0    0 -0.40240657928E+01 -0.85989756353E+01  0.13033810623E+02  0.16125002546E+02  0.51100000000E-03 0.  1.
        -12    1    3    3    0    0 -0.62798459802E+01 -0.17885873921E+02  0.33198864352E+01  0.19244807024E+02  0.00000000000E+00 0.  1.
</event>
<event>
 7    1  0.4937359E-010  0.4778727E+02  0.7816164E-02  0.1312668E+00
        -11   -1    0    0    0    0  0.00000000000E+00  0.00000000000E+00  0.45593999997E+02  0.45594000000E+02  0.51100000000E-03 0. -1.
         11   -1    0    0    0    0 -0.00000000000E+00 -0.00000000000E+00 -0.45593999997E+02  0.45594000000E+02  0.51100000000E-03 0.  1.
    9900012    2    1    2    0    0  0.21821837290E+02  0.37385108563E+02  0.31279975245E+01  0.47787270819E+02  0.19999998970E+02 0.  0.
         12    1    1    2    0    0 -0.21821837290E+02 -0.37385108563E+02 -0.31279975245E+01  0.43400729181E+02  0.00000000000E+00 0. -1.
         11    1    3    3    0    0  0.53387714037E+01  0.17111557230E+02 -0.21099935592E+01  0.18048821125E+02  0.51100000000E-03 0. -1.
        -11    1    3    3    0    0  0.65684458994E+01  0.12565334553E+02 -0.32935807003E+01  0.14556091098E+02  0.51100000000E-03 0.  1.
         12    1    3    3    0    0  0.99146199869E+01  0.77082167803E+01  0.85315717840E+01  0.15182358596E+02  0.00000000000E+00 0. -1.
</event>
<event>
 7    1  0.4937359E-010  0.4778727E+02  0.7816164E-02  0.1312668E+00
        -11   -1    0    0    0    0  0.00000000000E+00  0.00000000000E+00  0.45593999997E+02  0.45594000000E+02  0.51100000000E-03 0.  1.
         11   -1    0    0    0    0 -0.00000000000E+00 -0.00000000000E+00 -0.45593999997E+02  0.45594000000E+02  0.51100000000E-03 0. -1.
    9900012    2    1    2    0    0  0.21988832050E+02  0.59818852234E+01  0.36936860696E+02  0.47787270008E+02  0.19999995276E+02 0.  0.
         12    1    1    2    0    0 -0.21988832050E+02 -0.59818852234E+01 -0.36936860696E+02  0.43400729992E+02  0.00000000000E+00 0. -1.
         11    1    3    3    0    0  0.94206610759E+01 -0.16637037044E+01  0.29341893410E+02  0.30862006971E+02  0.51100000000E-03 0. -1.
        -11    1    3    3    0    0  0.93102175512E+01  0.41503396676E+01  0.40188147364E+01  0.10957022513E+02  0.51100000000E-03 0.  1.
         12    1    3    3    0    0  0.32579534230E+01  0.34952492602E+01  0.35761525491E+01  0.59682405239E+01  0.00000000000E+00 0. -1.
</event>
<event>
 7    1  0.4937359E-010  0.4778727E+02  0.7816164E-02  0.1312668E+00
        -11   -1    0    0    0    0  0.00000000000E+00  0.00000000000E+00  0.45593999997E+02  0.45594000000E+02  0.51100000000E-03 0. -1.
         11   -1    0    0    0    0 -0.00000000000E+00 -0.00000000000E+00 -0.45593999997E+02  0.45594000000E+02  0.51100000000E-03 0.  1.
    9900012    2    1    2    0    0  0.11195877527E+02  0.28403845753E+02 -0.30846353042E+02  0.47787267021E+02  0.19999981654E+02 0.  0.
         12    1    1    2    0    0 -0.11195877527E+02 -0.28403845753E+02  0.30846353042E+02  0.43400732979E+02  0.00000000000E+00 0. -1.
         11    1    3    3    0    0  0.53798275147E+00 -0.77621011763E+00 -0.12964727324E+00  0.95327659374E+00  0.51100000000E-03 0. -1.
        -11    1    3    3    0    0 -0.16774282653E+01 -0.10852716774E+01 -0.45419569704E+01  0.49619505823E+01  0.51100000000E-03 0.  1.
        -12    1    3    3    0    0  0.12335323041E+02  0.30265327548E+02 -0.26174748798E+02  0.41872039845E+02  0.00000000000E+00 0.  1.
</event>
<event>
 7    1  0.4937359E-010  0.4778727E+02  0.7816164E-02  0.1312668E+00
        -11   -1    0    0    0    0  0.00000000000E+00  0.00000000000E+00  0.45593999997E+02  0.45594000000E+02  0.51100000000E-03 0.  1.
         11   -1    0    0    0    0 -0.00000000000E+00 -0.00000000000E+00 -0.45593999997E+02  0.45594000000E+02  0.51100000000E-03 0. -1.
    9900012    2    1    2    0    0  0.25218507358E+02 -0.30856549065E+02  0.17190799807E+02  0.47787270380E+02  0.19999996969E+02 0.  0.
         12    1    1    2    0    0 -0.25218507358E+02  0.30856549065E+02 -0.17190799807E+02  0.43400729620E+02  0.00000000000E+00 0. -1.
         11    1    3    3    0    0 -0.99202118442E+00 -0.24995075054E+01 -0.19891432421E+01  0.33448968443E+01  0.51100000000E-03 0. -1.
        -11    1    3    3    0    0  0.11947655489E+02 -0.20327260982E+02  0.13161216595E+02  0.27002993042E+02  0.51100000000E-03 0.  1.
         12    1    3    3    0    0  0.14262873053E+02 -0.80297805780E+01  0.60187264545E+01  0.17439380494E+02  0.00000000000E+00 0. -1.
</event>
<event>
 7    1  0.5690449E-010  0.4778727E+02  0.7816164E-02  0.1312668E+00
        -11   -1    0    0    0    0  0.00000000000E+00  0.00000000000E+00  0.45593999997E+02  0.45594000000E+02  0.51100000000E-03 0. -1.
         11   -1    0    0    0    0 -0.00000000000E+00 -0.00000000000E+00 -0.45593999997E+02  0.45594000000E+02  0.51100000000E-03 0.  1.
    9900012    2    1    2    0    0  0.35879910101E+02 -0.22788650283E+02 -0.87711556751E+01  0.47787266107E+02  0.19999977489E+02 0.  0.
         12    1    1    2    0    0 -0.35879910101E+02  0.22788650283E+02  0.87711556751E+01  0.43400733893E+02  0.00000000000E+00 0. -1.
         11    1    3    3    0    0 -0.11753163616E+01  0.15428400843E+01  0.18562973785E+00  0.19483795155E+01  0.51100000000E-03 0. -1.
        -11    1    3    3    0    0  0.26699232715E+02 -0.13735802067E+02 -0.75241225342E+01  0.30953734931E+02  0.51100000000E-03 0.  1.
         12    1    3    3    0    0  0.10355993747E+02 -0.10595688300E+02 -0.14326628787E+01  0.14885151661E+02  0.00000000000E+00 0. -1.
</event>
<event>
 7    1  0.4937359E-010  0.4778727E+02  0.7816164E-02  0.1312668E+00
        -11   -1    0    0    0    0  0.00000000000E+00  0.00000000000E+00  0.45593999997E+02  0.45594000000E+02  0.51100000000E-03 0. -1.
         11   -1    0    0    0    0 -0.00000000000E+00 -0.00000000000E+00 -0.45593999997E+02  0.45594000000E+02  0.51100000000E-03 0.  1.
    9900012    2    1    2    0    0 -0.34076872691E+02  0.59972258132E+01 -0.26199680743E+02  0.47787271425E+02  0.20000001733E+02 0.  0.
         12    1    1    2    0    0  0.34076872691E+02 -0.59972258132E+01  0.26199680743E+02  0.43400728575E+02  0.00000000000E+00 0. -1.
         11    1    3    3    0    0 -0.76583256989E+01 -0.51905387514E+01 -0.61224654313E+01  0.11093972609E+02  0.51100000000E-03 0. -1.
        -11    1    3    3    0    0 -0.75650551293E+01 -0.12504305947E+01 -0.79965787754E+01  0.11078759324E+02  0.51100000000E-03 0.  1.
         12    1    3    3    0    0 -0.18853491863E+02  0.12438195159E+02 -0.12080636536E+02  0.25614539491E+02  0.00000000000E+00 0. -1.
</event>
<event>
 7    1  0.4937359E-010  0.4778727E+02  0.7816164E-02  0.1312668E+00
        -11   -1    0    0    0    0  0.00000000000E+00  0.00000000000E+00  0.45593999997E+02  0.45594000000E+02  0.51100000000E-03 0. -1.
         11   -1    0    0    0    0 -0.00000000000E+00 -0.00000000000E+00 -0.45593999997E+02  0.45594000000E+02  0.51100000000E-03 0.  1.
    9900012    2    1    2    0    0 -0.29188499827E+02 -0.20059279378E+02 -0.25085454581E+02  0.47787271402E+02  0.20000001629E+02 0.  0.
         12    1    1    2    0    0  0.29188499827E+02  0.20059279378E+02  0.25085454581E+02  0.43400728598E+02  0.00000000000E+00 0. -1.
         11    1    3    3    0    0 -0.21855152309E+02 -0.10344138805E+02 -0.71929466647E+01  0.25226719407E+02  0.51100000000E-03 0. -1.
        -11    1    3    3    0    0 -0.78119925496E+01 -0.69212704237E+01 -0.11289229302E+02  0.15374586511E+02  0.51100000000E-03 0.  1.
         12    1    3    3    0    0  0.47864503162E+00 -0.27938701492E+01 -0.66032786140E+01  0.71859654835E+01  0.00000000000E+00 0. -1.
</event>
<event>
 7    1  0.4937359E-010  0.4778726E+02  0.7816164E-02  0.1312668E+00
        -11   -1    0    0    0    0  0.00000000000E+00  0.00000000000E+00  0.45593999997E+02  0.45594000000E+02  0.51100000000E-03 0.  1.
         11   -1    0    0    0    0 -0.00000000000E+00 -0.00000000000E+00 -0.45593999997E+02  0.45594000000E+02  0.51100000000E-03 0. -1.
    9900012    2    1    2    0    0  0.10597332576E+02  0.36233078001E+02  0.21412259069E+02  0.47787259942E+02  0.19999949380E+02 0.  0.
         12    1    1    2    0    0 -0.10597332576E+02 -0.36233078001E+02 -0.21412259069E+02  0.43400740058E+02  0.00000000000E+00 0. -1.
         11    1    3    3    0    0  0.12408979205E+01  0.29764501938E+02  0.18833753564E+02  0.35244512719E+02  0.51100000000E-03 0. -1.
        -11    1    3    3    0    0  0.61060667399E+01  0.45515899418E+01 -0.55746695349E+00  0.76362157968E+01  0.51100000000E-03 0.  1.
         12    1    3    3    0    0  0.32503679155E+01  0.19169861213E+01  0.31359724581E+01  0.49065314259E+01  0.00000000000E+00 0. -1.
</event>
<event>
 7    1  0.4937359E-010  0.4778727E+02  0.7816164E-02  0.1312668E+00
        -11   -1    0    0    0    0  0.00000000000E+00  0.00000000000E+00  0.45593999997E+02  0.45594000000E+02  0.51100000000E-03 0.  1.
         11   -1    0    0    0    0 -0.00000000000E+00 -0.00000000000E+00 -0.45593999997E+02  0.45594000000E+02  0.51100000000E-03 0. -1.
    9900012    2    1    2    0    0  0.19265973959E+02 -0.26092976898E+02  0.28837511658E+02  0.47787271036E+02  0.19999999959E+02 0.  0.
         12    1    1    2    0    0 -0.19265973959E+02  0.26092976898E+02 -0.28837511658E+02  0.43400728964E+02  0.00000000000E+00 0. -1.
         11    1    3    3    0    0 -0.12341642541E+00 -0.35454555545E+01 -0.13094128850E+01  0.37815405680E+01  0.51100000000E-03 0. -1.
        -11    1    3    3    0    0  0.89438116702E+01 -0.80012446045E+01  0.20265727256E+02  0.23552311646E+02  0.51100000000E-03 0.  1.
        -12    1    3    3    0    0  0.10445578714E+02 -0.14546276739E+02  0.98811972878E+01  0.20453418822E+02  0.00000000000E+00 0.  1.
</event>
<event>
 7    1  0.4937359E-010  0.4778727E+02  0.7816164E-02  0.1312668E+00
        -11   -1    0    0    0    0  0.00000000000E+00  0.00000000000E+00  0.45593999997E+02  0.45594000000E+02  0.51100000000E-03 0. -1.
         11   -1    0    0    0    0 -0.00000000000E+00 -0.00000000000E+00 -0.45593999997E+02  0.45594000000E+02  0.51100000000E-03 0.  1.
    9900012    2    1    2    0    0  0.89548174090E+01  0.19957785852E+01 -0.42419943466E+02  0.47787268547E+02  0.19999988611E+02 0.  0.
         12    1    1    2    0    0 -0.89548174090E+01 -0.19957785852E+01  0.42419943466E+02  0.43400731453E+02  0.00000000000E+00 0. -1.
         11    1    3    3    0    0  0.97367933419E+01  0.50049534786E+01 -0.14786477936E+02  0.18398223662E+02  0.51100000000E-03 0. -1.
        -11    1    3    3    0    0  0.25968770070E+00 -0.57702502513E+01 -0.24113788731E+02  0.24795927748E+02  0.51100000000E-03 0.  1.
         12    1    3    3    0    0 -0.10416636336E+01  0.27610753578E+01 -0.35196767994E+01  0.45931171365E+01  0.00000000000E+00 0. -1.
</event>
<event>
 7    1  0.4937359E-010  0.4778727E+02  0.7816164E-02  0.1312668E+00
        -11   -1    0    0    0    0  0.00000000000E+00  0.00000000000E+00  0.45593999997E+02  0.45594000000E+02  0.51100000000E-03 0. -1.
         11   -1    0    0    0    0 -0.00000000000E+00 -0.00000000000E+00 -0.45593999997E+02  0.45594000000E+02  0.51100000000E-03 0.  1.
    9900012    2    1    2    0    0  0.15758827982E+01  0.14591127791E+02 -0.40844076798E+02  0.47787273897E+02  0.20000013006E+02 0.  0.
         12    1    1    2    0    0 -0.15758827982E+01 -0.14591127791E+02  0.40844076798E+02  0.43400726103E+02  0.00000000000E+00 0. -1.
         11    1    3    3    0    0  0.68314478501E+01  0.23792550933E+01 -0.84731543581E+01  0.11141089694E+02  0.51100000000E-03 0. -1.
        -11    1    3    3    0    0 -0.34826730403E+01  0.12297328191E+02 -0.32442990955E+02  0.34869771358E+02  0.51100000000E-03 0.  1.
        -12    1    3    3    0    0 -0.17728920117E+01 -0.85455493687E-01  0.72068515666E-01  0.17764128455E+01  0.00000000000E+00 0.  1.
</event>
<event>
 7    1  0.4937359E-010  0.4778727E+02  0.7816164E-02  0.1312668E+00
        -11   -1    0    0    0    0  0.00000000000E+00  0.00000000000E+00  0.45593999997E+02  0.45594000000E+02  0.51100000000E-03 0. -1.
         11   -1    0    0    0    0 -0.00000000000E+00 -0.00000000000E+00 -0.45593999997E+02  0.45594000000E+02  0.51100000000E-03 0.  1.
    9900012    2    1    2    0    0  0.10506566474E+00 -0.84369923471E+01 -0.42572633710E+02  0.47787273973E+02  0.20000013352E+02 0.  0.
         12    1    1    2    0    0 -0.10506566474E+00  0.84369923471E+01  0.42572633710E+02  0.43400726027E+02  0.00000000000E+00 0. -1.
         11    1    3    3    0    0  0.15418168270E+01 -0.25555090509E+01 -0.39981506643E+00  0.30112585385E+01  0.51100000000E-03 0. -1.
        -11    1    3    3    0    0  0.38476952672E+01 -0.24722243522E+00 -0.30723767541E+02  0.30964750443E+02  0.51100000000E-03 0.  1.
        -12    1    3    3    0    0 -0.52844464294E+01 -0.56342608610E+01 -0.11449051103E+02  0.13811264991E+02  0.00000000000E+00 0.  1.
</event>
<event>
 7    1  0.4937359E-010  0.4778728E+02  0.7816164E-02  0.1312668E+00
        -11   -1    0    0    0    0  0.00000000000E+00  0.00000000000E+00  0.45593999997E+02  0.45594000000E+02  0.51100000000E-03 0.  1.
         11   -1    0    0    0    0 -0.00000000000E+00 -0.00000000000E+00 -0.45593999997E+02  0.45594000000E+02  0.51100000000E-03 0. -1.
    9900012    2    1    2    0    0 -0.20623174281E+02 -0.37845143079E+02  0.51041396729E+01  0.47787280952E+02  0.20000045173E+02 0.  0.
         12    1    1    2    0    0  0.20623174281E+02  0.37845143079E+02 -0.51041396729E+01  0.43400719048E+02  0.00000000000E+00 0. -1.
         11    1    3    3    0    0 -0.40585084236E+01 -0.83631302378E+01 -0.40993257024E+01  0.10159621522E+02  0.51100000000E-03 0. -1.
        -11    1    3    3    0    0 -0.14555026697E+02 -0.28907689988E+02  0.11660766880E+02  0.34401698026E+02  0.51100000000E-03 0.  1.
        -12    1    3    3    0    0 -0.20096391603E+01 -0.57432285326E+00 -0.24573015047E+01  0.32259614039E+01  0.00000000000E+00 0.  1.
</event>
<event>
 7    1  0.4937359E-010  0.4778727E+02  0.7816164E-02  0.1312668E+00
        -11   -1    0    0    0    0  0.00000000000E+00  0.00000000000E+00  0.45593999997E+02  0.45594000000E+02  0.51100000000E-03 0. -1.
         11   -1    0    0    0    0 -0.00000000000E+00 -0.00000000000E+00 -0.45593999997E+02  0.45594000000E+02  0.51100000000E-03 0.  1.
    9900012    2    1    2    0    0 -0.40617318385E+02  0.50409084898E+01 -0.14437658977E+02  0.47787270652E+02  0.19999998210E+02 0.  0.
         12    1    1    2    0    0  0.40617318385E+02 -0.50409084898E+01  0.14437658977E+02  0.43400729348E+02  0.00000000000E+00 0. -1.
         11    1    3    3    0    0 -0.23765226469E+00 -0.33556071301E+00  0.26615796982E+01  0.26931554619E+01  0.51100000000E-03 0. -1.
        -11    1    3    3    0    0 -0.35280192547E+02  0.76878067862E+01 -0.14327647377E+02  0.38846825340E+02  0.51100000000E-03 0.  1.
        -12    1    3    3    0    0 -0.50994735730E+01 -0.23113375834E+01 -0.27715912990E+01  0.62472898504E+01  0.00000000000E+00 0.  1.
</event>
<event>
 7    1  0.4937359E-010  0.4778727E+02  0.7816164E-02  0.1312668E+00
        -11   -1    0    0    0    0  0.00000000000E+00  0.00000000000E+00  0.45593999997E+02  0.45594000000E+02  0.51100000000E-03 0. -1.
         11   -1    0    0    0    0 -0.00000000000E+00 -0.00000000000E+00 -0.45593999997E+02  0.45594000000E+02  0.51100000000E-03 0.  1.
    9900012    2    1    2    0    0 -0.47550783409E+01  0.24506934944E+02 -0.35502433562E+02  0.47787269370E+02  0.19999992366E+02 0.  0.
         12    1    1    2    0    0  0.47550783409E+01 -0.24506934944E+02  0.35502433562E+02  0.43400730630E+02  0.00000000000E+00 0. -1.
         11    1    3    3    0    0 -0.63103449234E+01 -0.82714940431E-01 -0.80502425088E+01  0.10229061517E+02  0.51100000000E-03 0. -1.
        -11    1    3    3    0    0 -0.19988704302E+01  0.22781056950E+01 -0.35639021644E+01  0.46783167328E+01  0.51100000000E-03 0.  1.
         12    1    3    3    0    0  0.35541370128E+01  0.22311544190E+02 -0.23888288888E+02  0.32879891120E+02  0.00000000000E+00 0. -1.
</event>
<event>
 7    1  0.4937359E-010  0.4778727E+02  0.7816164E-02  0.1312668E+00
        -11   -1    0    0    0    0  0.00000000000E+00  0.00000000000E+00  0.45593999997E+02  0.45594000000E+02  0.51100000000E-03 0.  1.
         11   -1    0    0    0    0 -0.00000000000E+00 -0.00000000000E+00 -0.45593999997E+02  0.45594000000E+02  0.51100000000E-03 0. -1.
    9900012    2    1    2    0    0  0.15269455082E+02  0.10445363102E+02  0.39260174438E+02  0.47787272290E+02  0.20000005679E+02 0.  0.
         12    1    1    2    0    0 -0.15269455082E+02 -0.10445363102E+02 -0.39260174438E+02  0.43400727710E+02  0.00000000000E+00 0. -1.
         11    1    3    3    0    0  0.11730879069E+01  0.19273868688E+01  0.13479261356E+02  0.13666800736E+02  0.51100000000E-03 0. -1.
        -11    1    3    3    0    0  0.17633966068E+00  0.46546390710E+01  0.16025879487E+02  0.16689085480E+02  0.51100000000E-03 0.  1.
         12    1    3    3    0    0  0.13920027515E+02  0.38633371624E+01  0.97550335949E+01  0.17431386075E+02  0.00000000000E+00 0. -1.
</event>
<event>
 7    1  0.4937359E-010  0.4778727E+02  0.7816164E-02  0.1312668E+00
        -11   -1    0    0    0    0  0.00000000000E+00  0.00000000000E+00  0.45593999997E+02  0.45594000000E+02  0.51100000000E-03 0. -1.
         11   -1    0    0    0    0 -0.00000000000E+00 -0.00000000000E+00 -0.45593999997E+02  0.45594000000E+02  0.51100000000E-03 0.  1.
    9900012    2    1    2    0    0 -0.35919924048E+02  0.24226194348E+02 -0.25444081928E+01  0.47787269024E+02  0.19999990789E+02 0.  0.
         12    1    1    2    0    0  0.35919924048E+02 -0.24226194348E+02  0.25444081928E+01  0.43400730976E+02  0.00000000000E+00 0. -1.
         11    1    3    3    0    0 -0.12130362000E+02  0.92101075270E+01 -0.97103433579E+01  0.18062738754E+02  0.51100000000E-03 0. -1.
        -11    1    3    3    0    0 -0.19308376544E+02  0.10565566693E+02  0.31353850383E+01  0.22232301813E+02  0.51100000000E-03 0.  1.
         12    1    3    3    0    0 -0.44811855031E+01  0.44505201277E+01  0.40305501267E+01  0.74922284565E+01  0.00000000000E+00 0. -1.
</event>
<event>
 7    1  0.4937359E-010  0.4778728E+02  0.7816164E-02  0.1312668E+00
        -11   -1    0    0    0    0  0.00000000000E+00  0.00000000000E+00  0.45593999997E+02  0.45594000000E+02  0.51100000000E-03 0.  1.
         11   -1    0    0    0    0 -0.00000000000E+00 -0.00000000000E+00 -0.45593999997E+02  0.45594000000E+02  0.51100000000E-03 0. -1.
    9900012    2    1    2    0    0 -0.75844166634E+01  0.89240354722E+00  0.42723566001E+02  0.47787275904E+02  0.20000022155E+02 0.  0.
         12    1    1    2    0    0  0.75844166634E+01 -0.89240354722E+00 -0.42723566001E+02  0.43400724096E+02  0.00000000000E+00 0. -1.
         11    1    3    3    0    0  0.47485348950E+01  0.24208177288E-01  0.78647430817E+01  0.91871297850E+01  0.51100000000E-03 0. -1.
        -11    1    3    3    0    0 -0.70510061052E+01  0.18694641177E+01  0.31333357946E+02  0.32171274510E+02  0.51100000000E-03 0.  1.
         12    1    3    3    0    0 -0.52819454533E+01 -0.10012687478E+01  0.35254649738E+01  0.64288716085E+01  0.00000000000E+00 0. -1.
</event>
<event>
 7    1  0.4937359E-010  0.4778726E+02  0.7816164E-02  0.1312668E+00
        -11   -1    0    0    0    0  0.00000000000E+00  0.00000000000E+00  0.45593999997E+02  0.45594000000E+02  0.51100000000E-03 0.  1.
         11   -1    0    0    0    0 -0.00000000000E+00 -0.00000000000E+00 -0.45593999997E+02  0.45594000000E+02  0.51100000000E-03 0. -1.
    9900012    2    1    2    0    0  0.15776608703E+02 -0.18201659179E+02  0.36102937357E+02  0.47787264236E+02  0.19999968957E+02 0.  0.
         12    1    1    2    0    0 -0.15776608703E+02  0.18201659179E+02 -0.36102937357E+02  0.43400735764E+02  0.00000000000E+00 0. -1.
         11    1    3    3    0    0  0.20083677910E+01 -0.23872410752E+00  0.58261761959E+00  0.21047503261E+01  0.51100000000E-03 0. -1.
        -11    1    3    3    0    0 -0.25041119677E+01 -0.52717858926E+00  0.11693806936E+02  0.11970531105E+02  0.51100000000E-03 0.  1.
        -12    1    3    3    0    0  0.16272352879E+02 -0.17435756482E+02  0.23826512802E+02  0.33711982805E+02  0.00000000000E+00 0.  1.
</event>
<event>
 7    1  0.4937359E-010  0.4778729E+02  0.7816164E-02  0.1312668E+00
        -11   -1    0    0    0    0  0.00000000000E+00  0.00000000000E+00  0.45593999997E+02  0.45594000000E+02  0.51100000000E-03 0.  1.
         11   -1    0    0    0    0 -0.00000000000E+00 -0.00000000000E+00 -0.45593999997E+02  0.45594000000E+02  0.51100000000E-03 0. -1.
    9900012    2    1    2    0    0  0.42401890713E+02 -0.72737381520E+00  0.92288895115E+01  0.47787287905E+02  0.20000076876E+02 0.  0.
         12    1    1    2    0    0 -0.42401890713E+02  0.72737381520E+00 -0.92288895115E+01  0.43400712095E+02  0.00000000000E+00 0. -1.
         11    1    3    3    0    0  0.20238915302E+02 -0.25798392970E+01 -0.29696084761E+01  0.20617658406E+02  0.51100000000E-03 0. -1.
        -11    1    3    3    0    0  0.12753477580E+02  0.27218983411E+01  0.11994249290E+02  0.17717842342E+02  0.51100000000E-03 0.  1.
         12    1    3    3    0    0  0.94094978311E+01 -0.86943285932E+00  0.20424869729E+00  0.94517871569E+01  0.00000000000E+00 0. -1.
</event>
<event>
 7    1  0.4937359E-010  0.4778727E+02  0.7816164E-02  0.1312668E+00
        -11   -1    0    0    0    0  0.00000000000E+00  0.00000000000E+00  0.45593999997E+02  0.45594000000E+02  0.51100000000E-03 0.  1.
         11   -1    0    0    0    0 -0.00000000000E+00 -0.00000000000E+00 -0.45593999997E+02  0.45594000000E+02  0.51100000000E-03 0. -1.
    9900012    2    1    2    0    0 -0.38342547941E+02  0.12191615292E+02  0.16273808973E+02  0.47787270461E+02  0.19999997340E+02 0.  0.
         12    1    1    2    0    0  0.38342547941E+02 -0.12191615292E+02 -0.16273808973E+02  0.43400729539E+02  0.00000000000E+00 0. -1.
         11    1    3    3    0    0 -0.49321618321E+01  0.85252444643E+01  0.11371135787E+01  0.99145872867E+01  0.51100000000E-03 0. -1.
        -11    1    3    3    0    0 -0.23431610609E+02  0.42975042830E+01  0.14423352206E+02  0.27848554862E+02  0.51100000000E-03 0.  1.
         12    1    3    3    0    0 -0.99787754999E+01 -0.63113345564E+00  0.71334318872E+00  0.10024128312E+02  0.00000000000E+00 0. -1.
</event>
<event>
 7    1  0.4937359E-010  0.4778727E+02  0.7816164E-02  0.1312668E+00
        -11   -1    0    0    0    0  0.00000000000E+00  0.00000000000E+00  0.45593999997E+02  0.45594000000E+02  0.51100000000E-03 0.  1.
         11   -1    0    0    0    0 -0.00000000000E+00 -0.00000000000E+00 -0.45593999997E+02  0.45594000000E+02  0.51100000000E-03 0. -1.
    9900012    2    1    2    0    0 -0.15047892731E+02  0.22409418368E+02  0.33985320859E+02  0.47787272574E+02  0.20000006974E+02 0.  0.
         12    1    1    2    0    0  0.15047892731E+02 -0.22409418368E+02 -0.33985320859E+02  0.43400727426E+02  0.00000000000E+00 0. -1.
         11    1    3    3    0    0 -0.50625179396E+00  0.75422108383E+00  0.42766710861E+01  0.43720768706E+01  0.51100000000E-03 0. -1.
        -11    1    3    3    0    0 -0.11010899144E+02  0.14319376198E+02  0.71404591274E+01  0.19423454674E+02  0.51100000000E-03 0.  1.
        -12    1    3    3    0    0 -0.35307417934E+01  0.73358210858E+01  0.22568190645E+02  0.23991741029E+02  0.00000000000E+00 0.  1.
</event>
<event>
 7    1  0.4937359E-010  0.4778728E+02  0.7816164E-02  0.1312668E+00
        -11   -1    0    0    0    0  0.00000000000E+00  0.00000000000E+00  0.45593999997E+02  0.45594000000E+02  0.51100000000E-03 0. -1.
         11   -1    0    0    0    0 -0.00000000000E+00 -0.00000000000E+00 -0.45593999997E+02  0.45594000000E+02  0.51100000000E-03 0.  1.
    9900012    2    1    2    0    0  0.55491488114E+01  0.26553223981E+02 -0.33878547011E+02  0.47787277611E+02  0.20000029941E+02 0.  0.
         12    1    1    2    0    0 -0.55491488114E+01 -0.26553223981E+02  0.33878547011E+02  0.43400722389E+02  0.00000000000E+00 0. -1.
         11    1    3    3    0    0 -0.41828463293E+01  0.80433149454E+01 -0.48114989089E+01  0.10263607589E+02  0.51100000000E-03 0. -1.
        -11    1    3    3    0    0  0.91420730399E+01  0.16476910478E+02 -0.29821924969E+02  0.35276242536E+02  0.51100000000E-03 0.  1.
        -12    1    3    3    0    0  0.58992210086E+00  0.20329985578E+01  0.75487686730E+00  0.22474274862E+01  0.00000000000E+00 0.  1.
</event>
<event>
 7    1  0.4937359E-010  0.4778727E+02  0.7816164E-02  0.1312668E+00
        -11   -1    0    0    0    0  0.00000000000E+00  0.00000000000E+00  0.45593999997E+02  0.45594000000E+02  0.51100000000E-03 0. -1.
         11   -1    0    0    0    0 -0.00000000000E+00 -0.00000000000E+00 -0.45593999997E+02  0.45594000000E+02  0.51100000000E-03 0.  1.
    9900012    2    1    2    0    0 -0.90965303163E+01  0.17170187531E+02 -0.38808002253E+02  0.47787271406E+02  0.20000001646E+02 0.  0.
         12    1    1    2    0    0  0.90965303163E+01 -0.17170187531E+02  0.38808002253E+02  0.43400728594E+02  0.00000000000E+00 0. -1.
         11    1    3    3    0    0 -0.48659944361E+00  0.13366599187E+01 -0.55463576484E+01  0.57258643175E+01  0.51100000000E-03 0. -1.
        -11    1    3    3    0    0 -0.12488814704E+02  0.99907391894E+01 -0.30661158537E+02  0.34581671524E+02  0.51100000000E-03 0.  1.
        -12    1    3    3    0    0  0.38788838309E+01  0.58427884228E+01 -0.26004860675E+01  0.74797355645E+01  0.00000000000E+00 0.  1.
</event>
<event>
 7    1  0.4937359E-010  0.4778727E+02  0.7816164E-02  0.1312668E+00
        -11   -1    0    0    0    0  0.00000000000E+00  0.00000000000E+00  0.45593999997E+02  0.45594000000E+02  0.51100000000E-03 0.  1.
         11   -1    0    0    0    0 -0.00000000000E+00 -0.00000000000E+00 -0.45593999997E+02  0.45594000000E+02  0.51100000000E-03 0. -1.
    9900012    2    1    2    0    0  0.20074966053E+01 -0.33462021439E+02  0.27566037098E+02  0.47787270482E+02  0.19999997434E+02 0.  0.
         12    1    1    2    0    0 -0.20074966053E+01  0.33462021439E+02 -0.27566037098E+02  0.43400729518E+02  0.00000000000E+00 0. -1.
         11    1    3    3    0    0 -0.85747322337E+00 -0.28343736361E+01  0.73729521535E+01  0.79453985398E+01  0.51100000000E-03 0. -1.
        -11    1    3    3    0    0 -0.53586101927E+01 -0.20900592154E+02  0.11868922710E+02  0.24625612320E+02  0.51100000000E-03 0.  1.
        -12    1    3    3    0    0  0.82235800214E+01 -0.97270556495E+01  0.83241622344E+01  0.15216259622E+02  0.00000000000E+00 0.  1.
</event>
<event>
 7    1  0.4937359E-010  0.4778727E+02  0.7816164E-02  0.1312668E+00
        -11   -1    0    0    0    0  0.00000000000E+00  0.00000000000E+00  0.45593999997E+02  0.45594000000E+02  0.51100000000E-03 0. -1.
         11   -1    0    0    0    0 -0.00000000000E+00 -0.00000000000E+00 -0.45593999997E+02  0.45594000000E+02  0.51100000000E-03 0.  1.
    9900012    2    1    2    0    0  0.45996022603E+01 -0.40161385353E+02  0.15796517476E+02  0.47787272139E+02  0.20000004992E+02 0.  0.
         12    1    1    2    0    0 -0.45996022603E+01  0.40161385353E+02 -0.15796517476E+02  0.43400727861E+02  0.00000000000E+00 0. -1.
         11    1    3    3    0    0 -0.47693088367E+00  0.42936135570E+00  0.95384105134E+00  0.11496204826E+01  0.51100000000E-03 0. -1.
        -11    1    3    3    0    0 -0.47998087079E+01 -0.16051426737E+02  0.10657989413E+02  0.19856465005E+02  0.51100000000E-03 0.  1.
        -12    1    3    3    0    0  0.98763418519E+01 -0.24539319972E+02  0.41846870120E+01  0.26781186651E+02  0.00000000000E+00 0.  1.
</event>
<event>
 7    1  0.4937359E-010  0.4778727E+02  0.7816164E-02  0.1312668E+00
        -11   -1    0    0    0    0  0.00000000000E+00  0.00000000000E+00  0.45593999997E+02  0.45594000000E+02  0.51100000000E-03 0.  1.
         11   -1    0    0    0    0 -0.00000000000E+00 -0.00000000000E+00 -0.45593999997E+02  0.45594000000E+02  0.51100000000E-03 0. -1.
    9900012    2    1    2    0    0  0.31521385415E+00  0.19335124767E+02  0.38854559454E+02  0.47787271896E+02  0.20000003883E+02 0.  0.
         12    1    1    2    0    0 -0.31521385415E+00 -0.19335124767E+02 -0.38854559454E+02  0.43400728104E+02  0.00000000000E+00 0. -1.
         11    1    3    3    0    0 -0.91861359549E+00 -0.98250524520E+00 -0.43379558750E+00  0.14132750502E+01  0.51100000000E-03 0. -1.
        -11    1    3    3    0    0  0.44388304791E+01  0.16247797835E+02  0.37111596046E+02  0.40754934816E+02  0.51100000000E-03 0.  1.
         12    1    3    3    0    0 -0.32050030294E+01  0.40698321778E+01  0.21767589963E+01  0.56190620304E+01  0.00000000000E+00 0. -1.
</event>
<event>
 7    1  0.4937359E-010  0.4778727E+02  0.7816164E-02  0.1312668E+00
        -11   -1    0    0    0    0  0.00000000000E+00  0.00000000000E+00  0.45593999997E+02  0.45594000000E+02  0.51100000000E-03 0. -1.
         11   -1    0    0    0    0 -0.00000000000E+00 -0.00000000000E+00 -0.45593999997E+02  0.45594000000E+02  0.51100000000E-03 0.  1.
    9900012    2    1    2    0    0 -0.33804194039E+02 -0.23709555632E+02 -0.13370004896E+02  0.47787267359E+02  0.19999983197E+02 0.  0.
         12    1    1    2    0    0  0.33804194039E+02  0.23709555632E+02  0.13370004896E+02  0.43400732641E+02  0.00000000000E+00 0. -1.
         11    1    3    3    0    0  0.47932926596E+00 -0.36709613386E+01 -0.84969520642E+00  0.37983806945E+01  0.51100000000E-03 0. -1.
        -11    1    3    3    0    0 -0.23922055032E+02 -0.60574597408E+01 -0.59205690712E+01  0.25377365384E+02  0.51100000000E-03 0.  1.
        -12    1    3    3    0    0 -0.10361468273E+02 -0.13981134552E+02 -0.65997406187E+01  0.18611521280E+02  0.00000000000E+00 0.  1.
</event>
<event>
 7    1  0.4937359E-010  0.4778727E+02  0.7816164E-02  0.1312668E+00
        -11   -1    0    0    0    0  0.00000000000E+00  0.00000000000E+00  0.45593999997E+02  0.45594000000E+02  0.51100000000E-03 0.  1.
         11   -1    0    0    0    0 -0.00000000000E+00 -0.00000000000E+00 -0.45593999997E+02  0.45594000000E+02  0.51100000000E-03 0. -1.
    9900012    2    1    2    0    0  0.37398570416E+02 -0.14492692848E+02  0.16581082689E+02  0.47787268229E+02  0.19999987163E+02 0.  0.
         12    1    1    2    0    0 -0.37398570416E+02  0.14492692848E+02 -0.16581082689E+02  0.43400731771E+02  0.00000000000E+00 0. -1.
         11    1    3    3    0    0  0.11803595745E+02 -0.66169049728E+01  0.13335219972E+02  0.18998326134E+02  0.51100000000E-03 0. -1.
        -11    1    3    3    0    0  0.62522682404E+01 -0.15546021814E+01  0.52913201456E+01  0.83370087703E+01  0.51100000000E-03 0.  1.
         12    1    3    3    0    0  0.19342706430E+02 -0.63211856940E+01 -0.20454574288E+01  0.20451933324E+02  0.00000000000E+00 0. -1.
</event>
<event>
 7    1  0.4937359E-010  0.4778727E+02  0.7816164E-02  0.1312668E+00
        -11   -1    0    0    0    0  0.00000000000E+00  0.00000000000E+00  0.45593999997E+02  0.45594000000E+02  0.51100000000E-03 0.  1.
         11   -1    0    0    0    0 -0.00000000000E+00 -0.00000000000E+00 -0.45593999997E+02  0.45594000000E+02  0.51100000000E-03 0. -1.
    9900012    2    1    2    0    0 -0.26376504391E+02  0.21421789399E+02  0.27000189972E+02  0.47787270704E+02  0.19999998447E+02 0.  0.
         12    1    1    2    0    0  0.26376504391E+02 -0.21421789399E+02 -0.27000189972E+02  0.43400729296E+02  0.00000000000E+00 0. -1.
         11    1    3    3    0    0 -0.45450857316E+01  0.71509991706E+01 -0.46799703454E+00  0.84860836038E+01  0.51100000000E-03 0.  1.
        -11    1    3    3    0    0 -0.63723580133E+01  0.59462112106E+01  0.16324326928E+02  0.18505351235E+02  0.51100000000E-03 0. -1.
        -12    1    3    3    0    0 -0.15459060646E+02  0.83245790181E+01  0.11143860078E+02  0.20795835865E+02  0.00000000000E+00 0.  1.
</event>
<event>
 7    1  0.4937359E-010  0.4778727E+02  0.7816164E-02  0.1312668E+00
        -11   -1    0    0    0    0  0.00000000000E+00  0.00000000000E+00  0.45593999997E+02  0.45594000000E+02  0.51100000000E-03 0. -1.
         11   -1    0    0    0    0 -0.00000000000E+00 -0.00000000000E+00 -0.45593999997E+02  0.45594000000E+02  0.51100000000E-03 0.  1.
    9900012    2    1    2    0    0  0.25405023634E+02 -0.17675865193E+02 -0.30426496740E+02  0.47787272586E+02  0.20000007028E+02 0.  0.
         12    1    1    2    0    0 -0.25405023634E+02  0.17675865193E+02  0.30426496740E+02  0.43400727414E+02  0.00000000000E+00 0. -1.
         11    1    3    3    0    0  0.76505486507E+01 -0.34138239466E+01 -0.18060012171E+01  0.85701067236E+01  0.51100000000E-03 0.  1.
        -11    1    3    3    0    0  0.52951554323E+01 -0.13295816567E+02 -0.15584159556E+02  0.21158531106E+02  0.51100000000E-03 0. -1.
        -12    1    3    3    0    0  0.12459319551E+02 -0.96622467973E+00 -0.13036335967E+02  0.18058634756E+02  0.00000000000E+00 0.  1.
</event>
<event>
 7    1  0.4937359E-010  0.4778727E+02  0.7816164E-02  0.1312668E+00
        -11   -1    0    0    0    0  0.00000000000E+00  0.00000000000E+00  0.45593999997E+02  0.45594000000E+02  0.51100000000E-03 0.  1.
         11   -1    0    0    0    0 -0.00000000000E+00 -0.00000000000E+00 -0.45593999997E+02  0.45594000000E+02  0.51100000000E-03 0. -1.
    9900012    2    1    2    0    0 -0.21508752591E+02  0.11876635078E+02  0.35776287448E+02  0.47787266799E+02  0.19999980645E+02 0.  0.
         12    1    1    2    0    0  0.21508752591E+02 -0.11876635078E+02 -0.35776287448E+02  0.43400733201E+02  0.00000000000E+00 0. -1.
         11    1    3    3    0    0 -0.32421934149E+01 -0.34855475039E+01  0.85623693332E+00  0.48367345894E+01  0.51100000000E-03 0. -1.
        -11    1    3    3    0    0 -0.62208149498E+01  0.43758337049E+01  0.17553754140E+02  0.19130623197E+02  0.51100000000E-03 0.  1.
         12    1    3    3    0    0 -0.12045744226E+02  0.10986348876E+02  0.17366296375E+02  0.23819909013E+02  0.00000000000E+00 0. -1.
</event>
<event>
 7    1  0.4937359E-010  0.4778727E+02  0.7816164E-02  0.1312668E+00
        -11   -1    0    0    0    0  0.00000000000E+00  0.00000000000E+00  0.45593999997E+02  0.45594000000E+02  0.51100000000E-03 0.  1.
         11   -1    0    0    0    0 -0.00000000000E+00 -0.00000000000E+00 -0.45593999997E+02  0.45594000000E+02  0.51100000000E-03 0. -1.
    9900012    2    1    2    0    0  0.39654516840E+02 -0.16829823812E+02  0.52820275187E+01  0.47787268553E+02  0.19999988642E+02 0.  0.
         12    1    1    2    0    0 -0.39654516840E+02  0.16829823812E+02 -0.52820275187E+01  0.43400731447E+02  0.00000000000E+00 0. -1.
         11    1    3    3    0    0  0.89996585248E+01 -0.13588577914E+02  0.15424674255E+01  0.16371393017E+02  0.51100000000E-03 0. -1.
        -11    1    3    3    0    0  0.18427117744E+02 -0.15134273955E+01 -0.80438489694E-01  0.18489337506E+02  0.51100000000E-03 0.  1.
         12    1    3    3    0    0  0.12227740572E+02 -0.17278185030E+01  0.38199985829E+01  0.12926538030E+02  0.00000000000E+00 0. -1.
</event>
<event>
 7    1  0.4937359E-010  0.4778727E+02  0.7816164E-02  0.1312668E+00
        -11   -1    0    0    0    0  0.00000000000E+00  0.00000000000E+00  0.45593999997E+02  0.45594000000E+02  0.51100000000E-03 0. -1.
         11   -1    0    0    0    0 -0.00000000000E+00 -0.00000000000E+00 -0.45593999997E+02  0.45594000000E+02  0.51100000000E-03 0.  1.
    9900012    2    1    2    0    0 -0.36781870835E+02 -0.23024022192E+02 -0.78189358397E+00  0.47787274458E+02  0.20000015562E+02 0.  0.
         12    1    1    2    0    0  0.36781870835E+02  0.23024022192E+02  0.78189358397E+00  0.43400725542E+02  0.00000000000E+00 0. -1.
         11    1    3    3    0    0 -0.58615914816E+01 -0.99026984735E+01 -0.11880827030E+01  0.11568631402E+02  0.51100000000E-03 0. -1.
        -11    1    3    3    0    0 -0.15294101598E+01 -0.56380960672E+01 -0.60595160153E+00  0.58731933651E+01  0.51100000000E-03 0.  1.
         12    1    3    3    0    0 -0.29390869194E+02 -0.74832276513E+01  0.10121407205E+01  0.30345449690E+02  0.00000000000E+00 0. -1.
</event>
<event>
 7    1  0.4937359E-010  0.4778727E+02  0.7816164E-02  0.1312668E+00
        -11   -1    0    0    0    0  0.00000000000E+00  0.00000000000E+00  0.45593999997E+02  0.45594000000E+02  0.51100000000E-03 0.  1.
         11   -1    0    0    0    0 -0.00000000000E+00 -0.00000000000E+00 -0.45593999997E+02  0.45594000000E+02  0.51100000000E-03 0. -1.
    9900012    2    1    2    0    0  0.46147730167E+01 -0.25917795547E+02  0.34504997125E+02  0.47787273248E+02  0.20000010048E+02 0.  0.
         12    1    1    2    0    0 -0.46147730167E+01  0.25917795547E+02 -0.34504997125E+02  0.43400726752E+02  0.00000000000E+00 0. -1.
         11    1    3    3    0    0  0.43869701459E+01  0.99585846514E+00  0.43016112742E+01  0.62242349698E+01  0.51100000000E-03 0. -1.
        -11    1    3    3    0    0 -0.45421759269E+01 -0.13995932772E+02  0.17028734444E+02  0.22505450303E+02  0.51100000000E-03 0.  1.
         12    1    3    3    0    0  0.47699787977E+01 -0.12917721240E+02  0.13174651407E+02  0.19057587976E+02  0.00000000000E+00 0. -1.
</event>
<event>
 7    1  0.4937359E-010  0.4778723E+02  0.7816164E-02  0.1312668E+00
        -11   -1    0    0    0    0  0.00000000000E+00  0.00000000000E+00  0.45593999997E+02  0.45594000000E+02  0.51100000000E-03 0. -1.
         11   -1    0    0    0    0 -0.00000000000E+00 -0.00000000000E+00 -0.45593999997E+02  0.45594000000E+02  0.51100000000E-03 0.  1.
    9900012    2    1    2    0    0 -0.12194377072E+01  0.43186949832E+02 -0.41263962802E+01  0.47787230302E+02  0.19999814236E+02 0.  0.
         12    1    1    2    0    0  0.12194377072E+01 -0.43186949832E+02  0.41263962802E+01  0.43400769698E+02  0.00000000000E+00 0. -1.
         11    1    3    3    0    0  0.67929111523E+01  0.17294852525E+02  0.26011946589E+00  0.18582874594E+02  0.51100000000E-03 0. -1.
        -11    1    3    3    0    0 -0.23294682687E+01  0.16400850516E+02 -0.67573285621E+01  0.17890662638E+02  0.51100000000E-03 0.  1.
         12    1    3    3    0    0 -0.56828805909E+01  0.94912467914E+01  0.23708128160E+01  0.11313693070E+02  0.00000000000E+00 0. -1.
</event>
<event>
 7    1  0.4937359E-010  0.4778725E+02  0.7816164E-02  0.1312668E+00
        -11   -1    0    0    0    0  0.00000000000E+00  0.00000000000E+00  0.45593999997E+02  0.45594000000E+02  0.51100000000E-03 0. -1.
         11   -1    0    0    0    0 -0.00000000000E+00 -0.00000000000E+00 -0.45593999997E+02  0.45594000000E+02  0.51100000000E-03 0.  1.
    9900012    2    1    2    0    0  0.16209199525E+02  0.39417194666E+02 -0.81958089631E+01  0.47787254970E+02  0.19999926710E+02 0.  0.
         12    1    1    2    0    0 -0.16209199525E+02 -0.39417194666E+02  0.81958089631E+01  0.43400745030E+02  0.00000000000E+00 0. -1.
         11    1    3    3    0    0 -0.50575496574E+00  0.33202973120E+01 -0.40228124141E+01  0.52405326357E+01  0.51100000000E-03 0. -1.
        -11    1    3    3    0    0  0.95457133037E+00  0.19190665069E+02 -0.24430261243E+01  0.19369078686E+02  0.51100000000E-03 0.  1.
        -12    1    3    3    0    0  0.15760383161E+02  0.16906232285E+02 -0.17299704247E+01  0.23177643649E+02  0.00000000000E+00 0.  1.
</event>
<event>
 7    1  0.4937359E-010  0.4778727E+02  0.7816164E-02  0.1312668E+00
        -11   -1    0    0    0    0  0.00000000000E+00  0.00000000000E+00  0.45593999997E+02  0.45594000000E+02  0.51100000000E-03 0. -1.
         11   -1    0    0    0    0 -0.00000000000E+00 -0.00000000000E+00 -0.45593999997E+02  0.45594000000E+02  0.51100000000E-03 0.  1.
    9900012    2    1    2    0    0 -0.17883064994E+02  0.38594775329E+02  0.86175751913E+01  0.47787270762E+02  0.19999998711E+02 0.  0.
         12    1    1    2    0    0  0.17883064994E+02 -0.38594775329E+02 -0.86175751913E+01  0.43400729238E+02  0.00000000000E+00 0. -1.
         11    1    3    3    0    0  0.35363227705E+01  0.49020773097E+01 -0.13463300070E+01  0.61926202399E+01  0.51100000000E-03 0. -1.
        -11    1    3    3    0    0 -0.10254364257E+02  0.18338871933E+02  0.23558823250E+01  0.21142762162E+02  0.51100000000E-03 0.  1.
        -12    1    3    3    0    0 -0.11165023508E+02  0.15353826086E+02  0.76080228733E+01  0.20451888359E+02  0.00000000000E+00 0.  1.
</event>
<event>
 7    1  0.4937359E-010  0.4778727E+02  0.7816164E-02  0.1312668E+00
        -11   -1    0    0    0    0  0.00000000000E+00  0.00000000000E+00  0.45593999997E+02  0.45594000000E+02  0.51100000000E-03 0.  1.
         11   -1    0    0    0    0 -0.00000000000E+00 -0.00000000000E+00 -0.45593999997E+02  0.45594000000E+02  0.51100000000E-03 0. -1.
    9900012    2    1    2    0    0  0.22295796166E+00 -0.42370779567E+02 -0.93962940272E+01  0.47787274052E+02  0.20000013711E+02 0.  0.
         12    1    1    2    0    0 -0.22295796166E+00  0.42370779567E+02  0.93962940272E+01  0.43400725948E+02  0.00000000000E+00 0. -1.
         11    1    3    3    0    0  0.42212664527E+01 -0.13410260416E+02 -0.79771122424E+01  0.16164420648E+02  0.51100000000E-03 0. -1.
        -11    1    3    3    0    0 -0.29172361720E+01 -0.26693590569E+02  0.24993043460E+01  0.26968584813E+02  0.51100000000E-03 0.  1.
         12    1    3    3    0    0 -0.10810723190E+01 -0.22669285823E+01 -0.39184861308E+01  0.46542685906E+01  0.00000000000E+00 0. -1.
</event>
<event>
 7    1  0.4937359E-010  0.4778727E+02  0.7816164E-02  0.1312668E+00
        -11   -1    0    0    0    0  0.00000000000E+00  0.00000000000E+00  0.45593999997E+02  0.45594000000E+02  0.51100000000E-03 0.  1.
         11   -1    0    0    0    0 -0.00000000000E+00 -0.00000000000E+00 -0.45593999997E+02  0.45594000000E+02  0.51100000000E-03 0. -1.
    9900012    2    1    2    0    0  0.25712172157E+01  0.38623358382E+02  0.19627746318E+02  0.47787269635E+02  0.19999993574E+02 0.  0.
         12    1    1    2    0    0 -0.25712172157E+01 -0.38623358382E+02 -0.19627746318E+02  0.43400730365E+02  0.00000000000E+00 0. -1.
         11    1    3    3    0    0  0.46978585459E+01  0.16163885047E+02  0.31895016865E+01  0.17132249590E+02  0.51100000000E-03 0. -1.
        -11    1    3    3    0    0 -0.16400472000E+01 -0.57408586592E+00  0.42488433709E+01  0.45904247789E+01  0.51100000000E-03 0.  1.
        -12    1    3    3    0    0 -0.48659413026E+00  0.23033559201E+02  0.12189401261E+02  0.26064595267E+02  0.00000000000E+00 0.  1.
</event>
<event>
 7    1  0.4937359E-010  0.4778727E+02  0.7816164E-02  0.1312668E+00
        -11   -1    0    0    0    0  0.00000000000E+00  0.00000000000E+00  0.45593999997E+02  0.45594000000E+02  0.51100000000E-03 0.  1.
         11   -1    0    0    0    0 -0.00000000000E+00 -0.00000000000E+00 -0.45593999997E+02  0.45594000000E+02  0.51100000000E-03 0. -1.
    9900012    2    1    2    0    0  0.42934765851E+02 -0.58233772773E+00  0.63158517012E+01  0.47787271681E+02  0.20000002900E+02 0.  0.
         12    1    1    2    0    0 -0.42934765851E+02  0.58233772773E+00 -0.63158517012E+01  0.43400728319E+02  0.00000000000E+00 0. -1.
         11    1    3    3    0    0  0.24604099456E+01  0.38652614578E+01 -0.20098526255E+01  0.50033359946E+01  0.51100000000E-03 0. -1.
        -11    1    3    3    0    0  0.38114264332E+02 -0.60013133722E+01  0.94804195706E+01  0.39731489567E+02  0.51100000000E-03 0.  1.
        -12    1    3    3    0    0  0.23600915741E+01  0.15537141866E+01 -0.11547152439E+01  0.30524461185E+01  0.00000000000E+00 0.  1.
</event>
<event>
 7    1  0.4937359E-010  0.4778727E+02  0.7816164E-02  0.1312668E+00
        -11   -1    0    0    0    0  0.00000000000E+00  0.00000000000E+00  0.45593999997E+02  0.45594000000E+02  0.51100000000E-03 0.  1.
         11   -1    0    0    0    0 -0.00000000000E+00 -0.00000000000E+00 -0.45593999997E+02  0.45594000000E+02  0.51100000000E-03 0. -1.
    9900012    2    1    2    0    0  0.13910600625E+02  0.40687426369E+02 -0.58866029824E+01  0.47787267645E+02  0.19999984500E+02 0.  0.
         12    1    1    2    0    0 -0.13910600625E+02 -0.40687426369E+02  0.58866029824E+01  0.43400732355E+02  0.00000000000E+00 0. -1.
         11    1    3    3    0    0 -0.32164330736E+01  0.86476828645E+01 -0.32900921203E+01  0.97955381202E+01  0.51100000000E-03 0. -1.
        -11    1    3    3    0    0  0.14375072235E+02  0.22458382324E+02 -0.62270934317E+01  0.27382445677E+02  0.51100000000E-03 0.  1.
         12    1    3    3    0    0  0.27519614634E+01  0.95813611803E+01  0.36305825696E+01  0.10609283848E+02  0.00000000000E+00 0. -1.
</event>
<event>
 7    1  0.4937359E-010  0.4778727E+02  0.7816164E-02  0.1312668E+00
        -11   -1    0    0    0    0  0.00000000000E+00  0.00000000000E+00  0.45593999997E+02  0.45594000000E+02  0.51100000000E-03 0. -1.
         11   -1    0    0    0    0 -0.00000000000E+00 -0.00000000000E+00 -0.45593999997E+02  0.45594000000E+02  0.51100000000E-03 0.  1.
    9900012    2    1    2    0    0 -0.14092750500E+02  0.20997521858E+02 -0.35272114018E+02  0.47787267654E+02  0.19999984544E+02 0.  0.
         12    1    1    2    0    0  0.14092750500E+02 -0.20997521858E+02  0.35272114018E+02  0.43400732346E+02  0.00000000000E+00 0. -1.
         11    1    3    3    0    0  0.21163251544E+01 -0.17559366152E+01 -0.33248739322E+01  0.43147343466E+01  0.51100000000E-03 0. -1.
        -11    1    3    3    0    0 -0.13263344393E+02  0.21102871018E+02 -0.23023219052E+02  0.33931048989E+02  0.51100000000E-03 0.  1.
        -12    1    3    3    0    0 -0.29457312621E+01  0.16505874557E+01 -0.89240210330E+01  0.95414843193E+01  0.00000000000E+00 0.  1.
</event>
<event>
 7    1  0.4937359E-010  0.4778727E+02  0.7816164E-02  0.1312668E+00
        -11   -1    0    0    0    0  0.00000000000E+00  0.00000000000E+00  0.45593999997E+02  0.45594000000E+02  0.51100000000E-03 0. -1.
         11   -1    0    0    0    0 -0.00000000000E+00 -0.00000000000E+00 -0.45593999997E+02  0.45594000000E+02  0.51100000000E-03 0.  1.
    9900012    2    1    2    0    0 -0.60544288026E+01  0.41534456107E+02 -0.11038844638E+02  0.47787271399E+02  0.20000001615E+02 0.  0.
         12    1    1    2    0    0  0.60544288026E+01 -0.41534456107E+02  0.11038844638E+02  0.43400728601E+02  0.00000000000E+00 0. -1.
         11    1    3    3    0    0 -0.51796667976E+00  0.74181323521E+01 -0.75694325482E+01  0.10610998371E+02  0.51100000000E-03 0. -1.
        -11    1    3    3    0    0 -0.61739853549E+01  0.35203727651E+02 -0.35257756090E+01  0.35914504446E+02  0.51100000000E-03 0.  1.
         12    1    3    3    0    0  0.63752323213E+00 -0.10874038967E+01  0.56363519262E-01  0.12617685812E+01  0.00000000000E+00 0. -1.
</event>
<event>
 7    1  0.4937359E-010  0.4778727E+02  0.7816164E-02  0.1312668E+00
        -11   -1    0    0    0    0  0.00000000000E+00  0.00000000000E+00  0.45593999997E+02  0.45594000000E+02  0.51100000000E-03 0.  1.
         11   -1    0    0    0    0 -0.00000000000E+00 -0.00000000000E+00 -0.45593999997E+02  0.45594000000E+02  0.51100000000E-03 0. -1.
    9900012    2    1    2    0    0  0.30097481495E+02 -0.26480782080E+02  0.16629278867E+02  0.47787272730E+02  0.20000007687E+02 0.  0.
         12    1    1    2    0    0 -0.30097481495E+02  0.26480782080E+02 -0.16629278867E+02  0.43400727270E+02  0.00000000000E+00 0. -1.
         11    1    3    3    0    0  0.84962648570E+01  0.29237947468E+00  0.65130777916E+01  0.10709443723E+02  0.51100000000E-03 0.  1.
        -11    1    3    3    0    0  0.16541796899E+02 -0.25404051723E+02  0.75451979562E+01  0.31239828762E+02  0.51100000000E-03 0. -1.
         12    1    3    3    0    0  0.50594197395E+01 -0.13691098310E+01  0.25710031188E+01  0.58380002455E+01  0.00000000000E+00 0. -1.
</event>
<event>
 7    1  0.4937359E-010  0.4778727E+02  0.7816164E-02  0.1312668E+00
        -11   -1    0    0    0    0  0.00000000000E+00  0.00000000000E+00  0.45593999997E+02  0.45594000000E+02  0.51100000000E-03 0.  1.
         11   -1    0    0    0    0 -0.00000000000E+00 -0.00000000000E+00 -0.45593999997E+02  0.45594000000E+02  0.51100000000E-03 0. -1.
    9900012    2    1    2    0    0 -0.87577099911E+00 -0.22190372847E+02  0.37288653411E+02  0.47787270800E+02  0.19999998883E+02 0.  0.
         12    1    1    2    0    0  0.87577099911E+00  0.22190372847E+02 -0.37288653411E+02  0.43400729200E+02  0.00000000000E+00 0. -1.
         11    1    3    3    0    0  0.19198523517E+01 -0.38171953210E+00  0.61012640307E+00  0.20503164005E+01  0.51100000000E-03 0. -1.
        -11    1    3    3    0    0  0.37913458571E+01 -0.12908370798E+02  0.29814415535E+02  0.32709321516E+02  0.51100000000E-03 0.  1.
        -12    1    3    3    0    0 -0.65869692079E+01 -0.89002825169E+01  0.68641114729E+01  0.13027632883E+02  0.00000000000E+00 0.  1.
</event>
<event>
 7    1  0.4937359E-010  0.4778727E+02  0.7816164E-02  0.1312668E+00
        -11   -1    0    0    0    0  0.00000000000E+00  0.00000000000E+00  0.45593999997E+02  0.45594000000E+02  0.51100000000E-03 0.  1.
         11   -1    0    0    0    0 -0.00000000000E+00 -0.00000000000E+00 -0.45593999997E+02  0.45594000000E+02  0.51100000000E-03 0. -1.
    9900012    2    1    2    0    0 -0.31263444875E+02 -0.29096288317E+02  0.77217983774E+01  0.47787272478E+02  0.20000006535E+02 0.  0.
         12    1    1    2    0    0  0.31263444875E+02  0.29096288317E+02 -0.77217983774E+01  0.43400727522E+02  0.00000000000E+00 0. -1.
         11    1    3    3    0    0 -0.27560045029E+02 -0.15889696301E+02  0.60740148042E+01  0.32387222583E+02  0.51100000000E-03 0.  1.
        -11    1    3    3    0    0 -0.12441980444E+01 -0.97259212461E+01 -0.17367757465E+01  0.99578091523E+01  0.51100000000E-03 0. -1.
         12    1    3    3    0    0 -0.24592018011E+01 -0.34806707702E+01  0.33845593197E+01  0.54422407423E+01  0.00000000000E+00 0. -1.
</event>
<event>
 7    1  0.4937359E-010  0.4778727E+02  0.7816164E-02  0.1312668E+00
        -11   -1    0    0    0    0  0.00000000000E+00  0.00000000000E+00  0.45593999997E+02  0.45594000000E+02  0.51100000000E-03 0.  1.
         11   -1    0    0    0    0 -0.00000000000E+00 -0.00000000000E+00 -0.45593999997E+02  0.45594000000E+02  0.51100000000E-03 0. -1.
    9900012    2    1    2    0    0  0.30390854201E+02  0.14822469042E+02  0.27208703756E+02  0.47787272268E+02  0.20000005580E+02 0.  0.
         12    1    1    2    0    0 -0.30390854201E+02 -0.14822469042E+02 -0.27208703756E+02  0.43400727732E+02  0.00000000000E+00 0. -1.
         11    1    3    3    0    0  0.19824164306E+02  0.16856826794E+02  0.21970956771E+02  0.34056908868E+02  0.51100000000E-03 0. -1.
        -11    1    3    3    0    0  0.51454364121E+01 -0.38145960810E+01  0.48064150269E+01  0.80080137865E+01  0.51100000000E-03 0.  1.
         12    1    3    3    0    0  0.54212534835E+01  0.17802383289E+01  0.43133195798E+00  0.57223496134E+01  0.00000000000E+00 0. -1.
</event>
<event>
 7    1  0.4937359E-010  0.4778727E+02  0.7816164E-02  0.1312668E+00
        -11   -1    0    0    0    0  0.00000000000E+00  0.00000000000E+00  0.45593999997E+02  0.45594000000E+02  0.51100000000E-03 0.  1.
         11   -1    0    0    0    0 -0.00000000000E+00 -0.00000000000E+00 -0.45593999997E+02  0.45594000000E+02  0.51100000000E-03 0. -1.
    9900012    2    1    2    0    0  0.85739379699E+01  0.38011929719E+02  0.19110321505E+02  0.47787267272E+02  0.19999982801E+02 0.  0.
         12    1    1    2    0    0 -0.85739379699E+01 -0.38011929719E+02 -0.19110321505E+02  0.43400732728E+02  0.00000000000E+00 0. -1.
         11    1    3    3    0    0 -0.52504337087E+01  0.14941082608E+02  0.10387609773E+02  0.18939520603E+02  0.51100000000E-03 0. -1.
        -11    1    3    3    0    0  0.13244430623E+02  0.22596323514E+02  0.94100897121E+01  0.27830892323E+02  0.51100000000E-03 0.  1.
        -12    1    3    3    0    0  0.57994105534E+00  0.47452359785E+00 -0.68737798012E+00  0.10168543456E+01  0.00000000000E+00 0.  1.
</event>
<event>
 7    1  0.4937359E-010  0.4778727E+02  0.7816164E-02  0.1312668E+00
        -11   -1    0    0    0    0  0.00000000000E+00  0.00000000000E+00  0.45593999997E+02  0.45594000000E+02  0.51100000000E-03 0. -1.
         11   -1    0    0    0    0 -0.00000000000E+00 -0.00000000000E+00 -0.45593999997E+02  0.45594000000E+02  0.51100000000E-03 0.  1.
    9900012    2    1    2    0    0  0.18103063518E+02  0.38842096715E+02 -0.68698037385E+01  0.47787267410E+02  0.19999983429E+02 0.  0.
         12    1    1    2    0    0 -0.18103063518E+02 -0.38842096715E+02  0.68698037385E+01  0.43400732590E+02  0.00000000000E+00 0. -1.
         11    1    3    3    0    0 -0.24301941100E+01  0.14154476315E+02 -0.16476874116E+01  0.14455791823E+02  0.51100000000E-03 0. -1.
        -11    1    3    3    0    0  0.93631350043E+01  0.10949155781E+02 -0.60042499618E+01  0.15607797003E+02  0.51100000000E-03 0.  1.
         12    1    3    3    0    0  0.11170122624E+02  0.13738464619E+02  0.78213363483E+00  0.17723678584E+02  0.00000000000E+00 0. -1.
</event>
<event>
 7    1  0.4937359E-010  0.4778727E+02  0.7816164E-02  0.1312668E+00
        -11   -1    0    0    0    0  0.00000000000E+00  0.00000000000E+00  0.45593999997E+02  0.45594000000E+02  0.51100000000E-03 0.  1.
         11   -1    0    0    0    0 -0.00000000000E+00 -0.00000000000E+00 -0.45593999997E+02  0.45594000000E+02  0.51100000000E-03 0. -1.
    9900012    2    1    2    0    0  0.33963788391E+02  0.24924544991E+02  0.10433178630E+02  0.47787273265E+02  0.20000010123E+02 0.  0.
         12    1    1    2    0    0 -0.33963788391E+02 -0.24924544991E+02 -0.10433178630E+02  0.43400726735E+02  0.00000000000E+00 0. -1.
         11    1    3    3    0    0  0.19212017362E+02  0.95290655312E+01 -0.26110557750E+00  0.21446978282E+02  0.51100000000E-03 0. -1.
        -11    1    3    3    0    0  0.10288084386E+02  0.16275662508E+02  0.70276824587E+01  0.20497077631E+02  0.51100000000E-03 0.  1.
         12    1    3    3    0    0  0.44636866419E+01 -0.88018304856E+00  0.36666017489E+01  0.58432173518E+01  0.00000000000E+00 0. -1.
</event>
<event>
 7    1  0.4937359E-010  0.4778727E+02  0.7816164E-02  0.1312668E+00
        -11   -1    0    0    0    0  0.00000000000E+00  0.00000000000E+00  0.45593999997E+02  0.45594000000E+02  0.51100000000E-03 0.  1.
         11   -1    0    0    0    0 -0.00000000000E+00 -0.00000000000E+00 -0.45593999997E+02  0.45594000000E+02  0.51100000000E-03 0. -1.
    9900012    2    1    2    0    0 -0.13235360393E+02 -0.13471016193E+02  0.39076599795E+02  0.47787266210E+02  0.19999977957E+02 0.  0.
         12    1    1    2    0    0  0.13235360393E+02  0.13471016193E+02 -0.39076599795E+02  0.43400733790E+02  0.00000000000E+00 0. -1.
         11    1    3    3    0    0 -0.40008969746E+01  0.16628439760E+01  0.17001082122E+01  0.46543092811E+01  0.51100000000E-03 0. -1.
        -11    1    3    3    0    0  0.13439786989E+01 -0.54752261944E+01  0.19083173309E+02  0.19898539756E+02  0.51100000000E-03 0.  1.
        -12    1    3    3    0    0 -0.10578442117E+02 -0.96586339746E+01  0.18293318274E+02  0.23234417172E+02  0.00000000000E+00 0.  1.
</event>
<event>
 7    1  0.4937359E-010  0.4778727E+02  0.7816164E-02  0.1312668E+00
        -11   -1    0    0    0    0  0.00000000000E+00  0.00000000000E+00  0.45593999997E+02  0.45594000000E+02  0.51100000000E-03 0.  1.
         11   -1    0    0    0    0 -0.00000000000E+00 -0.00000000000E+00 -0.45593999997E+02  0.45594000000E+02  0.51100000000E-03 0. -1.
    9900012    2    1    2    0    0 -0.18280264581E+01  0.18074431214E+02  0.39415694879E+02  0.47787265592E+02  0.19999975138E+02 0.  0.
         12    1    1    2    0    0  0.18280264581E+01 -0.18074431214E+02 -0.39415694879E+02  0.43400734408E+02  0.00000000000E+00 0. -1.
         11    1    3    3    0    0  0.27785770361E-01  0.10924531322E+01 -0.21739184823E+01  0.24331353690E+01  0.51100000000E-03 0. -1.
        -11    1    3    3    0    0  0.10913829412E+01  0.14824058497E+01  0.19089423544E+01  0.26519247729E+01  0.51100000000E-03 0.  1.
         12    1    3    3    0    0 -0.29471951696E+01  0.15499572232E+02  0.39680671007E+02  0.42702205450E+02  0.00000000000E+00 0. -1.
</event>
<event>
 7    1  0.4937359E-010  0.4778728E+02  0.7816164E-02  0.1312668E+00
        -11   -1    0    0    0    0  0.00000000000E+00  0.00000000000E+00  0.45593999997E+02  0.45594000000E+02  0.51100000000E-03 0. -1.
         11   -1    0    0    0    0 -0.00000000000E+00 -0.00000000000E+00 -0.45593999997E+02  0.45594000000E+02  0.51100000000E-03 0.  1.
    9900012    2    1    2    0    0  0.28203344487E+02  0.98098545890E+01 -0.31495413033E+02  0.47787275012E+02  0.20000018091E+02 0.  0.
         12    1    1    2    0    0 -0.28203344487E+02 -0.98098545890E+01  0.31495413033E+02  0.43400724988E+02  0.00000000000E+00 0. -1.
         11    1    3    3    0    0  0.54936844736E+01 -0.43365704739E+01 -0.23464861780E+01  0.73818974671E+01  0.51100000000E-03 0. -1.
        -11    1    3    3    0    0  0.18338142843E+02  0.12204240863E+02 -0.18629584099E+02  0.28849478019E+02  0.51100000000E-03 0.  1.
         12    1    3    3    0    0  0.43715171703E+01  0.19421841998E+01 -0.10519342757E+02  0.11555899526E+02  0.00000000000E+00 0. -1.
</event>
<event>
 7    1  0.4937359E-010  0.4778727E+02  0.7816164E-02  0.1312668E+00
        -11   -1    0    0    0    0  0.00000000000E+00  0.00000000000E+00  0.45593999997E+02  0.45594000000E+02  0.51100000000E-03 0.  1.
         11   -1    0    0    0    0 -0.00000000000E+00 -0.00000000000E+00 -0.45593999997E+02  0.45594000000E+02  0.51100000000E-03 0. -1.
    9900012    2    1    2    0    0  0.14647275304E+02 -0.91947367996E+01  0.39806249550E+02  0.47787270030E+02  0.19999995377E+02 0.  0.
         12    1    1    2    0    0 -0.14647275304E+02  0.91947367996E+01 -0.39806249550E+02  0.43400729970E+02  0.00000000000E+00 0. -1.
         11    1    3    3    0    0  0.11440274206E+02 -0.90759993407E+01  0.17319818325E+02  0.22654574483E+02  0.51100000000E-03 0. -1.
        -11    1    3    3    0    0  0.43360912912E+01 -0.26146375531E+01  0.40226924185E+01  0.64668440352E+01  0.51100000000E-03 0.  1.
         12    1    3    3    0    0 -0.11290901936E+01  0.24959000942E+01  0.18463738807E+02  0.18665851512E+02  0.00000000000E+00 0. -1.
</event>
<event>
 7    1  0.4937359E-010  0.4778727E+02  0.7816164E-02  0.1312668E+00
        -11   -1    0    0    0    0  0.00000000000E+00  0.00000000000E+00  0.45593999997E+02  0.45594000000E+02  0.51100000000E-03 0. -1.
         11   -1    0    0    0    0 -0.00000000000E+00 -0.00000000000E+00 -0.45593999997E+02  0.45594000000E+02  0.51100000000E-03 0.  1.
    9900012    2    1    2    0    0  0.13263776176E+02 -0.29991705844E+02 -0.28428737290E+02  0.47787270953E+02  0.19999999584E+02 0.  0.
         12    1    1    2    0    0 -0.13263776176E+02  0.29991705844E+02  0.28428737290E+02  0.43400729047E+02  0.00000000000E+00 0. -1.
         11    1    3    3    0    0  0.27075833870E+01 -0.18193839679E+02 -0.49352769483E+01  0.19044783246E+02  0.51100000000E-03 0. -1.
        -11    1    3    3    0    0  0.10126327430E+01 -0.42722231015E+01 -0.57181248972E+01  0.72093181302E+01  0.51100000000E-03 0.  1.
         12    1    3    3    0    0  0.95435600461E+01 -0.75256430636E+01 -0.17775335445E+02  0.21533169577E+02  0.00000000000E+00 0. -1.
</event>
<event>
 7    1  0.4937359E-010  0.4778727E+02  0.7816164E-02  0.1312668E+00
        -11   -1    0    0    0    0  0.00000000000E+00  0.00000000000E+00  0.45593999997E+02  0.45594000000E+02  0.51100000000E-03 0. -1.
         11   -1    0    0    0    0 -0.00000000000E+00 -0.00000000000E+00 -0.45593999997E+02  0.45594000000E+02  0.51100000000E-03 0.  1.
    9900012    2    1    2    0    0  0.11768453069E+02  0.16612306417E+02 -0.38329600242E+02  0.47787268821E+02  0.19999989861E+02 0.  0.
         12    1    1    2    0    0 -0.11768453069E+02 -0.16612306417E+02  0.38329600242E+02  0.43400731179E+02  0.00000000000E+00 0. -1.
         11    1    3    3    0    0 -0.94556556196E+00 -0.26538862642E+01 -0.30290679162E+01  0.41367208314E+01  0.51100000000E-03 0. -1.
        -11    1    3    3    0    0  0.32231991790E+01  0.14158760106E+02 -0.16499633040E+02  0.21979476596E+02  0.51100000000E-03 0.  1.
        -12    1    3    3    0    0  0.94908194521E+01  0.51074325751E+01 -0.18800899286E+02  0.21671071394E+02  0.00000000000E+00 0.  1.
</event>
<event>
 7    1  0.4937359E-010  0.4778728E+02  0.7816164E-02  0.1312668E+00
        -11   -1    0    0    0    0  0.00000000000E+00  0.00000000000E+00  0.45593999997E+02  0.45594000000E+02  0.51100000000E-03 0.  1.
         11   -1    0    0    0    0 -0.00000000000E+00 -0.00000000000E+00 -0.45593999997E+02  0.45594000000E+02  0.51100000000E-03 0. -1.
    9900012    2    1    2    0    0  0.91631015874E+01  0.77332533774E+01  0.41711590972E+02  0.47787280421E+02  0.20000042752E+02 0.  0.
         12    1    1    2    0    0 -0.91631015874E+01 -0.77332533774E+01 -0.41711590972E+02  0.43400719579E+02  0.00000000000E+00 0. -1.
         11    1    3    3    0    0  0.55730882226E+01  0.30765170691E+01  0.13571392633E+02  0.14990229080E+02  0.51100000000E-03 0. -1.
        -11    1    3    3    0    0  0.46176452521E+00  0.10083678197E+02  0.13363144614E+02  0.16747161751E+02  0.51100000000E-03 0.  1.
        -12    1    3    3    0    0  0.31282488396E+01 -0.54269418889E+01  0.14777053725E+02  0.16049889591E+02  0.00000000000E+00 0.  1.
</event>
<event>
 7    1  0.4937359E-010  0.4778728E+02  0.7816164E-02  0.1312668E+00
        -11   -1    0    0    0    0  0.00000000000E+00  0.00000000000E+00  0.45593999997E+02  0.45594000000E+02  0.51100000000E-03 0.  1.
         11   -1    0    0    0    0 -0.00000000000E+00 -0.00000000000E+00 -0.45593999997E+02  0.45594000000E+02  0.51100000000E-03 0. -1.
    9900012    2    1    2    0    0 -0.18721923119E+02 -0.94299230846E+01  0.38002482434E+02  0.47787279663E+02  0.20000039295E+02 0.  0.
         12    1    1    2    0    0  0.18721923119E+02  0.94299230846E+01 -0.38002482434E+02  0.43400720337E+02  0.00000000000E+00 0. -1.
         11    1    3    3    0    0 -0.45938415136E+01 -0.10241501961E+00  0.19581881392E+02  0.20113775076E+02  0.51100000000E-03 0.  1.
        -11    1    3    3    0    0 -0.13526485332E+02 -0.75382159017E+01  0.86806345822E+01  0.17752293413E+02  0.51100000000E-03 0. -1.
         12    1    3    3    0    0 -0.60159627317E+00 -0.17892921632E+01  0.97399664592E+01  0.99212111734E+01  0.00000000000E+00 0. -1.
</event>
<event>
 7    1  0.4937359E-010  0.4778727E+02  0.7816164E-02  0.1312668E+00
        -11   -1    0    0    0    0  0.00000000000E+00  0.00000000000E+00  0.45593999997E+02  0.45594000000E+02  0.51100000000E-03 0.  1.
         11   -1    0    0    0    0 -0.00000000000E+00 -0.00000000000E+00 -0.45593999997E+02  0.45594000000E+02  0.51100000000E-03 0. -1.
    9900012    2    1    2    0    0  0.20511021534E+02 -0.17516096035E+02  0.34001579076E+02  0.47787274149E+02  0.20000014157E+02 0.  0.
         12    1    1    2    0    0 -0.20511021534E+02  0.17516096035E+02 -0.34001579076E+02  0.43400725851E+02  0.00000000000E+00 0. -1.
         11    1    3    3    0    0  0.90574817118E+01 -0.28689078567E+01  0.12534367011E+01  0.95833037662E+01  0.51100000000E-03 0. -1.
        -11    1    3    3    0    0  0.99763353288E+01 -0.10926537456E+02  0.20243691438E+02  0.25074360025E+02  0.51100000000E-03 0.  1.
         12    1    3    3    0    0  0.14772044936E+01 -0.37206507220E+01  0.12504450938E+02  0.13129610358E+02  0.00000000000E+00 0. -1.
</event>
<event>
 7    1  0.4937359E-010  0.4778727E+02  0.7816164E-02  0.1312668E+00
        -11   -1    0    0    0    0  0.00000000000E+00  0.00000000000E+00  0.45593999997E+02  0.45594000000E+02  0.51100000000E-03 0.  1.
         11   -1    0    0    0    0 -0.00000000000E+00 -0.00000000000E+00 -0.45593999997E+02  0.45594000000E+02  0.51100000000E-03 0. -1.
    9900012    2    1    2    0    0 -0.38753789432E+02 -0.16405002602E+02  0.10613340959E+02  0.47787270605E+02  0.19999997997E+02 0.  0.
         12    1    1    2    0    0  0.38753789432E+02  0.16405002602E+02 -0.10613340959E+02  0.43400729395E+02  0.00000000000E+00 0. -1.
         11    1    3    3    0    0 -0.48695935275E+01  0.15055378350E+01  0.75754992441E-01  0.50975802471E+01  0.51100000000E-03 0. -1.
        -11    1    3    3    0    0 -0.10925888606E+02 -0.98500520268E+01 -0.27506781729E+01  0.14965453466E+02  0.51100000000E-03 0.  1.
        -12    1    3    3    0    0 -0.22958307299E+02 -0.80604884100E+01  0.13288264139E+02  0.27724236892E+02  0.00000000000E+00 0.  1.
</event>
<event>
 7    1  0.4937359E-010  0.4778733E+02  0.7816164E-02  0.1312668E+00
        -11   -1    0    0    0    0  0.00000000000E+00  0.00000000000E+00  0.45593999997E+02  0.45594000000E+02  0.51100000000E-03 0.  1.
         11   -1    0    0    0    0 -0.00000000000E+00 -0.00000000000E+00 -0.45593999997E+02  0.45594000000E+02  0.51100000000E-03 0. -1.
    9900012    2    1    2    0    0 -0.11884175530E+02  0.14511999832E+01  0.41716648944E+02  0.47787327096E+02  0.20000255559E+02 0.  0.
         12    1    1    2    0    0  0.11884175530E+02 -0.14511999832E+01 -0.41716648944E+02  0.43400672904E+02  0.00000000000E+00 0. -1.
         11    1    3    3    0    0 -0.16222634569E+02  0.40377710122E+01  0.32652529526E+02  0.36683308899E+02  0.51100000000E-03 0.  1.
        -11    1    3    3    0    0  0.36566350603E+01 -0.20896196358E+01  0.93157909466E+01  0.10223573319E+02  0.51100000000E-03 0. -1.
        -12    1    3    3    0    0  0.68182397813E+00 -0.49695139317E+00 -0.25167152846E+00  0.88044487764E+00  0.00000000000E+00 0.  1.
</event>
<event>
 7    1  0.4937359E-010  0.4778727E+02  0.7816164E-02  0.1312668E+00
        -11   -1    0    0    0    0  0.00000000000E+00  0.00000000000E+00  0.45593999997E+02  0.45594000000E+02  0.51100000000E-03 0.  1.
         11   -1    0    0    0    0 -0.00000000000E+00 -0.00000000000E+00 -0.45593999997E+02  0.45594000000E+02  0.51100000000E-03 0. -1.
    9900012    2    1    2    0    0 -0.30346962468E+01 -0.24808195832E+02  0.35481929041E+02  0.47787271317E+02  0.20000001244E+02 0.  0.
         12    1    1    2    0    0  0.30346962468E+01  0.24808195832E+02 -0.35481929041E+02  0.43400728683E+02  0.00000000000E+00 0. -1.
         11    1    3    3    0    0 -0.23836775015E+00  0.21929878376E+01  0.87329803888E+01  0.90072727045E+01  0.51100000000E-03 0. -1.
        -11    1    3    3    0    0 -0.18910427759E+01 -0.23439896256E+01  0.52563249571E+01  0.60579932701E+01  0.51100000000E-03 0.  1.
         12    1    3    3    0    0 -0.90528572075E+00 -0.24657194044E+02  0.21492623695E+02  0.32722005343E+02  0.00000000000E+00 0. -1.
</event>
<event>
 7    1  0.4937359E-010  0.4778727E+02  0.7816164E-02  0.1312668E+00
        -11   -1    0    0    0    0  0.00000000000E+00  0.00000000000E+00  0.45593999997E+02  0.45594000000E+02  0.51100000000E-03 0.  1.
         11   -1    0    0    0    0 -0.00000000000E+00 -0.00000000000E+00 -0.45593999997E+02  0.45594000000E+02  0.51100000000E-03 0. -1.
    9900012    2    1    2    0    0 -0.35869590233E+01 -0.10751882755E+02  0.41894556723E+02  0.47787272577E+02  0.20000006987E+02 0.  0.
         12    1    1    2    0    0  0.35869590233E+01  0.10751882755E+02 -0.41894556723E+02  0.43400727423E+02  0.00000000000E+00 0. -1.
         11    1    3    3    0    0  0.45689516961E+01 -0.13096217894E+02  0.30086071092E+02  0.33129411657E+02  0.51100000000E-03 0. -1.
        -11    1    3    3    0    0 -0.36486272728E+01  0.12715729336E+01  0.38856565453E+01  0.54797541688E+01  0.51100000000E-03 0.  1.
         12    1    3    3    0    0 -0.45072834466E+01  0.10727622044E+01  0.79228290854E+01  0.91781067510E+01  0.00000000000E+00 0. -1.
</event>
<event>
 7    1  0.4937359E-010  0.4778730E+02  0.7816164E-02  0.1312668E+00
        -11   -1    0    0    0    0  0.00000000000E+00  0.00000000000E+00  0.45593999997E+02  0.45594000000E+02  0.51100000000E-03 0.  1.
         11   -1    0    0    0    0 -0.00000000000E+00 -0.00000000000E+00 -0.45593999997E+02  0.45594000000E+02  0.51100000000E-03 0. -1.
    9900012    2    1    2    0    0  0.75861660482E+01 -0.42377573986E+02  0.54965731330E+01  0.47787297144E+02  0.20000118996E+02 0.  0.
         12    1    1    2    0    0 -0.75861660482E+01  0.42377573986E+02 -0.54965731330E+01  0.43400702856E+02  0.00000000000E+00 0. -1.
         11    1    3    3    0    0  0.12885556800E+01 -0.14987950930E+02  0.11027873541E+02  0.18652427293E+02  0.51100000000E-03 0. -1.
        -11    1    3    3    0    0  0.50488364114E+01 -0.10883956048E+02 -0.14413571500E+01  0.12084235974E+02  0.51100000000E-03 0.  1.
         12    1    3    3    0    0  0.12487739568E+01 -0.16505667007E+02 -0.40899432580E+01  0.17050633877E+02  0.00000000000E+00 0. -1.
</event>
<event>
 7    1  0.4937359E-010  0.4778730E+02  0.7816164E-02  0.1312668E+00
        -11   -1    0    0    0    0  0.00000000000E+00  0.00000000000E+00  0.45593999997E+02  0.45594000000E+02  0.51100000000E-03 0.  1.
         11   -1    0    0    0    0 -0.00000000000E+00 -0.00000000000E+00 -0.45593999997E+02  0.45594000000E+02  0.51100000000E-03 0. -1.
    9900012    2    1    2    0    0 -0.35507793617E+02  0.15072794487E+01  0.24910757172E+02  0.47787295838E+02  0.20000113042E+02 0.  0.
         12    1    1    2    0    0  0.35507793617E+02 -0.15072794487E+01 -0.24910757172E+02  0.43400704162E+02  0.00000000000E+00 0. -1.
         11    1    3    3    0    0 -0.73636294164E+01 -0.52179946855E+01  0.43279450323E+00  0.90353648551E+01  0.51100000000E-03 0. -1.
        -11    1    3    3    0    0 -0.10508012196E+02  0.56491984084E+01  0.13190042915E+02  0.17785077884E+02  0.51100000000E-03 0.  1.
         12    1    3    3    0    0 -0.17636152005E+02  0.10760757259E+01  0.11287919754E+02  0.20966853099E+02  0.00000000000E+00 0. -1.
</event>
<event>
 7    1  0.4937359E-010  0.4778727E+02  0.7816164E-02  0.1312668E+00
        -11   -1    0    0    0    0  0.00000000000E+00  0.00000000000E+00  0.45593999997E+02  0.45594000000E+02  0.51100000000E-03 0.  1.
         11   -1    0    0    0    0 -0.00000000000E+00 -0.00000000000E+00 -0.45593999997E+02  0.45594000000E+02  0.51100000000E-03 0. -1.
    9900012    2    1    2    0    0  0.38573572516E+02 -0.91674390371E+01  0.17653923765E+02  0.47787268907E+02  0.19999990254E+02 0.  0.
         12    1    1    2    0    0 -0.38573572516E+02  0.91674390371E+01 -0.17653923765E+02  0.43400731093E+02  0.00000000000E+00 0. -1.
         11    1    3    3    0    0  0.39420878608E+01 -0.79553400514E+00 -0.43183999019E+01  0.59009752609E+01  0.51100000000E-03 0. -1.
        -11    1    3    3    0    0  0.28866222492E+02 -0.67199336427E+01  0.17674305230E+02  0.34507932055E+02  0.51100000000E-03 0.  1.
         12    1    3    3    0    0  0.57652621635E+01 -0.16519713893E+01  0.42980184364E+01  0.73783615908E+01  0.00000000000E+00 0. -1.
</event>
<event>
 7    1  0.4937359E-010  0.4778727E+02  0.7816164E-02  0.1312668E+00
        -11   -1    0    0    0    0  0.00000000000E+00  0.00000000000E+00  0.45593999997E+02  0.45594000000E+02  0.51100000000E-03 0.  1.
         11   -1    0    0    0    0 -0.00000000000E+00 -0.00000000000E+00 -0.45593999997E+02  0.45594000000E+02  0.51100000000E-03 0. -1.
    9900012    2    1    2    0    0  0.25465554197E+02 -0.28268222478E+02  0.20881480838E+02  0.47787273110E+02  0.20000009417E+02 0.  0.
         12    1    1    2    0    0 -0.25465554197E+02  0.28268222478E+02 -0.20881480838E+02  0.43400726890E+02  0.00000000000E+00 0. -1.
         11    1    3    3    0    0  0.47448801514E+01 -0.90900836233E+01 -0.18397844392E+01  0.10417692402E+02  0.51100000000E-03 0. -1.
        -11    1    3    3    0    0  0.17933882118E+02 -0.11141085443E+02  0.15203795388E+02  0.26017365492E+02  0.51100000000E-03 0.  1.
        -12    1    3    3    0    0  0.27867919274E+01 -0.80370534115E+01  0.75174698891E+01  0.11352215216E+02  0.00000000000E+00 0.  1.
</event>
<event>
 7    1  0.4937359E-010  0.4778727E+02  0.7816164E-02  0.1312668E+00
        -11   -1    0    0    0    0  0.00000000000E+00  0.00000000000E+00  0.45593999997E+02  0.45594000000E+02  0.51100000000E-03 0.  1.
         11   -1    0    0    0    0 -0.00000000000E+00 -0.00000000000E+00 -0.45593999997E+02  0.45594000000E+02  0.51100000000E-03 0. -1.
    9900012    2    1    2    0    0 -0.18663725914E+02 -0.29883602236E+01  0.39068638875E+02  0.47787268378E+02  0.19999987842E+02 0.  0.
         12    1    1    2    0    0  0.18663725914E+02  0.29883602236E+01 -0.39068638875E+02  0.43400731622E+02  0.00000000000E+00 0. -1.
         11    1    3    3    0    0 -0.62247997786E+01  0.39968582309E+01  0.29573305166E+02  0.30484477799E+02  0.51100000000E-03 0. -1.
        -11    1    3    3    0    0 -0.65115525389E+01 -0.45456467092E+01  0.41703074899E+01  0.89696535771E+01  0.51100000000E-03 0.  1.
         12    1    3    3    0    0 -0.59273735964E+01 -0.24395717452E+01  0.53250262191E+01  0.83331370015E+01  0.00000000000E+00 0. -1.
</event>
<event>
 7    1  0.4937359E-010  0.4778729E+02  0.7816164E-02  0.1312668E+00
        -11   -1    0    0    0    0  0.00000000000E+00  0.00000000000E+00  0.45593999997E+02  0.45594000000E+02  0.51100000000E-03 0. -1.
         11   -1    0    0    0    0 -0.00000000000E+00 -0.00000000000E+00 -0.45593999997E+02  0.45594000000E+02  0.51100000000E-03 0.  1.
    9900012    2    1    2    0    0 -0.18587200949E+02  0.24495676547E+01 -0.39142526968E+02  0.47787287584E+02  0.20000075408E+02 0.  0.
         12    1    1    2    0    0  0.18587200949E+02 -0.24495676547E+01  0.39142526968E+02  0.43400712416E+02  0.00000000000E+00 0. -1.
         11    1    3    3    0    0 -0.10717721342E+02  0.40568184922E+01 -0.50463961395E+01  0.12521718784E+02  0.51100000000E-03 0. -1.
        -11    1    3    3    0    0 -0.14325386391E+01  0.72317181206E+00 -0.12698967129E+02  0.12799957454E+02  0.51100000000E-03 0.  1.
         12    1    3    3    0    0 -0.64369409679E+01 -0.23304226495E+01 -0.21397163700E+02  0.22465611346E+02  0.00000000000E+00 0. -1.
</event>
<event>
 7    1  0.4937359E-010  0.4778728E+02  0.7816164E-02  0.1312668E+00
        -11   -1    0    0    0    0  0.00000000000E+00  0.00000000000E+00  0.45593999997E+02  0.45594000000E+02  0.51100000000E-03 0. -1.
         11   -1    0    0    0    0 -0.00000000000E+00 -0.00000000000E+00 -0.45593999997E+02  0.45594000000E+02  0.51100000000E-03 0.  1.
    9900012    2    1    2    0    0 -0.40287717388E+01 -0.31385128620E+02 -0.29704639378E+02  0.47787275343E+02  0.20000019597E+02 0.  0.
         12    1    1    2    0    0  0.40287717388E+01  0.31385128620E+02  0.29704639378E+02  0.43400724657E+02  0.00000000000E+00 0. -1.
         11    1    3    3    0    0  0.38215577968E+01 -0.13598583982E+02 -0.29148865246E+01  0.14422980067E+02  0.51100000000E-03 0. -1.
        -11    1    3    3    0    0 -0.75080612322E+01 -0.12669701029E+02 -0.19031153842E+02  0.24064021369E+02  0.51100000000E-03 0.  1.
         12    1    3    3    0    0 -0.34226830341E+00 -0.51168436088E+01 -0.77585990111E+01  0.93002739059E+01  0.00000000000E+00 0. -1.
</event>
<event>
 7    1  0.4937359E-010  0.4778727E+02  0.7816164E-02  0.1312668E+00
        -11   -1    0    0    0    0  0.00000000000E+00  0.00000000000E+00  0.45593999997E+02  0.45594000000E+02  0.51100000000E-03 0.  1.
         11   -1    0    0    0    0 -0.00000000000E+00 -0.00000000000E+00 -0.45593999997E+02  0.45594000000E+02  0.51100000000E-03 0. -1.
    9900012    2    1    2    0    0 -0.19094844127E+02 -0.17811803089E+02  0.34666259615E+02  0.47787274693E+02  0.20000016633E+02 0.  0.
         12    1    1    2    0    0  0.19094844127E+02  0.17811803089E+02 -0.34666259615E+02  0.43400725307E+02  0.00000000000E+00 0. -1.
         11    1    3    3    0    0 -0.27445548185E+01  0.37323856821E+01  0.60985811886E+01  0.76587190056E+01  0.51100000000E-03 0. -1.
        -11    1    3    3    0    0 -0.54169803206E+01 -0.19772095862E+01  0.59365552232E+01  0.82762142143E+01  0.51100000000E-03 0.  1.
         12    1    3    3    0    0 -0.10933308988E+02 -0.19566979185E+02  0.22631123203E+02  0.31852341473E+02  0.00000000000E+00 0. -1.
</event>
<event>
 7    1  0.6012765E-010  0.4778727E+02  0.7816164E-02  0.1312668E+00
        -11   -1    0    0    0    0  0.00000000000E+00  0.00000000000E+00  0.45593999997E+02  0.45594000000E+02  0.51100000000E-03 0.  1.
         11   -1    0    0    0    0 -0.00000000000E+00 -0.00000000000E+00 -0.45593999997E+02  0.45594000000E+02  0.51100000000E-03 0. -1.
    9900012    2    1    2    0    0 -0.37709399647E+02  0.68880828111E+01  0.20351385982E+02  0.47787269385E+02  0.19999992433E+02 0.  0.
         12    1    1    2    0    0  0.37709399647E+02 -0.68880828111E+01 -0.20351385982E+02  0.43400730615E+02  0.00000000000E+00 0. -1.
         11    1    3    3    0    0  0.57127537428E+00 -0.96721520996E+00 -0.18024943647E+01  0.21238754698E+01  0.51100000000E-03 0. -1.
        -11    1    3    3    0    0 -0.22718848055E+02  0.86764605272E+01  0.14311463210E+02  0.28217813588E+02  0.51100000000E-03 0.  1.
        -12    1    3    3    0    0 -0.15561826967E+02 -0.82116250617E+00  0.78424171361E+01  0.17445580327E+02  0.00000000000E+00 0.  1.
</event>
<event>
 7    1  0.4937359E-010  0.4778730E+02  0.7816164E-02  0.1312668E+00
        -11   -1    0    0    0    0  0.00000000000E+00  0.00000000000E+00  0.45593999997E+02  0.45594000000E+02  0.51100000000E-03 0.  1.
         11   -1    0    0    0    0 -0.00000000000E+00 -0.00000000000E+00 -0.45593999997E+02  0.45594000000E+02  0.51100000000E-03 0. -1.
    9900012    2    1    2    0    0  0.26911094794E+02 -0.72535463611E+01  0.33268606491E+02  0.47787295678E+02  0.20000112314E+02 0.  0.
         12    1    1    2    0    0 -0.26911094794E+02  0.72535463611E+01 -0.33268606491E+02  0.43400704322E+02  0.00000000000E+00 0. -1.
         11    1    3    3    0    0  0.14516243511E+02  0.20717542622E+01  0.10007872711E+02  0.17753056296E+02  0.51100000000E-03 0. -1.
        -11    1    3    3    0    0  0.85190598986E+01 -0.95082771982E+01  0.22794714431E+02  0.26126245867E+02  0.51100000000E-03 0.  1.
        -12    1    3    3    0    0  0.38757913844E+01  0.18297657491E+00  0.46601934872E+00  0.39079935154E+01  0.00000000000E+00 0.  1.
</event>
<event>
 7    1  0.4937359E-010  0.4778727E+02  0.7816164E-02  0.1312668E+00
        -11   -1    0    0    0    0  0.00000000000E+00  0.00000000000E+00  0.45593999997E+02  0.45594000000E+02  0.51100000000E-03 0.  1.
         11   -1    0    0    0    0 -0.00000000000E+00 -0.00000000000E+00 -0.45593999997E+02  0.45594000000E+02  0.51100000000E-03 0. -1.
    9900012    2    1    2    0    0 -0.37278947934E+02  0.14067737174E+02  0.17204710362E+02  0.47787271355E+02  0.20000001415E+02 0.  0.
         12    1    1    2    0    0  0.37278947934E+02 -0.14067737174E+02 -0.17204710362E+02  0.43400728645E+02  0.00000000000E+00 0. -1.
         11    1    3    3    0    0 -0.11895393218E+01  0.54053686057E+01  0.10888193776E+01  0.56407926269E+01  0.51100000000E-03 0. -1.
        -11    1    3    3    0    0 -0.33889409705E+02  0.10413080566E+02  0.16830868394E+02  0.39245413340E+02  0.51100000000E-03 0.  1.
        -12    1    3    3    0    0 -0.21999989068E+01 -0.17507119975E+01 -0.71497740968E+00  0.29010653879E+01  0.00000000000E+00 0.  1.
</event>
<event>
 7    1  0.4937359E-010  0.4778728E+02  0.7816164E-02  0.1312668E+00
        -11   -1    0    0    0    0  0.00000000000E+00  0.00000000000E+00  0.45593999997E+02  0.45594000000E+02  0.51100000000E-03 0.  1.
         11   -1    0    0    0    0 -0.00000000000E+00 -0.00000000000E+00 -0.45593999997E+02  0.45594000000E+02  0.51100000000E-03 0. -1.
    9900012    2    1    2    0    0  0.49432022720E-01 -0.35647149886E+02  0.24756836085E+02  0.47787277984E+02  0.20000031641E+02 0.  0.
         12    1    1    2    0    0 -0.49432022720E-01  0.35647149886E+02 -0.24756836085E+02  0.43400722016E+02  0.00000000000E+00 0. -1.
         11    1    3    3    0    0 -0.40983790299E+01 -0.26550744714E+02  0.15726200821E+02  0.31129602440E+02  0.51100000000E-03 0.  1.
        -11    1    3    3    0    0  0.54111652800E+01 -0.81546369038E+01  0.10604664452E+02  0.14430444245E+02  0.51100000000E-03 0. -1.
         12    1    3    3    0    0 -0.12633542274E+01 -0.94176826796E+00 -0.15740291875E+01  0.22272312986E+01  0.00000000000E+00 0. -1.
</event>
<event>
 7    1  0.4937359E-010  0.4778727E+02  0.7816164E-02  0.1312668E+00
        -11   -1    0    0    0    0  0.00000000000E+00  0.00000000000E+00  0.45593999997E+02  0.45594000000E+02  0.51100000000E-03 0.  1.
         11   -1    0    0    0    0 -0.00000000000E+00 -0.00000000000E+00 -0.45593999997E+02  0.45594000000E+02  0.51100000000E-03 0. -1.
    9900012    2    1    2    0    0  0.14573158221E+02 -0.32256917694E+02  0.25114494105E+02  0.47787268511E+02  0.19999988449E+02 0.  0.
         12    1    1    2    0    0 -0.14573158221E+02  0.32256917694E+02 -0.25114494105E+02  0.43400731489E+02  0.00000000000E+00 0. -1.
         11    1    3    3    0    0 -0.33498198562E+01 -0.49679194737E+01  0.66557151722E+01  0.89554487146E+01  0.51100000000E-03 0. -1.
        -11    1    3    3    0    0  0.15086151473E+02 -0.27283283709E+02  0.17869248774E+02  0.35934378918E+02  0.51100000000E-03 0.  1.
        -12    1    3    3    0    0  0.28368266039E+01 -0.57145110191E-02  0.58953015893E+00  0.28974408785E+01  0.00000000000E+00 0.  1.
</event>
<event>
 7    1  0.4937359E-010  0.4778727E+02  0.7816164E-02  0.1312668E+00
        -11   -1    0    0    0    0  0.00000000000E+00  0.00000000000E+00  0.45593999997E+02  0.45594000000E+02  0.51100000000E-03 0. -1.
         11   -1    0    0    0    0 -0.00000000000E+00 -0.00000000000E+00 -0.45593999997E+02  0.45594000000E+02  0.51100000000E-03 0.  1.
    9900012    2    1    2    0    0 -0.16190793876E+02 -0.35858178178E+02  0.18321364176E+02  0.47787272657E+02  0.20000007354E+02 0.  0.
         12    1    1    2    0    0  0.16190793876E+02  0.35858178178E+02 -0.18321364176E+02  0.43400727343E+02  0.00000000000E+00 0. -1.
         11    1    3    3    0    0 -0.35413711482E+01 -0.15208048745E+02  0.53901275958E+01  0.16519065712E+02  0.51100000000E-03 0. -1.
        -11    1    3    3    0    0  0.34078354923E+01 -0.27532585829E+01  0.13817844357E+01  0.45938114953E+01  0.51100000000E-03 0.  1.
        -12    1    3    3    0    0 -0.16057258221E+02 -0.17896870850E+02  0.11549452144E+02  0.26674395450E+02  0.00000000000E+00 0.  1.
</event>
<event>
 7    1  0.4937359E-010  0.4778728E+02  0.7816164E-02  0.1312668E+00
        -11   -1    0    0    0    0  0.00000000000E+00  0.00000000000E+00  0.45593999997E+02  0.45594000000E+02  0.51100000000E-03 0. -1.
         11   -1    0    0    0    0 -0.00000000000E+00 -0.00000000000E+00 -0.45593999997E+02  0.45594000000E+02  0.51100000000E-03 0.  1.
    9900012    2    1    2    0    0  0.10678193633E+02 -0.41514964921E+02 -0.67901900439E+01  0.47787276360E+02  0.20000024236E+02 0.  0.
         12    1    1    2    0    0 -0.10678193633E+02  0.41514964921E+02  0.67901900439E+01  0.43400723640E+02  0.00000000000E+00 0. -1.
         11    1    3    3    0    0  0.79867373362E+00 -0.27267568093E+02 -0.40838845109E+01  0.27583260547E+02  0.51100000000E-03 0. -1.
        -11    1    3    3    0    0  0.45742734003E+01 -0.62647799619E+01  0.37817625584E+01  0.86297840889E+01  0.51100000000E-03 0.  1.
        -12    1    3    3    0    0  0.53052464993E+01 -0.79826168658E+01 -0.64880680914E+01  0.11574231724E+02  0.00000000000E+00 0.  1.
</event>
<event>
 7    1  0.4937359E-010  0.4778727E+02  0.7816164E-02  0.1312668E+00
        -11   -1    0    0    0    0  0.00000000000E+00  0.00000000000E+00  0.45593999997E+02  0.45594000000E+02  0.51100000000E-03 0. -1.
         11   -1    0    0    0    0 -0.00000000000E+00 -0.00000000000E+00 -0.45593999997E+02  0.45594000000E+02  0.51100000000E-03 0.  1.
    9900012    2    1    2    0    0 -0.17487077024E+01  0.42663417937E+02  0.77716188929E+01  0.47787271102E+02  0.20000000263E+02 0.  0.
         12    1    1    2    0    0  0.17487077024E+01 -0.42663417937E+02 -0.77716188929E+01  0.43400728898E+02  0.00000000000E+00 0. -1.
         11    1    3    3    0    0 -0.67244499808E+01  0.33840071902E+02  0.90240391563E+01  0.35662332745E+02  0.51100000000E-03 0. -1.
        -11    1    3    3    0    0  0.27256653924E+01  0.75136816411E+01 -0.34618793268E+01  0.87102969162E+01  0.51100000000E-03 0.  1.
         12    1    3    3    0    0  0.22500768860E+01  0.13096643938E+01  0.22094590634E+01  0.34146414409E+01  0.00000000000E+00 0. -1.
</event>
<event>
 7    1  0.4937359E-010  0.4778727E+02  0.7816164E-02  0.1312668E+00
        -11   -1    0    0    0    0  0.00000000000E+00  0.00000000000E+00  0.45593999997E+02  0.45594000000E+02  0.51100000000E-03 0.  1.
         11   -1    0    0    0    0 -0.00000000000E+00 -0.00000000000E+00 -0.45593999997E+02  0.45594000000E+02  0.51100000000E-03 0. -1.
    9900012    2    1    2    0    0 -0.21209996825E+01 -0.27375477676E+02  0.33611124890E+02  0.47787272655E+02  0.20000007345E+02 0.  0.
         12    1    1    2    0    0  0.21209996825E+01  0.27375477676E+02 -0.33611124890E+02  0.43400727345E+02  0.00000000000E+00 0. -1.
         11    1    3    3    0    0 -0.10291951094E+02 -0.20311289724E+02  0.20039606779E+02  0.30332467550E+02  0.51100000000E-03 0. -1.
        -11    1    3    3    0    0  0.34971674616E+01 -0.33794888578E+01  0.76080424257E+01  0.90295866465E+01  0.51100000000E-03 0.  1.
         12    1    3    3    0    0  0.46737839499E+01 -0.36846990946E+01  0.59634756860E+01  0.84252184592E+01  0.00000000000E+00 0. -1.
</event>
<event>
 7    1  0.6859591E-010  0.4778727E+02  0.7816164E-02  0.1312668E+00
        -11   -1    0    0    0    0  0.00000000000E+00  0.00000000000E+00  0.45593999997E+02  0.45594000000E+02  0.51100000000E-03 0. -1.
         11   -1    0    0    0    0 -0.00000000000E+00 -0.00000000000E+00 -0.45593999997E+02  0.45594000000E+02  0.51100000000E-03 0.  1.
    9900012    2    1    2    0    0  0.35489359771E+02 -0.36328632978E+01 -0.24717011227E+02  0.47787274238E+02  0.20000014562E+02 0.  0.
         12    1    1    2    0    0 -0.35489359771E+02  0.36328632978E+01  0.24717011227E+02  0.43400725762E+02  0.00000000000E+00 0. -1.
         11    1    3    3    0    0  0.13575896972E+01  0.10917149991E+01  0.19726699127E+01  0.26317899367E+01  0.51100000000E-03 0. -1.
        -11    1    3    3    0    0  0.32387805438E+02 -0.65782449624E+01 -0.21648397093E+02  0.39508180733E+02  0.51100000000E-03 0.  1.
        -12    1    3    3    0    0  0.17439646352E+01  0.18536666655E+01 -0.50412840467E+01  0.56473035685E+01  0.00000000000E+00 0.  1.
</event>
<event>
 7    1  0.4937359E-010  0.4778726E+02  0.7816164E-02  0.1312668E+00
        -11   -1    0    0    0    0  0.00000000000E+00  0.00000000000E+00  0.45593999997E+02  0.45594000000E+02  0.51100000000E-03 0.  1.
         11   -1    0    0    0    0 -0.00000000000E+00 -0.00000000000E+00 -0.45593999997E+02  0.45594000000E+02  0.51100000000E-03 0. -1.
    9900012    2    1    2    0    0  0.17659698511E+02  0.39565907152E+02 -0.25095682890E+01  0.47787263909E+02  0.19999967467E+02 0.  0.
         12    1    1    2    0    0 -0.17659698511E+02 -0.39565907152E+02  0.25095682890E+01  0.43400736091E+02  0.00000000000E+00 0. -1.
         11    1    3    3    0    0  0.64865674427E+01  0.18413471785E+02  0.61146352877E+01  0.20457767849E+02  0.51100000000E-03 0. -1.
        -11    1    3    3    0    0  0.83952495713E+01  0.10073056810E+02 -0.16160249525E+00  0.13113840189E+02  0.51100000000E-03 0.  1.
         12    1    3    3    0    0  0.27778814972E+01  0.11079378556E+02 -0.84626010815E+01  0.14215655872E+02  0.00000000000E+00 0. -1.
</event>
<event>
 7    1  0.4937359E-010  0.4778727E+02  0.7816164E-02  0.1312668E+00
        -11   -1    0    0    0    0  0.00000000000E+00  0.00000000000E+00  0.45593999997E+02  0.45594000000E+02  0.51100000000E-03 0.  1.
         11   -1    0    0    0    0 -0.00000000000E+00 -0.00000000000E+00 -0.45593999997E+02  0.45594000000E+02  0.51100000000E-03 0. -1.
    9900012    2    1    2    0    0 -0.19524436764E+02 -0.91996002425E+01  0.37653515081E+02  0.47787268744E+02  0.19999989513E+02 0.  0.
         12    1    1    2    0    0  0.19524436764E+02  0.91996002425E+01 -0.37653515081E+02  0.43400731256E+02  0.00000000000E+00 0. -1.
         11    1    3    3    0    0  0.25425792225E+01 -0.73492153624E+00  0.14649200605E+00  0.26507129109E+01  0.51100000000E-03 0. -1.
        -11    1    3    3    0    0 -0.14953682578E+02 -0.77943486746E+01  0.31791154649E+02  0.35986692097E+02  0.51100000000E-03 0.  1.
         12    1    3    3    0    0 -0.71133334087E+01 -0.67033003163E+00  0.57158684261E+01  0.91498637366E+01  0.00000000000E+00 0. -1.
</event>
<event>
 7    1  0.5836526E-010  0.4778727E+02  0.7816164E-02  0.1312668E+00
        -11   -1    0    0    0    0  0.00000000000E+00  0.00000000000E+00  0.45593999997E+02  0.45594000000E+02  0.51100000000E-03 0.  1.
         11   -1    0    0    0    0 -0.00000000000E+00 -0.00000000000E+00 -0.45593999997E+02  0.45594000000E+02  0.51100000000E-03 0. -1.
    9900012    2    1    2    0    0  0.21675130366E+02 -0.20717830276E+02  0.31378071736E+02  0.47787272430E+02  0.20000006317E+02 0.  0.
         12    1    1    2    0    0 -0.21675130366E+02  0.20717830276E+02 -0.31378071736E+02  0.43400727570E+02  0.00000000000E+00 0. -1.
         11    1    3    3    0    0 -0.15214578372E+01  0.85583759501E+00  0.71988496658E+01  0.74074778914E+01  0.51100000000E-03 0. -1.
        -11    1    3    3    0    0  0.15074999581E+02 -0.10896051890E+02  0.16824077946E+02  0.25080453707E+02  0.51100000000E-03 0.  1.
         12    1    3    3    0    0  0.81215886223E+01 -0.10677615981E+02  0.73551441243E+01  0.15299340831E+02  0.00000000000E+00 0. -1.
</event>
<event>
 7    1  0.4937359E-010  0.4778727E+02  0.7816164E-02  0.1312668E+00
        -11   -1    0    0    0    0  0.00000000000E+00  0.00000000000E+00  0.45593999997E+02  0.45594000000E+02  0.51100000000E-03 0. -1.
         11   -1    0    0    0    0 -0.00000000000E+00 -0.00000000000E+00 -0.45593999997E+02  0.45594000000E+02  0.51100000000E-03 0.  1.
    9900012    2    1    2    0    0 -0.14386217287E+02  0.48573982125E+01 -0.40657910731E+02  0.47787271087E+02  0.20000000193E+02 0.  0.
         12    1    1    2    0    0  0.14386217287E+02 -0.48573982125E+01  0.40657910731E+02  0.43400728913E+02  0.00000000000E+00 0. -1.
         11    1    3    3    0    0 -0.14223746003E+02 -0.11950019891E+01 -0.15988132808E+02  0.21432763963E+02  0.51100000000E-03 0. -1.
        -11    1    3    3    0    0 -0.20119529429E+01  0.63405533057E+01 -0.22623765012E+02  0.23581461245E+02  0.51100000000E-03 0.  1.
         12    1    3    3    0    0  0.18494816590E+01 -0.28815310413E+00 -0.20460129106E+01  0.27730458793E+01  0.00000000000E+00 0. -1.
</event>
<event>
 7    1  0.4937359E-010  0.4778727E+02  0.7816164E-02  0.1312668E+00
        -11   -1    0    0    0    0  0.00000000000E+00  0.00000000000E+00  0.45593999997E+02  0.45594000000E+02  0.51100000000E-03 0.  1.
         11   -1    0    0    0    0 -0.00000000000E+00 -0.00000000000E+00 -0.45593999997E+02  0.45594000000E+02  0.51100000000E-03 0. -1.
    9900012    2    1    2    0    0  0.97618774247E+01  0.36636540576E+02  0.21120916326E+02  0.47787268869E+02  0.19999990082E+02 0.  0.
         12    1    1    2    0    0 -0.97618774247E+01 -0.36636540576E+02 -0.21120916326E+02  0.43400731131E+02  0.00000000000E+00 0. -1.
         11    1    3    3    0    0 -0.23261573525E+01  0.18360999036E+01  0.19892456131E+01  0.35692253018E+01  0.51100000000E-03 0. -1.
        -11    1    3    3    0    0  0.59934149599E+01  0.25350869625E+02  0.20141600417E+02  0.32928280873E+02  0.51100000000E-03 0.  1.
        -12    1    3    3    0    0  0.60946198172E+01  0.94495710477E+01 -0.10099297036E+01  0.11289762695E+02  0.00000000000E+00 0.  1.
</event>
<event>
 7    1  0.4937359E-010  0.4778727E+02  0.7816164E-02  0.1312668E+00
        -11   -1    0    0    0    0  0.00000000000E+00  0.00000000000E+00  0.45593999997E+02  0.45594000000E+02  0.51100000000E-03 0.  1.
         11   -1    0    0    0    0 -0.00000000000E+00 -0.00000000000E+00 -0.45593999997E+02  0.45594000000E+02  0.51100000000E-03 0. -1.
    9900012    2    1    2    0    0 -0.32597414554E+02 -0.13881575408E+02  0.25066584681E+02  0.47787271447E+02  0.20000001836E+02 0.  0.
         12    1    1    2    0    0  0.32597414554E+02  0.13881575408E+02 -0.25066584681E+02  0.43400728553E+02  0.00000000000E+00 0. -1.
         11    1    3    3    0    0 -0.90483381817E+00 -0.30538737288E+01 -0.15351443763E+01  0.35357513356E+01  0.51100000000E-03 0. -1.
        -11    1    3    3    0    0 -0.18581911860E+02 -0.88940280435E+01  0.22203143618E+02  0.30288129193E+02  0.51100000000E-03 0.  1.
         12    1    3    3    0    0 -0.13110668875E+02 -0.19336736353E+01  0.43985854387E+01  0.13963390919E+02  0.00000000000E+00 0. -1.
</event>
<event>
 7    1  0.4937359E-010  0.4778727E+02  0.7816164E-02  0.1312668E+00
        -11   -1    0    0    0    0  0.00000000000E+00  0.00000000000E+00  0.45593999997E+02  0.45594000000E+02  0.51100000000E-03 0.  1.
         11   -1    0    0    0    0 -0.00000000000E+00 -0.00000000000E+00 -0.45593999997E+02  0.45594000000E+02  0.51100000000E-03 0. -1.
    9900012    2    1    2    0    0 -0.29121610802E+02  0.30168006309E+02  0.11200287604E+02  0.47787271172E+02  0.20000000581E+02 0.  0.
         12    1    1    2    0    0  0.29121610802E+02 -0.30168006309E+02 -0.11200287604E+02  0.43400728828E+02  0.00000000000E+00 0. -1.
         11    1    3    3    0    0 -0.20534407656E+02  0.22475229469E+02  0.14384246144E+02  0.33670526798E+02  0.51100000000E-03 0. -1.
        -11    1    3    3    0    0 -0.54866093115E+01  0.19403135804E+00 -0.27612542784E+00  0.54969787536E+01  0.51100000000E-03 0.  1.
         12    1    3    3    0    0 -0.31005938350E+01  0.74987454823E+01 -0.29078331120E+01  0.86197656201E+01  0.00000000000E+00 0. -1.
</event>
<event>
 7    1  0.4937359E-010  0.4778727E+02  0.7816164E-02  0.1312668E+00
        -11   -1    0    0    0    0  0.00000000000E+00  0.00000000000E+00  0.45593999997E+02  0.45594000000E+02  0.51100000000E-03 0.  1.
         11   -1    0    0    0    0 -0.00000000000E+00 -0.00000000000E+00 -0.45593999997E+02  0.45594000000E+02  0.51100000000E-03 0. -1.
    9900012    2    1    2    0    0 -0.34391760410E+01  0.42637513949E+02 -0.73373977727E+01  0.47787274963E+02  0.20000017868E+02 0.  0.
         12    1    1    2    0    0  0.34391760410E+01 -0.42637513949E+02  0.73373977727E+01  0.43400725037E+02  0.00000000000E+00 0. -1.
         11    1    3    3    0    0  0.36809737138E+00  0.16188903665E+01  0.33558498014E+01  0.37440659509E+01  0.51100000000E-03 0. -1.
        -11    1    3    3    0    0 -0.69902526022E+01  0.19427624070E+02 -0.75973387660E+01  0.22000358294E+02  0.51100000000E-03 0.  1.
         12    1    3    3    0    0  0.31829791898E+01  0.21590999512E+02 -0.30959088081E+01  0.22042850719E+02  0.00000000000E+00 0. -1.
</event>
<event>
 7    1  0.4937359E-010  0.4778727E+02  0.7816164E-02  0.1312668E+00
        -11   -1    0    0    0    0  0.00000000000E+00  0.00000000000E+00  0.45593999997E+02  0.45594000000E+02  0.51100000000E-03 0. -1.
         11   -1    0    0    0    0 -0.00000000000E+00 -0.00000000000E+00 -0.45593999997E+02  0.45594000000E+02  0.51100000000E-03 0.  1.
    9900012    2    1    2    0    0 -0.61117037896E+01 -0.16828686698E+01 -0.42935276814E+02  0.47787274599E+02  0.20000016208E+02 0.  0.
         12    1    1    2    0    0  0.61117037896E+01  0.16828686698E+01  0.42935276814E+02  0.43400725401E+02  0.00000000000E+00 0. -1.
         11    1    3    3    0    0  0.26164102462E+01 -0.10076445119E+01 -0.55625130881E+01  0.62291654461E+01  0.51100000000E-03 0. -1.
        -11    1    3    3    0    0  0.44866817242E+01  0.16053637883E+01 -0.97060450639E+01  0.10812715516E+02  0.51100000000E-03 0.  1.
         12    1    3    3    0    0 -0.13214795760E+02 -0.22805879462E+01 -0.27666718662E+02  0.30745393637E+02  0.00000000000E+00 0. -1.
</event>
<event>
 7    1  0.4937359E-010  0.4778727E+02  0.7816164E-02  0.1312668E+00
        -11   -1    0    0    0    0  0.00000000000E+00  0.00000000000E+00  0.45593999997E+02  0.45594000000E+02  0.51100000000E-03 0.  1.
         11   -1    0    0    0    0 -0.00000000000E+00 -0.00000000000E+00 -0.45593999997E+02  0.45594000000E+02  0.51100000000E-03 0. -1.
    9900012    2    1    2    0    0  0.40116158872E+02 -0.15725338656E+02 -0.51991348165E+01  0.47787268655E+02  0.19999989106E+02 0.  0.
         12    1    1    2    0    0 -0.40116158872E+02  0.15725338656E+02  0.51991348165E+01  0.43400731345E+02  0.00000000000E+00 0. -1.
         11    1    3    3    0    0  0.14188083904E+02  0.22778492885E+01 -0.68030401619E+01  0.15898794859E+02  0.51100000000E-03 0. -1.
        -11    1    3    3    0    0  0.25343588737E+02 -0.17634854821E+02  0.88007740355E+00  0.30887863816E+02  0.51100000000E-03 0.  1.
        -12    1    3    3    0    0  0.58448623043E+00 -0.36833312323E+00  0.72382794181E+00  0.10006099802E+01  0.00000000000E+00 0.  1.
</event>
<event>
 7    1  0.4937359E-010  0.4778727E+02  0.7816164E-02  0.1312668E+00
        -11   -1    0    0    0    0  0.00000000000E+00  0.00000000000E+00  0.45593999997E+02  0.45594000000E+02  0.51100000000E-03 0. -1.
         11   -1    0    0    0    0 -0.00000000000E+00 -0.00000000000E+00 -0.45593999997E+02  0.45594000000E+02  0.51100000000E-03 0.  1.
    9900012    2    1    2    0    0 -0.34628693887E+02 -0.30202249305E+00 -0.26160760672E+02  0.47787273545E+02  0.20000011399E+02 0.  0.
         12    1    1    2    0    0  0.34628693887E+02  0.30202249305E+00  0.26160760672E+02  0.43400726455E+02  0.00000000000E+00 0. -1.
         11    1    3    3    0    0 -0.16292742610E+02 -0.29381917126E+01 -0.18193046662E+02  0.24598239356E+02  0.51100000000E-03 0. -1.
        -11    1    3    3    0    0 -0.26263683587E+01 -0.34169546837E+01 -0.40275365754E+01  0.58986813097E+01  0.51100000000E-03 0.  1.
         12    1    3    3    0    0 -0.15709582919E+02  0.60531239033E+01 -0.39401774341E+01  0.17290352879E+02  0.00000000000E+00 0. -1.
</event>
<event>
 7    1  0.4937359E-010  0.4778727E+02  0.7816164E-02  0.1312668E+00
        -11   -1    0    0    0    0  0.00000000000E+00  0.00000000000E+00  0.45593999997E+02  0.45594000000E+02  0.51100000000E-03 0.  1.
         11   -1    0    0    0    0 -0.00000000000E+00 -0.00000000000E+00 -0.45593999997E+02  0.45594000000E+02  0.51100000000E-03 0. -1.
    9900012    2    1    2    0    0  0.20573040837E+02  0.39085770556E+01  0.38014420618E+02  0.47787272370E+02  0.20000006046E+02 0.  0.
         12    1    1    2    0    0 -0.20573040837E+02 -0.39085770556E+01 -0.38014420618E+02  0.43400727630E+02  0.00000000000E+00 0. -1.
         11    1    3    3    0    0  0.16857403758E+02 -0.70353841657E-01  0.11544220881E+02  0.20431496449E+02  0.51100000000E-03 0. -1.
        -11    1    3    3    0    0  0.30169686403E+01  0.32728438595E+00  0.14790506976E+02  0.15098619530E+02  0.51100000000E-03 0.  1.
         12    1    3    3    0    0  0.69866843865E+00  0.36516465113E+01  0.11679692761E+02  0.12257156392E+02  0.00000000000E+00 0. -1.
</event>
<event>
 7    1  0.5317772E-010  0.4778728E+02  0.7816164E-02  0.1312668E+00
        -11   -1    0    0    0    0  0.00000000000E+00  0.00000000000E+00  0.45593999997E+02  0.45594000000E+02  0.51100000000E-03 0. -1.
         11   -1    0    0    0    0 -0.00000000000E+00 -0.00000000000E+00 -0.45593999997E+02  0.45594000000E+02  0.51100000000E-03 0.  1.
    9900012    2    1    2    0    0 -0.21649248909E+02 -0.28899274360E+02 -0.24078304314E+02  0.47787276786E+02  0.20000026178E+02 0.  0.
         12    1    1    2    0    0  0.21649248909E+02  0.28899274360E+02  0.24078304314E+02  0.43400723214E+02  0.00000000000E+00 0. -1.
         11    1    3    3    0    0 -0.94357840336E+01 -0.39212798693E+01 -0.12454464626E+02  0.16109753118E+02  0.51100000000E-03 0. -1.
        -11    1    3    3    0    0 -0.10044436235E+02 -0.20421336630E+02 -0.13300731291E+02  0.26359649887E+02  0.51100000000E-03 0.  1.
         12    1    3    3    0    0 -0.21690286412E+01 -0.45566578606E+01  0.16768916031E+01  0.53178737813E+01  0.00000000000E+00 0. -1.
</event>
<event>
 7    1  0.4937359E-010  0.4778727E+02  0.7816164E-02  0.1312668E+00
        -11   -1    0    0    0    0  0.00000000000E+00  0.00000000000E+00  0.45593999997E+02  0.45594000000E+02  0.51100000000E-03 0.  1.
         11   -1    0    0    0    0 -0.00000000000E+00 -0.00000000000E+00 -0.45593999997E+02  0.45594000000E+02  0.51100000000E-03 0. -1.
    9900012    2    1    2    0    0 -0.20942668629E+02 -0.22912860591E+02  0.30331977854E+02  0.47787269243E+02  0.19999991786E+02 0.  0.
         12    1    1    2    0    0  0.20942668629E+02  0.22912860591E+02 -0.30331977854E+02  0.43400730757E+02  0.00000000000E+00 0. -1.
         11    1    3    3    0    0 -0.63925826523E+01  0.13798622789E+01  0.33825771825E+01  0.73628093505E+01  0.51100000000E-03 0. -1.
        -11    1    3    3    0    0 -0.80878449160E+01 -0.21493165065E+02  0.19012465109E+02  0.29813473626E+02  0.51100000000E-03 0.  1.
        -12    1    3    3    0    0 -0.64622410604E+01 -0.27995578051E+01  0.79369355619E+01  0.10610986266E+02  0.00000000000E+00 0.  1.
</event>
<event>
 7    1  0.4937359E-010  0.4778725E+02  0.7816164E-02  0.1312668E+00
        -11   -1    0    0    0    0  0.00000000000E+00  0.00000000000E+00  0.45593999997E+02  0.45594000000E+02  0.51100000000E-03 0. -1.
         11   -1    0    0    0    0 -0.00000000000E+00 -0.00000000000E+00 -0.45593999997E+02  0.45594000000E+02  0.51100000000E-03 0.  1.
    9900012    2    1    2    0    0 -0.32695558271E+02  0.74883711050E+00 -0.28531818857E+02  0.47787251447E+02  0.19999910647E+02 0.  0.
         12    1    1    2    0    0  0.32695558271E+02 -0.74883711050E+00  0.28531818857E+02  0.43400748553E+02  0.00000000000E+00 0. -1.
         11    1    3    3    0    0 -0.12900935887E+02  0.85899656607E+01 -0.96224700374E+01  0.18243179182E+02  0.51100000000E-03 0. -1.
        -11    1    3    3    0    0 -0.13199057459E+02 -0.81753140971E+01 -0.16102495208E+02  0.22368308621E+02  0.51100000000E-03 0.  1.
        -12    1    3    3    0    0 -0.65955649256E+01  0.33418554697E+00 -0.28068536119E+01  0.71757636434E+01  0.00000000000E+00 0.  1.
</event>
<event>
 7    1  0.5526030E-010  0.4778727E+02  0.7816164E-02  0.1312668E+00
        -11   -1    0    0    0    0  0.00000000000E+00  0.00000000000E+00  0.45593999997E+02  0.45594000000E+02  0.51100000000E-03 0. -1.
         11   -1    0    0    0    0 -0.00000000000E+00 -0.00000000000E+00 -0.45593999997E+02  0.45594000000E+02  0.51100000000E-03 0.  1.
    9900012    2    1    2    0    0 -0.30848024977E+02  0.95450686340E+01 -0.28998524344E+02  0.47787269657E+02  0.19999993672E+02 0.  0.
         12    1    1    2    0    0  0.30848024977E+02 -0.95450686340E+01  0.28998524344E+02  0.43400730343E+02  0.00000000000E+00 0. -1.
         11    1    3    3    0    0 -0.31255610808E+01 -0.53759950500E+00  0.15102122293E+01  0.35126751254E+01  0.51100000000E-03 0. -1.
        -11    1    3    3    0    0 -0.28103405052E+02  0.11054830296E+02 -0.26649565801E+02  0.40276668259E+02  0.51100000000E-03 0.  1.
        -12    1    3    3    0    0  0.38094115639E+00 -0.97216215698E+00 -0.38591707728E+01  0.39979262722E+01  0.00000000000E+00 0.  1.
</event>
<event>
 7    1  0.4937359E-010  0.4778729E+02  0.7816164E-02  0.1312668E+00
        -11   -1    0    0    0    0  0.00000000000E+00  0.00000000000E+00  0.45593999997E+02  0.45594000000E+02  0.51100000000E-03 0. -1.
         11   -1    0    0    0    0 -0.00000000000E+00 -0.00000000000E+00 -0.45593999997E+02  0.45594000000E+02  0.51100000000E-03 0.  1.
    9900012    2    1    2    0    0 -0.21871843739E+02 -0.35935916226E+02  0.10670233232E+02  0.47787291471E+02  0.20000093133E+02 0.  0.
         12    1    1    2    0    0  0.21871843739E+02  0.35935916226E+02 -0.10670233232E+02  0.43400708529E+02  0.00000000000E+00 0. -1.
         11    1    3    3    0    0 -0.77532992122E+00  0.25107559834E+01  0.10479476313E+01  0.28289974539E+01  0.51100000000E-03 0. -1.
        -11    1    3    3    0    0 -0.10308584765E+02 -0.21187807640E+02  0.53108299615E+01  0.24153571736E+02  0.51100000000E-03 0.  1.
         12    1    3    3    0    0 -0.10787929053E+02 -0.17258864570E+02  0.43114556396E+01  0.20804722282E+02  0.00000000000E+00 0. -1.
</event>
<event>
 7    1  0.4937359E-010  0.4778728E+02  0.7816164E-02  0.1312668E+00
        -11   -1    0    0    0    0  0.00000000000E+00  0.00000000000E+00  0.45593999997E+02  0.45594000000E+02  0.51100000000E-03 0. -1.
         11   -1    0    0    0    0 -0.00000000000E+00 -0.00000000000E+00 -0.45593999997E+02  0.45594000000E+02  0.51100000000E-03 0.  1.
    9900012    2    1    2    0    0 -0.18626253935E+02  0.36727382065E+02 -0.13703440743E+02  0.47787283218E+02  0.20000055505E+02 0.  0.
         12    1    1    2    0    0  0.18626253935E+02 -0.36727382065E+02  0.13703440743E+02  0.43400716782E+02  0.00000000000E+00 0. -1.
         11    1    3    3    0    0 -0.60327005281E+01 -0.72592882151E+00 -0.67332792966E+00  0.61134130465E+01  0.51100000000E-03 0. -1.
        -11    1    3    3    0    0 -0.64427648902E+01  0.21154585651E+02 -0.83241865760E+01  0.23628749352E+02  0.51100000000E-03 0.  1.
         12    1    3    3    0    0 -0.61507885170E+01  0.16298725235E+02 -0.47059262375E+01  0.18045120820E+02  0.00000000000E+00 0. -1.
</event>
<event>
 7    1  0.4937359E-010  0.4778728E+02  0.7816164E-02  0.1312668E+00
        -11   -1    0    0    0    0  0.00000000000E+00  0.00000000000E+00  0.45593999997E+02  0.45594000000E+02  0.51100000000E-03 0.  1.
         11   -1    0    0    0    0 -0.00000000000E+00 -0.00000000000E+00 -0.45593999997E+02  0.45594000000E+02  0.51100000000E-03 0. -1.
    9900012    2    1    2    0    0  0.49671603227E+01  0.15606829785E+02  0.40191752465E+02  0.47787276690E+02  0.20000025742E+02 0.  0.
         12    1    1    2    0    0 -0.49671603227E+01 -0.15606829785E+02 -0.40191752465E+02  0.43400723310E+02  0.00000000000E+00 0. -1.
         11    1    3    3    0    0  0.28570159144E+01  0.27264607370E+01 -0.11492016884E+01  0.41130029015E+01  0.51100000000E-03 0. -1.
        -11    1    3    3    0    0  0.17968713158E+00  0.11926637880E+02  0.34682342373E+02  0.36676175527E+02  0.51100000000E-03 0.  1.
        -12    1    3    3    0    0  0.19304572767E+01  0.95373116787E+00  0.66586117805E+01  0.69980982618E+01  0.00000000000E+00 0.  1.
</event>
<event>
 7    1  0.4937359E-010  0.4778727E+02  0.7816164E-02  0.1312668E+00
        -11   -1    0    0    0    0  0.00000000000E+00  0.00000000000E+00  0.45593999997E+02  0.45594000000E+02  0.51100000000E-03 0. -1.
         11   -1    0    0    0    0 -0.00000000000E+00 -0.00000000000E+00 -0.45593999997E+02  0.45594000000E+02  0.51100000000E-03 0.  1.
    9900012    2    1    2    0    0  0.34017191599E+02 -0.23268586109E+02  0.13602463232E+02  0.47787269248E+02  0.19999991808E+02 0.  0.
         12    1    1    2    0    0 -0.34017191599E+02  0.23268586109E+02 -0.13602463232E+02  0.43400730752E+02  0.00000000000E+00 0. -1.
         11    1    3    3    0    0  0.21157437987E+02 -0.10702226980E+02  0.11396443973E+02  0.26306915060E+02  0.51100000000E-03 0. -1.
        -11    1    3    3    0    0 -0.36997809284E+00 -0.43982801096E+00 -0.27922387945E+01  0.28507771247E+01  0.51100000000E-03 0.  1.
        -12    1    3    3    0    0  0.13229731706E+02 -0.12126531119E+02  0.49982580533E+01  0.18629577063E+02  0.00000000000E+00 0.  1.
</event>
<event>
 7    1  0.4937359E-010  0.4778727E+02  0.7816164E-02  0.1312668E+00
        -11   -1    0    0    0    0  0.00000000000E+00  0.00000000000E+00  0.45593999997E+02  0.45594000000E+02  0.51100000000E-03 0.  1.
         11   -1    0    0    0    0 -0.00000000000E+00 -0.00000000000E+00 -0.45593999997E+02  0.45594000000E+02  0.51100000000E-03 0. -1.
    9900012    2    1    2    0    0 -0.56403607040E+01  0.38790631720E+02 -0.18630528691E+02  0.47787269851E+02  0.19999994559E+02 0.  0.
         12    1    1    2    0    0  0.56403607040E+01 -0.38790631720E+02  0.18630528691E+02  0.43400730149E+02  0.00000000000E+00 0. -1.
         11    1    3    3    0    0 -0.43497773141E+01  0.32414129637E+02 -0.17526035268E+02  0.37104693440E+02  0.51100000000E-03 0.  1.
        -11    1    3    3    0    0  0.18296468368E+01  0.65768023182E+01  0.10201372916E+01  0.69023631196E+01  0.51100000000E-03 0. -1.
         12    1    3    3    0    0 -0.31202302267E+01 -0.20030023491E+00 -0.21246307147E+01  0.37802132910E+01  0.00000000000E+00 0. -1.
</event>
<event>
 7    1  0.4937359E-010  0.4778726E+02  0.7816164E-02  0.1312668E+00
        -11   -1    0    0    0    0  0.00000000000E+00  0.00000000000E+00  0.45593999997E+02  0.45594000000E+02  0.51100000000E-03 0.  1.
         11   -1    0    0    0    0 -0.00000000000E+00 -0.00000000000E+00 -0.45593999997E+02  0.45594000000E+02  0.51100000000E-03 0. -1.
    9900012    2    1    2    0    0 -0.43849694433E+01 -0.15785425489E+02  0.40189752281E+02  0.47787264945E+02  0.19999972192E+02 0.  0.
         12    1    1    2    0    0  0.43849694433E+01  0.15785425489E+02 -0.40189752281E+02  0.43400735055E+02  0.00000000000E+00 0. -1.
         11    1    3    3    0    0 -0.24815739389E+01 -0.42626576660E+00 -0.15764834565E+01  0.29707258486E+01  0.51100000000E-03 0. -1.
        -11    1    3    3    0    0 -0.34945953232E+01 -0.92460112982E+01  0.27167744075E+02  0.28909985122E+02  0.51100000000E-03 0.  1.
         12    1    3    3    0    0  0.15911998188E+01 -0.61131484241E+01  0.14598491663E+02  0.15906553975E+02  0.00000000000E+00 0. -1.
</event>
<event>
 7    1  0.4937359E-010  0.4778727E+02  0.7816164E-02  0.1312668E+00
        -11   -1    0    0    0    0  0.00000000000E+00  0.00000000000E+00  0.45593999997E+02  0.45594000000E+02  0.51100000000E-03 0.  1.
         11   -1    0    0    0    0 -0.00000000000E+00 -0.00000000000E+00 -0.45593999997E+02  0.45594000000E+02  0.51100000000E-03 0. -1.
    9900012    2    1    2    0    0  0.13007367626E+02  0.39756222700E+02  0.11570398158E+02  0.47787274551E+02  0.20000015987E+02 0.  0.
         12    1    1    2    0    0 -0.13007367626E+02 -0.39756222700E+02 -0.11570398158E+02  0.43400725449E+02  0.00000000000E+00 0. -1.
         11    1    3    3    0    0  0.70054855593E+01  0.10006625604E+02  0.11583159452E+02  0.16833863700E+02  0.51100000000E-03 0. -1.
        -11    1    3    3    0    0  0.20578318110E+01  0.10578902067E+02  0.29125213455E+01  0.11163808560E+02  0.51100000000E-03 0.  1.
         12    1    3    3    0    0  0.39440502562E+01  0.19170695029E+02 -0.29252826400E+01  0.19789602292E+02  0.00000000000E+00 0. -1.
</event>
<event>
 7    1  0.4937359E-010  0.4778728E+02  0.7816164E-02  0.1312668E+00
        -11   -1    0    0    0    0  0.00000000000E+00  0.00000000000E+00  0.45593999997E+02  0.45594000000E+02  0.51100000000E-03 0.  1.
         11   -1    0    0    0    0 -0.00000000000E+00 -0.00000000000E+00 -0.45593999997E+02  0.45594000000E+02  0.51100000000E-03 0. -1.
    9900012    2    1    2    0    0  0.16370317586E+02  0.77363827731E+01  0.39443426615E+02  0.47787276280E+02  0.20000023870E+02 0.  0.
         12    1    1    2    0    0 -0.16370317586E+02 -0.77363827731E+01 -0.39443426615E+02  0.43400723720E+02  0.00000000000E+00 0. -1.
         11    1    3    3    0    0  0.15307383760E+02  0.55823140529E+01  0.21370614353E+02  0.26873432714E+02  0.51100000000E-03 0. -1.
        -11    1    3    3    0    0  0.46373193086E+01 -0.15504047712E+01  0.56818852461E+01  0.74961527156E+01  0.51100000000E-03 0.  1.
         12    1    3    3    0    0 -0.35743854822E+01  0.37044734914E+01  0.12390927017E+02  0.13417690850E+02  0.00000000000E+00 0. -1.
</event>
<event>
 7    1  0.4937359E-010  0.4778727E+02  0.7816164E-02  0.1312668E+00
        -11   -1    0    0    0    0  0.00000000000E+00  0.00000000000E+00  0.45593999997E+02  0.45594000000E+02  0.51100000000E-03 0. -1.
         11   -1    0    0    0    0 -0.00000000000E+00 -0.00000000000E+00 -0.45593999997E+02  0.45594000000E+02  0.51100000000E-03 0.  1.
    9900012    2    1    2    0    0  0.35629277582E+02  0.19978133046E+02  0.14664654125E+02  0.47787270725E+02  0.19999998542E+02 0.  0.
         12    1    1    2    0    0 -0.35629277582E+02 -0.19978133046E+02 -0.14664654125E+02  0.43400729275E+02  0.00000000000E+00 0. -1.
         11    1    3    3    0    0  0.28100489300E+02  0.10018486754E+02  0.13736301933E+02  0.32843470687E+02  0.51100000000E-03 0. -1.
        -11    1    3    3    0    0 -0.83613565824E+00  0.51755405937E+00 -0.17876326012E+01  0.20402489116E+01  0.51100000000E-03 0.  1.
        -12    1    3    3    0    0  0.83649239404E+01  0.94420922331E+01  0.27159847929E+01  0.12903551126E+02  0.00000000000E+00 0.  1.
</event>
<event>
 7    1  0.4937359E-010  0.4778727E+02  0.7816164E-02  0.1312668E+00
        -11   -1    0    0    0    0  0.00000000000E+00  0.00000000000E+00  0.45593999997E+02  0.45594000000E+02  0.51100000000E-03 0.  1.
         11   -1    0    0    0    0 -0.00000000000E+00 -0.00000000000E+00 -0.45593999997E+02  0.45594000000E+02  0.51100000000E-03 0. -1.
    9900012    2    1    2    0    0 -0.10308830234E+02  0.45630706349E+01  0.41910973005E+02  0.47787271289E+02  0.20000001116E+02 0.  0.
         12    1    1    2    0    0  0.10308830234E+02 -0.45630706349E+01 -0.41910973005E+02  0.43400728711E+02  0.00000000000E+00 0. -1.
         11    1    3    3    0    0  0.22255392064E+01  0.25088461054E+01  0.14788080984E+00  0.33569632906E+01  0.51100000000E-03 0. -1.
        -11    1    3    3    0    0 -0.78687245813E+01 -0.27054898922E+01  0.26494143452E+02  0.27770058330E+02  0.51100000000E-03 0.  1.
        -12    1    3    3    0    0 -0.46656448593E+01  0.47597144217E+01  0.15268948742E+02  0.16660249669E+02  0.00000000000E+00 0.  1.
</event>
<event>
 7    1  0.4937359E-010  0.4778728E+02  0.7816164E-02  0.1312668E+00
        -11   -1    0    0    0    0  0.00000000000E+00  0.00000000000E+00  0.45593999997E+02  0.45594000000E+02  0.51100000000E-03 0. -1.
         11   -1    0    0    0    0 -0.00000000000E+00 -0.00000000000E+00 -0.45593999997E+02  0.45594000000E+02  0.51100000000E-03 0.  1.
    9900012    2    1    2    0    0 -0.34082058659E+02 -0.21083534181E+02 -0.16658953138E+02  0.47787275863E+02  0.20000021968E+02 0.  0.
         12    1    1    2    0    0  0.34082058659E+02  0.21083534181E+02  0.16658953138E+02  0.43400724137E+02  0.00000000000E+00 0. -1.
         11    1    3    3    0    0 -0.55129406037E+01  0.78422554405E+00 -0.22863066042E+01  0.60195283830E+01  0.51100000000E-03 0. -1.
        -11    1    3    3    0    0 -0.14562434081E+02 -0.95436765119E+01  0.12190709292E+01  0.17453721148E+02  0.51100000000E-03 0.  1.
        -12    1    3    3    0    0 -0.14006683974E+02 -0.12324083213E+02 -0.15591717463E+02  0.24314026331E+02  0.00000000000E+00 0.  1.
</event>
<event>
 7    1  0.4937359E-010  0.4778727E+02  0.7816164E-02  0.1312668E+00
        -11   -1    0    0    0    0  0.00000000000E+00  0.00000000000E+00  0.45593999997E+02  0.45594000000E+02  0.51100000000E-03 0. -1.
         11   -1    0    0    0    0 -0.00000000000E+00 -0.00000000000E+00 -0.45593999997E+02  0.45594000000E+02  0.51100000000E-03 0.  1.
    9900012    2    1    2    0    0 -0.42548359475E+02 -0.34138084461E+01 -0.78489509213E+01  0.47787274054E+02  0.20000013721E+02 0.  0.
         12    1    1    2    0    0  0.42548359475E+02  0.34138084461E+01  0.78489509213E+01  0.43400725946E+02  0.00000000000E+00 0. -1.
         11    1    3    3    0    0  0.71629933049E+00 -0.43470099984E+00 -0.17354812353E+01  0.19271598453E+01  0.51100000000E-03 0. -1.
        -11    1    3    3    0    0 -0.35206399264E+02 -0.16490800405E+01  0.65749636012E+00  0.35251132121E+02  0.51100000000E-03 0.  1.
        -12    1    3    3    0    0 -0.80582595415E+01 -0.13300274058E+01 -0.67709660461E+01  0.10608982088E+02  0.00000000000E+00 0.  1.
</event>
<event>
 7    1  0.4937359E-010  0.4778726E+02  0.7816164E-02  0.1312668E+00
        -11   -1    0    0    0    0  0.00000000000E+00  0.00000000000E+00  0.45593999997E+02  0.45594000000E+02  0.51100000000E-03 0.  1.
         11   -1    0    0    0    0 -0.00000000000E+00 -0.00000000000E+00 -0.45593999997E+02  0.45594000000E+02  0.51100000000E-03 0. -1.
    9900012    2    1    2    0    0 -0.18359249434E+02  0.17669871411E+02  0.35133146900E+02  0.47787257995E+02  0.19999940504E+02 0.  0.
         12    1    1    2    0    0  0.18359249434E+02 -0.17669871411E+02 -0.35133146900E+02  0.43400742005E+02  0.00000000000E+00 0. -1.
         11    1    3    3    0    0  0.13425844283E+01 -0.14989073941E+01  0.37084156521E+01  0.42191946190E+01  0.51100000000E-03 0. -1.
        -11    1    3    3    0    0 -0.15635853293E+02  0.11171342718E+02  0.13379449869E+02  0.23415560753E+02  0.51100000000E-03 0.  1.
        -12    1    3    3    0    0 -0.40659805700E+01  0.79974360867E+01  0.18045281379E+02  0.20152502623E+02  0.00000000000E+00 0.  1.
</event>
<event>
 7    1  0.4937359E-010  0.4778728E+02  0.7816164E-02  0.1312668E+00
        -11   -1    0    0    0    0  0.00000000000E+00  0.00000000000E+00  0.45593999997E+02  0.45594000000E+02  0.51100000000E-03 0.  1.
         11   -1    0    0    0    0 -0.00000000000E+00 -0.00000000000E+00 -0.45593999997E+02  0.45594000000E+02  0.51100000000E-03 0. -1.
    9900012    2    1    2    0    0  0.41224884632E+02 -0.78989171179E+01  0.11033534141E+02  0.47787275579E+02  0.20000020677E+02 0.  0.
         12    1    1    2    0    0 -0.41224884632E+02  0.78989171179E+01 -0.11033534141E+02  0.43400724421E+02  0.00000000000E+00 0. -1.
         11    1    3    3    0    0  0.71618980669E+01 -0.51705833497E+01 -0.33194543366E+01  0.94364449583E+01  0.51100000000E-03 0. -1.
        -11    1    3    3    0    0  0.32248974042E+02 -0.47098451158E+01  0.11848517313E+02  0.34678038159E+02  0.51100000000E-03 0.  1.
        -12    1    3    3    0    0  0.18140125239E+01  0.19815113476E+01  0.25044711648E+01  0.36727924625E+01  0.00000000000E+00 0.  1.
</event>
<event>
 7    1  0.4937359E-010  0.4778727E+02  0.7816164E-02  0.1312668E+00
        -11   -1    0    0    0    0  0.00000000000E+00  0.00000000000E+00  0.45593999997E+02  0.45594000000E+02  0.51100000000E-03 0.  1.
         11   -1    0    0    0    0 -0.00000000000E+00 -0.00000000000E+00 -0.45593999997E+02  0.45594000000E+02  0.51100000000E-03 0. -1.
    9900012    2    1    2    0    0  0.18407427935E+01  0.94944696957E+00  0.43351278965E+02  0.47787272224E+02  0.20000005378E+02 0.  0.
         12    1    1    2    0    0 -0.18407427935E+01 -0.94944696957E+00 -0.43351278965E+02  0.43400727776E+02  0.00000000000E+00 0. -1.
         11    1    3    3    0    0 -0.60547886219E+01 -0.28712282324E+01  0.11150203285E+02  0.13008898892E+02  0.51100000000E-03 0. -1.
        -11    1    3    3    0    0  0.48772440773E+01  0.71312802214E+01  0.22080623342E+02  0.23710685245E+02  0.51100000000E-03 0.  1.
         12    1    3    3    0    0  0.30182873381E+01 -0.33106050194E+01  0.10120452339E+02  0.11067688087E+02  0.00000000000E+00 0. -1.
</event>
<event>
 7    1  0.4937359E-010  0.4778727E+02  0.7816164E-02  0.1312668E+00
        -11   -1    0    0    0    0  0.00000000000E+00  0.00000000000E+00  0.45593999997E+02  0.45594000000E+02  0.51100000000E-03 0.  1.
         11   -1    0    0    0    0 -0.00000000000E+00 -0.00000000000E+00 -0.45593999997E+02  0.45594000000E+02  0.51100000000E-03 0. -1.
    9900012    2    1    2    0    0 -0.83762361806E+01  0.41770771956E+02  0.82864183225E+01  0.47787269005E+02  0.19999990699E+02 0.  0.
         12    1    1    2    0    0  0.83762361806E+01 -0.41770771956E+02 -0.82864183225E+01  0.43400730995E+02  0.00000000000E+00 0. -1.
         11    1    3    3    0    0 -0.16062992319E+00  0.12743122556E+01  0.13882693425E+01  0.18912867909E+01  0.51100000000E-03 0. -1.
        -11    1    3    3    0    0 -0.69611330930E+01  0.24784658179E+02  0.13188535899E+02  0.28925319954E+02  0.51100000000E-03 0.  1.
        -12    1    3    3    0    0 -0.12544731645E+01  0.15711801521E+02 -0.62903869191E+01  0.16970662260E+02  0.00000000000E+00 0.  1.
</event>
<event>
 7    1  0.4937359E-010  0.4778727E+02  0.7816164E-02  0.1312668E+00
        -11   -1    0    0    0    0  0.00000000000E+00  0.00000000000E+00  0.45593999997E+02  0.45594000000E+02  0.51100000000E-03 0.  1.
         11   -1    0    0    0    0 -0.00000000000E+00 -0.00000000000E+00 -0.45593999997E+02  0.45594000000E+02  0.51100000000E-03 0. -1.
    9900012    2    1    2    0    0 -0.72819960977E+01  0.23706901843E+02  0.35617115401E+02  0.47787267614E+02  0.19999984358E+02 0.  0.
         12    1    1    2    0    0  0.72819960977E+01 -0.23706901843E+02 -0.35617115401E+02  0.43400732386E+02  0.00000000000E+00 0. -1.
         11    1    3    3    0    0  0.38988330968E+01  0.40252920241E+01  0.10175050873E+02  0.11616175615E+02  0.51100000000E-03 0. -1.
        -11    1    3    3    0    0 -0.71593452914E+01  0.20039390963E+02  0.18783009294E+02  0.28383707537E+02  0.51100000000E-03 0.  1.
        -12    1    3    3    0    0 -0.40214839032E+01 -0.35778114397E+00  0.66590552341E+01  0.77873844609E+01  0.00000000000E+00 0.  1.
</event>
<event>
 7    1  0.4937359E-010  0.4778727E+02  0.7816164E-02  0.1312668E+00
        -11   -1    0    0    0    0  0.00000000000E+00  0.00000000000E+00  0.45593999997E+02  0.45594000000E+02  0.51100000000E-03 0. -1.
         11   -1    0    0    0    0 -0.00000000000E+00 -0.00000000000E+00 -0.45593999997E+02  0.45594000000E+02  0.51100000000E-03 0.  1.
    9900012    2    1    2    0    0 -0.41455636048E+02 -0.10318521925E+02 -0.76538581153E+01  0.47787271908E+02  0.20000003938E+02 0.  0.
         12    1    1    2    0    0  0.41455636048E+02  0.10318521925E+02  0.76538581153E+01  0.43400728092E+02  0.00000000000E+00 0. -1.
         11    1    3    3    0    0 -0.28154285677E+02 -0.10224172564E+02 -0.27618205849E+01  0.30080311830E+02  0.51100000000E-03 0. -1.
        -11    1    3    3    0    0 -0.54540100825E+01  0.51948561818E+01 -0.26182024168E+01  0.79741921776E+01  0.51100000000E-03 0.  1.
         12    1    3    3    0    0 -0.78473402880E+01 -0.52892055431E+01 -0.22738351136E+01  0.97327679001E+01  0.00000000000E+00 0. -1.
</event>
<event>
 7    1  0.4937359E-010  0.4778725E+02  0.7816164E-02  0.1312668E+00
        -11   -1    0    0    0    0  0.00000000000E+00  0.00000000000E+00  0.45593999997E+02  0.45594000000E+02  0.51100000000E-03 0.  1.
         11   -1    0    0    0    0 -0.00000000000E+00 -0.00000000000E+00 -0.45593999997E+02  0.45594000000E+02  0.51100000000E-03 0. -1.
    9900012    2    1    2    0    0 -0.44447214091E+01  0.12349747376E+02  0.41368506061E+02  0.47787249979E+02  0.19999903956E+02 0.  0.
         12    1    1    2    0    0  0.44447214091E+01 -0.12349747376E+02 -0.41368506061E+02  0.43400750021E+02  0.00000000000E+00 0. -1.
         11    1    3    3    0    0 -0.91859157791E+01  0.20474950435E+01  0.82490968943E+01  0.12514826586E+02  0.51100000000E-03 0. -1.
        -11    1    3    3    0    0  0.53993309485E+01  0.90649914762E+01  0.30857775432E+02  0.32611794646E+02  0.51100000000E-03 0.  1.
         12    1    3    3    0    0 -0.65813657847E+00  0.12372608559E+01  0.22616337342E+01  0.26606287470E+01  0.00000000000E+00 0. -1.
</event>
<event>
 7    1  0.4937359E-010  0.4778727E+02  0.7816164E-02  0.1312668E+00
        -11   -1    0    0    0    0  0.00000000000E+00  0.00000000000E+00  0.45593999997E+02  0.45594000000E+02  0.51100000000E-03 0. -1.
         11   -1    0    0    0    0 -0.00000000000E+00 -0.00000000000E+00 -0.45593999997E+02  0.45594000000E+02  0.51100000000E-03 0.  1.
    9900012    2    1    2    0    0  0.42160390786E+02  0.62916139001E+01 -0.81572180398E+01  0.47787272323E+02  0.20000005831E+02 0.  0.
         12    1    1    2    0    0 -0.42160390786E+02 -0.62916139001E+01  0.81572180398E+01  0.43400727677E+02  0.00000000000E+00 0. -1.
         11    1    3    3    0    0  0.67760787164E+01  0.77440987821E+01 -0.48429003725E+01  0.11372774200E+02  0.51100000000E-03 0. -1.
        -11    1    3    3    0    0  0.24690544637E+02 -0.16193644378E+01 -0.58439515002E+01  0.25424340799E+02  0.51100000000E-03 0.  1.
        -12    1    3    3    0    0  0.10693767433E+02  0.16687955584E+00  0.25296338329E+01  0.10990157325E+02  0.00000000000E+00 0.  1.
</event>
<event>
 7    1  0.4937359E-010  0.4778724E+02  0.7816164E-02  0.1312668E+00
        -11   -1    0    0    0    0  0.00000000000E+00  0.00000000000E+00  0.45593999997E+02  0.45594000000E+02  0.51100000000E-03 0.  1.
         11   -1    0    0    0    0 -0.00000000000E+00 -0.00000000000E+00 -0.45593999997E+02  0.45594000000E+02  0.51100000000E-03 0. -1.
    9900012    2    1    2    0    0 -0.18206451132E+02 -0.22722979554E+02  0.32184118192E+02  0.47787238182E+02  0.19999850166E+02 0.  0.
         12    1    1    2    0    0  0.18206451132E+02  0.22722979554E+02 -0.32184118192E+02  0.43400761818E+02  0.00000000000E+00 0. -1.
         11    1    3    3    0    0 -0.61813629466E+01  0.21450009961E+01  0.93848369319E+01  0.11440517543E+02  0.51100000000E-03 0. -1.
        -11    1    3    3    0    0 -0.98871233143E+01 -0.14909548063E+02  0.16709186620E+02  0.24479516920E+02  0.51100000000E-03 0.  1.
         12    1    3    3    0    0 -0.21379648706E+01 -0.99584324868E+01  0.60900946395E+01  0.11867203719E+02  0.00000000000E+00 0. -1.
</event>
<event>
 7    1  0.4937359E-010  0.4778727E+02  0.7816164E-02  0.1312668E+00
        -11   -1    0    0    0    0  0.00000000000E+00  0.00000000000E+00  0.45593999997E+02  0.45594000000E+02  0.51100000000E-03 0.  1.
         11   -1    0    0    0    0 -0.00000000000E+00 -0.00000000000E+00 -0.45593999997E+02  0.45594000000E+02  0.51100000000E-03 0. -1.
    9900012    2    1    2    0    0  0.13240672540E+02  0.41307199001E+02  0.14224069848E+01  0.47787270280E+02  0.19999996513E+02 0.  0.
         12    1    1    2    0    0 -0.13240672540E+02 -0.41307199001E+02 -0.14224069848E+01  0.43400729720E+02  0.00000000000E+00 0. -1.
         11    1    3    3    0    0  0.18042657393E+01  0.30167601399E+00 -0.72882502342E+00  0.19691545016E+01  0.51100000000E-03 0. -1.
        -11    1    3    3    0    0 -0.19852715896E+01  0.67859350504E+01 -0.46145802176E+01  0.84430189292E+01  0.51100000000E-03 0.  1.
        -12    1    3    3    0    0  0.13421678391E+02  0.34219587937E+02  0.67658122258E+01  0.37375096849E+02  0.00000000000E+00 0.  1.
</event>
<event>
 7    1  0.4937359E-010  0.4778727E+02  0.7816164E-02  0.1312668E+00
        -11   -1    0    0    0    0  0.00000000000E+00  0.00000000000E+00  0.45593999997E+02  0.45594000000E+02  0.51100000000E-03 0.  1.
         11   -1    0    0    0    0 -0.00000000000E+00 -0.00000000000E+00 -0.45593999997E+02  0.45594000000E+02  0.51100000000E-03 0. -1.
    9900012    2    1    2    0    0  0.59107645407E+00 -0.38153972086E+01  0.43228656317E+02  0.47787270119E+02  0.19999995780E+02 0.  0.
         12    1    1    2    0    0 -0.59107645407E+00  0.38153972086E+01 -0.43228656317E+02  0.43400729881E+02  0.00000000000E+00 0. -1.
         11    1    3    3    0    0  0.68217974145E+01 -0.22083663577E+01  0.59195817067E+01  0.92981315208E+01  0.51100000000E-03 0. -1.
        -11    1    3    3    0    0 -0.31202078191E+01 -0.39801609076E+01  0.26852286890E+02  0.27324397325E+02  0.51100000000E-03 0.  1.
         12    1    3    3    0    0 -0.31105131413E+01  0.23731300567E+01  0.10456787720E+02  0.11164741273E+02  0.00000000000E+00 0. -1.
</event>
<event>
 7    1  0.4937359E-010  0.4778727E+02  0.7816164E-02  0.1312668E+00
        -11   -1    0    0    0    0  0.00000000000E+00  0.00000000000E+00  0.45593999997E+02  0.45594000000E+02  0.51100000000E-03 0.  1.
         11   -1    0    0    0    0 -0.00000000000E+00 -0.00000000000E+00 -0.45593999997E+02  0.45594000000E+02  0.51100000000E-03 0. -1.
    9900012    2    1    2    0    0 -0.60849453396E+00 -0.26912856051E+02  0.34043372701E+02  0.47787270614E+02  0.19999998036E+02 0.  0.
         12    1    1    2    0    0  0.60849453396E+00  0.26912856051E+02 -0.34043372701E+02  0.43400729386E+02  0.00000000000E+00 0. -1.
         11    1    3    3    0    0 -0.27197527526E+01 -0.65952112070E+01 -0.50980919626E+00  0.71521864893E+01  0.51100000000E-03 0. -1.
        -11    1    3    3    0    0  0.20588855821E+01 -0.19260883849E+02  0.34511678229E+02  0.39576212438E+02  0.51100000000E-03 0.  1.
        -12    1    3    3    0    0  0.52372636479E-01 -0.10567609950E+01  0.41503667668E-01  0.10588716863E+01  0.00000000000E+00 0.  1.
</event>
<event>
 7    1  0.4937359E-010  0.4778728E+02  0.7816164E-02  0.1312668E+00
        -11   -1    0    0    0    0  0.00000000000E+00  0.00000000000E+00  0.45593999997E+02  0.45594000000E+02  0.51100000000E-03 0.  1.
         11   -1    0    0    0    0 -0.00000000000E+00 -0.00000000000E+00 -0.45593999997E+02  0.45594000000E+02  0.51100000000E-03 0. -1.
    9900012    2    1    2    0    0  0.19635684077E+02  0.29519994221E+01  0.38592076180E+02  0.47787277268E+02  0.20000028377E+02 0.  0.
         12    1    1    2    0    0 -0.19635684077E+02 -0.29519994221E+01 -0.38592076180E+02  0.43400722732E+02  0.00000000000E+00 0. -1.
         11    1    3    3    0    0  0.93572315826E+01 -0.45110290706E+01  0.10004722158E+02  0.14422261677E+02  0.51100000000E-03 0. -1.
        -11    1    3    3    0    0  0.71606004922E+00  0.73382060147E+01  0.15411747673E+02  0.17084612261E+02  0.51100000000E-03 0.  1.
        -12    1    3    3    0    0  0.95623924456E+01  0.12482247798E+00  0.13175606349E+02  0.16280403330E+02  0.00000000000E+00 0.  1.
</event>
<event>
 7    1  0.4937359E-010  0.4778727E+02  0.7816164E-02  0.1312668E+00
        -11   -1    0    0    0    0  0.00000000000E+00  0.00000000000E+00  0.45593999997E+02  0.45594000000E+02  0.51100000000E-03 0. -1.
         11   -1    0    0    0    0 -0.00000000000E+00 -0.00000000000E+00 -0.45593999997E+02  0.45594000000E+02  0.51100000000E-03 0.  1.
    9900012    2    1    2    0    0  0.28601320427E+01  0.22172695603E+01 -0.43249587274E+02  0.47787269142E+02  0.19999991327E+02 0.  0.
         12    1    1    2    0    0 -0.28601320427E+01 -0.22172695603E+01  0.43249587274E+02  0.43400730858E+02  0.00000000000E+00 0. -1.
         11    1    3    3    0    0 -0.39198981384E+01 -0.36902280828E+00 -0.21290119463E+02  0.21651119284E+02  0.51100000000E-03 0. -1.
        -11    1    3    3    0    0  0.40056349247E+01  0.75090961254E+01 -0.12672022529E+02  0.15264723745E+02  0.51100000000E-03 0.  1.
         12    1    3    3    0    0  0.27743952564E+01 -0.49228037568E+01 -0.92874452817E+01  0.10871426113E+02  0.00000000000E+00 0. -1.
</event>
<event>
 7    1  0.4937359E-010  0.4778727E+02  0.7816164E-02  0.1312668E+00
        -11   -1    0    0    0    0  0.00000000000E+00  0.00000000000E+00  0.45593999997E+02  0.45594000000E+02  0.51100000000E-03 0. -1.
         11   -1    0    0    0    0 -0.00000000000E+00 -0.00000000000E+00 -0.45593999997E+02  0.45594000000E+02  0.51100000000E-03 0.  1.
    9900012    2    1    2    0    0  0.19429476659E+02 -0.36111694381E+02 -0.14214922646E+02  0.47787273507E+02  0.20000011227E+02 0.  0.
         12    1    1    2    0    0 -0.19429476659E+02  0.36111694381E+02  0.14214922646E+02  0.43400726493E+02  0.00000000000E+00 0. -1.
         11    1    3    3    0    0 -0.28179782199E+01 -0.36734565956E+01  0.74022680583E+00  0.46886267278E+01  0.51100000000E-03 0. -1.
        -11    1    3    3    0    0  0.38366035090E+01 -0.52731313362E+01 -0.65073468635E+01  0.92125460127E+01  0.51100000000E-03 0.  1.
         12    1    3    3    0    0  0.18410851370E+02 -0.27165106449E+02 -0.84478025881E+01  0.33886100766E+02  0.00000000000E+00 0. -1.
</event>
<event>
 7    1  0.4937359E-010  0.4778725E+02  0.7816164E-02  0.1312668E+00
        -11   -1    0    0    0    0  0.00000000000E+00  0.00000000000E+00  0.45593999997E+02  0.45594000000E+02  0.51100000000E-03 0.  1.
         11   -1    0    0    0    0 -0.00000000000E+00 -0.00000000000E+00 -0.45593999997E+02  0.45594000000E+02  0.51100000000E-03 0. -1.
    9900012    2    1    2    0    0  0.32867529067E+02  0.66194123263E+01  0.27559641715E+02  0.47787251873E+02  0.19999912590E+02 0.  0.
         12    1    1    2    0    0 -0.32867529067E+02 -0.66194123263E+01 -0.27559641715E+02  0.43400748127E+02  0.00000000000E+00 0. -1.
         11    1    3    3    0    0  0.23474481209E+02 -0.38145829628E+01  0.15407627468E+02  0.28337206914E+02  0.51100000000E-03 0.  1.
        -11    1    3    3    0    0  0.92930647065E+01  0.10531553978E+02  0.98766760263E+01  0.17170422546E+02  0.51100000000E-03 0. -1.
        -12    1    3    3    0    0  0.99983151194E-01 -0.97558688628E-01  0.22753382205E+01  0.22796224130E+01  0.00000000000E+00 0.  1.
</event>
<event>
 7    1  0.4937359E-010  0.4778727E+02  0.7816164E-02  0.1312668E+00
        -11   -1    0    0    0    0  0.00000000000E+00  0.00000000000E+00  0.45593999997E+02  0.45594000000E+02  0.51100000000E-03 0.  1.
         11   -1    0    0    0    0 -0.00000000000E+00 -0.00000000000E+00 -0.45593999997E+02  0.45594000000E+02  0.51100000000E-03 0. -1.
    9900012    2    1    2    0    0  0.33458731499E+02 -0.18260356854E+02 -0.20753211017E+02  0.47787272892E+02  0.20000008425E+02 0.  0.
         12    1    1    2    0    0 -0.33458731499E+02  0.18260356854E+02  0.20753211017E+02  0.43400727108E+02  0.00000000000E+00 0. -1.
         11    1    3    3    0    0  0.12157415987E+02 -0.64019680636E+01 -0.17661290512E+02  0.22376531040E+02  0.51100000000E-03 0. -1.
        -11    1    3    3    0    0  0.12712137096E+02 -0.10509718488E+02 -0.14008930138E+01  0.16553401878E+02  0.51100000000E-03 0.  1.
         12    1    3    3    0    0  0.85891784165E+01 -0.13486703024E+01 -0.16910274918E+01  0.88573399750E+01  0.00000000000E+00 0. -1.
</event>
<event>
 7    1  0.4937359E-010  0.4778728E+02  0.7816164E-02  0.1312668E+00
        -11   -1    0    0    0    0  0.00000000000E+00  0.00000000000E+00  0.45593999997E+02  0.45594000000E+02  0.51100000000E-03 0. -1.
         11   -1    0    0    0    0 -0.00000000000E+00 -0.00000000000E+00 -0.45593999997E+02  0.45594000000E+02  0.51100000000E-03 0.  1.
    9900012    2    1    2    0    0 -0.13818515040E+02  0.53511741743E+01 -0.40792594808E+02  0.47787283254E+02  0.20000055666E+02 0.  0.
         12    1    1    2    0    0  0.13818515040E+02 -0.53511741743E+01  0.40792594808E+02  0.43400716746E+02  0.00000000000E+00 0. -1.
         11    1    3    3    0    0 -0.15328361861E+02 -0.24550531609E+00 -0.24730761837E+02  0.29096899002E+02  0.51100000000E-03 0. -1.
        -11    1    3    3    0    0  0.40282187022E+01  0.20946780650E+01 -0.46886508531E+01  0.65266889915E+01  0.51100000000E-03 0.  1.
        -12    1    3    3    0    0 -0.25183718816E+01  0.35020014254E+01 -0.11373182117E+02  0.12163695260E+02  0.00000000000E+00 0.  1.
</event>
<event>
 7    1  0.4937359E-010  0.4778725E+02  0.7816164E-02  0.1312668E+00
        -11   -1    0    0    0    0  0.00000000000E+00  0.00000000000E+00  0.45593999997E+02  0.45594000000E+02  0.51100000000E-03 0.  1.
         11   -1    0    0    0    0 -0.00000000000E+00 -0.00000000000E+00 -0.45593999997E+02  0.45594000000E+02  0.51100000000E-03 0. -1.
    9900012    2    1    2    0    0 -0.12461094329E+02  0.18406889464E+02  0.37276430423E+02  0.47787254423E+02  0.19999924215E+02 0.  0.
         12    1    1    2    0    0  0.12461094329E+02 -0.18406889464E+02 -0.37276430423E+02  0.43400745577E+02  0.00000000000E+00 0. -1.
         11    1    3    3    0    0 -0.55522770787E+01 -0.96973584468E+00  0.73671604493E+00  0.56842694481E+01  0.51100000000E-03 0. -1.
        -11    1    3    3    0    0 -0.43227038104E+01  0.14445743297E+02  0.23465728595E+02  0.27892753295E+02  0.51100000000E-03 0.  1.
         12    1    3    3    0    0 -0.25861134398E+01  0.49308820110E+01  0.13073985783E+02  0.14210231679E+02  0.00000000000E+00 0. -1.
</event>
<event>
 7    1  0.4937359E-010  0.4778725E+02  0.7816164E-02  0.1312668E+00
        -11   -1    0    0    0    0  0.00000000000E+00  0.00000000000E+00  0.45593999997E+02  0.45594000000E+02  0.51100000000E-03 0.  1.
         11   -1    0    0    0    0 -0.00000000000E+00 -0.00000000000E+00 -0.45593999997E+02  0.45594000000E+02  0.51100000000E-03 0. -1.
    9900012    2    1    2    0    0 -0.29832030621E+02 -0.95032910210E+01  0.30055989445E+02  0.47787250090E+02  0.19999904461E+02 0.  0.
         12    1    1    2    0    0  0.29832030621E+02  0.95032910210E+01 -0.30055989445E+02  0.43400749910E+02  0.00000000000E+00 0. -1.
         11    1    3    3    0    0 -0.23154772578E+01  0.15737711530E+00  0.21928729473E+01  0.31929444893E+01  0.51100000000E-03 0. -1.
        -11    1    3    3    0    0 -0.20526991714E+02  0.19927953427E+01  0.12641749252E+02  0.24189717785E+02  0.51100000000E-03 0.  1.
        -12    1    3    3    0    0 -0.69895616493E+01 -0.11653463479E+02  0.15221367246E+02  0.20404587816E+02  0.00000000000E+00 0.  1.
</event>
<event>
 7    1  0.4937359E-010  0.4778729E+02  0.7816164E-02  0.1312668E+00
        -11   -1    0    0    0    0  0.00000000000E+00  0.00000000000E+00  0.45593999997E+02  0.45594000000E+02  0.51100000000E-03 0. -1.
         11   -1    0    0    0    0 -0.00000000000E+00 -0.00000000000E+00 -0.45593999997E+02  0.45594000000E+02  0.51100000000E-03 0.  1.
    9900012    2    1    2    0    0  0.38491405141E+02  0.15112556635E+02 -0.13177412482E+02  0.47787287593E+02  0.20000075449E+02 0.  0.
         12    1    1    2    0    0 -0.38491405141E+02 -0.15112556635E+02  0.13177412482E+02  0.43400712407E+02  0.00000000000E+00 0. -1.
         11    1    3    3    0    0 -0.69228295794E+00  0.44292199175E+01 -0.35285666346E+01  0.57050878632E+01  0.51100000000E-03 0. -1.
        -11    1    3    3    0    0  0.17850613678E+02  0.22354052215E+01 -0.49877906937E+01  0.18668677014E+02  0.51100000000E-03 0.  1.
         12    1    3    3    0    0  0.21333074421E+02  0.84479314959E+01 -0.46610551536E+01  0.23413522715E+02  0.00000000000E+00 0. -1.
</event>
<event>
 7    1  0.4937359E-010  0.4778727E+02  0.7816164E-02  0.1312668E+00
        -11   -1    0    0    0    0  0.00000000000E+00  0.00000000000E+00  0.45593999997E+02  0.45594000000E+02  0.51100000000E-03 0.  1.
         11   -1    0    0    0    0 -0.00000000000E+00 -0.00000000000E+00 -0.45593999997E+02  0.45594000000E+02  0.51100000000E-03 0. -1.
    9900012    2    1    2    0    0  0.17738231218E+02 -0.37505117161E+02  0.12741456035E+02  0.47787270031E+02  0.19999995378E+02 0.  0.
         12    1    1    2    0    0 -0.17738231218E+02  0.37505117161E+02 -0.12741456035E+02  0.43400729969E+02  0.00000000000E+00 0. -1.
         11    1    3    3    0    0  0.30333981462E+01 -0.65304844811E+01  0.85257539537E+01  0.11159624215E+02  0.51100000000E-03 0. -1.
        -11    1    3    3    0    0  0.68134599360E+01 -0.23481239020E+02 -0.11858261688E+01  0.24478521323E+02  0.51100000000E-03 0.  1.
        -12    1    3    3    0    0  0.78913731358E+01 -0.74933936598E+01  0.54015282505E+01  0.12149124493E+02  0.00000000000E+00 0.  1.
</event>
<event>
 7    1  0.4937359E-010  0.4778727E+02  0.7816164E-02  0.1312668E+00
        -11   -1    0    0    0    0  0.00000000000E+00  0.00000000000E+00  0.45593999997E+02  0.45594000000E+02  0.51100000000E-03 0.  1.
         11   -1    0    0    0    0 -0.00000000000E+00 -0.00000000000E+00 -0.45593999997E+02  0.45594000000E+02  0.51100000000E-03 0. -1.
    9900012    2    1    2    0    0  0.36875668780E+02 -0.22831560600E+02  0.15900044028E+01  0.47787271649E+02  0.20000002756E+02 0.  0.
         12    1    1    2    0    0 -0.36875668780E+02  0.22831560600E+02 -0.15900044028E+01  0.43400728351E+02  0.00000000000E+00 0. -1.
         11    1    3    3    0    0  0.18901844809E+02 -0.16446172773E+02  0.44492749071E+01  0.25447050586E+02  0.51100000000E-03 0. -1.
        -11    1    3    3    0    0  0.18122265581E+02 -0.26459891924E+01 -0.15681918512E+01  0.18381430699E+02  0.51100000000E-03 0.  1.
         12    1    3    3    0    0 -0.14844160994E+00 -0.37393986345E+01 -0.12910786531E+01  0.39587903642E+01  0.00000000000E+00 0. -1.
</event>
<event>
 7    1  0.4937359E-010  0.4778727E+02  0.7816164E-02  0.1312668E+00
        -11   -1    0    0    0    0  0.00000000000E+00  0.00000000000E+00  0.45593999997E+02  0.45594000000E+02  0.51100000000E-03 0. -1.
         11   -1    0    0    0    0 -0.00000000000E+00 -0.00000000000E+00 -0.45593999997E+02  0.45594000000E+02  0.51100000000E-03 0.  1.
    9900012    2    1    2    0    0  0.55463537060E+01  0.39818959090E+02 -0.16349672916E+02  0.47787270203E+02  0.19999996164E+02 0.  0.
         12    1    1    2    0    0 -0.55463537060E+01 -0.39818959090E+02  0.16349672916E+02  0.43400729797E+02  0.00000000000E+00 0. -1.
         11    1    3    3    0    0  0.55707001245E+01  0.60928169649E+01 -0.92623360696E+01  0.12407497257E+02  0.51100000000E-03 0. -1.
        -11    1    3    3    0    0 -0.22655928493E+01  0.31202385425E+02 -0.62628886478E+01  0.31905258840E+02  0.51100000000E-03 0.  1.
        -12    1    3    3    0    0  0.22412464308E+01  0.25237566999E+01 -0.82444819815E+00  0.34745141064E+01  0.00000000000E+00 0.  1.
</event>
<event>
 7    1  0.4937359E-010  0.4778728E+02  0.7816164E-02  0.1312668E+00
        -11   -1    0    0    0    0  0.00000000000E+00  0.00000000000E+00  0.45593999997E+02  0.45594000000E+02  0.51100000000E-03 0.  1.
         11   -1    0    0    0    0 -0.00000000000E+00 -0.00000000000E+00 -0.45593999997E+02  0.45594000000E+02  0.51100000000E-03 0. -1.
    9900012    2    1    2    0    0 -0.17483242118E+02  0.24345655201E+02  0.31388663057E+02  0.47787275921E+02  0.20000022234E+02 0.  0.
         12    1    1    2    0    0  0.17483242118E+02 -0.24345655201E+02 -0.31388663057E+02  0.43400724079E+02  0.00000000000E+00 0. -1.
         11    1    3    3    0    0 -0.48601830188E+01  0.89158406570E+01  0.19693422733E+02  0.22157267269E+02  0.51100000000E-03 0. -1.
        -11    1    3    3    0    0 -0.12742019367E+02  0.15066863097E+02  0.70272220575E+01  0.20946390411E+02  0.51100000000E-03 0.  1.
        -12    1    3    3    0    0  0.11896026870E+00  0.36295144647E+00  0.46680182658E+01  0.46836182410E+01  0.00000000000E+00 0.  1.
</event>
<event>
 7    1  0.4937359E-010  0.4778727E+02  0.7816164E-02  0.1312668E+00
        -11   -1    0    0    0    0  0.00000000000E+00  0.00000000000E+00  0.45593999997E+02  0.45594000000E+02  0.51100000000E-03 0. -1.
         11   -1    0    0    0    0 -0.00000000000E+00 -0.00000000000E+00 -0.45593999997E+02  0.45594000000E+02  0.51100000000E-03 0.  1.
    9900012    2    1    2    0    0  0.11274582667E+02  0.34984352905E+02 -0.23078181709E+02  0.47787266901E+02  0.19999981109E+02 0.  0.
         12    1    1    2    0    0 -0.11274582667E+02 -0.34984352905E+02  0.23078181709E+02  0.43400733099E+02  0.00000000000E+00 0. -1.
         11    1    3    3    0    0  0.10631199795E+02  0.12672404274E+02 -0.15148669520E+02  0.22429766554E+02  0.51100000000E-03 0. -1.
        -11    1    3    3    0    0  0.31704063666E+01  0.16216364761E+02 -0.22978544443E+01  0.16682388855E+02  0.51100000000E-03 0.  1.
        -12    1    3    3    0    0 -0.25270234943E+01  0.60955838703E+01 -0.56316577445E+01  0.86751114928E+01  0.00000000000E+00 0.  1.
</event>
<event>
 7    1  0.4937359E-010  0.4778727E+02  0.7816164E-02  0.1312668E+00
        -11   -1    0    0    0    0  0.00000000000E+00  0.00000000000E+00  0.45593999997E+02  0.45594000000E+02  0.51100000000E-03 0.  1.
         11   -1    0    0    0    0 -0.00000000000E+00 -0.00000000000E+00 -0.45593999997E+02  0.45594000000E+02  0.51100000000E-03 0. -1.
    9900012    2    1    2    0    0  0.28752711873E+02 -0.90162517303E+01  0.31234787911E+02  0.47787271767E+02  0.20000003296E+02 0.  0.
         12    1    1    2    0    0 -0.28752711873E+02  0.90162517303E+01 -0.31234787911E+02  0.43400728233E+02  0.00000000000E+00 0. -1.
         11    1    3    3    0    0  0.91367728618E+01 -0.24675234979E+01  0.47630917711E+01  0.10595108967E+02  0.51100000000E-03 0. -1.
        -11    1    3    3    0    0  0.15374567965E+01 -0.47868536205E+01 -0.72298928384E-01  0.50282172170E+01  0.51100000000E-03 0.  1.
        -12    1    3    3    0    0  0.18078482215E+02 -0.17618746119E+01  0.26543995068E+02  0.32163945583E+02  0.00000000000E+00 0.  1.
</event>
<event>
 7    1  0.4937359E-010  0.4778727E+02  0.7816164E-02  0.1312668E+00
        -11   -1    0    0    0    0  0.00000000000E+00  0.00000000000E+00  0.45593999997E+02  0.45594000000E+02  0.51100000000E-03 0.  1.
         11   -1    0    0    0    0 -0.00000000000E+00 -0.00000000000E+00 -0.45593999997E+02  0.45594000000E+02  0.51100000000E-03 0. -1.
    9900012    2    1    2    0    0  0.19396832298E+02  0.30681789929E+02  0.23791048584E+02  0.47787270408E+02  0.19999997097E+02 0.  0.
         12    1    1    2    0    0 -0.19396832298E+02 -0.30681789929E+02 -0.23791048584E+02  0.43400729592E+02  0.00000000000E+00 0. -1.
         11    1    3    3    0    0  0.10432491960E+02  0.16768142816E+02  0.52664245204E+01  0.20438755575E+02  0.51100000000E-03 0. -1.
        -11    1    3    3    0    0  0.93067842060E+01  0.48082414077E+01  0.12989577534E+02  0.16687256889E+02  0.51100000000E-03 0.  1.
         12    1    3    3    0    0 -0.34244386749E+00  0.91054057053E+01  0.55350465292E+01  0.10661257944E+02  0.00000000000E+00 0. -1.
</event>
<event>
 7    1  0.4937359E-010  0.4778727E+02  0.7816164E-02  0.1312668E+00
        -11   -1    0    0    0    0  0.00000000000E+00  0.00000000000E+00  0.45593999997E+02  0.45594000000E+02  0.51100000000E-03 0. -1.
         11   -1    0    0    0    0 -0.00000000000E+00 -0.00000000000E+00 -0.45593999997E+02  0.45594000000E+02  0.51100000000E-03 0.  1.
    9900012    2    1    2    0    0 -0.15553464671E+02 -0.34498950363E+02  0.21249361708E+02  0.47787271753E+02  0.20000003229E+02 0.  0.
         12    1    1    2    0    0  0.15553464671E+02  0.34498950363E+02 -0.21249361708E+02  0.43400728247E+02  0.00000000000E+00 0. -1.
         11    1    3    3    0    0  0.20277064355E+01 -0.13067012024E+01  0.25331117127E+01  0.34979589236E+01  0.51100000000E-03 0. -1.
        -11    1    3    3    0    0 -0.17774258811E+02 -0.26053189714E+02  0.19538467933E+02  0.37100467652E+02  0.51100000000E-03 0.  1.
        -12    1    3    3    0    0  0.19308770471E+00 -0.71390594468E+01 -0.82221793775E+00  0.71888451773E+01  0.00000000000E+00 0.  1.
</event>
<event>
 7    1  0.4937359E-010  0.4778727E+02  0.7816164E-02  0.1312668E+00
        -11   -1    0    0    0    0  0.00000000000E+00  0.00000000000E+00  0.45593999997E+02  0.45594000000E+02  0.51100000000E-03 0.  1.
         11   -1    0    0    0    0 -0.00000000000E+00 -0.00000000000E+00 -0.45593999997E+02  0.45594000000E+02  0.51100000000E-03 0. -1.
    9900012    2    1    2    0    0 -0.31178001641E+02  0.11790415558E+02  0.27794633483E+02  0.47787270331E+02  0.19999996745E+02 0.  0.
         12    1    1    2    0    0  0.31178001641E+02 -0.11790415558E+02 -0.27794633483E+02  0.43400729669E+02  0.00000000000E+00 0. -1.
         11    1    3    3    0    0 -0.48709657890E+01  0.49820350685E+01  0.12638275318E+02  0.14431666031E+02  0.51100000000E-03 0. -1.
        -11    1    3    3    0    0 -0.12669604011E+02  0.19896088915E+01  0.60561448350E+00  0.12839165802E+02  0.51100000000E-03 0.  1.
        -12    1    3    3    0    0 -0.13637431842E+02  0.48187715979E+01  0.14550743681E+02  0.20516438498E+02  0.00000000000E+00 0.  1.
</event>
<event>
 7    1  0.4937359E-010  0.4778727E+02  0.7816164E-02  0.1312668E+00
        -11   -1    0    0    0    0  0.00000000000E+00  0.00000000000E+00  0.45593999997E+02  0.45594000000E+02  0.51100000000E-03 0. -1.
         11   -1    0    0    0    0 -0.00000000000E+00 -0.00000000000E+00 -0.45593999997E+02  0.45594000000E+02  0.51100000000E-03 0.  1.
    9900012    2    1    2    0    0  0.35656587694E+02  0.12648609912E+02 -0.21266023001E+02  0.47787270593E+02  0.19999997944E+02 0.  0.
         12    1    1    2    0    0 -0.35656587694E+02 -0.12648609912E+02  0.21266023001E+02  0.43400729407E+02  0.00000000000E+00 0. -1.
         11    1    3    3    0    0  0.64613057035E+01  0.35717877042E+01 -0.99620884332E+01  0.12399570356E+02  0.51100000000E-03 0. -1.
        -11    1    3    3    0    0  0.28509086088E+02  0.81760277405E+01 -0.13751201383E+02  0.32691144962E+02  0.51100000000E-03 0.  1.
        -12    1    3    3    0    0  0.68619590330E+00  0.90079446743E+00  0.24472668152E+01  0.26965552757E+01  0.00000000000E+00 0.  1.
</event>
<event>
 7    1  0.4937359E-010  0.4778727E+02  0.7816164E-02  0.1312668E+00
        -11   -1    0    0    0    0  0.00000000000E+00  0.00000000000E+00  0.45593999997E+02  0.45594000000E+02  0.51100000000E-03 0.  1.
         11   -1    0    0    0    0 -0.00000000000E+00 -0.00000000000E+00 -0.45593999997E+02  0.45594000000E+02  0.51100000000E-03 0. -1.
    9900012    2    1    2    0    0 -0.23688595453E+02  0.33076052130E+02  0.15114514992E+02  0.47787270254E+02  0.19999996394E+02 0.  0.
         12    1    1    2    0    0  0.23688595453E+02 -0.33076052130E+02 -0.15114514992E+02  0.43400729746E+02  0.00000000000E+00 0. -1.
         11    1    3    3    0    0 -0.80081668223E+01  0.66438555341E+01 -0.38172788521E+01  0.11083463823E+02  0.51100000000E-03 0. -1.
        -11    1    3    3    0    0 -0.66394145676E+01  0.62326448306E+01  0.36553955304E+01  0.98127266409E+01  0.51100000000E-03 0.  1.
         12    1    3    3    0    0 -0.90410140633E+01  0.20199551766E+02  0.15276398314E+02  0.26891079790E+02  0.00000000000E+00 0. -1.
</event>
<event>
 7    1  0.5218556E-010  0.4778727E+02  0.7816164E-02  0.1312668E+00
        -11   -1    0    0    0    0  0.00000000000E+00  0.00000000000E+00  0.45593999997E+02  0.45594000000E+02  0.51100000000E-03 0. -1.
         11   -1    0    0    0    0 -0.00000000000E+00 -0.00000000000E+00 -0.45593999997E+02  0.45594000000E+02  0.51100000000E-03 0.  1.
    9900012    2    1    2    0    0  0.32025014663E+02  0.22842004721E+02 -0.18337522667E+02  0.47787268654E+02  0.19999989099E+02 0.  0.
         12    1    1    2    0    0 -0.32025014663E+02 -0.22842004721E+02  0.18337522667E+02  0.43400731346E+02  0.00000000000E+00 0. -1.
         11    1    3    3    0    0  0.27126774671E+01 -0.26635348683E+01 -0.26484759154E+01  0.46332992534E+01  0.51100000000E-03 0. -1.
        -11    1    3    3    0    0  0.20712874311E+02  0.21508995701E+02 -0.15557223660E+02  0.33670272743E+02  0.51100000000E-03 0.  1.
        -12    1    3    3    0    0  0.85994628846E+01  0.39965438886E+01 -0.13182309077E+00  0.94836966571E+01  0.00000000000E+00 0.  1.
</event>
<event>
 7    1  0.4937359E-010  0.4778727E+02  0.7816164E-02  0.1312668E+00
        -11   -1    0    0    0    0  0.00000000000E+00  0.00000000000E+00  0.45593999997E+02  0.45594000000E+02  0.51100000000E-03 0.  1.
         11   -1    0    0    0    0 -0.00000000000E+00 -0.00000000000E+00 -0.45593999997E+02  0.45594000000E+02  0.51100000000E-03 0. -1.
    9900012    2    1    2    0    0 -0.28538968212E+02  0.16157930902E+02  0.28426605113E+02  0.47787270560E+02  0.19999997793E+02 0.  0.
         12    1    1    2    0    0  0.28538968212E+02 -0.16157930902E+02 -0.28426605113E+02  0.43400729440E+02  0.00000000000E+00 0. -1.
         11    1    3    3    0    0  0.13931694630E+01  0.19089875984E+01  0.18065759320E+00  0.23701882269E+01  0.51100000000E-03 0. -1.
        -11    1    3    3    0    0 -0.27967463341E+02  0.12393428804E+02  0.29446296785E+02  0.42460104543E+02  0.51100000000E-03 0.  1.
         12    1    3    3    0    0 -0.19646743340E+01  0.18555144997E+01 -0.12003492643E+01  0.29569777905E+01  0.00000000000E+00 0. -1.
</event>
<event>
 7    1  0.4937359E-010  0.4778727E+02  0.7816164E-02  0.1312668E+00
        -11   -1    0    0    0    0  0.00000000000E+00  0.00000000000E+00  0.45593999997E+02  0.45594000000E+02  0.51100000000E-03 0. -1.
         11   -1    0    0    0    0 -0.00000000000E+00 -0.00000000000E+00 -0.45593999997E+02  0.45594000000E+02  0.51100000000E-03 0.  1.
    9900012    2    1    2    0    0 -0.12062425034E+02  0.14236334529E+02 -0.39184790341E+02  0.47787272903E+02  0.20000008473E+02 0.  0.
         12    1    1    2    0    0  0.12062425034E+02 -0.14236334529E+02  0.39184790341E+02  0.43400727097E+02  0.00000000000E+00 0. -1.
         11    1    3    3    0    0 -0.39084072873E+00 -0.32749476076E+01 -0.14761343844E+02  0.15125320183E+02  0.51100000000E-03 0. -1.
        -11    1    3    3    0    0 -0.67000355560E+01  0.61236340929E+01 -0.12439052923E+02  0.15398682048E+02  0.51100000000E-03 0.  1.
         12    1    3    3    0    0 -0.49715487490E+01  0.11387648043E+02 -0.11984393575E+02  0.17263270672E+02  0.00000000000E+00 0. -1.
</event>
<event>
 7    1  0.4937359E-010  0.4778727E+02  0.7816164E-02  0.1312668E+00
        -11   -1    0    0    0    0  0.00000000000E+00  0.00000000000E+00  0.45593999997E+02  0.45594000000E+02  0.51100000000E-03 0.  1.
         11   -1    0    0    0    0 -0.00000000000E+00 -0.00000000000E+00 -0.45593999997E+02  0.45594000000E+02  0.51100000000E-03 0. -1.
    9900012    2    1    2    0    0 -0.32303383096E+02  0.27541378165E+02  0.90325605717E+01  0.47787271652E+02  0.20000002768E+02 0.  0.
         12    1    1    2    0    0  0.32303383096E+02 -0.27541378165E+02 -0.90325605717E+01  0.43400728348E+02  0.00000000000E+00 0. -1.
         11    1    3    3    0    0 -0.30073021611E+00  0.67594101982E+00 -0.66393803168E+00  0.99405678721E+00  0.51100000000E-03 0. -1.
        -11    1    3    3    0    0 -0.17539055391E+02  0.25516454438E+02  0.41318219443E+01  0.31237475313E+02  0.51100000000E-03 0.  1.
        -12    1    3    3    0    0 -0.14463597489E+02  0.13489827073E+01  0.55646766590E+01  0.15555739551E+02  0.00000000000E+00 0.  1.
</event>
<event>
 7    1  0.4937359E-010  0.4778727E+02  0.7816164E-02  0.1312668E+00
        -11   -1    0    0    0    0  0.00000000000E+00  0.00000000000E+00  0.45593999997E+02  0.45594000000E+02  0.51100000000E-03 0.  1.
         11   -1    0    0    0    0 -0.00000000000E+00 -0.00000000000E+00 -0.45593999997E+02  0.45594000000E+02  0.51100000000E-03 0. -1.
    9900012    2    1    2    0    0 -0.32015020593E+00 -0.36139377515E+01  0.43248818857E+02  0.47787269882E+02  0.19999994700E+02 0.  0.
         12    1    1    2    0    0  0.32015020593E+00  0.36139377515E+01 -0.43248818857E+02  0.43400730118E+02  0.00000000000E+00 0. -1.
         11    1    3    3    0    0  0.46046290242E+01 -0.24949313417E+01  0.23759679900E+01  0.57508708037E+01  0.51100000000E-03 0. -1.
        -11    1    3    3    0    0  0.69671356442E+00  0.25096257655E+01  0.62164412907E+01  0.67400128973E+01  0.51100000000E-03 0.  1.
         12    1    3    3    0    0 -0.56214927946E+01 -0.36286321753E+01  0.34656409577E+02  0.35296386181E+02  0.00000000000E+00 0. -1.
</event>
<event>
 7    1  0.4937359E-010  0.4778726E+02  0.7816164E-02  0.1312668E+00
        -11   -1    0    0    0    0  0.00000000000E+00  0.00000000000E+00  0.45593999997E+02  0.45594000000E+02  0.51100000000E-03 0.  1.
         11   -1    0    0    0    0 -0.00000000000E+00 -0.00000000000E+00 -0.45593999997E+02  0.45594000000E+02  0.51100000000E-03 0. -1.
    9900012    2    1    2    0    0 -0.44543309679E+01  0.20975007501E+02  0.37733702047E+02  0.47787259520E+02  0.19999947454E+02 0.  0.
         12    1    1    2    0    0  0.44543309679E+01 -0.20975007501E+02 -0.37733702047E+02  0.43400740480E+02  0.00000000000E+00 0. -1.
         11    1    3    3    0    0 -0.30589581874E+01  0.40162304211E+01 -0.66940479445E-01  0.50489417977E+01  0.51100000000E-03 0. -1.
        -11    1    3    3    0    0  0.35551013359E+01  0.68132237666E+01  0.22118749456E+02  0.23415760533E+02  0.51100000000E-03 0.  1.
        -12    1    3    3    0    0 -0.49504741164E+01  0.10145553314E+02  0.15681893071E+02  0.19322557189E+02  0.00000000000E+00 0.  1.
</event>
<event>
 7    1  0.4937359E-010  0.4778727E+02  0.7816164E-02  0.1312668E+00
        -11   -1    0    0    0    0  0.00000000000E+00  0.00000000000E+00  0.45593999997E+02  0.45594000000E+02  0.51100000000E-03 0.  1.
         11   -1    0    0    0    0 -0.00000000000E+00 -0.00000000000E+00 -0.45593999997E+02  0.45594000000E+02  0.51100000000E-03 0. -1.
    9900012    2    1    2    0    0 -0.37872148597E+01 -0.34597735374E+02  0.25928303353E+02  0.47787271847E+02  0.20000003660E+02 0.  0.
         12    1    1    2    0    0  0.37872148597E+01  0.34597735374E+02 -0.25928303353E+02  0.43400728153E+02  0.00000000000E+00 0. -1.
         11    1    3    3    0    0  0.18333827247E+00  0.11413051932E+01  0.27150512352E+00  0.11873945256E+01  0.51100000000E-03 0. -1.
        -11    1    3    3    0    0 -0.39611192670E+01 -0.12819482602E+01  0.11586051000E+01  0.43215996145E+01  0.51100000000E-03 0.  1.
        -12    1    3    3    0    0 -0.94338651735E-02 -0.34457092307E+02  0.24498193130E+02  0.42278277707E+02  0.00000000000E+00 0.  1.
</event>
<event>
 7    1  0.4937359E-010  0.4778727E+02  0.7816164E-02  0.1312668E+00
        -11   -1    0    0    0    0  0.00000000000E+00  0.00000000000E+00  0.45593999997E+02  0.45594000000E+02  0.51100000000E-03 0. -1.
         11   -1    0    0    0    0 -0.00000000000E+00 -0.00000000000E+00 -0.45593999997E+02  0.45594000000E+02  0.51100000000E-03 0.  1.
    9900012    2    1    2    0    0 -0.28617248949E+02  0.11106413849E+02 -0.30681000414E+02  0.47787272444E+02  0.20000006383E+02 0.  0.
         12    1    1    2    0    0  0.28617248949E+02 -0.11106413849E+02  0.30681000414E+02  0.43400727556E+02  0.00000000000E+00 0. -1.
         11    1    3    3    0    0 -0.89888381653E+00  0.77692860993E+01 -0.65732470462E+01  0.10216524634E+02  0.51100000000E-03 0. -1.
        -11    1    3    3    0    0 -0.27913269052E+02  0.39186418422E+01 -0.23763245042E+02  0.36867304732E+02  0.51100000000E-03 0.  1.
        -12    1    3    3    0    0  0.19490391936E+00 -0.58151409258E+00 -0.34450832560E+00  0.70344307805E+00  0.00000000000E+00 0.  1.
</event>
<event>
 7    1  0.4937359E-010  0.4778727E+02  0.7816164E-02  0.1312668E+00
        -11   -1    0    0    0    0  0.00000000000E+00  0.00000000000E+00  0.45593999997E+02  0.45594000000E+02  0.51100000000E-03 0. -1.
         11   -1    0    0    0    0 -0.00000000000E+00 -0.00000000000E+00 -0.45593999997E+02  0.45594000000E+02  0.51100000000E-03 0.  1.
    9900012    2    1    2    0    0 -0.29567395180E+02  0.26069709765E+02 -0.18159366404E+02  0.47787271744E+02  0.20000003189E+02 0.  0.
         12    1    1    2    0    0  0.29567395180E+02 -0.26069709765E+02  0.18159366404E+02  0.43400728256E+02  0.00000000000E+00 0. -1.
         11    1    3    3    0    0 -0.37564727731E+01  0.11877322498E+02 -0.93925148723E+01  0.15601320883E+02  0.51100000000E-03 0. -1.
        -11    1    3    3    0    0 -0.19721657950E+02  0.10438907824E+02 -0.10742151343E+02  0.24765064195E+02  0.51100000000E-03 0.  1.
         12    1    3    3    0    0 -0.60892644567E+01  0.37534794431E+01  0.19752998111E+01  0.74208866652E+01  0.00000000000E+00 0. -1.
</event>
<event>
 7    1  0.4937359E-010  0.4778727E+02  0.7816164E-02  0.1312668E+00
        -11   -1    0    0    0    0  0.00000000000E+00  0.00000000000E+00  0.45593999997E+02  0.45594000000E+02  0.51100000000E-03 0. -1.
         11   -1    0    0    0    0 -0.00000000000E+00 -0.00000000000E+00 -0.45593999997E+02  0.45594000000E+02  0.51100000000E-03 0.  1.
    9900012    2    1    2    0    0 -0.38178466125E+02 -0.11389553496E+02 -0.17213539790E+02  0.47787272395E+02  0.20000006159E+02 0.  0.
         12    1    1    2    0    0  0.38178466125E+02  0.11389553496E+02  0.17213539790E+02  0.43400727605E+02  0.00000000000E+00 0. -1.
         11    1    3    3    0    0 -0.22631537645E+02  0.24080070049E+01 -0.72330733398E+01  0.23881003834E+02  0.51100000000E-03 0. -1.
        -11    1    3    3    0    0 -0.14957188964E+02 -0.13174932911E+02 -0.75251593584E+01  0.21305501227E+02  0.51100000000E-03 0.  1.
         12    1    3    3    0    0 -0.58973951678E+00 -0.62262759035E+00 -0.24553070917E+01  0.26007673346E+01  0.00000000000E+00 0. -1.
</event>
<event>
 7    1  0.4937359E-010  0.4778727E+02  0.7816164E-02  0.1312668E+00
        -11   -1    0    0    0    0  0.00000000000E+00  0.00000000000E+00  0.45593999997E+02  0.45594000000E+02  0.51100000000E-03 0. -1.
         11   -1    0    0    0    0 -0.00000000000E+00 -0.00000000000E+00 -0.45593999997E+02  0.45594000000E+02  0.51100000000E-03 0.  1.
    9900012    2    1    2    0    0  0.23702685556E+02 -0.89263123554E+01 -0.35243818722E+02  0.47787272899E+02  0.20000008455E+02 0.  0.
         12    1    1    2    0    0 -0.23702685556E+02  0.89263123554E+01  0.35243818722E+02  0.43400727101E+02  0.00000000000E+00 0. -1.
         11    1    3    3    0    0 -0.21628056418E+01  0.21838792660E+00 -0.68608097349E+01  0.71969529671E+01  0.51100000000E-03 0. -1.
        -11    1    3    3    0    0  0.19591534928E+02 -0.83226014697E+01 -0.26496243965E+02  0.33987422388E+02  0.51100000000E-03 0.  1.
         12    1    3    3    0    0  0.62739562695E+01 -0.82209881227E+00 -0.18867650224E+01  0.66028975442E+01  0.00000000000E+00 0. -1.
</event>
<event>
 7    1  0.4937359E-010  0.4778727E+02  0.7816164E-02  0.1312668E+00
        -11   -1    0    0    0    0  0.00000000000E+00  0.00000000000E+00  0.45593999997E+02  0.45594000000E+02  0.51100000000E-03 0. -1.
         11   -1    0    0    0    0 -0.00000000000E+00 -0.00000000000E+00 -0.45593999997E+02  0.45594000000E+02  0.51100000000E-03 0.  1.
    9900012    2    1    2    0    0 -0.86530078091E+01 -0.41057198673E+02  0.11093022738E+02  0.47787271199E+02  0.20000000704E+02 0.  0.
         12    1    1    2    0    0  0.86530078091E+01  0.41057198673E+02 -0.11093022738E+02  0.43400728801E+02  0.00000000000E+00 0. -1.
         11    1    3    3    0    0  0.52951055606E+01 -0.22475535416E+02  0.60602878962E+01  0.23872891002E+02  0.51100000000E-03 0. -1.
        -11    1    3    3    0    0 -0.76501169622E+01 -0.11489328737E+02  0.19460341865E+01  0.13939727891E+02  0.51100000000E-03 0.  1.
         12    1    3    3    0    0 -0.62979964075E+01 -0.70923345202E+01  0.30867006550E+01  0.99746523061E+01  0.00000000000E+00 0. -1.
</event>
<event>
 7    1  0.4937359E-010  0.4778729E+02  0.7816164E-02  0.1312668E+00
        -11   -1    0    0    0    0  0.00000000000E+00  0.00000000000E+00  0.45593999997E+02  0.45594000000E+02  0.51100000000E-03 0.  1.
         11   -1    0    0    0    0 -0.00000000000E+00 -0.00000000000E+00 -0.45593999997E+02  0.45594000000E+02  0.51100000000E-03 0. -1.
    9900012    2    1    2    0    0 -0.17681860074E+02 -0.35453708366E+02 -0.17720259749E+02  0.47787294728E+02  0.20000107981E+02 0.  0.
         12    1    1    2    0    0  0.17681860074E+02  0.35453708366E+02  0.17720259749E+02  0.43400705272E+02  0.00000000000E+00 0. -1.
         11    1    3    3    0    0  0.46487203715E+00  0.10111560191E+01  0.43072983484E+00  0.11933444422E+01  0.51100000000E-03 0. -1.
        -11    1    3    3    0    0 -0.17565155572E+02 -0.33435787618E+02 -0.11859463138E+02  0.39587036389E+02  0.51100000000E-03 0.  1.
        -12    1    3    3    0    0 -0.58157653898E+00 -0.30290767672E+01 -0.62915264457E+01  0.70069138963E+01  0.00000000000E+00 0.  1.
</event>
<event>
 7    1  0.4937359E-010  0.4778727E+02  0.7816164E-02  0.1312668E+00
        -11   -1    0    0    0    0  0.00000000000E+00  0.00000000000E+00  0.45593999997E+02  0.45594000000E+02  0.51100000000E-03 0.  1.
         11   -1    0    0    0    0 -0.00000000000E+00 -0.00000000000E+00 -0.45593999997E+02  0.45594000000E+02  0.51100000000E-03 0. -1.
    9900012    2    1    2    0    0 -0.29077259916E+02  0.28086577295E+02  0.15788616891E+02  0.47787270839E+02  0.19999999063E+02 0.  0.
         12    1    1    2    0    0  0.29077259916E+02 -0.28086577295E+02 -0.15788616891E+02  0.43400729161E+02  0.00000000000E+00 0. -1.
         11    1    3    3    0    0 -0.67586270162E+00  0.73561727056E+01  0.18066739172E+01  0.76048759471E+01  0.51100000000E-03 0. -1.
        -11    1    3    3    0    0 -0.26928223420E+02  0.15484117127E+02  0.79708543547E+01  0.32069013381E+02  0.51100000000E-03 0.  1.
        -12    1    3    3    0    0 -0.14731737943E+01  0.52462874616E+01  0.60110886193E+01  0.81133815112E+01  0.00000000000E+00 0.  1.
</event>
<event>
 7    1  0.4937359E-010  0.4778727E+02  0.7816164E-02  0.1312668E+00
        -11   -1    0    0    0    0  0.00000000000E+00  0.00000000000E+00  0.45593999997E+02  0.45594000000E+02  0.51100000000E-03 0.  1.
         11   -1    0    0    0    0 -0.00000000000E+00 -0.00000000000E+00 -0.45593999997E+02  0.45594000000E+02  0.51100000000E-03 0. -1.
    9900012    2    1    2    0    0 -0.50099906406E+01  0.32351081764E+02  0.28494399286E+02  0.47787270879E+02  0.19999999247E+02 0.  0.
         12    1    1    2    0    0  0.50099906406E+01 -0.32351081764E+02 -0.28494399286E+02  0.43400729121E+02  0.00000000000E+00 0. -1.
         11    1    3    3    0    0  0.56648705441E+01  0.40168403604E+01  0.33696549019E+01  0.77188301692E+01  0.51100000000E-03 0. -1.
        -11    1    3    3    0    0 -0.27486167582E+01  0.11916598469E+02  0.59147829301E+01  0.13584729314E+02  0.51100000000E-03 0.  1.
         12    1    3    3    0    0 -0.79262444265E+01  0.16417642934E+02  0.19209961455E+02  0.26483711396E+02  0.00000000000E+00 0. -1.
</event>
<event>
 7    1  0.4937359E-010  0.4778727E+02  0.7816164E-02  0.1312668E+00
        -11   -1    0    0    0    0  0.00000000000E+00  0.00000000000E+00  0.45593999997E+02  0.45594000000E+02  0.51100000000E-03 0. -1.
         11   -1    0    0    0    0 -0.00000000000E+00 -0.00000000000E+00 -0.45593999997E+02  0.45594000000E+02  0.51100000000E-03 0.  1.
    9900012    2    1    2    0    0  0.41006009554E+02  0.13544124441E+02 -0.43228478034E+01  0.47787272592E+02  0.20000007055E+02 0.  0.
         12    1    1    2    0    0 -0.41006009554E+02 -0.13544124441E+02  0.43228478034E+01  0.43400727408E+02  0.00000000000E+00 0. -1.
         11    1    3    3    0    0  0.76670541900E+01  0.47211137604E+01 -0.13227996938E+01  0.91006831822E+01  0.51100000000E-03 0. -1.
        -11    1    3    3    0    0  0.34012593615E+01  0.57697990079E+01  0.39850316841E+01  0.77935629606E+01  0.51100000000E-03 0.  1.
        -12    1    3    3    0    0  0.29937696003E+02  0.30532116725E+01 -0.69850797937E+01  0.30893026449E+02  0.00000000000E+00 0.  1.
</event>
<event>
 7    1  0.5433222E-010  0.4778727E+02  0.7816164E-02  0.1312668E+00
        -11   -1    0    0    0    0  0.00000000000E+00  0.00000000000E+00  0.45593999997E+02  0.45594000000E+02  0.51100000000E-03 0. -1.
         11   -1    0    0    0    0 -0.00000000000E+00 -0.00000000000E+00 -0.45593999997E+02  0.45594000000E+02  0.51100000000E-03 0.  1.
    9900012    2    1    2    0    0  0.13313502361E+02  0.40575510822E+02 -0.77461059490E+01  0.47787267507E+02  0.19999983870E+02 0.  0.
         12    1    1    2    0    0 -0.13313502361E+02 -0.40575510822E+02  0.77461059490E+01  0.43400732493E+02  0.00000000000E+00 0. -1.
         11    1    3    3    0    0 -0.40672391916E+01  0.41742114681E+01 -0.33716462838E+01  0.67330880691E+01  0.51100000000E-03 0. -1.
        -11    1    3    3    0    0  0.85866696077E+01  0.24896165244E+02 -0.30961905978E+01  0.26516718034E+02  0.51100000000E-03 0.  1.
         12    1    3    3    0    0  0.87940719444E+01  0.11505134110E+02 -0.12782690673E+01  0.14537461404E+02  0.00000000000E+00 0. -1.
</event>
<event>
 7    1  0.4937359E-010  0.4778727E+02  0.7816164E-02  0.1312668E+00
        -11   -1    0    0    0    0  0.00000000000E+00  0.00000000000E+00  0.45593999997E+02  0.45594000000E+02  0.51100000000E-03 0.  1.
         11   -1    0    0    0    0 -0.00000000000E+00 -0.00000000000E+00 -0.45593999997E+02  0.45594000000E+02  0.51100000000E-03 0. -1.
    9900012    2    1    2    0    0 -0.42669760687E+02 -0.79005068321E+01 -0.70464103468E+00  0.47787274150E+02  0.20000014161E+02 0.  0.
         12    1    1    2    0    0  0.42669760687E+02  0.79005068321E+01  0.70464103468E+00  0.43400725850E+02  0.00000000000E+00 0. -1.
         11    1    3    3    0    0 -0.30040182593E+01 -0.23392978647E+01 -0.81099853034E+00  0.38928343247E+01  0.51100000000E-03 0. -1.
        -11    1    3    3    0    0 -0.10724314138E+02 -0.54613080130E+00 -0.80381420049E+01  0.13413459648E+02  0.51100000000E-03 0.  1.
        -12    1    3    3    0    0 -0.28941428290E+02 -0.50150781661E+01  0.81444995005E+01  0.30480980177E+02  0.00000000000E+00 0.  1.
</event>
<event>
 7    1  0.4937359E-010  0.4778726E+02  0.7816164E-02  0.1312668E+00
        -11   -1    0    0    0    0  0.00000000000E+00  0.00000000000E+00  0.45593999997E+02  0.45594000000E+02  0.51100000000E-03 0.  1.
         11   -1    0    0    0    0 -0.00000000000E+00 -0.00000000000E+00 -0.45593999997E+02  0.45594000000E+02  0.51100000000E-03 0. -1.
    9900012    2    1    2    0    0  0.18699551086E+02  0.30092806777E+02  0.25067382243E+02  0.47787264026E+02  0.19999968001E+02 0.  0.
         12    1    1    2    0    0 -0.18699551086E+02 -0.30092806777E+02 -0.25067382243E+02  0.43400735974E+02  0.00000000000E+00 0. -1.
         11    1    3    3    0    0  0.13486352409E+01  0.14348296707E+01 -0.18113812404E+00  0.19774641534E+01  0.51100000000E-03 0. -1.
        -11    1    3    3    0    0  0.18520387361E+01 -0.26566247394E+01  0.15456838579E+01  0.35884315983E+01  0.51100000000E-03 0.  1.
        -12    1    3    3    0    0  0.15498877109E+02  0.31314601845E+02  0.23702836509E+02  0.42221368275E+02  0.00000000000E+00 0.  1.
</event>
<event>
 7    1  0.4937359E-010  0.4778727E+02  0.7816164E-02  0.1312668E+00
        -11   -1    0    0    0    0  0.00000000000E+00  0.00000000000E+00  0.45593999997E+02  0.45594000000E+02  0.51100000000E-03 0.  1.
         11   -1    0    0    0    0 -0.00000000000E+00 -0.00000000000E+00 -0.45593999997E+02  0.45594000000E+02  0.51100000000E-03 0. -1.
    9900012    2    1    2    0    0 -0.31610189799E+02  0.29352433398E+02  0.47805784777E+01  0.47787269867E+02  0.19999994631E+02 0.  0.
         12    1    1    2    0    0  0.31610189799E+02 -0.29352433398E+02 -0.47805784777E+01  0.43400730133E+02  0.00000000000E+00 0. -1.
         11    1    3    3    0    0 -0.16252106618E+02  0.81145571798E+01 -0.20383239372E+01  0.18279271662E+02  0.51100000000E-03 0. -1.
        -11    1    3    3    0    0  0.87200666819E+00  0.95559117105E+00  0.29806787004E+01  0.32493069864E+01  0.51100000000E-03 0.  1.
         12    1    3    3    0    0 -0.16230089849E+02  0.20282285047E+02  0.38382237144E+01  0.26258691219E+02  0.00000000000E+00 0. -1.
</event>
<event>
 7    1  0.4937359E-010  0.4778727E+02  0.7816164E-02  0.1312668E+00
        -11   -1    0    0    0    0  0.00000000000E+00  0.00000000000E+00  0.45593999997E+02  0.45594000000E+02  0.51100000000E-03 0. -1.
         11   -1    0    0    0    0 -0.00000000000E+00 -0.00000000000E+00 -0.45593999997E+02  0.45594000000E+02  0.51100000000E-03 0.  1.
    9900012    2    1    2    0    0  0.27264355479E+02 -0.29880921881E+02 -0.15729231118E+02  0.47787270931E+02  0.19999999483E+02 0.  0.
         12    1    1    2    0    0 -0.27264355479E+02  0.29880921881E+02  0.15729231118E+02  0.43400729069E+02  0.00000000000E+00 0. -1.
         11    1    3    3    0    0 -0.64998820980E+00  0.14321830621E+01  0.69701148838E+00  0.17203076098E+01  0.51100000000E-03 0. -1.
        -11    1    3    3    0    0  0.81583058125E+01 -0.16076861485E+02 -0.56782532868E+01  0.18901481148E+02  0.51100000000E-03 0.  1.
         12    1    3    3    0    0  0.19756037876E+02 -0.15236243458E+02 -0.10747989320E+02  0.27165482173E+02  0.00000000000E+00 0. -1.
</event>
<event>
 7    1  0.4937359E-010  0.4778724E+02  0.7816164E-02  0.1312668E+00
        -11   -1    0    0    0    0  0.00000000000E+00  0.00000000000E+00  0.45593999997E+02  0.45594000000E+02  0.51100000000E-03 0.  1.
         11   -1    0    0    0    0 -0.00000000000E+00 -0.00000000000E+00 -0.45593999997E+02  0.45594000000E+02  0.51100000000E-03 0. -1.
    9900012    2    1    2    0    0  0.16151688044E+02 -0.40218816701E+02 -0.22794200906E+01  0.47787239645E+02  0.19999856835E+02 0.  0.
         12    1    1    2    0    0 -0.16151688044E+02  0.40218816701E+02  0.22794200906E+01  0.43400760355E+02  0.00000000000E+00 0. -1.
         11    1    3    3    0    0  0.77986021400E+01 -0.37276994749E+01  0.14626663917E+01  0.87666032161E+01  0.51100000000E-03 0.  1.
        -11    1    3    3    0    0 -0.17660811341E+01 -0.14778808678E+02 -0.12299154611E+01  0.14934688507E+02  0.51100000000E-03 0. -1.
        -12    1    3    3    0    0  0.10119167038E+02 -0.21712308548E+02 -0.25121710212E+01  0.24085947922E+02  0.00000000000E+00 0.  1.
</event>
<event>
 7    1  0.4937359E-010  0.4778727E+02  0.7816164E-02  0.1312668E+00
        -11   -1    0    0    0    0  0.00000000000E+00  0.00000000000E+00  0.45593999997E+02  0.45594000000E+02  0.51100000000E-03 0. -1.
         11   -1    0    0    0    0 -0.00000000000E+00 -0.00000000000E+00 -0.45593999997E+02  0.45594000000E+02  0.51100000000E-03 0.  1.
    9900012    2    1    2    0    0  0.33900925805E+02 -0.50779599970E+01 -0.26618889636E+02  0.47787265748E+02  0.19999975851E+02 0.  0.
         12    1    1    2    0    0 -0.33900925805E+02  0.50779599970E+01  0.26618889636E+02  0.43400734252E+02  0.00000000000E+00 0. -1.
         11    1    3    3    0    0  0.70938061716E+01  0.17733057683E+01  0.13543177042E+01  0.74364558798E+01  0.51100000000E-03 0. -1.
        -11    1    3    3    0    0  0.11055427444E+02 -0.58192638779E+01 -0.17121609085E+02  0.21195183556E+02  0.51100000000E-03 0.  1.
        -12    1    3    3    0    0  0.15751692189E+02 -0.10320018874E+01 -0.10851598255E+02  0.19155626312E+02  0.00000000000E+00 0.  1.
</event>
<event>
 7    1  0.4937359E-010  0.4778727E+02  0.7816164E-02  0.1312668E+00
        -11   -1    0    0    0    0  0.00000000000E+00  0.00000000000E+00  0.45593999997E+02  0.45594000000E+02  0.51100000000E-03 0.  1.
         11   -1    0    0    0    0 -0.00000000000E+00 -0.00000000000E+00 -0.45593999997E+02  0.45594000000E+02  0.51100000000E-03 0. -1.
    9900012    2    1    2    0    0 -0.96012240629E+01  0.98111329670E+01  0.41172585156E+02  0.47787267264E+02  0.19999982763E+02 0.  0.
         12    1    1    2    0    0  0.96012240629E+01 -0.98111329670E+01 -0.41172585156E+02  0.43400732736E+02  0.00000000000E+00 0. -1.
         11    1    3    3    0    0  0.27126564913E+01 -0.16658799134E+01  0.10156358296E+01  0.33414334537E+01  0.51100000000E-03 0. -1.
        -11    1    3    3    0    0 -0.12562214675E+02  0.72238006187E+01  0.27396218980E+02  0.30992666029E+02  0.51100000000E-03 0.  1.
         12    1    3    3    0    0  0.24833412066E+00  0.42532122618E+01  0.12760730346E+02  0.13453167781E+02  0.00000000000E+00 0. -1.
</event>
<event>
 7    1  0.4937359E-010  0.4778727E+02  0.7816164E-02  0.1312668E+00
        -11   -1    0    0    0    0  0.00000000000E+00  0.00000000000E+00  0.45593999997E+02  0.45594000000E+02  0.51100000000E-03 0. -1.
         11   -1    0    0    0    0 -0.00000000000E+00 -0.00000000000E+00 -0.45593999997E+02  0.45594000000E+02  0.51100000000E-03 0.  1.
    9900012    2    1    2    0    0 -0.31512302475E+02 -0.79259684531E+01 -0.28771117485E+02  0.47787269770E+02  0.19999994188E+02 0.  0.
         12    1    1    2    0    0  0.31512302475E+02  0.79259684531E+01  0.28771117485E+02  0.43400730230E+02  0.00000000000E+00 0. -1.
         11    1    3    3    0    0 -0.19199726393E+02  0.44471366704E+01 -0.12955492969E+02  0.23584980739E+02  0.51100000000E-03 0. -1.
        -11    1    3    3    0    0 -0.16155965922E+01 -0.51059185841E+01 -0.52980664606E+01  0.75332639286E+01  0.51100000000E-03 0.  1.
         12    1    3    3    0    0 -0.10696979489E+02 -0.72671865395E+01 -0.10517558055E+02  0.16669025102E+02  0.00000000000E+00 0. -1.
</event>
<event>
 7    1  0.4937359E-010  0.4778727E+02  0.7816164E-02  0.1312668E+00
        -11   -1    0    0    0    0  0.00000000000E+00  0.00000000000E+00  0.45593999997E+02  0.45594000000E+02  0.51100000000E-03 0. -1.
         11   -1    0    0    0    0 -0.00000000000E+00 -0.00000000000E+00 -0.45593999997E+02  0.45594000000E+02  0.51100000000E-03 0.  1.
    9900012    2    1    2    0    0  0.31821732127E+02 -0.14978162744E+02 -0.25429417022E+02  0.47787271379E+02  0.20000001524E+02 0.  0.
         12    1    1    2    0    0 -0.31821732127E+02  0.14978162744E+02  0.25429417022E+02  0.43400728621E+02  0.00000000000E+00 0. -1.
         11    1    3    3    0    0  0.45000687203E+01 -0.75645882603E+01 -0.14412866062E+02  0.16887993440E+02  0.51100000000E-03 0. -1.
        -11    1    3    3    0    0  0.16611940627E+02 -0.17409821254E+01 -0.72469015652E+01  0.18207283507E+02  0.51100000000E-03 0.  1.
         12    1    3    3    0    0  0.10709722780E+02 -0.56725923582E+01 -0.37696493948E+01  0.12691994432E+02  0.00000000000E+00 0. -1.
</event>
<event>
 7    1  0.4937359E-010  0.4778727E+02  0.7816164E-02  0.1312668E+00
        -11   -1    0    0    0    0  0.00000000000E+00  0.00000000000E+00  0.45593999997E+02  0.45594000000E+02  0.51100000000E-03 0.  1.
         11   -1    0    0    0    0 -0.00000000000E+00 -0.00000000000E+00 -0.45593999997E+02  0.45594000000E+02  0.51100000000E-03 0. -1.
    9900012    2    1    2    0    0 -0.38252956216E+02 -0.65017917860E+01  0.19443796625E+02  0.47787272092E+02  0.20000004778E+02 0.  0.
         12    1    1    2    0    0  0.38252956216E+02  0.65017917860E+01 -0.19443796625E+02  0.43400727908E+02  0.00000000000E+00 0. -1.
         11    1    3    3    0    0 -0.55249027142E+01  0.19618782857E+01  0.86386954307E+01  0.10440334066E+02  0.51100000000E-03 0. -1.
        -11    1    3    3    0    0 -0.22711192933E+02 -0.11241001394E+02  0.71834557431E+01  0.26339332441E+02  0.51100000000E-03 0.  1.
        -12    1    3    3    0    0 -0.10016860569E+02  0.27773313224E+01  0.36216454510E+01  0.11007605585E+02  0.00000000000E+00 0.  1.
</event>
<event>
 7    1  0.4937359E-010  0.4778727E+02  0.7816164E-02  0.1312668E+00
        -11   -1    0    0    0    0  0.00000000000E+00  0.00000000000E+00  0.45593999997E+02  0.45594000000E+02  0.51100000000E-03 0. -1.
         11   -1    0    0    0    0 -0.00000000000E+00 -0.00000000000E+00 -0.45593999997E+02  0.45594000000E+02  0.51100000000E-03 0.  1.
    9900012    2    1    2    0    0  0.20662767558E+02  0.16267429079E+02 -0.34525992487E+02  0.47787269946E+02  0.19999994993E+02 0.  0.
         12    1    1    2    0    0 -0.20662767558E+02 -0.16267429079E+02  0.34525992487E+02  0.43400730054E+02  0.00000000000E+00 0. -1.
         11    1    3    3    0    0  0.50469247575E+01  0.82321738276E+01 -0.22385687571E+01  0.99121806772E+01  0.51100000000E-03 0. -1.
        -11    1    3    3    0    0  0.77814609634E+01  0.74485502520E+01 -0.24728767524E+02  0.26973023173E+02  0.51100000000E-03 0.  1.
         12    1    3    3    0    0  0.78343818368E+01  0.58670499926E+00 -0.75586562058E+01  0.10902066096E+02  0.00000000000E+00 0. -1.
</event>
<event>
 7    1  0.4937359E-010  0.4778727E+02  0.7816164E-02  0.1312668E+00
        -11   -1    0    0    0    0  0.00000000000E+00  0.00000000000E+00  0.45593999997E+02  0.45594000000E+02  0.51100000000E-03 0.  1.
         11   -1    0    0    0    0 -0.00000000000E+00 -0.00000000000E+00 -0.45593999997E+02  0.45594000000E+02  0.51100000000E-03 0. -1.
    9900012    2    1    2    0    0  0.24835668673E+02 -0.15137512711E+02  0.32212861972E+02  0.47787271827E+02  0.20000003569E+02 0.  0.
         12    1    1    2    0    0 -0.24835668673E+02  0.15137512711E+02 -0.32212861972E+02  0.43400728173E+02  0.00000000000E+00 0. -1.
         11    1    3    3    0    0  0.21086652044E+02 -0.62433791135E+01  0.20637162004E+02  0.30158234912E+02  0.51100000000E-03 0. -1.
        -11    1    3    3    0    0  0.11320170126E+01 -0.82293826560E+01  0.33247568486E+01  0.89475253438E+01  0.51100000000E-03 0.  1.
        -12    1    3    3    0    0  0.26169996169E+01 -0.66475094148E+00  0.82509431189E+01  0.86815115712E+01  0.00000000000E+00 0.  1.
</event>
<event>
 7    1  0.4937359E-010  0.4778727E+02  0.7816164E-02  0.1312668E+00
        -11   -1    0    0    0    0  0.00000000000E+00  0.00000000000E+00  0.45593999997E+02  0.45594000000E+02  0.51100000000E-03 0. -1.
         11   -1    0    0    0    0 -0.00000000000E+00 -0.00000000000E+00 -0.45593999997E+02  0.45594000000E+02  0.51100000000E-03 0.  1.
    9900012    2    1    2    0    0 -0.23422497240E+02  0.28253231522E+02 -0.23168188058E+02  0.47787269519E+02  0.19999993043E+02 0.  0.
         12    1    1    2    0    0  0.23422497240E+02 -0.28253231522E+02  0.23168188058E+02  0.43400730481E+02  0.00000000000E+00 0. -1.
         11    1    3    3    0    0  0.31414760981E+00  0.71921202762E+01 -0.38129238206E+00  0.72090683815E+01  0.51100000000E-03 0. -1.
        -11    1    3    3    0    0 -0.17155027599E+02  0.10220879294E+02 -0.91808145925E+01  0.21978368964E+02  0.51100000000E-03 0.  1.
         12    1    3    3    0    0 -0.65816172507E+01  0.10840231953E+02 -0.13606081083E+02  0.18599832173E+02  0.00000000000E+00 0. -1.
</event>
<event>
 7    1  0.4937359E-010  0.4778727E+02  0.7816164E-02  0.1312668E+00
        -11   -1    0    0    0    0  0.00000000000E+00  0.00000000000E+00  0.45593999997E+02  0.45594000000E+02  0.51100000000E-03 0. -1.
         11   -1    0    0    0    0 -0.00000000000E+00 -0.00000000000E+00 -0.45593999997E+02  0.45594000000E+02  0.51100000000E-03 0.  1.
    9900012    2    1    2    0    0 -0.37185143178E+02 -0.96139225924E+01 -0.20210416206E+02  0.47787270698E+02  0.19999998418E+02 0.  0.
         12    1    1    2    0    0  0.37185143178E+02  0.96139225924E+01  0.20210416206E+02  0.43400729302E+02  0.00000000000E+00 0. -1.
         11    1    3    3    0    0 -0.75001616928E+01 -0.50790023536E+01 -0.55374869589E+01  0.10616612096E+02  0.51100000000E-03 0. -1.
        -11    1    3    3    0    0 -0.27408677849E+02 -0.75242754918E+01 -0.80241922504E+01  0.29533675773E+02  0.51100000000E-03 0.  1.
        -12    1    3    3    0    0 -0.22763036358E+01  0.29893552530E+01 -0.66487369963E+01  0.76369828281E+01  0.00000000000E+00 0.  1.
</event>
<event>
 7    1  0.4937359E-010  0.4778727E+02  0.7816164E-02  0.1312668E+00
        -11   -1    0    0    0    0  0.00000000000E+00  0.00000000000E+00  0.45593999997E+02  0.45594000000E+02  0.51100000000E-03 0.  1.
         11   -1    0    0    0    0 -0.00000000000E+00 -0.00000000000E+00 -0.45593999997E+02  0.45594000000E+02  0.51100000000E-03 0. -1.
    9900012    2    1    2    0    0 -0.16444661231E+02  0.31182644876E+01  0.40043384821E+02  0.47787272767E+02  0.20000007852E+02 0.  0.
         12    1    1    2    0    0  0.16444661231E+02 -0.31182644876E+01 -0.40043384821E+02  0.43400727233E+02  0.00000000000E+00 0. -1.
         11    1    3    3    0    0 -0.49135482772E+01  0.55417077267E+01  0.70637064844E+01  0.10234716936E+02  0.51100000000E-03 0. -1.
        -11    1    3    3    0    0 -0.82102109968E+01 -0.63141320498E+00  0.32752930862E+02  0.33772188670E+02  0.51100000000E-03 0.  1.
        -12    1    3    3    0    0 -0.33209019575E+01 -0.17920300341E+01  0.22674747530E+00  0.37803671610E+01  0.00000000000E+00 0.  1.
</event>
<event>
 7    1  0.4937359E-010  0.4778727E+02  0.7816164E-02  0.1312668E+00
        -11   -1    0    0    0    0  0.00000000000E+00  0.00000000000E+00  0.45593999997E+02  0.45594000000E+02  0.51100000000E-03 0.  1.
         11   -1    0    0    0    0 -0.00000000000E+00 -0.00000000000E+00 -0.45593999997E+02  0.45594000000E+02  0.51100000000E-03 0. -1.
    9900012    2    1    2    0    0  0.13425983809E+02 -0.10738295704E+02  0.39850409253E+02  0.47787272431E+02  0.20000006322E+02 0.  0.
         12    1    1    2    0    0 -0.13425983809E+02  0.10738295704E+02 -0.39850409253E+02  0.43400727569E+02  0.00000000000E+00 0. -1.
         11    1    3    3    0    0  0.11078418492E+02 -0.14325540455E+01  0.97378725143E+01  0.14819235093E+02  0.51100000000E-03 0. -1.
        -11    1    3    3    0    0 -0.27357250911E+01 -0.62515132905E+01  0.10888567828E+02  0.12850156411E+02  0.51100000000E-03 0.  1.
        -12    1    3    3    0    0  0.50832904086E+01 -0.30542283684E+01  0.19223968911E+02  0.20117880927E+02  0.00000000000E+00 0.  1.
</event>
<event>
 7    1  0.4937359E-010  0.4778728E+02  0.7816164E-02  0.1312668E+00
        -11   -1    0    0    0    0  0.00000000000E+00  0.00000000000E+00  0.45593999997E+02  0.45594000000E+02  0.51100000000E-03 0.  1.
         11   -1    0    0    0    0 -0.00000000000E+00 -0.00000000000E+00 -0.45593999997E+02  0.45594000000E+02  0.51100000000E-03 0. -1.
    9900012    2    1    2    0    0 -0.24941586923E+02  0.71580670760E+01  0.34789393517E+02  0.47787278994E+02  0.20000036247E+02 0.  0.
         12    1    1    2    0    0  0.24941586923E+02 -0.71580670760E+01 -0.34789393517E+02  0.43400721006E+02  0.00000000000E+00 0. -1.
         11    1    3    3    0    0 -0.22997554628E+01  0.73327239030E+01  0.13779829920E+02  0.15777877801E+02  0.51100000000E-03 0. -1.
        -11    1    3    3    0    0 -0.48484369286E+01  0.31341049927E+01  0.72871364712E+01  0.92968980293E+01  0.51100000000E-03 0.  1.
         12    1    3    3    0    0 -0.17793394532E+02 -0.33087618197E+01  0.13722427126E+02  0.22712503164E+02  0.00000000000E+00 0. -1.
</event>
<event>
 7    1  0.4937359E-010  0.4778728E+02  0.7816164E-02  0.1312668E+00
        -11   -1    0    0    0    0  0.00000000000E+00  0.00000000000E+00  0.45593999997E+02  0.45594000000E+02  0.51100000000E-03 0.  1.
         11   -1    0    0    0    0 -0.00000000000E+00 -0.00000000000E+00 -0.45593999997E+02  0.45594000000E+02  0.51100000000E-03 0. -1.
    9900012    2    1    2    0    0 -0.93005051684E+01  0.23380012277E+01  0.42327971720E+02  0.47787276088E+02  0.20000022997E+02 0.  0.
         12    1    1    2    0    0  0.93005051684E+01 -0.23380012277E+01 -0.42327971720E+02  0.43400723912E+02  0.00000000000E+00 0. -1.
         11    1    3    3    0    0 -0.20171829914E+00 -0.48436997343E+01  0.19449000258E+01  0.52234810002E+01  0.51100000000E-03 0. -1.
        -11    1    3    3    0    0 -0.80768493853E+01  0.44183743219E+01  0.20614385699E+02  0.22576767387E+02  0.51100000000E-03 0.  1.
        -12    1    3    3    0    0 -0.10219374840E+01  0.27633266401E+01  0.19768685996E+02  0.19987027701E+02  0.00000000000E+00 0.  1.
</event>
<event>
 7    1  0.4937359E-010  0.4778727E+02  0.7816164E-02  0.1312668E+00
        -11   -1    0    0    0    0  0.00000000000E+00  0.00000000000E+00  0.45593999997E+02  0.45594000000E+02  0.51100000000E-03 0.  1.
         11   -1    0    0    0    0 -0.00000000000E+00 -0.00000000000E+00 -0.45593999997E+02  0.45594000000E+02  0.51100000000E-03 0. -1.
    9900012    2    1    2    0    0 -0.15486137105E+02 -0.35500024253E+02 -0.19584458824E+02  0.47787271989E+02  0.20000004309E+02 0.  0.
         12    1    1    2    0    0  0.15486137105E+02  0.35500024253E+02  0.19584458824E+02  0.43400728011E+02  0.00000000000E+00 0. -1.
         11    1    3    3    0    0 -0.49668245570E+01 -0.80435632269E+01 -0.10009020668E+02  0.13767670484E+02  0.51100000000E-03 0. -1.
        -11    1    3    3    0    0 -0.45655343734E+01 -0.60807955246E+01  0.33840829938E+01  0.83229920279E+01  0.51100000000E-03 0.  1.
        -12    1    3    3    0    0 -0.59537781741E+01 -0.21375665502E+02 -0.12959521150E+02  0.25696609477E+02  0.00000000000E+00 0.  1.
</event>
<event>
 7    1  0.4937359E-010  0.4778727E+02  0.7816164E-02  0.1312668E+00
        -11   -1    0    0    0    0  0.00000000000E+00  0.00000000000E+00  0.45593999997E+02  0.45594000000E+02  0.51100000000E-03 0.  1.
         11   -1    0    0    0    0 -0.00000000000E+00 -0.00000000000E+00 -0.45593999997E+02  0.45594000000E+02  0.51100000000E-03 0. -1.
    9900012    2    1    2    0    0 -0.16000380056E+02 -0.24351224837E+01  0.40270102486E+02  0.47787272613E+02  0.20000007153E+02 0.  0.
         12    1    1    2    0    0  0.16000380056E+02  0.24351224837E+01 -0.40270102486E+02  0.43400727387E+02  0.00000000000E+00 0. -1.
         11    1    3    3    0    0 -0.17604941419E+01  0.63569969825E+01  0.73829263743E+01  0.99004218278E+01  0.51100000000E-03 0. -1.
        -11    1    3    3    0    0 -0.12611899839E+02 -0.66351250987E+01  0.32021121685E+02  0.35049067561E+02  0.51100000000E-03 0.  1.
         12    1    3    3    0    0 -0.16279860752E+01 -0.21569943675E+01  0.86605442663E+00  0.28377832251E+01  0.00000000000E+00 0. -1.
</event>
<event>
 7    1  0.4937359E-010  0.4778727E+02  0.7816164E-02  0.1312668E+00
        -11   -1    0    0    0    0  0.00000000000E+00  0.00000000000E+00  0.45593999997E+02  0.45594000000E+02  0.51100000000E-03 0. -1.
         11   -1    0    0    0    0 -0.00000000000E+00 -0.00000000000E+00 -0.45593999997E+02  0.45594000000E+02  0.51100000000E-03 0.  1.
    9900012    2    1    2    0    0 -0.40854604367E+02  0.40712668473E+01 -0.14069448133E+02  0.47787270945E+02  0.19999999546E+02 0.  0.
         12    1    1    2    0    0  0.40854604367E+02 -0.40712668473E+01  0.14069448133E+02  0.43400729055E+02  0.00000000000E+00 0. -1.
         11    1    3    3    0    0 -0.73398027557E+01 -0.68762735648E+01 -0.37211416226E+01  0.10723932948E+02  0.51100000000E-03 0. -1.
        -11    1    3    3    0    0 -0.30133464037E+02  0.82482840524E+01 -0.86702625855E+01  0.32422728112E+02  0.51100000000E-03 0.  1.
         12    1    3    3    0    0 -0.33813375745E+01  0.26992563597E+01 -0.16780439249E+01  0.46406098847E+01  0.00000000000E+00 0. -1.
</event>
<event>
 7    1  0.4937359E-010  0.4778727E+02  0.7816164E-02  0.1312668E+00
        -11   -1    0    0    0    0  0.00000000000E+00  0.00000000000E+00  0.45593999997E+02  0.45594000000E+02  0.51100000000E-03 0. -1.
         11   -1    0    0    0    0 -0.00000000000E+00 -0.00000000000E+00 -0.45593999997E+02  0.45594000000E+02  0.51100000000E-03 0.  1.
    9900012    2    1    2    0    0  0.36098532178E+02 -0.13446863608E+02  0.19992535831E+02  0.47787266651E+02  0.19999979968E+02 0.  0.
         12    1    1    2    0    0 -0.36098532178E+02  0.13446863608E+02 -0.19992535831E+02  0.43400733349E+02  0.00000000000E+00 0. -1.
         11    1    3    3    0    0  0.37761743903E+00 -0.14722719960E+01 -0.29984362012E+01  0.33616662051E+01  0.51100000000E-03 0. -1.
        -11    1    3    3    0    0  0.26046125819E+02 -0.10912850139E+02  0.16184609226E+02  0.32548925396E+02  0.51100000000E-03 0.  1.
         12    1    3    3    0    0  0.96747889199E+01 -0.10617414730E+01  0.68063628060E+01  0.11876675050E+02  0.00000000000E+00 0. -1.
</event>
<event>
 7    1  0.4937359E-010  0.4778727E+02  0.7816164E-02  0.1312668E+00
        -11   -1    0    0    0    0  0.00000000000E+00  0.00000000000E+00  0.45593999997E+02  0.45594000000E+02  0.51100000000E-03 0. -1.
         11   -1    0    0    0    0 -0.00000000000E+00 -0.00000000000E+00 -0.45593999997E+02  0.45594000000E+02  0.51100000000E-03 0.  1.
    9900012    2    1    2    0    0 -0.39696715933E+02 -0.17492317041E+02 -0.13464552886E+01  0.47787270130E+02  0.19999995833E+02 0.  0.
         12    1    1    2    0    0  0.39696715933E+02  0.17492317041E+02  0.13464552886E+01  0.43400729870E+02  0.00000000000E+00 0. -1.
         11    1    3    3    0    0 -0.10571456476E+02 -0.28555910916E+01 -0.77439389239E+01  0.13411885878E+02  0.51100000000E-03 0. -1.
        -11    1    3    3    0    0 -0.16321951000E+02 -0.32776071961E+01  0.35957440698E+01  0.17031681334E+02  0.51100000000E-03 0.  1.
         12    1    3    3    0    0 -0.12803308458E+02 -0.11359118753E+02  0.28017395655E+01  0.17343702918E+02  0.00000000000E+00 0. -1.
</event>
<event>
 7    1  0.4937359E-010  0.4778727E+02  0.7816164E-02  0.1312668E+00
        -11   -1    0    0    0    0  0.00000000000E+00  0.00000000000E+00  0.45593999997E+02  0.45594000000E+02  0.51100000000E-03 0. -1.
         11   -1    0    0    0    0 -0.00000000000E+00 -0.00000000000E+00 -0.45593999997E+02  0.45594000000E+02  0.51100000000E-03 0.  1.
    9900012    2    1    2    0    0  0.22969949536E+02 -0.82158874252E+01 -0.35895735193E+02  0.47787271977E+02  0.20000004251E+02 0.  0.
         12    1    1    2    0    0 -0.22969949536E+02  0.82158874252E+01  0.35895735193E+02  0.43400728023E+02  0.00000000000E+00 0. -1.
         11    1    3    3    0    0  0.10832500453E+01 -0.16569947530E+01 -0.19526434844E+02  0.19626531030E+02  0.51100000000E-03 0. -1.
        -11    1    3    3    0    0  0.12618380843E+02 -0.35714747792E+01 -0.10415334494E+02  0.16746885085E+02  0.51100000000E-03 0.  1.
         12    1    3    3    0    0  0.92683186479E+01 -0.29874178930E+01 -0.59539658556E+01  0.11413855862E+02  0.00000000000E+00 0. -1.
</event>
<event>
 7    1  0.4937359E-010  0.4778725E+02  0.7816164E-02  0.1312668E+00
        -11   -1    0    0    0    0  0.00000000000E+00  0.00000000000E+00  0.45593999997E+02  0.45594000000E+02  0.51100000000E-03 0.  1.
         11   -1    0    0    0    0 -0.00000000000E+00 -0.00000000000E+00 -0.45593999997E+02  0.45594000000E+02  0.51100000000E-03 0. -1.
    9900012    2    1    2    0    0  0.22018165330E+02 -0.11740804004E+02  0.35510268351E+02  0.47787248376E+02  0.19999896647E+02 0.  0.
         12    1    1    2    0    0 -0.22018165330E+02  0.11740804004E+02 -0.35510268351E+02  0.43400751624E+02  0.00000000000E+00 0. -1.
         11    1    3    3    0    0  0.41632013450E+01  0.45517656095E+00  0.12236501483E+02  0.12933344500E+02  0.51100000000E-03 0. -1.
        -11    1    3    3    0    0  0.13967335479E+02 -0.15122141573E+02  0.15862890176E+02  0.25988399549E+02  0.51100000000E-03 0.  1.
        -12    1    3    3    0    0  0.38876285056E+01  0.29261610076E+01  0.74108766915E+01  0.88655043273E+01  0.00000000000E+00 0.  1.
</event>
<event>
 7    1  0.4937359E-010  0.4778727E+02  0.7816164E-02  0.1312668E+00
        -11   -1    0    0    0    0  0.00000000000E+00  0.00000000000E+00  0.45593999997E+02  0.45594000000E+02  0.51100000000E-03 0.  1.
         11   -1    0    0    0    0 -0.00000000000E+00 -0.00000000000E+00 -0.45593999997E+02  0.45594000000E+02  0.51100000000E-03 0. -1.
    9900012    2    1    2    0    0 -0.14400490964E+02  0.25426774499E+02  0.32089381375E+02  0.47787269609E+02  0.19999993455E+02 0.  0.
         12    1    1    2    0    0  0.14400490964E+02 -0.25426774499E+02 -0.32089381375E+02  0.43400730391E+02  0.00000000000E+00 0. -1.
         11    1    3    3    0    0  0.42105771690E+01  0.58326291190E+01  0.30590206711E+01  0.78170410171E+01  0.51100000000E-03 0. -1.
        -11    1    3    3    0    0 -0.10270841617E+02  0.13015270178E+02  0.14891348265E+02  0.22285414484E+02  0.51100000000E-03 0.  1.
         12    1    3    3    0    0 -0.83402265156E+01  0.65788752024E+01  0.14139012439E+02  0.17684814107E+02  0.00000000000E+00 0. -1.
</event>
<event>
 7    1  0.4937359E-010  0.4778725E+02  0.7816164E-02  0.1312668E+00
        -11   -1    0    0    0    0  0.00000000000E+00  0.00000000000E+00  0.45593999997E+02  0.45594000000E+02  0.51100000000E-03 0.  1.
         11   -1    0    0    0    0 -0.00000000000E+00 -0.00000000000E+00 -0.45593999997E+02  0.45594000000E+02  0.51100000000E-03 0. -1.
    9900012    2    1    2    0    0  0.78943504207E+00 -0.17561324138E+02  0.39681248931E+02  0.47787253118E+02  0.19999918267E+02 0.  0.
         12    1    1    2    0    0 -0.78943504207E+00  0.17561324138E+02 -0.39681248931E+02  0.43400746882E+02  0.00000000000E+00 0. -1.
         11    1    3    3    0    0  0.63426853937E+00 -0.21996082517E+01  0.65044089893E+00  0.23798417311E+01  0.51100000000E-03 0. -1.
        -11    1    3    3    0    0  0.63445081062E+01 -0.36569692134E+01  0.25275954474E+02  0.26315396287E+02  0.51100000000E-03 0.  1.
        -12    1    3    3    0    0 -0.61893416035E+01 -0.11704746673E+02  0.13754853559E+02  0.19092015100E+02  0.00000000000E+00 0.  1.
</event>
<event>
 7    1  0.4937359E-010  0.4778727E+02  0.7816164E-02  0.1312668E+00
        -11   -1    0    0    0    0  0.00000000000E+00  0.00000000000E+00  0.45593999997E+02  0.45594000000E+02  0.51100000000E-03 0.  1.
         11   -1    0    0    0    0 -0.00000000000E+00 -0.00000000000E+00 -0.45593999997E+02  0.45594000000E+02  0.51100000000E-03 0. -1.
    9900012    2    1    2    0    0  0.39046996783E+02 -0.69350465896E+01  0.17631238733E+02  0.47787269497E+02  0.19999992944E+02 0.  0.
         12    1    1    2    0    0 -0.39046996783E+02  0.69350465896E+01 -0.17631238733E+02  0.43400730503E+02  0.00000000000E+00 0. -1.
         11    1    3    3    0    0  0.15857399599E+02  0.10898101273E+01  0.29604570983E+01  0.16168151244E+02  0.51100000000E-03 0. -1.
        -11    1    3    3    0    0  0.46987268505E+01 -0.65888809344E+01  0.92631510279E+01  0.12300298907E+02  0.51100000000E-03 0.  1.
        -12    1    3    3    0    0  0.18490870333E+02 -0.14359757826E+01  0.54076306069E+01  0.19318819346E+02  0.00000000000E+00 0.  1.
</event>
<event>
 7    1  0.4937359E-010  0.4778727E+02  0.7816164E-02  0.1312668E+00
        -11   -1    0    0    0    0  0.00000000000E+00  0.00000000000E+00  0.45593999997E+02  0.45594000000E+02  0.51100000000E-03 0.  1.
         11   -1    0    0    0    0 -0.00000000000E+00 -0.00000000000E+00 -0.45593999997E+02  0.45594000000E+02  0.51100000000E-03 0. -1.
    9900012    2    1    2    0    0  0.39024638490E+01  0.42924348216E+02  0.50886527261E+01  0.47787270969E+02  0.19999999657E+02 0.  0.
         12    1    1    2    0    0 -0.39024638490E+01 -0.42924348216E+02 -0.50886527261E+01  0.43400729031E+02  0.00000000000E+00 0. -1.
         11    1    3    3    0    0 -0.75176379559E+01  0.19646315106E+02  0.52934795990E+01  0.21691323247E+02  0.51100000000E-03 0. -1.
        -11    1    3    3    0    0  0.75028666389E+01  0.12047647258E+02  0.21574347499E+00  0.14194553806E+02  0.51100000000E-03 0.  1.
         12    1    3    3    0    0  0.39172351660E+01  0.11230385852E+02 -0.42057034793E+00  0.11901393916E+02  0.00000000000E+00 0. -1.
</event>
<event>
 7    1  0.4937359E-010  0.4778728E+02  0.7816164E-02  0.1312668E+00
        -11   -1    0    0    0    0  0.00000000000E+00  0.00000000000E+00  0.45593999997E+02  0.45594000000E+02  0.51100000000E-03 0.  1.
         11   -1    0    0    0    0 -0.00000000000E+00 -0.00000000000E+00 -0.45593999997E+02  0.45594000000E+02  0.51100000000E-03 0. -1.
    9900012    2    1    2    0    0  0.40231244409E+02  0.30359629585E+01  0.15995397137E+02  0.47787276189E+02  0.20000023455E+02 0.  0.
         12    1    1    2    0    0 -0.40231244409E+02 -0.30359629585E+01 -0.15995397137E+02  0.43400723811E+02  0.00000000000E+00 0. -1.
         11    1    3    3    0    0  0.24909872661E+02  0.88077376209E+01  0.94508289124E+01  0.28060580275E+02  0.51100000000E-03 0. -1.
        -11    1    3    3    0    0  0.13464667578E+02 -0.49148675135E+01  0.16576322900E+01  0.14429169787E+02  0.51100000000E-03 0.  1.
        -12    1    3    3    0    0  0.18567041695E+01 -0.85690714883E+00  0.48869359342E+01  0.52975261263E+01  0.00000000000E+00 0.  1.
</event>
<event>
 7    1  0.6350095E-010  0.4778727E+02  0.7816164E-02  0.1312668E+00
        -11   -1    0    0    0    0  0.00000000000E+00  0.00000000000E+00  0.45593999997E+02  0.45594000000E+02  0.51100000000E-03 0.  1.
         11   -1    0    0    0    0 -0.00000000000E+00 -0.00000000000E+00 -0.45593999997E+02  0.45594000000E+02  0.51100000000E-03 0. -1.
    9900012    2    1    2    0    0 -0.19718920802E+02 -0.20419429485E+02  0.32830383461E+02  0.47787274012E+02  0.20000013530E+02 0.  0.
         12    1    1    2    0    0  0.19718920802E+02  0.20419429485E+02 -0.32830383461E+02  0.43400725988E+02  0.00000000000E+00 0. -1.
         11    1    3    3    0    0 -0.27903892848E+01  0.10745635170E+01  0.11586784664E+00  0.29923877977E+01  0.51100000000E-03 0. -1.
        -11    1    3    3    0    0 -0.65927183713E+01 -0.17455683979E+02  0.15226824333E+02  0.24083625521E+02  0.51100000000E-03 0.  1.
        -12    1    3    3    0    0 -0.10335813146E+02 -0.40383090230E+01  0.17487691282E+02  0.20711260694E+02  0.00000000000E+00 0.  1.
</event>
<event>
 7    1  0.4937359E-010  0.4778727E+02  0.7816164E-02  0.1312668E+00
        -11   -1    0    0    0    0  0.00000000000E+00  0.00000000000E+00  0.45593999997E+02  0.45594000000E+02  0.51100000000E-03 0.  1.
         11   -1    0    0    0    0 -0.00000000000E+00 -0.00000000000E+00 -0.45593999997E+02  0.45594000000E+02  0.51100000000E-03 0. -1.
    9900012    2    1    2    0    0  0.35777759460E+02  0.24367778122E+02 -0.31283434721E+01  0.47787271717E+02  0.20000003069E+02 0.  0.
         12    1    1    2    0    0 -0.35777759460E+02 -0.24367778122E+02  0.31283434721E+01  0.43400728283E+02  0.00000000000E+00 0. -1.
         11    1    3    3    0    0  0.13898522118E+02  0.24896982016E+01 -0.42017998147E+01  0.14731688164E+02  0.51100000000E-03 0. -1.
        -11    1    3    3    0    0  0.17370392022E+02  0.21956061980E+02  0.29901388727E+01  0.28155640775E+02  0.51100000000E-03 0.  1.
        -12    1    3    3    0    0  0.45088453196E+01 -0.77982060180E-01 -0.19166825301E+01  0.48999427792E+01  0.00000000000E+00 0.  1.
</event>
<event>
 7    1  0.4937359E-010  0.4778728E+02  0.7816164E-02  0.1312668E+00
        -11   -1    0    0    0    0  0.00000000000E+00  0.00000000000E+00  0.45593999997E+02  0.45594000000E+02  0.51100000000E-03 0.  1.
         11   -1    0    0    0    0 -0.00000000000E+00 -0.00000000000E+00 -0.45593999997E+02  0.45594000000E+02  0.51100000000E-03 0. -1.
    9900012    2    1    2    0    0 -0.25245069791E+02 -0.95519012738E+01  0.33986328404E+02  0.47787275524E+02  0.20000020422E+02 0.  0.
         12    1    1    2    0    0  0.25245069791E+02  0.95519012738E+01 -0.33986328404E+02  0.43400724476E+02  0.00000000000E+00 0. -1.
         11    1    3    3    0    0 -0.65604619934E+01  0.26938350208E+01  0.17732866241E+01  0.73103320307E+01  0.51100000000E-03 0. -1.
        -11    1    3    3    0    0 -0.68969932818E+01 -0.52139123682E+01  0.21146173223E+02  0.22845438074E+02  0.51100000000E-03 0.  1.
        -12    1    3    3    0    0 -0.11787614516E+02 -0.70318239264E+01  0.11066868556E+02  0.17631505419E+02  0.00000000000E+00 0.  1.
</event>
<event>
 7    1  0.4937359E-010  0.4778727E+02  0.7816164E-02  0.1312668E+00
        -11   -1    0    0    0    0  0.00000000000E+00  0.00000000000E+00  0.45593999997E+02  0.45594000000E+02  0.51100000000E-03 0. -1.
         11   -1    0    0    0    0 -0.00000000000E+00 -0.00000000000E+00 -0.45593999997E+02  0.45594000000E+02  0.51100000000E-03 0.  1.
    9900012    2    1    2    0    0 -0.19375688005E+02  0.12911865365E+01 -0.38814161043E+02  0.47787267912E+02  0.19999985717E+02 0.  0.
         12    1    1    2    0    0  0.19375688005E+02 -0.12911865365E+01  0.38814161043E+02  0.43400732088E+02  0.00000000000E+00 0. -1.
         11    1    3    3    0    0 -0.45303837954E+01  0.78472304904E+01 -0.74508400767E+01  0.11731087836E+02  0.51100000000E-03 0. -1.
        -11    1    3    3    0    0 -0.68928778796E+01 -0.60860670345E+01 -0.21455751949E+02  0.23343120387E+02  0.51100000000E-03 0.  1.
         12    1    3    3    0    0 -0.79524263301E+01 -0.46997691932E+00 -0.99075690166E+01  0.12713059689E+02  0.00000000000E+00 0. -1.
</event>
<event>
 7    1  0.4937359E-010  0.4778727E+02  0.7816164E-02  0.1312668E+00
        -11   -1    0    0    0    0  0.00000000000E+00  0.00000000000E+00  0.45593999997E+02  0.45594000000E+02  0.51100000000E-03 0.  1.
         11   -1    0    0    0    0 -0.00000000000E+00 -0.00000000000E+00 -0.45593999997E+02  0.45594000000E+02  0.51100000000E-03 0. -1.
    9900012    2    1    2    0    0 -0.25177242114E+02 -0.11542806129E+02  0.33413972195E+02  0.47787269227E+02  0.19999991714E+02 0.  0.
         12    1    1    2    0    0  0.25177242114E+02  0.11542806129E+02 -0.33413972195E+02  0.43400730773E+02  0.00000000000E+00 0. -1.
         11    1    3    3    0    0 -0.81694806341E+01 -0.51189059462E+01  0.24908686106E+01  0.99573108123E+01  0.51100000000E-03 0. -1.
        -11    1    3    3    0    0 -0.16857543865E+01  0.19100580127E+01  0.11265346731E+02  0.11549810678E+02  0.51100000000E-03 0.  1.
        -12    1    3    3    0    0 -0.15322007093E+02 -0.83339581954E+01  0.19657756853E+02  0.26280147737E+02  0.00000000000E+00 0.  1.
</event>
<event>
 7    1  0.4937359E-010  0.4778727E+02  0.7816164E-02  0.1312668E+00
        -11   -1    0    0    0    0  0.00000000000E+00  0.00000000000E+00  0.45593999997E+02  0.45594000000E+02  0.51100000000E-03 0. -1.
         11   -1    0    0    0    0 -0.00000000000E+00 -0.00000000000E+00 -0.45593999997E+02  0.45594000000E+02  0.51100000000E-03 0.  1.
    9900012    2    1    2    0    0 -0.17763497423E+02 -0.33354413046E+02 -0.21343960252E+02  0.47787270173E+02  0.19999996025E+02 0.  0.
         12    1    1    2    0    0  0.17763497423E+02  0.33354413046E+02  0.21343960252E+02  0.43400729827E+02  0.00000000000E+00 0. -1.
         11    1    3    3    0    0 -0.17009882574E+01 -0.11813250795E+01  0.10848581016E+01  0.23379066185E+01  0.51100000000E-03 0. -1.
        -11    1    3    3    0    0  0.30699903557E+01 -0.69561491810E+01 -0.23240779815E+01  0.79507352451E+01  0.51100000000E-03 0.  1.
        -12    1    3    3    0    0 -0.19132499521E+02 -0.25216938786E+02 -0.20104740372E+02  0.37498628309E+02  0.00000000000E+00 0.  1.
</event>
<event>
 7    1  0.4937359E-010  0.4778727E+02  0.7816164E-02  0.1312668E+00
        -11   -1    0    0    0    0  0.00000000000E+00  0.00000000000E+00  0.45593999997E+02  0.45594000000E+02  0.51100000000E-03 0.  1.
         11   -1    0    0    0    0 -0.00000000000E+00 -0.00000000000E+00 -0.45593999997E+02  0.45594000000E+02  0.51100000000E-03 0. -1.
    9900012    2    1    2    0    0  0.27273961424E+02  0.70276918263E+01  0.33020686331E+02  0.47787272472E+02  0.20000006510E+02 0.  0.
         12    1    1    2    0    0 -0.27273961424E+02 -0.70276918263E+01 -0.33020686331E+02  0.43400727528E+02  0.00000000000E+00 0. -1.
         11    1    3    3    0    0  0.41084582459E+01 -0.28984838894E+00  0.13872384260E+01  0.43460179428E+01  0.51100000000E-03 0. -1.
        -11    1    3    3    0    0  0.10918052152E+02 -0.34374698540E+01  0.56407744262E+01  0.12760814950E+02  0.51100000000E-03 0.  1.
        -12    1    3    3    0    0  0.12247451026E+02  0.10755010069E+02  0.25992673479E+02  0.30680439580E+02  0.00000000000E+00 0.  1.
</event>
<event>
 7    1  0.4937359E-010  0.4778728E+02  0.7816164E-02  0.1312668E+00
        -11   -1    0    0    0    0  0.00000000000E+00  0.00000000000E+00  0.45593999997E+02  0.45594000000E+02  0.51100000000E-03 0.  1.
         11   -1    0    0    0    0 -0.00000000000E+00 -0.00000000000E+00 -0.45593999997E+02  0.45594000000E+02  0.51100000000E-03 0. -1.
    9900012    2    1    2    0    0  0.19522849676E+01 -0.38173136513E+02  0.20557783165E+02  0.47787283226E+02  0.20000055541E+02 0.  0.
         12    1    1    2    0    0 -0.19522849676E+01  0.38173136513E+02 -0.20557783165E+02  0.43400716774E+02  0.00000000000E+00 0. -1.
         11    1    3    3    0    0 -0.20833251096E+01 -0.44929446394E+01  0.69480679837E+01  0.85324348232E+01  0.51100000000E-03 0. -1.
        -11    1    3    3    0    0  0.87508734412E+01 -0.13798458316E+02  0.50590120316E+01  0.17104643840E+02  0.51100000000E-03 0.  1.
        -12    1    3    3    0    0 -0.47152633640E+01 -0.19881733557E+02  0.85507031501E+01  0.22150204563E+02  0.00000000000E+00 0.  1.
</event>
<event>
 7    1  0.4937359E-010  0.4778727E+02  0.7816164E-02  0.1312668E+00
        -11   -1    0    0    0    0  0.00000000000E+00  0.00000000000E+00  0.45593999997E+02  0.45594000000E+02  0.51100000000E-03 0.  1.
         11   -1    0    0    0    0 -0.00000000000E+00 -0.00000000000E+00 -0.45593999997E+02  0.45594000000E+02  0.51100000000E-03 0. -1.
    9900012    2    1    2    0    0  0.36471133390E+02  0.15232006933E+02 -0.17929473354E+02  0.47787267049E+02  0.19999981781E+02 0.  0.
         12    1    1    2    0    0 -0.36471133390E+02 -0.15232006933E+02  0.17929473354E+02  0.43400732951E+02  0.00000000000E+00 0. -1.
         11    1    3    3    0    0  0.24442175832E+01  0.28283682177E+01  0.22908521149E+01  0.43842753156E+01  0.51100000000E-03 0. -1.
        -11    1    3    3    0    0  0.34544589745E+02  0.12340292987E+02 -0.21145601639E+02  0.42340854746E+02  0.51100000000E-03 0.  1.
        -12    1    3    3    0    0 -0.51767393805E+00  0.63345728507E-01  0.92527617072E+00  0.10621369872E+01  0.00000000000E+00 0.  1.
</event>
<event>
 7    1  0.4937359E-010  0.4778727E+02  0.7816164E-02  0.1312668E+00
        -11   -1    0    0    0    0  0.00000000000E+00  0.00000000000E+00  0.45593999997E+02  0.45594000000E+02  0.51100000000E-03 0. -1.
         11   -1    0    0    0    0 -0.00000000000E+00 -0.00000000000E+00 -0.45593999997E+02  0.45594000000E+02  0.51100000000E-03 0.  1.
    9900012    2    1    2    0    0  0.40249580490E+02 -0.13908230314E+02  0.83758843088E+01  0.47787273762E+02  0.20000012389E+02 0.  0.
         12    1    1    2    0    0 -0.40249580490E+02  0.13908230314E+02 -0.83758843088E+01  0.43400726238E+02  0.00000000000E+00 0. -1.
         11    1    3    3    0    0  0.13934798203E+02 -0.41146264890E+01  0.99447265069E+01  0.17606996839E+02  0.51100000000E-03 0. -1.
        -11    1    3    3    0    0  0.15608701491E+02 -0.22023447376E+01 -0.51376117246E+01  0.16579413110E+02  0.51100000000E-03 0.  1.
        -12    1    3    3    0    0  0.10706080795E+02 -0.75912590873E+01  0.35687695266E+01  0.13600863813E+02  0.00000000000E+00 0.  1.
</event>
<event>
 7    1  0.4937359E-010  0.4778730E+02  0.7816164E-02  0.1312668E+00
        -11   -1    0    0    0    0  0.00000000000E+00  0.00000000000E+00  0.45593999997E+02  0.45594000000E+02  0.51100000000E-03 0. -1.
         11   -1    0    0    0    0 -0.00000000000E+00 -0.00000000000E+00 -0.45593999997E+02  0.45594000000E+02  0.51100000000E-03 0.  1.
    9900012    2    1    2    0    0 -0.23310131584E+02  0.49785043831E+01 -0.36269448832E+02  0.47787301170E+02  0.20000137353E+02 0.  0.
         12    1    1    2    0    0  0.23310131584E+02 -0.49785043831E+01  0.36269448832E+02  0.43400698830E+02  0.00000000000E+00 0. -1.
         11    1    3    3    0    0 -0.11897593559E+01  0.44736511521E+01 -0.70009839800E+00  0.46817966619E+01  0.51100000000E-03 0. -1.
        -11    1    3    3    0    0 -0.21687832873E+02  0.45700305582E+00 -0.27507385044E+02  0.35031802391E+02  0.51100000000E-03 0.  1.
        -12    1    3    3    0    0 -0.43253935575E+00  0.47850175245E-01 -0.80619653897E+01  0.80737021172E+01  0.00000000000E+00 0.  1.
</event>
<event>
 7    1  0.4937359E-010  0.4778730E+02  0.7816164E-02  0.1312668E+00
        -11   -1    0    0    0    0  0.00000000000E+00  0.00000000000E+00  0.45593999997E+02  0.45594000000E+02  0.51100000000E-03 0. -1.
         11   -1    0    0    0    0 -0.00000000000E+00 -0.00000000000E+00 -0.45593999997E+02  0.45594000000E+02  0.51100000000E-03 0.  1.
    9900012    2    1    2    0    0 -0.32898160689E+02 -0.90847047092E+01  0.26810448655E+02  0.47787297316E+02  0.20000119782E+02 0.  0.
         12    1    1    2    0    0  0.32898160689E+02  0.90847047092E+01 -0.26810448655E+02  0.43400702684E+02  0.00000000000E+00 0. -1.
         11    1    3    3    0    0 -0.20481576275E+02 -0.21463990643E+01  0.48596434838E+01  0.21159350904E+02  0.51100000000E-03 0. -1.
        -11    1    3    3    0    0 -0.12172014808E+02 -0.51767926685E+01  0.18452686683E+02  0.22703717160E+02  0.51100000000E-03 0.  1.
         12    1    3    3    0    0 -0.24456960655E+00 -0.17615129764E+01  0.34981184884E+01  0.39242292513E+01  0.00000000000E+00 0. -1.
</event>
<event>
 7    1  0.4937359E-010  0.4778727E+02  0.7816164E-02  0.1312668E+00
        -11   -1    0    0    0    0  0.00000000000E+00  0.00000000000E+00  0.45593999997E+02  0.45594000000E+02  0.51100000000E-03 0.  1.
         11   -1    0    0    0    0 -0.00000000000E+00 -0.00000000000E+00 -0.45593999997E+02  0.45594000000E+02  0.51100000000E-03 0. -1.
    9900012    2    1    2    0    0 -0.16787316413E+02 -0.12821002784E+02  0.37913468812E+02  0.47787271641E+02  0.20000002721E+02 0.  0.
         12    1    1    2    0    0  0.16787316413E+02  0.12821002784E+02 -0.37913468812E+02  0.43400728359E+02  0.00000000000E+00 0. -1.
         11    1    3    3    0    0 -0.13025623741E+02 -0.35904022295E+01  0.13662122283E+02  0.19214875684E+02  0.51100000000E-03 0. -1.
        -11    1    3    3    0    0  0.32352458120E+01  0.32882266271E+00  0.56521353907E+01  0.65208568872E+01  0.51100000000E-03 0.  1.
        -12    1    3    3    0    0 -0.69969384841E+01 -0.95594232175E+01  0.18599211138E+02  0.22051539070E+02  0.00000000000E+00 0.  1.
</event>
<event>
 7    1  0.4937359E-010  0.4778727E+02  0.7816164E-02  0.1312668E+00
        -11   -1    0    0    0    0  0.00000000000E+00  0.00000000000E+00  0.45593999997E+02  0.45594000000E+02  0.51100000000E-03 0. -1.
         11   -1    0    0    0    0 -0.00000000000E+00 -0.00000000000E+00 -0.45593999997E+02  0.45594000000E+02  0.51100000000E-03 0.  1.
    9900012    2    1    2    0    0  0.10153284942E+02  0.28269086285E+02 -0.31327189523E+02  0.47787271458E+02  0.20000001887E+02 0.  0.
         12    1    1    2    0    0 -0.10153284942E+02 -0.28269086285E+02  0.31327189523E+02  0.43400728542E+02  0.00000000000E+00 0. -1.
         11    1    3    3    0    0 -0.16508420609E+01  0.14709814413E+02 -0.18950987266E+02  0.24046701191E+02  0.51100000000E-03 0. -1.
        -11    1    3    3    0    0  0.89823112230E+01  0.98677537258E+01 -0.36169783861E+01  0.13825230971E+02  0.51100000000E-03 0.  1.
         12    1    3    3    0    0  0.28218157802E+01  0.36915181467E+01 -0.87592238715E+01  0.99153392960E+01  0.00000000000E+00 0. -1.
</event>
<event>
 7    1  0.4937359E-010  0.4778727E+02  0.7816164E-02  0.1312668E+00
        -11   -1    0    0    0    0  0.00000000000E+00  0.00000000000E+00  0.45593999997E+02  0.45594000000E+02  0.51100000000E-03 0.  1.
         11   -1    0    0    0    0 -0.00000000000E+00 -0.00000000000E+00 -0.45593999997E+02  0.45594000000E+02  0.51100000000E-03 0. -1.
    9900012    2    1    2    0    0 -0.18145604306E+02  0.24273609777E+02  0.31066893661E+02  0.47787274557E+02  0.20000016016E+02 0.  0.
         12    1    1    2    0    0  0.18145604306E+02 -0.24273609777E+02 -0.31066893661E+02  0.43400725443E+02  0.00000000000E+00 0. -1.
         11    1    3    3    0    0 -0.28938347926E+01  0.80692302485E+01  0.45129147896E+01  0.96877838936E+01  0.51100000000E-03 0. -1.
        -11    1    3    3    0    0 -0.13287841250E+02  0.13948698010E+02  0.28594652629E+02  0.34478791460E+02  0.51100000000E-03 0.  1.
        -12    1    3    3    0    0 -0.19639282636E+01  0.22556815186E+01 -0.20406737582E+01  0.36206992039E+01  0.00000000000E+00 0.  1.
</event>
<event>
 7    1  0.4937359E-010  0.4778727E+02  0.7816164E-02  0.1312668E+00
        -11   -1    0    0    0    0  0.00000000000E+00  0.00000000000E+00  0.45593999997E+02  0.45594000000E+02  0.51100000000E-03 0. -1.
         11   -1    0    0    0    0 -0.00000000000E+00 -0.00000000000E+00 -0.45593999997E+02  0.45594000000E+02  0.51100000000E-03 0.  1.
    9900012    2    1    2    0    0  0.22522593674E+02  0.78302157066E+01  0.36263529524E+02  0.47787273308E+02  0.20000010322E+02 0.  0.
         12    1    1    2    0    0 -0.22522593674E+02 -0.78302157066E+01 -0.36263529524E+02  0.43400726692E+02  0.00000000000E+00 0. -1.
         11    1    3    3    0    0  0.14963320334E+02 -0.51198585739E+01  0.21220792251E+02  0.26465750155E+02  0.51100000000E-03 0. -1.
        -11    1    3    3    0    0  0.66019380952E+01  0.11989830952E+02  0.14212409797E+02  0.19731554054E+02  0.51100000000E-03 0.  1.
         12    1    3    3    0    0  0.95733524484E+00  0.96024332844E+00  0.83032747592E+00  0.15899690997E+01  0.00000000000E+00 0. -1.
</event>
<event>
 7    1  0.4937359E-010  0.4778727E+02  0.7816164E-02  0.1312668E+00
        -11   -1    0    0    0    0  0.00000000000E+00  0.00000000000E+00  0.45593999997E+02  0.45594000000E+02  0.51100000000E-03 0.  1.
         11   -1    0    0    0    0 -0.00000000000E+00 -0.00000000000E+00 -0.45593999997E+02  0.45594000000E+02  0.51100000000E-03 0. -1.
    9900012    2    1    2    0    0  0.32221499037E+02  0.28759503804E+02 -0.42765969793E+01  0.47787270271E+02  0.19999996476E+02 0.  0.
         12    1    1    2    0    0 -0.32221499037E+02 -0.28759503804E+02  0.42765969793E+01  0.43400729729E+02  0.00000000000E+00 0. -1.
         11    1    3    3    0    0  0.88696107986E+01  0.17048752493E+02  0.32316281304E+01  0.19487775089E+02  0.51100000000E-03 0. -1.
        -11    1    3    3    0    0  0.10300876269E+02  0.82186740084E+01 -0.76497526839E+00  0.13199994007E+02  0.51100000000E-03 0.  1.
         12    1    3    3    0    0  0.13051011969E+02  0.34920773022E+01 -0.67432498413E+01  0.15099501175E+02  0.00000000000E+00 0. -1.
</event>
<event>
 7    1  0.4937359E-010  0.4778727E+02  0.7816164E-02  0.1312668E+00
        -11   -1    0    0    0    0  0.00000000000E+00  0.00000000000E+00  0.45593999997E+02  0.45594000000E+02  0.51100000000E-03 0.  1.
         11   -1    0    0    0    0 -0.00000000000E+00 -0.00000000000E+00 -0.45593999997E+02  0.45594000000E+02  0.51100000000E-03 0. -1.
    9900012    2    1    2    0    0  0.25133697782E+02  0.21924307948E+02  0.27771304831E+02  0.47787269416E+02  0.19999992577E+02 0.  0.
         12    1    1    2    0    0 -0.25133697782E+02 -0.21924307948E+02 -0.27771304831E+02  0.43400730584E+02  0.00000000000E+00 0. -1.
         11    1    3    3    0    0  0.58374252068E+01  0.14950362660E+02  0.99251530156E+01  0.18870546875E+02  0.51100000000E-03 0. -1.
        -11    1    3    3    0    0  0.16219073761E+02  0.14282832038E+01  0.14180961369E+02  0.21591619027E+02  0.51100000000E-03 0.  1.
        -12    1    3    3    0    0  0.30771988134E+01  0.55456620843E+01  0.36651904457E+01  0.73251035142E+01  0.00000000000E+00 0.  1.
</event>
<event>
 7    1  0.4937359E-010  0.4778727E+02  0.7816164E-02  0.1312668E+00
        -11   -1    0    0    0    0  0.00000000000E+00  0.00000000000E+00  0.45593999997E+02  0.45594000000E+02  0.51100000000E-03 0.  1.
         11   -1    0    0    0    0 -0.00000000000E+00 -0.00000000000E+00 -0.45593999997E+02  0.45594000000E+02  0.51100000000E-03 0. -1.
    9900012    2    1    2    0    0 -0.30327048011E+02  0.30984009253E+02 -0.19709939462E+01  0.47787268582E+02  0.19999988775E+02 0.  0.
         12    1    1    2    0    0  0.30327048011E+02 -0.30984009253E+02  0.19709939462E+01  0.43400731418E+02  0.00000000000E+00 0. -1.
         11    1    3    3    0    0 -0.13922902941E+02  0.18131610983E+02 -0.92267174974E+01  0.24652278985E+02  0.51100000000E-03 0.  1.
        -11    1    3    3    0    0 -0.19087127696E+01  0.48210313216E+01  0.39786263876E+00  0.52003675236E+01  0.51100000000E-03 0. -1.
         12    1    3    3    0    0 -0.14495432300E+02  0.80313669491E+01  0.68578609123E+01  0.17934622073E+02  0.00000000000E+00 0. -1.
</event>
<event>
 7    1  0.4937359E-010  0.4778727E+02  0.7816164E-02  0.1312668E+00
        -11   -1    0    0    0    0  0.00000000000E+00  0.00000000000E+00  0.45593999997E+02  0.45594000000E+02  0.51100000000E-03 0.  1.
         11   -1    0    0    0    0 -0.00000000000E+00 -0.00000000000E+00 -0.45593999997E+02  0.45594000000E+02  0.51100000000E-03 0. -1.
    9900012    2    1    2    0    0 -0.88318555585E+01 -0.40601262276E+02  0.12536311866E+02  0.47787270902E+02  0.19999999352E+02 0.  0.
         12    1    1    2    0    0  0.88318555585E+01  0.40601262276E+02 -0.12536311866E+02  0.43400729098E+02  0.00000000000E+00 0. -1.
         11    1    3    3    0    0 -0.71228897064E+01 -0.12730200710E+02 -0.26396881069E+01  0.14824355684E+02  0.51100000000E-03 0. -1.
        -11    1    3    3    0    0 -0.47272297844E+01 -0.18868829398E+02  0.12409842397E+02  0.23073439554E+02  0.51100000000E-03 0.  1.
         12    1    3    3    0    0  0.30182639323E+01 -0.90022321678E+01  0.27661575760E+01  0.98894756638E+01  0.00000000000E+00 0. -1.
</event>
<event>
 7    1  0.4937359E-010  0.4778727E+02  0.7816164E-02  0.1312668E+00
        -11   -1    0    0    0    0  0.00000000000E+00  0.00000000000E+00  0.45593999997E+02  0.45594000000E+02  0.51100000000E-03 0.  1.
         11   -1    0    0    0    0 -0.00000000000E+00 -0.00000000000E+00 -0.45593999997E+02  0.45594000000E+02  0.51100000000E-03 0. -1.
    9900012    2    1    2    0    0 -0.31348984592E+02  0.27588461208E+02  0.11821224373E+02  0.47787269908E+02  0.19999994820E+02 0.  0.
         12    1    1    2    0    0  0.31348984592E+02 -0.27588461208E+02 -0.11821224373E+02  0.43400730092E+02  0.00000000000E+00 0. -1.
         11    1    3    3    0    0 -0.59807320644E+00 -0.12834508924E+01 -0.15810053657E+00  0.14247574510E+01  0.51100000000E-03 0. -1.
        -11    1    3    3    0    0  0.25993376341E+00 -0.13220482231E+01  0.10860164005E+01  0.17305516313E+01  0.51100000000E-03 0.  1.
        -12    1    3    3    0    0 -0.31010845149E+02  0.30193960324E+02  0.10893308509E+02  0.44631960826E+02  0.00000000000E+00 0.  1.
</event>
<event>
 7    1  0.4937359E-010  0.4778727E+02  0.7816164E-02  0.1312668E+00
        -11   -1    0    0    0    0  0.00000000000E+00  0.00000000000E+00  0.45593999997E+02  0.45594000000E+02  0.51100000000E-03 0.  1.
         11   -1    0    0    0    0 -0.00000000000E+00 -0.00000000000E+00 -0.45593999997E+02  0.45594000000E+02  0.51100000000E-03 0. -1.
    9900012    2    1    2    0    0 -0.13508510757E+02  0.12897743492E+02  0.39176416628E+02  0.47787271091E+02  0.20000000211E+02 0.  0.
         12    1    1    2    0    0  0.13508510757E+02 -0.12897743492E+02 -0.39176416628E+02  0.43400728909E+02  0.00000000000E+00 0. -1.
         11    1    3    3    0    0 -0.29072684602E+01  0.43167738129E+01  0.11899232904E+01  0.53387886032E+01  0.51100000000E-03 0. -1.
        -11    1    3    3    0    0 -0.72647623672E+01  0.26426269881E+01  0.33287686445E+02  0.34173532430E+02  0.51100000000E-03 0.  1.
        -12    1    3    3    0    0 -0.33364799296E+01  0.59383426910E+01  0.46988068928E+01  0.82749500574E+01  0.00000000000E+00 0.  1.
</event>
<event>
 7    1  0.4937359E-010  0.4778729E+02  0.7816164E-02  0.1312668E+00
        -11   -1    0    0    0    0  0.00000000000E+00  0.00000000000E+00  0.45593999997E+02  0.45594000000E+02  0.51100000000E-03 0.  1.
         11   -1    0    0    0    0 -0.00000000000E+00 -0.00000000000E+00 -0.45593999997E+02  0.45594000000E+02  0.51100000000E-03 0. -1.
    9900012    2    1    2    0    0  0.27817510314E+02 -0.17032951839E+02  0.28630170832E+02  0.47787285602E+02  0.20000066373E+02 0.  0.
         12    1    1    2    0    0 -0.27817510314E+02  0.17032951839E+02 -0.28630170832E+02  0.43400714398E+02  0.00000000000E+00 0. -1.
         11    1    3    3    0    0  0.18834681681E+02 -0.78022109274E+01  0.53370706729E+01  0.21073776430E+02  0.51100000000E-03 0. -1.
        -11    1    3    3    0    0  0.58937419593E+01 -0.71447840950E+01  0.15132640712E+02  0.17742067219E+02  0.51100000000E-03 0.  1.
         12    1    3    3    0    0  0.30890866730E+01 -0.20859568162E+01  0.81604594477E+01  0.89714419527E+01  0.00000000000E+00 0. -1.
</event>
<event>
 7    1  0.4937359E-010  0.4778727E+02  0.7816164E-02  0.1312668E+00
        -11   -1    0    0    0    0  0.00000000000E+00  0.00000000000E+00  0.45593999997E+02  0.45594000000E+02  0.51100000000E-03 0. -1.
         11   -1    0    0    0    0 -0.00000000000E+00 -0.00000000000E+00 -0.45593999997E+02  0.45594000000E+02  0.51100000000E-03 0.  1.
    9900012    2    1    2    0    0  0.18055016191E+02 -0.37456192753E+02 -0.12436772741E+02  0.47787270727E+02  0.19999998552E+02 0.  0.
         12    1    1    2    0    0 -0.18055016191E+02  0.37456192753E+02  0.12436772741E+02  0.43400729273E+02  0.00000000000E+00 0. -1.
         11    1    3    3    0    0  0.50164212715E+01 -0.15896242352E+02 -0.44439685918E+00  0.16674906060E+02  0.51100000000E-03 0. -1.
        -11    1    3    3    0    0  0.12274911955E+01  0.19801845294E+01 -0.14470377513E+01  0.27425870853E+01  0.51100000000E-03 0.  1.
        -12    1    3    3    0    0  0.11811103724E+02 -0.23540134931E+02 -0.10545338130E+02  0.28369777581E+02  0.00000000000E+00 0.  1.
</event>
<event>
 7    1  0.4937359E-010  0.4778727E+02  0.7816164E-02  0.1312668E+00
        -11   -1    0    0    0    0  0.00000000000E+00  0.00000000000E+00  0.45593999997E+02  0.45594000000E+02  0.51100000000E-03 0.  1.
         11   -1    0    0    0    0 -0.00000000000E+00 -0.00000000000E+00 -0.45593999997E+02  0.45594000000E+02  0.51100000000E-03 0. -1.
    9900012    2    1    2    0    0 -0.16446899955E+02  0.29401448771E+02  0.27361971036E+02  0.47787272276E+02  0.20000005616E+02 0.  0.
         12    1    1    2    0    0  0.16446899955E+02 -0.29401448771E+02 -0.27361971036E+02  0.43400727724E+02  0.00000000000E+00 0. -1.
         11    1    3    3    0    0 -0.19285584615E+02  0.21678748959E+02  0.23783878477E+02  0.37517659922E+02  0.51100000000E-03 0.  1.
        -11    1    3    3    0    0  0.31744148392E+01  0.22786072788E+01  0.33035846847E+00  0.39214917674E+01  0.51100000000E-03 0. -1.
        -12    1    3    3    0    0 -0.33573018012E+00  0.54440925327E+01  0.32477340905E+01  0.63481205865E+01  0.00000000000E+00 0.  1.
</event>
<event>
 7    1  0.4937359E-010  0.4778727E+02  0.7816164E-02  0.1312668E+00
        -11   -1    0    0    0    0  0.00000000000E+00  0.00000000000E+00  0.45593999997E+02  0.45594000000E+02  0.51100000000E-03 0.  1.
         11   -1    0    0    0    0 -0.00000000000E+00 -0.00000000000E+00 -0.45593999997E+02  0.45594000000E+02  0.51100000000E-03 0. -1.
    9900012    2    1    2    0    0  0.18645929353E+02 -0.38963976830E+02  0.42144035365E+01  0.47787269948E+02  0.19999995003E+02 0.  0.
         12    1    1    2    0    0 -0.18645929353E+02  0.38963976830E+02 -0.42144035365E+01  0.43400730052E+02  0.00000000000E+00 0. -1.
         11    1    3    3    0    0 -0.64589372142E+00 -0.32151910013E+01  0.51838581650E+01  0.61340865343E+01  0.51100000000E-03 0. -1.
        -11    1    3    3    0    0  0.14528781571E+02 -0.32910042698E+02  0.25269155396E+00  0.35975272864E+02  0.51100000000E-03 0.  1.
         12    1    3    3    0    0  0.47630415039E+01 -0.28387431303E+01 -0.12221461825E+01  0.56779105505E+01  0.00000000000E+00 0. -1.
</event>
<event>
 7    1  0.4937359E-010  0.4778728E+02  0.7816164E-02  0.1312668E+00
        -11   -1    0    0    0    0  0.00000000000E+00  0.00000000000E+00  0.45593999997E+02  0.45594000000E+02  0.51100000000E-03 0.  1.
         11   -1    0    0    0    0 -0.00000000000E+00 -0.00000000000E+00 -0.45593999997E+02  0.45594000000E+02  0.51100000000E-03 0. -1.
    9900012    2    1    2    0    0  0.28570747489E+02 -0.32430108141E+02 -0.39526316172E+01  0.47787276241E+02  0.20000023691E+02 0.  0.
         12    1    1    2    0    0 -0.28570747489E+02  0.32430108141E+02  0.39526316172E+01  0.43400723759E+02  0.00000000000E+00 0. -1.
         11    1    3    3    0    0  0.11039048933E+02 -0.29529141762E+01 -0.57047479502E+01  0.12772018357E+02  0.51100000000E-03 0. -1.
        -11    1    3    3    0    0  0.11877275144E+02 -0.24858490034E+02  0.19930786964E+00  0.27550933115E+02  0.51100000000E-03 0.  1.
        -12    1    3    3    0    0  0.56544234120E+01 -0.46187039312E+01  0.15528084634E+01  0.74643247685E+01  0.00000000000E+00 0.  1.
</event>
<event>
 7    1  0.4937359E-010  0.4778727E+02  0.7816164E-02  0.1312668E+00
        -11   -1    0    0    0    0  0.00000000000E+00  0.00000000000E+00  0.45593999997E+02  0.45594000000E+02  0.51100000000E-03 0.  1.
         11   -1    0    0    0    0 -0.00000000000E+00 -0.00000000000E+00 -0.45593999997E+02  0.45594000000E+02  0.51100000000E-03 0. -1.
    9900012    2    1    2    0    0  0.14018471626E+01  0.38298947194E+02  0.20367837500E+02  0.47787270328E+02  0.19999996732E+02 0.  0.
         12    1    1    2    0    0 -0.14018471626E+01 -0.38298947194E+02 -0.20367837500E+02  0.43400729672E+02  0.00000000000E+00 0. -1.
         11    1    3    3    0    0  0.77916436717E+00  0.17341885121E+02  0.73974927282E-01  0.17359537701E+02  0.51100000000E-03 0. -1.
        -11    1    3    3    0    0 -0.22419343063E+01  0.13847780257E+02  0.86274833996E+01  0.16468781301E+02  0.51100000000E-03 0.  1.
         12    1    3    3    0    0  0.28646171017E+01  0.71092818170E+01  0.11666379173E+02  0.13958951325E+02  0.00000000000E+00 0. -1.
</event>
<event>
 7    1  0.4937359E-010  0.4778728E+02  0.7816164E-02  0.1312668E+00
        -11   -1    0    0    0    0  0.00000000000E+00  0.00000000000E+00  0.45593999997E+02  0.45594000000E+02  0.51100000000E-03 0. -1.
         11   -1    0    0    0    0 -0.00000000000E+00 -0.00000000000E+00 -0.45593999997E+02  0.45594000000E+02  0.51100000000E-03 0.  1.
    9900012    2    1    2    0    0 -0.28012770416E+02 -0.30145089988E+02 -0.13790605856E+02  0.47787279193E+02  0.20000037151E+02 0.  0.
         12    1    1    2    0    0  0.28012770416E+02  0.30145089988E+02  0.13790605856E+02  0.43400720807E+02  0.00000000000E+00 0. -1.
         11    1    3    3    0    0 -0.26125617829E+02 -0.17474946377E+02 -0.81891881572E+01  0.32480524330E+02  0.51100000000E-03 0. -1.
        -11    1    3    3    0    0 -0.61075334341E+00 -0.63828943860E+01  0.52812747765E+00  0.64337608972E+01  0.51100000000E-03 0.  1.
         12    1    3    3    0    0 -0.12763992437E+01 -0.62872492243E+01 -0.61295451766E+01  0.88729939654E+01  0.00000000000E+00 0. -1.
</event>
<event>
 7    1  0.4937359E-010  0.4778728E+02  0.7816164E-02  0.1312668E+00
        -11   -1    0    0    0    0  0.00000000000E+00  0.00000000000E+00  0.45593999997E+02  0.45594000000E+02  0.51100000000E-03 0.  1.
         11   -1    0    0    0    0 -0.00000000000E+00 -0.00000000000E+00 -0.45593999997E+02  0.45594000000E+02  0.51100000000E-03 0. -1.
    9900012    2    1    2    0    0 -0.60230270909E+01 -0.17077758467E+02  0.39442310526E+02  0.47787279393E+02  0.20000038064E+02 0.  0.
         12    1    1    2    0    0  0.60230270909E+01  0.17077758467E+02 -0.39442310526E+02  0.43400720607E+02  0.00000000000E+00 0. -1.
         11    1    3    3    0    0  0.56519582562E+01 -0.98129351548E+01  0.15538946655E+02  0.19227511329E+02  0.51100000000E-03 0. -1.
        -11    1    3    3    0    0 -0.78523137274E+01 -0.70970204313E+00  0.14195186265E+02  0.16237789912E+02  0.51100000000E-03 0.  1.
         12    1    3    3    0    0 -0.38226716197E+01 -0.65551212687E+01  0.97081776053E+01  0.12321978152E+02  0.00000000000E+00 0. -1.
</event>
<event>
 7    1  0.4937359E-010  0.4778727E+02  0.7816164E-02  0.1312668E+00
        -11   -1    0    0    0    0  0.00000000000E+00  0.00000000000E+00  0.45593999997E+02  0.45594000000E+02  0.51100000000E-03 0.  1.
         11   -1    0    0    0    0 -0.00000000000E+00 -0.00000000000E+00 -0.45593999997E+02  0.45594000000E+02  0.51100000000E-03 0. -1.
    9900012    2    1    2    0    0  0.28511073637E+02  0.59836101975E+01  0.32170457582E+02  0.47787271296E+02  0.20000001148E+02 0.  0.
         12    1    1    2    0    0 -0.28511073637E+02 -0.59836101975E+01 -0.32170457582E+02  0.43400728704E+02  0.00000000000E+00 0. -1.
         11    1    3    3    0    0 -0.11336024449E+00 -0.25661987907E+01  0.27642839405E+01  0.37735252408E+01  0.51100000000E-03 0. -1.
        -11    1    3    3    0    0  0.19946028945E+02  0.38886468148E+01  0.10927446825E+02  0.23073247260E+02  0.51100000000E-03 0.  1.
        -12    1    3    3    0    0  0.86784049368E+01  0.46611621734E+01  0.18478726816E+02  0.20940498796E+02  0.00000000000E+00 0.  1.
</event>
<event>
 7    1  0.4937359E-010  0.4778727E+02  0.7816164E-02  0.1312668E+00
        -11   -1    0    0    0    0  0.00000000000E+00  0.00000000000E+00  0.45593999997E+02  0.45594000000E+02  0.51100000000E-03 0.  1.
         11   -1    0    0    0    0 -0.00000000000E+00 -0.00000000000E+00 -0.45593999997E+02  0.45594000000E+02  0.51100000000E-03 0. -1.
    9900012    2    1    2    0    0 -0.17871785379E+02  0.20934279874E+02  0.33555605971E+02  0.47787268687E+02  0.19999989249E+02 0.  0.
         12    1    1    2    0    0  0.17871785379E+02 -0.20934279874E+02 -0.33555605971E+02  0.43400731313E+02  0.00000000000E+00 0. -1.
         11    1    3    3    0    0  0.44207681691E+00 -0.22830990246E+01  0.11059104376E+01  0.25750749941E+01  0.51100000000E-03 0. -1.
        -11    1    3    3    0    0 -0.16263427786E+02  0.22936165856E+02  0.25490297750E+02  0.37951575293E+02  0.51100000000E-03 0.  1.
         12    1    3    3    0    0 -0.20504344102E+01  0.28121304211E+00  0.69593977830E+01  0.72606183998E+01  0.00000000000E+00 0. -1.
</event>
<event>
 7    1  0.4937359E-010  0.4778727E+02  0.7816164E-02  0.1312668E+00
        -11   -1    0    0    0    0  0.00000000000E+00  0.00000000000E+00  0.45593999997E+02  0.45594000000E+02  0.51100000000E-03 0. -1.
         11   -1    0    0    0    0 -0.00000000000E+00 -0.00000000000E+00 -0.45593999997E+02  0.45594000000E+02  0.51100000000E-03 0.  1.
    9900012    2    1    2    0    0 -0.16777367831E+02  0.22005562537E+01 -0.39966246729E+02  0.47787269629E+02  0.19999993548E+02 0.  0.
         12    1    1    2    0    0  0.16777367831E+02 -0.22005562537E+01  0.39966246729E+02  0.43400730371E+02  0.00000000000E+00 0. -1.
         11    1    3    3    0    0 -0.24482743736E+01  0.91836089736E+01 -0.20249753780E+02  0.22369292559E+02  0.51100000000E-03 0. -1.
        -11    1    3    3    0    0 -0.10346811027E+02 -0.41349166127E+01 -0.13462004732E+02  0.17475113890E+02  0.51100000000E-03 0.  1.
         12    1    3    3    0    0 -0.39822824299E+01 -0.28481361072E+01 -0.62544882168E+01  0.79428631797E+01  0.00000000000E+00 0. -1.
</event>
<event>
 7    1  0.4937359E-010  0.4778727E+02  0.7816164E-02  0.1312668E+00
        -11   -1    0    0    0    0  0.00000000000E+00  0.00000000000E+00  0.45593999997E+02  0.45594000000E+02  0.51100000000E-03 0.  1.
         11   -1    0    0    0    0 -0.00000000000E+00 -0.00000000000E+00 -0.45593999997E+02  0.45594000000E+02  0.51100000000E-03 0. -1.
    9900012    2    1    2    0    0  0.17156726302E+01 -0.36464029262E+02  0.23474543807E+02  0.47787272246E+02  0.20000005477E+02 0.  0.
         12    1    1    2    0    0 -0.17156726302E+01  0.36464029262E+02 -0.23474543807E+02  0.43400727754E+02  0.00000000000E+00 0. -1.
         11    1    3    3    0    0 -0.11849910015E+01  0.20212333697E+01 -0.42849866067E+00  0.23818478901E+01  0.51100000000E-03 0. -1.
        -11    1    3    3    0    0  0.13535514836E+01 -0.22355006194E+02  0.13540047122E+02  0.26170809691E+02  0.51100000000E-03 0.  1.
         12    1    3    3    0    0  0.15471121480E+01 -0.16130256438E+02  0.10362995346E+02  0.19234614665E+02  0.00000000000E+00 0. -1.
</event>
<event>
 7    1  0.4937359E-010  0.4778726E+02  0.7816164E-02  0.1312668E+00
        -11   -1    0    0    0    0  0.00000000000E+00  0.00000000000E+00  0.45593999997E+02  0.45594000000E+02  0.51100000000E-03 0.  1.
         11   -1    0    0    0    0 -0.00000000000E+00 -0.00000000000E+00 -0.45593999997E+02  0.45594000000E+02  0.51100000000E-03 0. -1.
    9900012    2    1    2    0    0  0.37035427399E+02  0.18366823316E+02  0.13215946910E+02  0.47787258830E+02  0.19999944309E+02 0.  0.
         12    1    1    2    0    0 -0.37035427399E+02 -0.18366823316E+02 -0.13215946910E+02  0.43400741170E+02  0.00000000000E+00 0. -1.
         11    1    3    3    0    0  0.28282419383E+01  0.14127650385E+01 -0.15962248864E+01  0.35415803908E+01  0.51100000000E-03 0. -1.
        -11    1    3    3    0    0  0.66151930014E+01 -0.33602759725E+01  0.22789309024E+01  0.77618141807E+01  0.51100000000E-03 0.  1.
        -12    1    3    3    0    0  0.27591992460E+02  0.20314334250E+02  0.12533240894E+02  0.36483864258E+02  0.00000000000E+00 0.  1.
</event>
<event>
 7    1  0.4937359E-010  0.4778727E+02  0.7816164E-02  0.1312668E+00
        -11   -1    0    0    0    0  0.00000000000E+00  0.00000000000E+00  0.45593999997E+02  0.45594000000E+02  0.51100000000E-03 0.  1.
         11   -1    0    0    0    0 -0.00000000000E+00 -0.00000000000E+00 -0.45593999997E+02  0.45594000000E+02  0.51100000000E-03 0. -1.
    9900012    2    1    2    0    0 -0.35866844893E+02  0.15172254000E+02  0.19157119842E+02  0.47787273109E+02  0.20000009415E+02 0.  0.
         12    1    1    2    0    0  0.35866844893E+02 -0.15172254000E+02 -0.19157119842E+02  0.43400726891E+02  0.00000000000E+00 0. -1.
         11    1    3    3    0    0 -0.14230539329E+02  0.27094348622E+01  0.10564428813E+02  0.17929206431E+02  0.51100000000E-03 0. -1.
        -11    1    3    3    0    0 -0.79912558823E+01  0.15121967798E+01 -0.32205402826E+01  0.87475019092E+01  0.51100000000E-03 0.  1.
        -12    1    3    3    0    0 -0.13645049682E+02  0.10950622357E+02  0.11813231312E+02  0.21110564769E+02  0.00000000000E+00 0.  1.
</event>
<event>
 7    1  0.4937359E-010  0.4778727E+02  0.7816164E-02  0.1312668E+00
        -11   -1    0    0    0    0  0.00000000000E+00  0.00000000000E+00  0.45593999997E+02  0.45594000000E+02  0.51100000000E-03 0.  1.
         11   -1    0    0    0    0 -0.00000000000E+00 -0.00000000000E+00 -0.45593999997E+02  0.45594000000E+02  0.51100000000E-03 0. -1.
    9900012    2    1    2    0    0 -0.78494607322E+01 -0.18287279380E+02  0.38569219752E+02  0.47787270361E+02  0.19999996884E+02 0.  0.
         12    1    1    2    0    0  0.78494607322E+01  0.18287279380E+02 -0.38569219752E+02  0.43400729639E+02  0.00000000000E+00 0. -1.
         11    1    3    3    0    0 -0.11838239292E+02 -0.74510347627E+01  0.16612443309E+02  0.21717161452E+02  0.51100000000E-03 0. -1.
        -11    1    3    3    0    0  0.27568368882E+01 -0.11407279327E+02  0.21725670972E+02  0.24692730726E+02  0.51100000000E-03 0.  1.
        -12    1    3    3    0    0  0.12319416718E+01  0.57103470937E+00  0.23110547203E+00  0.13773781838E+01  0.00000000000E+00 0.  1.
</event>
<event>
 7    1  0.4937359E-010  0.4778727E+02  0.7816164E-02  0.1312668E+00
        -11   -1    0    0    0    0  0.00000000000E+00  0.00000000000E+00  0.45593999997E+02  0.45594000000E+02  0.51100000000E-03 0. -1.
         11   -1    0    0    0    0 -0.00000000000E+00 -0.00000000000E+00 -0.45593999997E+02  0.45594000000E+02  0.51100000000E-03 0.  1.
    9900012    2    1    2    0    0 -0.45396193124E+01  0.41342824560E+02  0.12401048933E+02  0.47787270735E+02  0.19999998590E+02 0.  0.
         12    1    1    2    0    0  0.45396193124E+01 -0.41342824560E+02 -0.12401048933E+02  0.43400729265E+02  0.00000000000E+00 0. -1.
         11    1    3    3    0    0 -0.50018239737E+01  0.23945948363E+02  0.99619931915E+01  0.26413405587E+02  0.51100000000E-03 0. -1.
        -11    1    3    3    0    0 -0.45022531258E+00  0.82078236144E-01 -0.31294971006E+01  0.31627823245E+01  0.51100000000E-03 0.  1.
        -12    1    3    3    0    0  0.91242997387E+00  0.17314797960E+02  0.55685528422E+01  0.18211082824E+02  0.00000000000E+00 0.  1.
</event>
<event>
 7    1  0.4937359E-010  0.4778732E+02  0.7816164E-02  0.1312668E+00
        -11   -1    0    0    0    0  0.00000000000E+00  0.00000000000E+00  0.45593999997E+02  0.45594000000E+02  0.51100000000E-03 0.  1.
         11   -1    0    0    0    0 -0.00000000000E+00 -0.00000000000E+00 -0.45593999997E+02  0.45594000000E+02  0.51100000000E-03 0. -1.
    9900012    2    1    2    0    0 -0.64729489511E+01  0.16223404039E+02  0.39730608623E+02  0.47787318343E+02  0.20000215653E+02 0.  0.
         12    1    1    2    0    0  0.64729489511E+01 -0.16223404039E+02 -0.39730608623E+02  0.43400681657E+02  0.00000000000E+00 0. -1.
         11    1    3    3    0    0 -0.10029580446E+01 -0.35533591918E+01  0.65359291925E+01  0.75067074710E+01  0.51100000000E-03 0. -1.
        -11    1    3    3    0    0 -0.64234127381E+01  0.20383963513E+02  0.29578151422E+02  0.36491550275E+02  0.51100000000E-03 0.  1.
        -12    1    3    3    0    0  0.95342183170E+00 -0.60720028210E+00  0.36165280087E+01  0.37890605972E+01  0.00000000000E+00 0.  1.
</event>
<event>
 7    1  0.4937359E-010  0.4778726E+02  0.7816164E-02  0.1312668E+00
        -11   -1    0    0    0    0  0.00000000000E+00  0.00000000000E+00  0.45593999997E+02  0.45594000000E+02  0.51100000000E-03 0.  1.
         11   -1    0    0    0    0 -0.00000000000E+00 -0.00000000000E+00 -0.45593999997E+02  0.45594000000E+02  0.51100000000E-03 0. -1.
    9900012    2    1    2    0    0  0.30556175526E+02  0.53994428229E+01  0.30344532549E+02  0.47787256905E+02  0.19999935533E+02 0.  0.
         12    1    1    2    0    0 -0.30556175526E+02 -0.53994428229E+01 -0.30344532549E+02  0.43400743095E+02  0.00000000000E+00 0. -1.
         11    1    3    3    0    0  0.61749634597E+01  0.39803141247E+01 -0.59121891941E+00  0.73703876650E+01  0.51100000000E-03 0. -1.
        -11    1    3    3    0    0  0.10754420537E+02 -0.25326335182E+01  0.88024199698E+01  0.14126372188E+02  0.51100000000E-03 0.  1.
         12    1    3    3    0    0  0.13626791530E+02  0.39517622163E+01  0.22133331498E+02  0.26290497052E+02  0.00000000000E+00 0. -1.
</event>
<event>
 7    1  0.4937359E-010  0.4778730E+02  0.7816164E-02  0.1312668E+00
        -11   -1    0    0    0    0  0.00000000000E+00  0.00000000000E+00  0.45593999997E+02  0.45594000000E+02  0.51100000000E-03 0.  1.
         11   -1    0    0    0    0 -0.00000000000E+00 -0.00000000000E+00 -0.45593999997E+02  0.45594000000E+02  0.51100000000E-03 0. -1.
    9900012    2    1    2    0    0  0.40049993707E+02 -0.51599714895E+00  0.16713840891E+02  0.47787300394E+02  0.20000133814E+02 0.  0.
         12    1    1    2    0    0 -0.40049993707E+02  0.51599714895E+00 -0.16713840891E+02  0.43400699606E+02  0.00000000000E+00 0. -1.
         11    1    3    3    0    0  0.27158072549E+01  0.50079940065E+01  0.19781897832E+01  0.60306590100E+01  0.51100000000E-03 0. -1.
        -11    1    3    3    0    0  0.19441300078E+02 -0.72723538411E+01  0.10609084981E+02  0.23311026651E+02  0.51100000000E-03 0.  1.
         12    1    3    3    0    0  0.17892886374E+02  0.17483626856E+01  0.41265661268E+01  0.18445614733E+02  0.00000000000E+00 0. -1.
</event>
<event>
 7    1  0.4937359E-010  0.4778727E+02  0.7816164E-02  0.1312668E+00
        -11   -1    0    0    0    0  0.00000000000E+00  0.00000000000E+00  0.45593999997E+02  0.45594000000E+02  0.51100000000E-03 0.  1.
         11   -1    0    0    0    0 -0.00000000000E+00 -0.00000000000E+00 -0.45593999997E+02  0.45594000000E+02  0.51100000000E-03 0. -1.
    9900012    2    1    2    0    0  0.22627350016E+02  0.25849452972E+02  0.26522297320E+02  0.47787269098E+02  0.19999991126E+02 0.  0.
         12    1    1    2    0    0 -0.22627350016E+02 -0.25849452972E+02 -0.26522297320E+02  0.43400730902E+02  0.00000000000E+00 0. -1.
         11    1    3    3    0    0  0.13987753346E+01  0.10104322928E+01 -0.36228690090E+00  0.17631783559E+01  0.51100000000E-03 0. -1.
        -11    1    3    3    0    0  0.30052213244E+01 -0.27958911614E+01  0.43403150217E+01  0.59738343920E+01  0.51100000000E-03 0.  1.
        -12    1    3    3    0    0  0.18223353357E+02  0.27634911841E+02  0.22544269199E+02  0.40050256350E+02  0.00000000000E+00 0.  1.
</event>
<event>
 7    1  0.4937359E-010  0.4778727E+02  0.7816164E-02  0.1312668E+00
        -11   -1    0    0    0    0  0.00000000000E+00  0.00000000000E+00  0.45593999997E+02  0.45594000000E+02  0.51100000000E-03 0. -1.
         11   -1    0    0    0    0 -0.00000000000E+00 -0.00000000000E+00 -0.45593999997E+02  0.45594000000E+02  0.51100000000E-03 0.  1.
    9900012    2    1    2    0    0 -0.42688667626E+02 -0.52348123338E+01 -0.58221731496E+01  0.47787270697E+02  0.19999998417E+02 0.  0.
         12    1    1    2    0    0  0.42688667626E+02  0.52348123338E+01  0.58221731496E+01  0.43400729303E+02  0.00000000000E+00 0. -1.
         11    1    3    3    0    0 -0.33161873154E+02  0.15430004927E+01 -0.64210512429E+01  0.33813023836E+02  0.51100000000E-03 0. -1.
        -11    1    3    3    0    0 -0.39327379798E+01 -0.11309374693E+01 -0.31709994538E+01  0.51769378376E+01  0.51100000000E-03 0.  1.
         12    1    3    3    0    0 -0.55940564918E+01 -0.56468753572E+01  0.37698775471E+01  0.87973090234E+01  0.00000000000E+00 0. -1.
</event>
<event>
 7    1  0.4937359E-010  0.4778727E+02  0.7816164E-02  0.1312668E+00
        -11   -1    0    0    0    0  0.00000000000E+00  0.00000000000E+00  0.45593999997E+02  0.45594000000E+02  0.51100000000E-03 0.  1.
         11   -1    0    0    0    0 -0.00000000000E+00 -0.00000000000E+00 -0.45593999997E+02  0.45594000000E+02  0.51100000000E-03 0. -1.
    9900012    2    1    2    0    0 -0.33735804721E+02 -0.21314583442E+02  0.17064809464E+02  0.47787266025E+02  0.19999977116E+02 0.  0.
         12    1    1    2    0    0  0.33735804721E+02  0.21314583442E+02 -0.17064809464E+02  0.43400733975E+02  0.00000000000E+00 0. -1.
         11    1    3    3    0    0 -0.43366335412E+01 -0.13339445842E-01  0.58845623230E+01  0.73099003006E+01  0.51100000000E-03 0. -1.
        -11    1    3    3    0    0 -0.18805112432E+02 -0.19825073063E+02  0.40534919740E+01  0.27624202666E+02  0.51100000000E-03 0.  1.
        -12    1    3    3    0    0 -0.10594058749E+02 -0.14761709335E+01  0.71267551671E+01  0.12853163058E+02  0.00000000000E+00 0.  1.
</event>
<event>
 7    1  0.4937359E-010  0.4778728E+02  0.7816164E-02  0.1312668E+00
        -11   -1    0    0    0    0  0.00000000000E+00  0.00000000000E+00  0.45593999997E+02  0.45594000000E+02  0.51100000000E-03 0. -1.
         11   -1    0    0    0    0 -0.00000000000E+00 -0.00000000000E+00 -0.45593999997E+02  0.45594000000E+02  0.51100000000E-03 0.  1.
    9900012    2    1    2    0    0  0.21653476247E+02  0.14937059772E+02 -0.34520052980E+02  0.47787275974E+02  0.20000022476E+02 0.  0.
         12    1    1    2    0    0 -0.21653476247E+02 -0.14937059772E+02  0.34520052980E+02  0.43400724026E+02  0.00000000000E+00 0. -1.
         11    1    3    3    0    0  0.27823119615E+01  0.25328610013E+01  0.58657719135E+00  0.38079807990E+01  0.51100000000E-03 0. -1.
        -11    1    3    3    0    0  0.18293002206E+02  0.55087081301E+01 -0.29130105822E+02  0.34835942078E+02  0.51100000000E-03 0.  1.
        -12    1    3    3    0    0  0.57816207945E+00  0.68954906402E+01 -0.59765243498E+01  0.91433530973E+01  0.00000000000E+00 0.  1.
</event>
<event>
 7    1  0.4937359E-010  0.4778727E+02  0.7816164E-02  0.1312668E+00
        -11   -1    0    0    0    0  0.00000000000E+00  0.00000000000E+00  0.45593999997E+02  0.45594000000E+02  0.51100000000E-03 0.  1.
         11   -1    0    0    0    0 -0.00000000000E+00 -0.00000000000E+00 -0.45593999997E+02  0.45594000000E+02  0.51100000000E-03 0. -1.
    9900012    2    1    2    0    0 -0.11097115634E+02 -0.17165565980E+02  0.38286036266E+02  0.47787271852E+02  0.20000003683E+02 0.  0.
         12    1    1    2    0    0  0.11097115634E+02  0.17165565980E+02 -0.38286036266E+02  0.43400728148E+02  0.00000000000E+00 0. -1.
         11    1    3    3    0    0 -0.90833808251E+01 -0.22223286907E+01  0.46310243504E+01  0.10435177949E+02  0.51100000000E-03 0. -1.
        -11    1    3    3    0    0 -0.32203774670E+01 -0.45068422571E+01  0.92477844470E+01  0.10779794785E+02  0.51100000000E-03 0.  1.
         12    1    3    3    0    0  0.12066426584E+01 -0.10436395032E+02  0.24407227468E+02  0.26572299119E+02  0.00000000000E+00 0. -1.
</event>
<event>
 7    1  0.4937359E-010  0.4778729E+02  0.7816164E-02  0.1312668E+00
        -11   -1    0    0    0    0  0.00000000000E+00  0.00000000000E+00  0.45593999997E+02  0.45594000000E+02  0.51100000000E-03 0. -1.
         11   -1    0    0    0    0 -0.00000000000E+00 -0.00000000000E+00 -0.45593999997E+02  0.45594000000E+02  0.51100000000E-03 0.  1.
    9900012    2    1    2    0    0  0.38143350498E+02 -0.15959288809E+02 -0.13191198415E+02  0.47787288000E+02  0.20000077306E+02 0.  0.
         12    1    1    2    0    0 -0.38143350498E+02  0.15959288809E+02  0.13191198415E+02  0.43400712000E+02  0.00000000000E+00 0. -1.
         11    1    3    3    0    0  0.57063468471E+01 -0.65358762523E+01 -0.77068068957E+01  0.11604953490E+02  0.51100000000E-03 0. -1.
        -11    1    3    3    0    0  0.18586916984E+02  0.70569208536E+00 -0.25450573876E+01  0.18773619834E+02  0.51100000000E-03 0.  1.
        -12    1    3    3    0    0  0.13850086667E+02 -0.10129104642E+02 -0.29393341318E+01  0.17408714676E+02  0.00000000000E+00 0.  1.
</event>
<event>
 7    1  0.4937359E-010  0.4778728E+02  0.7816164E-02  0.1312668E+00
        -11   -1    0    0    0    0  0.00000000000E+00  0.00000000000E+00  0.45593999997E+02  0.45594000000E+02  0.51100000000E-03 0.  1.
         11   -1    0    0    0    0 -0.00000000000E+00 -0.00000000000E+00 -0.45593999997E+02  0.45594000000E+02  0.51100000000E-03 0. -1.
    9900012    2    1    2    0    0 -0.86215769231E+01  0.39498083821E+02  0.15785813206E+02  0.47787284421E+02  0.20000060990E+02 0.  0.
         12    1    1    2    0    0  0.86215769231E+01 -0.39498083821E+02 -0.15785813206E+02  0.43400715579E+02  0.00000000000E+00 0. -1.
         11    1    3    3    0    0  0.96690130977E+00  0.11800931305E+02 -0.38132204139E+00  0.11846614899E+02  0.51100000000E-03 0. -1.
        -11    1    3    3    0    0 -0.12752136962E+02  0.24067419487E+02  0.14418528864E+02  0.30818041027E+02  0.51100000000E-03 0.  1.
        -12    1    3    3    0    0  0.31636587295E+01  0.36297330296E+01  0.17486063825E+01  0.51226284956E+01  0.00000000000E+00 0.  1.
</event>
<event>
 7    1  0.4937359E-010  0.4778727E+02  0.7816164E-02  0.1312668E+00
        -11   -1    0    0    0    0  0.00000000000E+00  0.00000000000E+00  0.45593999997E+02  0.45594000000E+02  0.51100000000E-03 0.  1.
         11   -1    0    0    0    0 -0.00000000000E+00 -0.00000000000E+00 -0.45593999997E+02  0.45594000000E+02  0.51100000000E-03 0. -1.
    9900012    2    1    2    0    0  0.22559705397E+02 -0.10373289120E+02  0.35596033283E+02  0.47787273966E+02  0.20000013320E+02 0.  0.
         12    1    1    2    0    0 -0.22559705397E+02  0.10373289120E+02 -0.35596033283E+02  0.43400726034E+02  0.00000000000E+00 0. -1.
         11    1    3    3    0    0  0.93874880365E+01  0.40762183850E+01  0.16051101896E+02  0.19036238082E+02  0.51100000000E-03 0. -1.
        -11    1    3    3    0    0  0.68552633386E+01 -0.21007183877E+01  0.75669819603E+01  0.10424340240E+02  0.51100000000E-03 0.  1.
         12    1    3    3    0    0  0.63169540222E+01 -0.12348789117E+02  0.11977949427E+02  0.18326695644E+02  0.00000000000E+00 0. -1.
</event>
<event>
 7    1  0.4937359E-010  0.4778727E+02  0.7816164E-02  0.1312668E+00
        -11   -1    0    0    0    0  0.00000000000E+00  0.00000000000E+00  0.45593999997E+02  0.45594000000E+02  0.51100000000E-03 0. -1.
         11   -1    0    0    0    0 -0.00000000000E+00 -0.00000000000E+00 -0.45593999997E+02  0.45594000000E+02  0.51100000000E-03 0.  1.
    9900012    2    1    2    0    0 -0.38603609286E+02 -0.19185577906E+02 -0.50297564059E+01  0.47787268451E+02  0.19999988176E+02 0.  0.
         12    1    1    2    0    0  0.38603609286E+02  0.19185577906E+02  0.50297564059E+01  0.43400731549E+02  0.00000000000E+00 0. -1.
         11    1    3    3    0    0 -0.52374495808E+01 -0.76338401618E+01  0.37008657866E+01  0.99700953636E+01  0.51100000000E-03 0. -1.
        -11    1    3    3    0    0 -0.19045376661E+02 -0.54671980988E+01 -0.10020158536E+02  0.22204058290E+02  0.51100000000E-03 0.  1.
         12    1    3    3    0    0 -0.14320783044E+02 -0.60845396452E+01  0.12895363434E+01  0.15613114797E+02  0.00000000000E+00 0. -1.
</event>
<event>
 7    1  0.4937359E-010  0.4778727E+02  0.7816164E-02  0.1312668E+00
        -11   -1    0    0    0    0  0.00000000000E+00  0.00000000000E+00  0.45593999997E+02  0.45594000000E+02  0.51100000000E-03 0.  1.
         11   -1    0    0    0    0 -0.00000000000E+00 -0.00000000000E+00 -0.45593999997E+02  0.45594000000E+02  0.51100000000E-03 0. -1.
    9900012    2    1    2    0    0 -0.13846694992E+02 -0.98880460640E+01  0.39926415864E+02  0.47787273037E+02  0.20000009085E+02 0.  0.
         12    1    1    2    0    0  0.13846694992E+02  0.98880460640E+01 -0.39926415864E+02  0.43400726963E+02  0.00000000000E+00 0. -1.
         11    1    3    3    0    0 -0.29712456331E+01  0.17454851564E+01 -0.55651811667E+00  0.34906635069E+01  0.51100000000E-03 0. -1.
        -11    1    3    3    0    0 -0.10124955223E+02 -0.12864623847E+02  0.38574838480E+02  0.41905028684E+02  0.51100000000E-03 0.  1.
         12    1    3    3    0    0 -0.75049413613E+00  0.12310926265E+01  0.19080955004E+01  0.23915808458E+01  0.00000000000E+00 0. -1.
</event>
<event>
 7    1  0.4937359E-010  0.4778727E+02  0.7816164E-02  0.1312668E+00
        -11   -1    0    0    0    0  0.00000000000E+00  0.00000000000E+00  0.45593999997E+02  0.45594000000E+02  0.51100000000E-03 0.  1.
         11   -1    0    0    0    0 -0.00000000000E+00 -0.00000000000E+00 -0.45593999997E+02  0.45594000000E+02  0.51100000000E-03 0. -1.
    9900012    2    1    2    0    0  0.70141732414E+01  0.19686172519E+02  0.38037867662E+02  0.47787269695E+02  0.19999993849E+02 0.  0.
         12    1    1    2    0    0 -0.70141732414E+01 -0.19686172519E+02 -0.38037867662E+02  0.43400730305E+02  0.00000000000E+00 0. -1.
         11    1    3    3    0    0  0.38306998454E+01 -0.33962931745E+01  0.96647615304E+01  0.10936941270E+02  0.51100000000E-03 0. -1.
        -11    1    3    3    0    0  0.27757905225E+01  0.15167795429E+02  0.20767257589E+02  0.25865923901E+02  0.51100000000E-03 0.  1.
         12    1    3    3    0    0  0.40768287358E+00  0.79146702648E+01  0.76058485421E+01  0.10984404525E+02  0.00000000000E+00 0. -1.
</event>
<event>
 7    1  0.4937359E-010  0.4778724E+02  0.7816164E-02  0.1312668E+00
        -11   -1    0    0    0    0  0.00000000000E+00  0.00000000000E+00  0.45593999997E+02  0.45594000000E+02  0.51100000000E-03 0. -1.
         11   -1    0    0    0    0 -0.00000000000E+00 -0.00000000000E+00 -0.45593999997E+02  0.45594000000E+02  0.51100000000E-03 0.  1.
    9900012    2    1    2    0    0 -0.40715052524E+01  0.41285086069E+02 -0.12751092144E+02  0.47787241509E+02  0.19999865336E+02 0.  0.
         12    1    1    2    0    0  0.40715052524E+01 -0.41285086069E+02  0.12751092144E+02  0.43400758491E+02  0.00000000000E+00 0. -1.
         11    1    3    3    0    0 -0.83863177696E+01  0.67573621637E+01 -0.77220633556E+00  0.10797618813E+02  0.51100000000E-03 0. -1.
        -11    1    3    3    0    0 -0.66360040182E+00  0.38527151742E+01 -0.10564923294E+01  0.40496859150E+01  0.51100000000E-03 0.  1.
         12    1    3    3    0    0  0.49784129190E+01  0.30675008731E+02 -0.10922393479E+02  0.32939936781E+02  0.00000000000E+00 0. -1.
</event>
<event>
 7    1  0.4937359E-010  0.4778727E+02  0.7816164E-02  0.1312668E+00
        -11   -1    0    0    0    0  0.00000000000E+00  0.00000000000E+00  0.45593999997E+02  0.45594000000E+02  0.51100000000E-03 0. -1.
         11   -1    0    0    0    0 -0.00000000000E+00 -0.00000000000E+00 -0.45593999997E+02  0.45594000000E+02  0.51100000000E-03 0.  1.
    9900012    2    1    2    0    0  0.63182450429E+01  0.36484973159E+02 -0.22639565253E+02  0.47787269572E+02  0.19999993286E+02 0.  0.
         12    1    1    2    0    0 -0.63182450429E+01 -0.36484973159E+02  0.22639565253E+02  0.43400730428E+02  0.00000000000E+00 0. -1.
         11    1    3    3    0    0 -0.27636525356E+01  0.63576592513E+01 -0.78032709075E+01  0.10437846694E+02  0.51100000000E-03 0. -1.
        -11    1    3    3    0    0  0.25855990785E+01  0.90798825966E+01  0.19684837454E+01  0.96438850615E+01  0.51100000000E-03 0.  1.
        -12    1    3    3    0    0  0.64962985000E+01  0.21047431311E+02 -0.16804778091E+02  0.27705537816E+02  0.00000000000E+00 0.  1.
</event>
<event>
 7    1  0.4937359E-010  0.4778727E+02  0.7816164E-02  0.1312668E+00
        -11   -1    0    0    0    0  0.00000000000E+00  0.00000000000E+00  0.45593999997E+02  0.45594000000E+02  0.51100000000E-03 0. -1.
         11   -1    0    0    0    0 -0.00000000000E+00 -0.00000000000E+00 -0.45593999997E+02  0.45594000000E+02  0.51100000000E-03 0.  1.
    9900012    2    1    2    0    0  0.22742999195E+02 -0.20910916862E+02 -0.30481356821E+02  0.47787267633E+02  0.19999984444E+02 0.  0.
         12    1    1    2    0    0 -0.22742999195E+02  0.20910916862E+02  0.30481356821E+02  0.43400732367E+02  0.00000000000E+00 0. -1.
         11    1    3    3    0    0  0.43745573060E+01 -0.14154929811E+02 -0.16991945726E+02  0.22543846376E+02  0.51100000000E-03 0. -1.
        -11    1    3    3    0    0  0.16131494475E+01 -0.10317742929E+01 -0.54895641306E+01  0.58139594027E+01  0.51100000000E-03 0.  1.
         12    1    3    3    0    0  0.16755292442E+02 -0.57242127582E+01 -0.79998469636E+01  0.19429461854E+02  0.00000000000E+00 0. -1.
</event>
<event>
 7    1  0.4937359E-010  0.4778724E+02  0.7816164E-02  0.1312668E+00
        -11   -1    0    0    0    0  0.00000000000E+00  0.00000000000E+00  0.45593999997E+02  0.45594000000E+02  0.51100000000E-03 0.  1.
         11   -1    0    0    0    0 -0.00000000000E+00 -0.00000000000E+00 -0.45593999997E+02  0.45594000000E+02  0.51100000000E-03 0. -1.
    9900012    2    1    2    0    0 -0.30066866916E+02  0.92451676605E+00  0.31285052017E+02  0.47787243127E+02  0.19999872714E+02 0.  0.
         12    1    1    2    0    0  0.30066866916E+02 -0.92451676605E+00 -0.31285052017E+02  0.43400756873E+02  0.00000000000E+00 0. -1.
         11    1    3    3    0    0 -0.34435934883E+01 -0.31018299909E+01  0.20138157745E+00  0.46389912919E+01  0.51100000000E-03 0. -1.
        -11    1    3    3    0    0 -0.24065539743E+02  0.45530238226E+01  0.19594316221E+02  0.31365864526E+02  0.51100000000E-03 0.  1.
        -12    1    3    3    0    0 -0.25577336851E+01 -0.52667706569E+00  0.11489354219E+02  0.11782387310E+02  0.00000000000E+00 0.  1.
</event>
<event>
 7    1  0.4937359E-010  0.4778727E+02  0.7816164E-02  0.1312668E+00
        -11   -1    0    0    0    0  0.00000000000E+00  0.00000000000E+00  0.45593999997E+02  0.45594000000E+02  0.51100000000E-03 0. -1.
         11   -1    0    0    0    0 -0.00000000000E+00 -0.00000000000E+00 -0.45593999997E+02  0.45594000000E+02  0.51100000000E-03 0.  1.
    9900012    2    1    2    0    0  0.66918568635E+01 -0.52336187042E+01 -0.42561152657E+02  0.47787269263E+02  0.19999991876E+02 0.  0.
         12    1    1    2    0    0 -0.66918568635E+01  0.52336187042E+01  0.42561152657E+02  0.43400730737E+02  0.00000000000E+00 0. -1.
         11    1    3    3    0    0  0.16289086909E+01 -0.98591682128E+01 -0.22005760506E+02  0.24168368523E+02  0.51100000000E-03 0. -1.
        -11    1    3    3    0    0 -0.24402605950E+01 -0.43180803674E+00 -0.58411809309E+01  0.63451339529E+01  0.51100000000E-03 0.  1.
         12    1    3    3    0    0  0.75032087676E+01  0.50573575453E+01 -0.14714211221E+02  0.17273766787E+02  0.00000000000E+00 0. -1.
</event>
<event>
 7    1  0.4937359E-010  0.4778727E+02  0.7816164E-02  0.1312668E+00
        -11   -1    0    0    0    0  0.00000000000E+00  0.00000000000E+00  0.45593999997E+02  0.45594000000E+02  0.51100000000E-03 0.  1.
         11   -1    0    0    0    0 -0.00000000000E+00 -0.00000000000E+00 -0.45593999997E+02  0.45594000000E+02  0.51100000000E-03 0. -1.
    9900012    2    1    2    0    0  0.16954391072E+00 -0.89574147590E+00  0.43391153207E+02  0.47787271037E+02  0.19999999964E+02 0.  0.
         12    1    1    2    0    0 -0.16954391072E+00  0.89574147590E+00 -0.43391153207E+02  0.43400728963E+02  0.00000000000E+00 0. -1.
         11    1    3    3    0    0 -0.29288680630E+01  0.48452188272E+01  0.34901992506E+01  0.66510077946E+01  0.51100000000E-03 0. -1.
        -11    1    3    3    0    0  0.34108386620E+00 -0.11479869632E+01  0.28650159100E+02  0.28675177924E+02  0.51100000000E-03 0.  1.
         12    1    3    3    0    0  0.27573281075E+01 -0.45929733399E+01  0.11250794856E+02  0.12461085318E+02  0.00000000000E+00 0. -1.
</event>
<event>
 7    1  0.4937359E-010  0.4778727E+02  0.7816164E-02  0.1312668E+00
        -11   -1    0    0    0    0  0.00000000000E+00  0.00000000000E+00  0.45593999997E+02  0.45594000000E+02  0.51100000000E-03 0.  1.
         11   -1    0    0    0    0 -0.00000000000E+00 -0.00000000000E+00 -0.45593999997E+02  0.45594000000E+02  0.51100000000E-03 0. -1.
    9900012    2    1    2    0    0  0.43363341527E+02  0.26976219729E+00 -0.17807518741E+01  0.47787271467E+02  0.20000001924E+02 0.  0.
         12    1    1    2    0    0 -0.43363341527E+02 -0.26976219729E+00  0.17807518741E+01  0.43400728533E+02  0.00000000000E+00 0. -1.
         11    1    3    3    0    0  0.24942114639E+02 -0.69348560051E+01 -0.31825316073E+01  0.26083132829E+02  0.51100000000E-03 0.  1.
        -11    1    3    3    0    0  0.98048351401E+01  0.68533296545E+01  0.41361902920E+01  0.12657448000E+02  0.51100000000E-03 0. -1.
         12    1    3    3    0    0  0.86163917478E+01  0.35128854794E+00 -0.27344105587E+01  0.90466906379E+01  0.00000000000E+00 0. -1.
</event>
<event>
 7    1  0.4937359E-010  0.4778727E+02  0.7816164E-02  0.1312668E+00
        -11   -1    0    0    0    0  0.00000000000E+00  0.00000000000E+00  0.45593999997E+02  0.45594000000E+02  0.51100000000E-03 0.  1.
         11   -1    0    0    0    0 -0.00000000000E+00 -0.00000000000E+00 -0.45593999997E+02  0.45594000000E+02  0.51100000000E-03 0. -1.
    9900012    2    1    2    0    0 -0.15235816821E+02 -0.39677552571E+02  0.87855066665E+01  0.47787269366E+02  0.19999992346E+02 0.  0.
         12    1    1    2    0    0  0.15235816821E+02  0.39677552571E+02 -0.87855066665E+01  0.43400730634E+02  0.00000000000E+00 0. -1.
         11    1    3    3    0    0  0.43173529111E+01 -0.70466100811E+01  0.39415601535E+01  0.91558804327E+01  0.51100000000E-03 0. -1.
        -11    1    3    3    0    0 -0.15328648955E+02 -0.22101232371E+02  0.45725573342E+01  0.27282599435E+02  0.51100000000E-03 0.  1.
         12    1    3    3    0    0 -0.42245207770E+01 -0.10529710119E+02  0.27138917888E+00  0.11348789498E+02  0.00000000000E+00 0. -1.
</event>
<event>
 7    1  0.4937359E-010  0.4778727E+02  0.7816164E-02  0.1312668E+00
        -11   -1    0    0    0    0  0.00000000000E+00  0.00000000000E+00  0.45593999997E+02  0.45594000000E+02  0.51100000000E-03 0. -1.
         11   -1    0    0    0    0 -0.00000000000E+00 -0.00000000000E+00 -0.45593999997E+02  0.45594000000E+02  0.51100000000E-03 0.  1.
    9900012    2    1    2    0    0 -0.25853352500E+02  0.21748355990E+02 -0.27244013658E+02  0.47787273002E+02  0.20000008925E+02 0.  0.
         12    1    1    2    0    0  0.25853352500E+02 -0.21748355990E+02  0.27244013658E+02  0.43400726998E+02  0.00000000000E+00 0. -1.
         11    1    3    3    0    0 -0.10919602051E+02  0.18146406823E+02 -0.15847104732E+02  0.26451096730E+02  0.51100000000E-03 0. -1.
        -11    1    3    3    0    0 -0.15191552638E+02  0.51186137258E+01 -0.87205077014E+01  0.18249129646E+02  0.51100000000E-03 0.  1.
         12    1    3    3    0    0  0.25780218890E+00 -0.15166645597E+01 -0.26764012244E+01  0.30870466257E+01  0.00000000000E+00 0. -1.
</event>
<event>
 7    1  0.4937359E-010  0.4778727E+02  0.7816164E-02  0.1312668E+00
        -11   -1    0    0    0    0  0.00000000000E+00  0.00000000000E+00  0.45593999997E+02  0.45594000000E+02  0.51100000000E-03 0.  1.
         11   -1    0    0    0    0 -0.00000000000E+00 -0.00000000000E+00 -0.45593999997E+02  0.45594000000E+02  0.51100000000E-03 0. -1.
    9900012    2    1    2    0    0  0.16314031005E+02 -0.39662834690E+02  0.66584687295E+01  0.47787271099E+02  0.20000000250E+02 0.  0.
         12    1    1    2    0    0 -0.16314031005E+02  0.39662834690E+02 -0.66584687295E+01  0.43400728901E+02  0.00000000000E+00 0. -1.
         11    1    3    3    0    0  0.77158092764E+01 -0.81358984898E+01 -0.39321888282E+01  0.11882283714E+02  0.51100000000E-03 0. -1.
        -11    1    3    3    0    0  0.74383173358E+01 -0.26186878796E+02  0.12710132377E+02  0.30043778909E+02  0.51100000000E-03 0.  1.
        -12    1    3    3    0    0  0.11599043925E+01 -0.53400574046E+01 -0.21194748194E+01  0.58612084756E+01  0.00000000000E+00 0.  1.
</event>
<event>
 7    1  0.4937359E-010  0.4778727E+02  0.7816164E-02  0.1312668E+00
        -11   -1    0    0    0    0  0.00000000000E+00  0.00000000000E+00  0.45593999997E+02  0.45594000000E+02  0.51100000000E-03 0.  1.
         11   -1    0    0    0    0 -0.00000000000E+00 -0.00000000000E+00 -0.45593999997E+02  0.45594000000E+02  0.51100000000E-03 0. -1.
    9900012    2    1    2    0    0  0.50477064658E+01  0.43096205002E+02  0.92790138383E+00  0.47787271583E+02  0.20000002455E+02 0.  0.
         12    1    1    2    0    0 -0.50477064658E+01 -0.43096205002E+02 -0.92790138383E+00  0.43400728417E+02  0.00000000000E+00 0. -1.
         11    1    3    3    0    0  0.11746900960E+01  0.11076765739E+01 -0.12078361463E+01  0.20163612354E+01  0.51100000000E-03 0. -1.
        -11    1    3    3    0    0  0.36018020436E+01  0.58212773625E+01  0.63760763713E+01  0.93549237435E+01  0.51100000000E-03 0.  1.
        -12    1    3    3    0    0  0.27121432626E+00  0.36167251066E+02 -0.42403388412E+01  0.36415986604E+02  0.00000000000E+00 0.  1.
</event>
<event>
 7    1  0.4937359E-010  0.4778728E+02  0.7816164E-02  0.1312668E+00
        -11   -1    0    0    0    0  0.00000000000E+00  0.00000000000E+00  0.45593999997E+02  0.45594000000E+02  0.51100000000E-03 0. -1.
         11   -1    0    0    0    0 -0.00000000000E+00 -0.00000000000E+00 -0.45593999997E+02  0.45594000000E+02  0.51100000000E-03 0.  1.
    9900012    2    1    2    0    0  0.64015615138E+01 -0.35289218779E+02 -0.24439998349E+02  0.47787280292E+02  0.20000042164E+02 0.  0.
         12    1    1    2    0    0 -0.64015615138E+01  0.35289218779E+02  0.24439998349E+02  0.43400719708E+02  0.00000000000E+00 0. -1.
         11    1    3    3    0    0  0.85142470411E+00 -0.30682135866E+01  0.11718168331E+01  0.33929358366E+01  0.51100000000E-03 0. -1.
        -11    1    3    3    0    0  0.97576119503E+01 -0.11850593074E+02 -0.12597076335E+02  0.19857841766E+02  0.51100000000E-03 0.  1.
        -12    1    3    3    0    0 -0.42074751407E+01 -0.20370412119E+02 -0.13014738847E+02  0.24536502689E+02  0.00000000000E+00 0.  1.
</event>
<event>
 7    1  0.4937359E-010  0.4778728E+02  0.7816164E-02  0.1312668E+00
        -11   -1    0    0    0    0  0.00000000000E+00  0.00000000000E+00  0.45593999997E+02  0.45594000000E+02  0.51100000000E-03 0.  1.
         11   -1    0    0    0    0 -0.00000000000E+00 -0.00000000000E+00 -0.45593999997E+02  0.45594000000E+02  0.51100000000E-03 0. -1.
    9900012    2    1    2    0    0  0.24373648881E+02 -0.33982087211E+01  0.35749130157E+02  0.47787275475E+02  0.20000020202E+02 0.  0.
         12    1    1    2    0    0 -0.24373648881E+02  0.33982087211E+01 -0.35749130157E+02  0.43400724525E+02  0.00000000000E+00 0. -1.
         11    1    3    3    0    0  0.34984292520E+01 -0.10461450518E+01  0.18634956788E+02  0.18989340206E+02  0.51100000000E-03 0. -1.
        -11    1    3    3    0    0  0.81889873162E+01  0.11766602636E+01  0.15608086510E+01  0.84190359630E+01  0.51100000000E-03 0.  1.
        -12    1    3    3    0    0  0.12686232313E+02 -0.35287239329E+01  0.15553364718E+02  0.20378899306E+02  0.00000000000E+00 0.  1.
</event>
<event>
 7    1  0.4937359E-010  0.4778727E+02  0.7816164E-02  0.1312668E+00
        -11   -1    0    0    0    0  0.00000000000E+00  0.00000000000E+00  0.45593999997E+02  0.45594000000E+02  0.51100000000E-03 0. -1.
         11   -1    0    0    0    0 -0.00000000000E+00 -0.00000000000E+00 -0.45593999997E+02  0.45594000000E+02  0.51100000000E-03 0.  1.
    9900012    2    1    2    0    0 -0.21051481435E+02 -0.43115542054E+01 -0.37707681204E+02  0.47787267379E+02  0.19999983288E+02 0.  0.
         12    1    1    2    0    0  0.21051481435E+02  0.43115542054E+01  0.37707681204E+02  0.43400732621E+02  0.00000000000E+00 0. -1.
         11    1    3    3    0    0  0.24262669864E+01  0.15710231658E+00 -0.95715896310E+01  0.98755648422E+01  0.51100000000E-03 0. -1.
        -11    1    3    3    0    0 -0.16774008867E+02 -0.34031063314E+01 -0.13572864365E+02  0.21844247606E+02  0.51100000000E-03 0.  1.
        -12    1    3    3    0    0 -0.67037395546E+01 -0.10655501906E+01 -0.14563227208E+02  0.16067454930E+02  0.00000000000E+00 0.  1.
</event>
<event>
 7    1  0.4937359E-010  0.4778727E+02  0.7816164E-02  0.1312668E+00
        -11   -1    0    0    0    0  0.00000000000E+00  0.00000000000E+00  0.45593999997E+02  0.45594000000E+02  0.51100000000E-03 0.  1.
         11   -1    0    0    0    0 -0.00000000000E+00 -0.00000000000E+00 -0.45593999997E+02  0.45594000000E+02  0.51100000000E-03 0. -1.
    9900012    2    1    2    0    0  0.26601249706E+02  0.24913998135E+02  0.23564584616E+02  0.47787269164E+02  0.19999991424E+02 0.  0.
         12    1    1    2    0    0 -0.26601249706E+02 -0.24913998135E+02 -0.23564584616E+02  0.43400730836E+02  0.00000000000E+00 0. -1.
         11    1    3    3    0    0  0.71257204888E+01  0.96900023956E+01  0.25287767568E+00  0.12030627012E+02  0.51100000000E-03 0. -1.
        -11    1    3    3    0    0  0.19457125242E+02  0.12684045215E+02  0.23704001372E+02  0.33186509413E+02  0.51100000000E-03 0.  1.
        -12    1    3    3    0    0  0.18403975275E-01  0.25399505249E+01 -0.39229443204E+00  0.25701327391E+01  0.00000000000E+00 0.  1.
</event>
<event>
 7    1  0.4937359E-010  0.4778727E+02  0.7816164E-02  0.1312668E+00
        -11   -1    0    0    0    0  0.00000000000E+00  0.00000000000E+00  0.45593999997E+02  0.45594000000E+02  0.51100000000E-03 0. -1.
         11   -1    0    0    0    0 -0.00000000000E+00 -0.00000000000E+00 -0.45593999997E+02  0.45594000000E+02  0.51100000000E-03 0.  1.
    9900012    2    1    2    0    0  0.11563339518E+01 -0.42841750668E+02 -0.68462298464E+01  0.47787267615E+02  0.19999984362E+02 0.  0.
         12    1    1    2    0    0 -0.11563339518E+01  0.42841750668E+02  0.68462298464E+01  0.43400732385E+02  0.00000000000E+00 0. -1.
         11    1    3    3    0    0  0.71711563515E+01 -0.16510212867E+02 -0.64382628612E+01  0.19117108601E+02  0.51100000000E-03 0. -1.
        -11    1    3    3    0    0 -0.49645000524E+00 -0.12630912162E+02 -0.43751858655E+01  0.13376421654E+02  0.51100000000E-03 0.  1.
         12    1    3    3    0    0 -0.55183723945E+01 -0.13700625639E+02  0.39672188803E+01  0.15293737360E+02  0.00000000000E+00 0. -1.
</event>
<event>
 7    1  0.4937359E-010  0.4778727E+02  0.7816164E-02  0.1312668E+00
        -11   -1    0    0    0    0  0.00000000000E+00  0.00000000000E+00  0.45593999997E+02  0.45594000000E+02  0.51100000000E-03 0.  1.
         11   -1    0    0    0    0 -0.00000000000E+00 -0.00000000000E+00 -0.45593999997E+02  0.45594000000E+02  0.51100000000E-03 0. -1.
    9900012    2    1    2    0    0  0.18700452730E+01  0.35199383980E+02  0.25320541659E+02  0.47787268073E+02  0.19999986452E+02 0.  0.
         12    1    1    2    0    0 -0.18700452730E+01 -0.35199383980E+02 -0.25320541659E+02  0.43400731927E+02  0.00000000000E+00 0. -1.
         11    1    3    3    0    0 -0.10530289250E+01  0.97323623883E+01  0.21155962368E+01  0.10015163267E+02  0.51100000000E-03 0.  1.
        -11    1    3    3    0    0 -0.57778752299E+01  0.13148676806E+02  0.14252337972E+02  0.20233652212E+02  0.51100000000E-03 0. -1.
        -12    1    3    3    0    0  0.87009494279E+01  0.12318344786E+02  0.89526074505E+01  0.17538452593E+02  0.00000000000E+00 0.  1.
</event>
<event>
 7    1  0.4937359E-010  0.4778727E+02  0.7816164E-02  0.1312668E+00
        -11   -1    0    0    0    0  0.00000000000E+00  0.00000000000E+00  0.45593999997E+02  0.45594000000E+02  0.51100000000E-03 0. -1.
         11   -1    0    0    0    0 -0.00000000000E+00 -0.00000000000E+00 -0.45593999997E+02  0.45594000000E+02  0.51100000000E-03 0.  1.
    9900012    2    1    2    0    0 -0.33320593846E+02 -0.25412990907E+02 -0.11293421050E+02  0.47787269130E+02  0.19999991271E+02 0.  0.
         12    1    1    2    0    0  0.33320593846E+02  0.25412990907E+02  0.11293421050E+02  0.43400730870E+02  0.00000000000E+00 0. -1.
         11    1    3    3    0    0 -0.72096155043E+01 -0.77446062935E+01 -0.71028350981E+01  0.12743929890E+02  0.51100000000E-03 0. -1.
        -11    1    3    3    0    0 -0.78379739049E+01 -0.13794080439E+02 -0.40055211547E+01  0.16363211484E+02  0.51100000000E-03 0.  1.
        -12    1    3    3    0    0 -0.18273004437E+02 -0.38743041739E+01 -0.18506479715E+00  0.18680127755E+02  0.00000000000E+00 0.  1.
</event>
<event>
 7    1  0.4937359E-010  0.4778727E+02  0.7816164E-02  0.1312668E+00
        -11   -1    0    0    0    0  0.00000000000E+00  0.00000000000E+00  0.45593999997E+02  0.45594000000E+02  0.51100000000E-03 0. -1.
         11   -1    0    0    0    0 -0.00000000000E+00 -0.00000000000E+00 -0.45593999997E+02  0.45594000000E+02  0.51100000000E-03 0.  1.
    9900012    2    1    2    0    0 -0.11158197647E+02  0.27321846819E+02 -0.31821917633E+02  0.47787272700E+02  0.20000007547E+02 0.  0.
         12    1    1    2    0    0  0.11158197647E+02 -0.27321846819E+02  0.31821917633E+02  0.43400727300E+02  0.00000000000E+00 0. -1.
         11    1    3    3    0    0  0.34660765362E+01  0.10118581147E+01 -0.62218676534E+01  0.71936903434E+01  0.51100000000E-03 0. -1.
        -11    1    3    3    0    0 -0.35908892668E+01  0.78060962071E+00 -0.34299944287E+01  0.50267981010E+01  0.51100000000E-03 0.  1.
         12    1    3    3    0    0 -0.11033384917E+02  0.25529379084E+02 -0.22170055551E+02  0.35566784255E+02  0.00000000000E+00 0. -1.
</event>
<event>
 7    1  0.4937359E-010  0.4778727E+02  0.7816164E-02  0.1312668E+00
        -11   -1    0    0    0    0  0.00000000000E+00  0.00000000000E+00  0.45593999997E+02  0.45594000000E+02  0.51100000000E-03 0. -1.
         11   -1    0    0    0    0 -0.00000000000E+00 -0.00000000000E+00 -0.45593999997E+02  0.45594000000E+02  0.51100000000E-03 0.  1.
    9900012    2    1    2    0    0 -0.10608017730E+02 -0.63211654336E+01 -0.41606925633E+02  0.47787269208E+02  0.19999991629E+02 0.  0.
         12    1    1    2    0    0  0.10608017730E+02  0.63211654336E+01  0.41606925633E+02  0.43400730792E+02  0.00000000000E+00 0. -1.
         11    1    3    3    0    0  0.25984855047E+01  0.27009574963E+01 -0.98746752482E+01  0.10562031520E+02  0.51100000000E-03 0. -1.
        -11    1    3    3    0    0 -0.85811160301E+01 -0.87008167149E+01 -0.12653630432E+02  0.17591308286E+02  0.51100000000E-03 0.  1.
        -12    1    3    3    0    0 -0.46253872049E+01 -0.32130621498E+00 -0.19078619953E+02  0.19633929403E+02  0.00000000000E+00 0.  1.
</event>
<event>
 7    1  0.4937359E-010  0.4778726E+02  0.7816164E-02  0.1312668E+00
        -11   -1    0    0    0    0  0.00000000000E+00  0.00000000000E+00  0.45593999997E+02  0.45594000000E+02  0.51100000000E-03 0.  1.
         11   -1    0    0    0    0 -0.00000000000E+00 -0.00000000000E+00 -0.45593999997E+02  0.45594000000E+02  0.51100000000E-03 0. -1.
    9900012    2    1    2    0    0  0.36210827382E+02  0.91551526149E+01  0.22103925128E+02  0.47787258703E+02  0.19999943729E+02 0.  0.
         12    1    1    2    0    0 -0.36210827382E+02 -0.91551526149E+01 -0.22103925128E+02  0.43400741297E+02  0.00000000000E+00 0. -1.
         11    1    3    3    0    0  0.38912980640E+00  0.12075187696E+01  0.17558234009E+01  0.21662039751E+01  0.51100000000E-03 0. -1.
        -11    1    3    3    0    0  0.22093082100E+02  0.13481834651E+02  0.14792069764E+02  0.29810559713E+02  0.51100000000E-03 0.  1.
        -12    1    3    3    0    0  0.13728615476E+02 -0.55342008056E+01  0.55560319631E+01  0.15810495015E+02  0.00000000000E+00 0.  1.
</event>
<event>
 7    1  0.4937359E-010  0.4778727E+02  0.7816164E-02  0.1312668E+00
        -11   -1    0    0    0    0  0.00000000000E+00  0.00000000000E+00  0.45593999997E+02  0.45594000000E+02  0.51100000000E-03 0. -1.
         11   -1    0    0    0    0 -0.00000000000E+00 -0.00000000000E+00 -0.45593999997E+02  0.45594000000E+02  0.51100000000E-03 0.  1.
    9900012    2    1    2    0    0  0.12736650255E+02 -0.20205967259E+02 -0.36236998482E+02  0.47787269228E+02  0.19999991716E+02 0.  0.
         12    1    1    2    0    0 -0.12736650255E+02  0.20205967259E+02  0.36236998482E+02  0.43400730772E+02  0.00000000000E+00 0. -1.
         11    1    3    3    0    0  0.52568660711E+01 -0.21201717694E+02 -0.19607482943E+02  0.29353038372E+02  0.51100000000E-03 0. -1.
        -11    1    3    3    0    0  0.19116609143E+01  0.12357937439E+01 -0.35541547375E+01  0.42206219670E+01  0.51100000000E-03 0.  1.
         12    1    3    3    0    0  0.55681232700E+01 -0.24004330906E+00 -0.13075360802E+02  0.14213608888E+02  0.00000000000E+00 0. -1.
</event>
<event>
 7    1  0.4937359E-010  0.4778727E+02  0.7816164E-02  0.1312668E+00
        -11   -1    0    0    0    0  0.00000000000E+00  0.00000000000E+00  0.45593999997E+02  0.45594000000E+02  0.51100000000E-03 0.  1.
         11   -1    0    0    0    0 -0.00000000000E+00 -0.00000000000E+00 -0.45593999997E+02  0.45594000000E+02  0.51100000000E-03 0. -1.
    9900012    2    1    2    0    0 -0.33909982222E+02 -0.15083147702E+02  0.22499661602E+02  0.47787274072E+02  0.20000013802E+02 0.  0.
         12    1    1    2    0    0  0.33909982222E+02  0.15083147702E+02 -0.22499661602E+02  0.43400725928E+02  0.00000000000E+00 0. -1.
         11    1    3    3    0    0 -0.25123630387E+02 -0.13598415869E+02  0.12463471774E+02  0.31168122286E+02  0.51100000000E-03 0. -1.
        -11    1    3    3    0    0 -0.91227766345E+00 -0.22868108266E+01  0.81069927338E+01  0.84726079656E+01  0.51100000000E-03 0.  1.
        -12    1    3    3    0    0 -0.78740741719E+01  0.80207899325E+00  0.19291970950E+01  0.81465438198E+01  0.00000000000E+00 0.  1.
</event>
<event>
 7    1  0.4937359E-010  0.4778728E+02  0.7816164E-02  0.1312668E+00
        -11   -1    0    0    0    0  0.00000000000E+00  0.00000000000E+00  0.45593999997E+02  0.45594000000E+02  0.51100000000E-03 0. -1.
         11   -1    0    0    0    0 -0.00000000000E+00 -0.00000000000E+00 -0.45593999997E+02  0.45594000000E+02  0.51100000000E-03 0.  1.
    9900012    2    1    2    0    0 -0.65487406014E+01 -0.73360571080E+01 -0.42271960159E+02  0.47787281653E+02  0.20000048370E+02 0.  0.
         12    1    1    2    0    0  0.65487406014E+01  0.73360571080E+01  0.42271960159E+02  0.43400718347E+02  0.00000000000E+00 0. -1.
         11    1    3    3    0    0 -0.70804961856E+01  0.34118484271E+01 -0.89036994044E+01  0.11876447249E+02  0.51100000000E-03 0. -1.
        -11    1    3    3    0    0 -0.32379043560E+01 -0.57720228186E+01 -0.12708105159E+02  0.14328161397E+02  0.51100000000E-03 0.  1.
         12    1    3    3    0    0  0.37696599402E+01 -0.49758827165E+01 -0.20660155596E+02  0.21582673007E+02  0.00000000000E+00 0. -1.
</event>
<event>
 7    1  0.4937359E-010  0.4778727E+02  0.7816164E-02  0.1312668E+00
        -11   -1    0    0    0    0  0.00000000000E+00  0.00000000000E+00  0.45593999997E+02  0.45594000000E+02  0.51100000000E-03 0.  1.
         11   -1    0    0    0    0 -0.00000000000E+00 -0.00000000000E+00 -0.45593999997E+02  0.45594000000E+02  0.51100000000E-03 0. -1.
    9900012    2    1    2    0    0 -0.36795084293E+02  0.18208250845E+02  0.14078519622E+02  0.47787270262E+02  0.19999996435E+02 0.  0.
         12    1    1    2    0    0  0.36795084293E+02 -0.18208250845E+02 -0.14078519622E+02  0.43400729738E+02  0.00000000000E+00 0. -1.
         11    1    3    3    0    0 -0.99014692318E+01  0.13819593770E+02  0.73068905495E+01  0.18504348534E+02  0.51100000000E-03 0.  1.
        -11    1    3    3    0    0 -0.21388626944E+02  0.42378332022E+01  0.18253789416E+01  0.21880690148E+02  0.51100000000E-03 0. -1.
        -12    1    3    3    0    0 -0.55049881175E+01  0.15082387332E+00  0.49462501308E+01  0.74022315805E+01  0.00000000000E+00 0.  1.
</event>
<event>
 7    1  0.4937359E-010  0.4778727E+02  0.7816164E-02  0.1312668E+00
        -11   -1    0    0    0    0  0.00000000000E+00  0.00000000000E+00  0.45593999997E+02  0.45594000000E+02  0.51100000000E-03 0.  1.
         11   -1    0    0    0    0 -0.00000000000E+00 -0.00000000000E+00 -0.45593999997E+02  0.45594000000E+02  0.51100000000E-03 0. -1.
    9900012    2    1    2    0    0  0.33330640851E+02 -0.21025917664E+02  0.18182484116E+02  0.47787267728E+02  0.19999984878E+02 0.  0.
         12    1    1    2    0    0 -0.33330640851E+02  0.21025917664E+02 -0.18182484116E+02  0.43400732272E+02  0.00000000000E+00 0. -1.
         11    1    3    3    0    0  0.54471256414E+01  0.38026652342E+01  0.14918559750E+01  0.68086030247E+01  0.51100000000E-03 0. -1.
        -11    1    3    3    0    0  0.96859616471E+01 -0.10251661245E+02  0.66421997127E+01  0.15589523039E+02  0.51100000000E-03 0.  1.
         12    1    3    3    0    0  0.18197553562E+02 -0.14576921653E+02  0.10048428428E+02  0.25389141664E+02  0.00000000000E+00 0. -1.
</event>
<event>
 7    1  0.4937359E-010  0.4778727E+02  0.7816164E-02  0.1312668E+00
        -11   -1    0    0    0    0  0.00000000000E+00  0.00000000000E+00  0.45593999997E+02  0.45594000000E+02  0.51100000000E-03 0.  1.
         11   -1    0    0    0    0 -0.00000000000E+00 -0.00000000000E+00 -0.45593999997E+02  0.45594000000E+02  0.51100000000E-03 0. -1.
    9900012    2    1    2    0    0  0.31376462093E+02 -0.27055358250E+02  0.12928585903E+02  0.47787272852E+02  0.20000008242E+02 0.  0.
         12    1    1    2    0    0 -0.31376462093E+02  0.27055358250E+02 -0.12928585903E+02  0.43400727148E+02  0.00000000000E+00 0. -1.
         11    1    3    3    0    0  0.99399043553E+01 -0.86869060590E+01 -0.41666159479E+01  0.13842858238E+02  0.51100000000E-03 0. -1.
        -11    1    3    3    0    0  0.15998866617E+02 -0.12278472056E+02  0.15924482575E+02  0.25696570872E+02  0.51100000000E-03 0.  1.
        -12    1    3    3    0    0  0.54376911208E+01 -0.60899801351E+01  0.11707192759E+01  0.82478437421E+01  0.00000000000E+00 0.  1.
</event>
<event>
 7    1  0.4937359E-010  0.4778728E+02  0.7816164E-02  0.1312668E+00
        -11   -1    0    0    0    0  0.00000000000E+00  0.00000000000E+00  0.45593999997E+02  0.45594000000E+02  0.51100000000E-03 0.  1.
         11   -1    0    0    0    0 -0.00000000000E+00 -0.00000000000E+00 -0.45593999997E+02  0.45594000000E+02  0.51100000000E-03 0. -1.
    9900012    2    1    2    0    0 -0.35940568417E+01  0.14398968706E+02  0.40784496994E+02  0.47787277201E+02  0.20000028072E+02 0.  0.
         12    1    1    2    0    0  0.35940568417E+01 -0.14398968706E+02 -0.40784496994E+02  0.43400722799E+02  0.00000000000E+00 0. -1.
         11    1    3    3    0    0 -0.49572700853E+01  0.11917475090E+02  0.13329595978E+02  0.18554753257E+02  0.51100000000E-03 0. -1.
        -11    1    3    3    0    0  0.34713514275E+01  0.39191343193E+01  0.25462393566E+02  0.25995064550E+02  0.51100000000E-03 0.  1.
         12    1    3    3    0    0 -0.21081381840E+01 -0.14376407037E+01  0.19925074499E+01  0.32374593949E+01  0.00000000000E+00 0. -1.
</event>
<event>
 7    1  0.4937359E-010  0.4778727E+02  0.7816164E-02  0.1312668E+00
        -11   -1    0    0    0    0  0.00000000000E+00  0.00000000000E+00  0.45593999997E+02  0.45594000000E+02  0.51100000000E-03 0.  1.
         11   -1    0    0    0    0 -0.00000000000E+00 -0.00000000000E+00 -0.45593999997E+02  0.45594000000E+02  0.51100000000E-03 0. -1.
    9900012    2    1    2    0    0  0.49382929451E+01  0.40969426785E+02  0.13444064210E+02  0.47787268085E+02  0.19999986506E+02 0.  0.
         12    1    1    2    0    0 -0.49382929451E+01 -0.40969426785E+02 -0.13444064210E+02  0.43400731915E+02  0.00000000000E+00 0. -1.
         11    1    3    3    0    0 -0.65051942232E+01  0.21545548343E+02  0.38524871732E+01  0.22833524979E+02  0.51100000000E-03 0. -1.
        -11    1    3    3    0    0  0.11553238455E+02  0.19641305552E+02  0.94294422185E+01  0.24661155354E+02  0.51100000000E-03 0.  1.
        -12    1    3    3    0    0 -0.10975128671E+00 -0.21742711022E+00  0.16213481778E+00  0.29258775151E+00  0.00000000000E+00 0.  1.
</event>
<event>
 7    1  0.4937359E-010  0.4778727E+02  0.7816164E-02  0.1312668E+00
        -11   -1    0    0    0    0  0.00000000000E+00  0.00000000000E+00  0.45593999997E+02  0.45594000000E+02  0.51100000000E-03 0. -1.
         11   -1    0    0    0    0 -0.00000000000E+00 -0.00000000000E+00 -0.45593999997E+02  0.45594000000E+02  0.51100000000E-03 0.  1.
    9900012    2    1    2    0    0 -0.22733545386E+02 -0.18877325674E+02 -0.31787668175E+02  0.47787270070E+02  0.19999995557E+02 0.  0.
         12    1    1    2    0    0  0.22733545386E+02  0.18877325674E+02  0.31787668175E+02  0.43400729930E+02  0.00000000000E+00 0. -1.
         11    1    3    3    0    0  0.14771121805E+01 -0.52450470755E-01 -0.51830151404E+00  0.15662848292E+01  0.51100000000E-03 0. -1.
        -11    1    3    3    0    0 -0.91915850587E+01 -0.11359996003E+02 -0.57924375857E+01  0.15719003738E+02  0.51100000000E-03 0.  1.
        -12    1    3    3    0    0 -0.15019072508E+02 -0.74648792005E+01 -0.25476929075E+02  0.30501981503E+02  0.00000000000E+00 0.  1.
</event>
<event>
 7    1  0.4937359E-010  0.4778727E+02  0.7816164E-02  0.1312668E+00
        -11   -1    0    0    0    0  0.00000000000E+00  0.00000000000E+00  0.45593999997E+02  0.45594000000E+02  0.51100000000E-03 0.  1.
         11   -1    0    0    0    0 -0.00000000000E+00 -0.00000000000E+00 -0.45593999997E+02  0.45594000000E+02  0.51100000000E-03 0. -1.
    9900012    2    1    2    0    0  0.10747055426E+02  0.22692687198E+02  0.35400082221E+02  0.47787273349E+02  0.20000010507E+02 0.  0.
         12    1    1    2    0    0 -0.10747055426E+02 -0.22692687198E+02 -0.35400082221E+02  0.43400726651E+02  0.00000000000E+00 0. -1.
         11    1    3    3    0    0 -0.49831392879E+01  0.26909407812E+01  0.10362342562E+02  0.11808936577E+02  0.51100000000E-03 0. -1.
        -11    1    3    3    0    0  0.70248324892E+01  0.55511829781E+01  0.81325133313E+01  0.12095523027E+02  0.51100000000E-03 0.  1.
         12    1    3    3    0    0  0.87053622251E+01  0.14450563439E+02  0.16905226328E+02  0.23882813744E+02  0.00000000000E+00 0. -1.
</event>
<event>
 7    1  0.4937359E-010  0.4778727E+02  0.7816164E-02  0.1312668E+00
        -11   -1    0    0    0    0  0.00000000000E+00  0.00000000000E+00  0.45593999997E+02  0.45594000000E+02  0.51100000000E-03 0.  1.
         11   -1    0    0    0    0 -0.00000000000E+00 -0.00000000000E+00 -0.45593999997E+02  0.45594000000E+02  0.51100000000E-03 0. -1.
    9900012    2    1    2    0    0 -0.23928714687E+02  0.29023353981E+02  0.21649130834E+02  0.47787270412E+02  0.19999997116E+02 0.  0.
         12    1    1    2    0    0  0.23928714687E+02 -0.29023353981E+02 -0.21649130834E+02  0.43400729588E+02  0.00000000000E+00 0. -1.
         11    1    3    3    0    0  0.90724233699E+00  0.76229009784E+01 -0.49138548529E+00  0.76924097616E+01  0.51100000000E-03 0. -1.
        -11    1    3    3    0    0 -0.95500741025E+01  0.50917808076E+01  0.95886324406E+01  0.14459322927E+02  0.51100000000E-03 0.  1.
         12    1    3    3    0    0 -0.15285882922E+02  0.16308672195E+02  0.12551883879E+02  0.25635537724E+02  0.00000000000E+00 0. -1.
</event>
<event>
 7    1  0.4937359E-010  0.4778727E+02  0.7816164E-02  0.1312668E+00
        -11   -1    0    0    0    0  0.00000000000E+00  0.00000000000E+00  0.45593999997E+02  0.45594000000E+02  0.51100000000E-03 0.  1.
         11   -1    0    0    0    0 -0.00000000000E+00 -0.00000000000E+00 -0.45593999997E+02  0.45594000000E+02  0.51100000000E-03 0. -1.
    9900012    2    1    2    0    0  0.14285155139E+02 -0.73363311355E+01  0.40320414687E+02  0.47787271292E+02  0.20000001127E+02 0.  0.
         12    1    1    2    0    0 -0.14285155139E+02  0.73363311355E+01 -0.40320414687E+02  0.43400728708E+02  0.00000000000E+00 0. -1.
         11    1    3    3    0    0  0.24763955975E+00  0.39268194721E+01  0.56029387997E+00  0.39743132754E+01  0.51100000000E-03 0. -1.
        -11    1    3    3    0    0  0.12394319159E+02 -0.87767701473E+01  0.30276533993E+02  0.33872102865E+02  0.51100000000E-03 0.  1.
         12    1    3    3    0    0  0.16431964202E+01 -0.24863804602E+01  0.94835868145E+01  0.99408551511E+01  0.00000000000E+00 0. -1.
</event>
<event>
 7    1  0.4937359E-010  0.4778727E+02  0.7816164E-02  0.1312668E+00
        -11   -1    0    0    0    0  0.00000000000E+00  0.00000000000E+00  0.45593999997E+02  0.45594000000E+02  0.51100000000E-03 0. -1.
         11   -1    0    0    0    0 -0.00000000000E+00 -0.00000000000E+00 -0.45593999997E+02  0.45594000000E+02  0.51100000000E-03 0.  1.
    9900012    2    1    2    0    0  0.55086490225E+01  0.41157877435E+02  0.12621708579E+02  0.47787267098E+02  0.19999982007E+02 0.  0.
         12    1    1    2    0    0 -0.55086490225E+01 -0.41157877435E+02 -0.12621708579E+02  0.43400732902E+02  0.00000000000E+00 0. -1.
         11    1    3    3    0    0 -0.94586676930E+00  0.17210451882E+01 -0.10393097083E+01  0.22218968059E+01  0.51100000000E-03 0. -1.
        -11    1    3    3    0    0 -0.17402540725E+01  0.25184657268E+02  0.14483926492E+02  0.29104631467E+02  0.51100000000E-03 0.  1.
        -12    1    3    3    0    0  0.81947698643E+01  0.14252174979E+02 -0.82290820548E+00  0.16460738825E+02  0.00000000000E+00 0.  1.
</event>
<event>
 7    1  0.4937359E-010  0.4778727E+02  0.7816164E-02  0.1312668E+00
        -11   -1    0    0    0    0  0.00000000000E+00  0.00000000000E+00  0.45593999997E+02  0.45594000000E+02  0.51100000000E-03 0.  1.
         11   -1    0    0    0    0 -0.00000000000E+00 -0.00000000000E+00 -0.45593999997E+02  0.45594000000E+02  0.51100000000E-03 0. -1.
    9900012    2    1    2    0    0  0.27008924478E+02 -0.59079284254E+01  0.33455005860E+02  0.47787273775E+02  0.20000012450E+02 0.  0.
         12    1    1    2    0    0 -0.27008924478E+02  0.59079284254E+01 -0.33455005860E+02  0.43400726225E+02  0.00000000000E+00 0. -1.
         11    1    3    3    0    0  0.32697002916E+00 -0.63916553970E+01  0.10090903124E+02  0.11949330284E+02  0.51100000000E-03 0. -1.
        -11    1    3    3    0    0  0.85188796632E+01  0.19154873128E+00  0.44485445326E+01  0.96123644517E+01  0.51100000000E-03 0.  1.
         12    1    3    3    0    0  0.18163074786E+02  0.29217824036E+00  0.18915558204E+02  0.26225579039E+02  0.00000000000E+00 0. -1.
</event>
<event>
 7    1  0.4937359E-010  0.4778729E+02  0.7816164E-02  0.1312668E+00
        -11   -1    0    0    0    0  0.00000000000E+00  0.00000000000E+00  0.45593999997E+02  0.45594000000E+02  0.51100000000E-03 0.  1.
         11   -1    0    0    0    0 -0.00000000000E+00 -0.00000000000E+00 -0.45593999997E+02  0.45594000000E+02  0.51100000000E-03 0. -1.
    9900012    2    1    2    0    0  0.41351550842E+02 -0.55762831922E+01  0.11940522598E+02  0.47787288356E+02  0.20000078931E+02 0.  0.
         12    1    1    2    0    0 -0.41351550842E+02  0.55762831922E+01 -0.11940522598E+02  0.43400711644E+02  0.00000000000E+00 0. -1.
         11    1    3    3    0    0  0.24638079614E+01  0.19639780843E+01  0.47447273884E+01  0.56956121566E+01  0.51100000000E-03 0. -1.
        -11    1    3    3    0    0  0.23618470589E+02 -0.95852657618E+01  0.10669973116E+01  0.25511721937E+02  0.51100000000E-03 0.  1.
        -12    1    3    3    0    0  0.15269272292E+02  0.20450044853E+01  0.61287978982E+01  0.16579954262E+02  0.00000000000E+00 0.  1.
</event>
<event>
 7    1  0.4937359E-010  0.4778727E+02  0.7816164E-02  0.1312668E+00
        -11   -1    0    0    0    0  0.00000000000E+00  0.00000000000E+00  0.45593999997E+02  0.45594000000E+02  0.51100000000E-03 0.  1.
         11   -1    0    0    0    0 -0.00000000000E+00 -0.00000000000E+00 -0.45593999997E+02  0.45594000000E+02  0.51100000000E-03 0. -1.
    9900012    2    1    2    0    0 -0.34591189590E+02  0.13625358279E+02  0.22392469200E+02  0.47787268873E+02  0.19999990100E+02 0.  0.
         12    1    1    2    0    0  0.34591189590E+02 -0.13625358279E+02 -0.22392469200E+02  0.43400731127E+02  0.00000000000E+00 0. -1.
         11    1    3    3    0    0 -0.24754255394E+02  0.15328628739E+02  0.18233819716E+02  0.34354216638E+02  0.51100000000E-03 0. -1.
        -11    1    3    3    0    0 -0.55359776289E+01 -0.38468234389E+01  0.52026446172E+01  0.85154336444E+01  0.51100000000E-03 0.  1.
         12    1    3    3    0    0 -0.43009565674E+01  0.21435529786E+01 -0.10439951331E+01  0.49176185908E+01  0.00000000000E+00 0. -1.
</event>
<event>
 7    1  0.1038146E-009  0.4778727E+02  0.7816164E-02  0.1312668E+00
        -11   -1    0    0    0    0  0.00000000000E+00  0.00000000000E+00  0.45593999997E+02  0.45594000000E+02  0.51100000000E-03 0.  1.
         11   -1    0    0    0    0 -0.00000000000E+00 -0.00000000000E+00 -0.45593999997E+02  0.45594000000E+02  0.51100000000E-03 0. -1.
    9900012    2    1    2    0    0 -0.28639643840E+01  0.34199183002E+02 -0.26567587282E+02  0.47787273002E+02  0.20000008925E+02 0.  0.
         12    1    1    2    0    0  0.28639643840E+01 -0.34199183002E+02  0.26567587282E+02  0.43400726998E+02  0.00000000000E+00 0. -1.
         11    1    3    3    0    0 -0.55409286640E+01  0.22352494890E+02 -0.10542614249E+02  0.25327507452E+02  0.51100000000E-03 0. -1.
        -11    1    3    3    0    0  0.73380682119E+00  0.11965639576E+02 -0.85223721166E+01  0.14708699116E+02  0.51100000000E-03 0.  1.
         12    1    3    3    0    0  0.19431574588E+01 -0.11895146451E+00 -0.75026009162E+01  0.77510664343E+01  0.00000000000E+00 0. -1.
</event>
<event>
 7    1  0.4937359E-010  0.4778730E+02  0.7816164E-02  0.1312668E+00
        -11   -1    0    0    0    0  0.00000000000E+00  0.00000000000E+00  0.45593999997E+02  0.45594000000E+02  0.51100000000E-03 0. -1.
         11   -1    0    0    0    0 -0.00000000000E+00 -0.00000000000E+00 -0.45593999997E+02  0.45594000000E+02  0.51100000000E-03 0.  1.
    9900012    2    1    2    0    0 -0.32607533598E+02  0.17520865915E+02 -0.22658091253E+02  0.47787296216E+02  0.20000114767E+02 0.  0.
         12    1    1    2    0    0  0.32607533598E+02 -0.17520865915E+02  0.22658091253E+02  0.43400703784E+02  0.00000000000E+00 0. -1.
         11    1    3    3    0    0 -0.39596556710E+01  0.78782201465E+01  0.48706699085E+00  0.88307678162E+01  0.51100000000E-03 0. -1.
        -11    1    3    3    0    0 -0.16054735402E+02  0.30710286740E+01 -0.16665877120E+02  0.23343890129E+02  0.51100000000E-03 0.  1.
        -12    1    3    3    0    0 -0.12593142525E+02  0.65716170943E+01 -0.64792811237E+01  0.15612638271E+02  0.00000000000E+00 0.  1.
</event>
<event>
 7    1  0.5942081E-010  0.4778727E+02  0.7816164E-02  0.1312668E+00
        -11   -1    0    0    0    0  0.00000000000E+00  0.00000000000E+00  0.45593999997E+02  0.45594000000E+02  0.51100000000E-03 0. -1.
         11   -1    0    0    0    0 -0.00000000000E+00 -0.00000000000E+00 -0.45593999997E+02  0.45594000000E+02  0.51100000000E-03 0.  1.
    9900012    2    1    2    0    0  0.27889096286E+02 -0.15916912864E+02 -0.29197150854E+02  0.47787269306E+02  0.19999992075E+02 0.  0.
         12    1    1    2    0    0 -0.27889096286E+02  0.15916912864E+02  0.29197150854E+02  0.43400730694E+02  0.00000000000E+00 0. -1.
         11    1    3    3    0    0  0.16898422889E+02 -0.18405578842E+01 -0.74620862656E+01  0.18564134269E+02  0.51100000000E-03 0. -1.
        -11    1    3    3    0    0  0.99421243117E+01 -0.12873625390E+02 -0.14424096464E+02  0.21740069585E+02  0.51100000000E-03 0.  1.
         12    1    3    3    0    0  0.10485490856E+01 -0.12027295900E+01 -0.73109681244E+01  0.74830654526E+01  0.00000000000E+00 0. -1.
</event>
<event>
 7    1  0.4937359E-010  0.4778727E+02  0.7816164E-02  0.1312668E+00
        -11   -1    0    0    0    0  0.00000000000E+00  0.00000000000E+00  0.45593999997E+02  0.45594000000E+02  0.51100000000E-03 0.  1.
         11   -1    0    0    0    0 -0.00000000000E+00 -0.00000000000E+00 -0.45593999997E+02  0.45594000000E+02  0.51100000000E-03 0. -1.
    9900012    2    1    2    0    0 -0.13091293631E+01  0.32260602978E+02  0.29002804724E+02  0.47787274130E+02  0.20000014068E+02 0.  0.
         12    1    1    2    0    0  0.13091293631E+01 -0.32260602978E+02 -0.29002804724E+02  0.43400725870E+02  0.00000000000E+00 0. -1.
         11    1    3    3    0    0  0.23850193331E+01  0.49483035368E+00  0.93348269574E+00  0.26085560187E+01  0.51100000000E-03 0. -1.
        -11    1    3    3    0    0 -0.38020996661E+01  0.31579920718E+02  0.21019610934E+02  0.38125731449E+02  0.51100000000E-03 0.  1.
        -12    1    3    3    0    0  0.10795096989E+00  0.18585190574E+00  0.70497110941E+01  0.70529866619E+01  0.00000000000E+00 0.  1.
</event>
<event>
 7    1  0.4937359E-010  0.4778727E+02  0.7816164E-02  0.1312668E+00
        -11   -1    0    0    0    0  0.00000000000E+00  0.00000000000E+00  0.45593999997E+02  0.45594000000E+02  0.51100000000E-03 0.  1.
         11   -1    0    0    0    0 -0.00000000000E+00 -0.00000000000E+00 -0.45593999997E+02  0.45594000000E+02  0.51100000000E-03 0. -1.
    9900012    2    1    2    0    0  0.37719602618E+02 -0.21459787261E+02 -0.57680518120E+00  0.47787267343E+02  0.19999983125E+02 0.  0.
         12    1    1    2    0    0 -0.37719602618E+02  0.21459787261E+02  0.57680518120E+00  0.43400732657E+02  0.00000000000E+00 0. -1.
         11    1    3    3    0    0  0.28933157974E+00 -0.53930531929E+01 -0.64487554676E+00  0.54391727529E+01  0.51100000000E-03 0. -1.
        -11    1    3    3    0    0  0.29842594684E+02 -0.82110488794E+01 -0.27355045238E+01  0.31072250746E+02  0.51100000000E-03 0.  1.
        -12    1    3    3    0    0  0.75876763542E+01 -0.78556851887E+01  0.28035748893E+01  0.11275843844E+02  0.00000000000E+00 0.  1.
</event>
<event>
 7    1  0.4937359E-010  0.4778727E+02  0.7816164E-02  0.1312668E+00
        -11   -1    0    0    0    0  0.00000000000E+00  0.00000000000E+00  0.45593999997E+02  0.45594000000E+02  0.51100000000E-03 0.  1.
         11   -1    0    0    0    0 -0.00000000000E+00 -0.00000000000E+00 -0.45593999997E+02  0.45594000000E+02  0.51100000000E-03 0. -1.
    9900012    2    1    2    0    0  0.26683391112E+02 -0.26849855112E+02  0.21229821589E+02  0.47787269529E+02  0.19999993089E+02 0.  0.
         12    1    1    2    0    0 -0.26683391112E+02  0.26849855112E+02 -0.21229821589E+02  0.43400730471E+02  0.00000000000E+00 0. -1.
         11    1    3    3    0    0  0.19227549222E+02 -0.69739312155E+01  0.75758248706E+01  0.21811178062E+02  0.51100000000E-03 0.  1.
        -11    1    3    3    0    0  0.12688282095E+01 -0.11878033420E+02  0.66060300829E+01  0.13650539794E+02  0.51100000000E-03 0. -1.
         12    1    3    3    0    0  0.61870136797E+01 -0.79978904763E+01  0.70479666358E+01  0.12325551673E+02  0.00000000000E+00 0. -1.
</event>
<event>
 7    1  0.4937359E-010  0.4778727E+02  0.7816164E-02  0.1312668E+00
        -11   -1    0    0    0    0  0.00000000000E+00  0.00000000000E+00  0.45593999997E+02  0.45594000000E+02  0.51100000000E-03 0.  1.
         11   -1    0    0    0    0 -0.00000000000E+00 -0.00000000000E+00 -0.45593999997E+02  0.45594000000E+02  0.51100000000E-03 0. -1.
    9900012    2    1    2    0    0  0.33157368442E+02  0.24320163148E+02  0.13883153339E+02  0.47787270004E+02  0.19999995254E+02 0.  0.
         12    1    1    2    0    0 -0.33157368442E+02 -0.24320163148E+02 -0.13883153339E+02  0.43400729996E+02  0.00000000000E+00 0. -1.
         11    1    3    3    0    0  0.13198995546E+02  0.46901881365E+01 -0.29476795392E+01  0.14314334183E+02  0.51100000000E-03 0. -1.
        -11    1    3    3    0    0  0.15841749300E+02  0.18458960487E+02  0.12364198991E+02  0.27286767125E+02  0.51100000000E-03 0.  1.
        -12    1    3    3    0    0  0.41166235962E+01  0.11710145247E+01  0.44666338875E+01  0.61861686960E+01  0.00000000000E+00 0.  1.
</event>
<event>
 7    1  0.4937359E-010  0.4778728E+02  0.7816164E-02  0.1312668E+00
        -11   -1    0    0    0    0  0.00000000000E+00  0.00000000000E+00  0.45593999997E+02  0.45594000000E+02  0.51100000000E-03 0.  1.
         11   -1    0    0    0    0 -0.00000000000E+00 -0.00000000000E+00 -0.45593999997E+02  0.45594000000E+02  0.51100000000E-03 0. -1.
    9900012    2    1    2    0    0 -0.97406586624E+01  0.29599894673E+02  0.30209081517E+02  0.47787276481E+02  0.20000024787E+02 0.  0.
         12    1    1    2    0    0  0.97406586624E+01 -0.29599894673E+02 -0.30209081517E+02  0.43400723519E+02  0.00000000000E+00 0. -1.
         11    1    3    3    0    0 -0.53707954509E+01  0.13095127778E+01  0.79420377019E+01  0.96765815560E+01  0.51100000000E-03 0. -1.
        -11    1    3    3    0    0 -0.14694405726E+01  0.81865322573E+01  0.13782854137E+02  0.16098000945E+02  0.51100000000E-03 0.  1.
         12    1    3    3    0    0 -0.29004226389E+01  0.20103849638E+02  0.84841896786E+01  0.22012693980E+02  0.00000000000E+00 0. -1.
</event>
<event>
 7    1  0.4937359E-010  0.4778728E+02  0.7816164E-02  0.1312668E+00
        -11   -1    0    0    0    0  0.00000000000E+00  0.00000000000E+00  0.45593999997E+02  0.45594000000E+02  0.51100000000E-03 0.  1.
         11   -1    0    0    0    0 -0.00000000000E+00 -0.00000000000E+00 -0.45593999997E+02  0.45594000000E+02  0.51100000000E-03 0. -1.
    9900012    2    1    2    0    0  0.17231216685E+02 -0.28466635784E+02  0.27863214087E+02  0.47787275576E+02  0.20000020661E+02 0.  0.
         12    1    1    2    0    0 -0.17231216685E+02  0.28466635784E+02 -0.27863214087E+02  0.43400724424E+02  0.00000000000E+00 0. -1.
         11    1    3    3    0    0  0.10016477670E+02 -0.88512722143E+01  0.71168077026E+01  0.15143440720E+02  0.51100000000E-03 0. -1.
        -11    1    3    3    0    0 -0.17757547248E+01 -0.14734177129E+02  0.10618244094E+02  0.18248188634E+02  0.51100000000E-03 0.  1.
        -12    1    3    3    0    0  0.89904937402E+01 -0.48811864404E+01  0.10128162290E+02  0.14395646222E+02  0.00000000000E+00 0.  1.
</event>
<event>
 7    1  0.4937359E-010  0.4778727E+02  0.7816164E-02  0.1312668E+00
        -11   -1    0    0    0    0  0.00000000000E+00  0.00000000000E+00  0.45593999997E+02  0.45594000000E+02  0.51100000000E-03 0. -1.
         11   -1    0    0    0    0 -0.00000000000E+00 -0.00000000000E+00 -0.45593999997E+02  0.45594000000E+02  0.51100000000E-03 0.  1.
    9900012    2    1    2    0    0  0.40426853450E+02 -0.14280798777E+02 -0.67343417913E+01  0.47787273590E+02  0.20000011605E+02 0.  0.
         12    1    1    2    0    0 -0.40426853450E+02  0.14280798777E+02  0.67343417913E+01  0.43400726410E+02  0.00000000000E+00 0. -1.
         11    1    3    3    0    0 -0.51937466481E-02  0.31097434752E+01  0.45754101462E+00  0.31432269244E+01  0.51100000000E-03 0. -1.
        -11    1    3    3    0    0  0.20028105157E+02 -0.89538569725E+01 -0.45716960362E+01  0.22409751354E+02  0.51100000000E-03 0.  1.
         12    1    3    3    0    0  0.20403942040E+02 -0.84366852797E+01 -0.26201867697E+01  0.22234295311E+02  0.00000000000E+00 0. -1.
</event>
<event>
 7    1  0.4937359E-010  0.4778727E+02  0.7816164E-02  0.1312668E+00
        -11   -1    0    0    0    0  0.00000000000E+00  0.00000000000E+00  0.45593999997E+02  0.45594000000E+02  0.51100000000E-03 0. -1.
         11   -1    0    0    0    0 -0.00000000000E+00 -0.00000000000E+00 -0.45593999997E+02  0.45594000000E+02  0.51100000000E-03 0.  1.
    9900012    2    1    2    0    0  0.86774512571E+01  0.31638006176E+02 -0.28414115486E+02  0.47787267818E+02  0.19999985289E+02 0.  0.
         12    1    1    2    0    0 -0.86774512571E+01 -0.31638006176E+02  0.28414115486E+02  0.43400732182E+02  0.00000000000E+00 0. -1.
         11    1    3    3    0    0 -0.37810355208E+01  0.34287911480E+01 -0.85762820075E+01  0.99802530870E+01  0.51100000000E-03 0. -1.
        -11    1    3    3    0    0  0.75649423094E+01  0.23391766042E+02 -0.11906615030E+02  0.27316122573E+02  0.51100000000E-03 0.  1.
        -12    1    3    3    0    0  0.48935444685E+01  0.48174489861E+01 -0.79312184480E+01  0.10490892158E+02  0.00000000000E+00 0.  1.
</event>
<event>
 7    1  0.4937359E-010  0.4778727E+02  0.7816164E-02  0.1312668E+00
        -11   -1    0    0    0    0  0.00000000000E+00  0.00000000000E+00  0.45593999997E+02  0.45594000000E+02  0.51100000000E-03 0.  1.
         11   -1    0    0    0    0 -0.00000000000E+00 -0.00000000000E+00 -0.45593999997E+02  0.45594000000E+02  0.51100000000E-03 0. -1.
    9900012    2    1    2    0    0 -0.52471246341E+01 -0.30084874888E+02  0.30838154204E+02  0.47787265344E+02  0.19999974010E+02 0.  0.
         12    1    1    2    0    0  0.52471246341E+01  0.30084874888E+02 -0.30838154204E+02  0.43400734656E+02  0.00000000000E+00 0. -1.
         11    1    3    3    0    0 -0.69423709806E+01 -0.93974560710E+00  0.58453485599E+01  0.91240197658E+01  0.51100000000E-03 0. -1.
        -11    1    3    3    0    0 -0.70137211152E+00 -0.37389390924E+01  0.19248459122E+01  0.42634047923E+01  0.51100000000E-03 0.  1.
         12    1    3    3    0    0  0.23966184580E+01 -0.25406190188E+02  0.23067959732E+02  0.34399840786E+02  0.00000000000E+00 0. -1.
</event>
<event>
 7    1  0.4937359E-010  0.4778727E+02  0.7816164E-02  0.1312668E+00
        -11   -1    0    0    0    0  0.00000000000E+00  0.00000000000E+00  0.45593999997E+02  0.45594000000E+02  0.51100000000E-03 0.  1.
         11   -1    0    0    0    0 -0.00000000000E+00 -0.00000000000E+00 -0.45593999997E+02  0.45594000000E+02  0.51100000000E-03 0. -1.
    9900012    2    1    2    0    0 -0.28690131930E+02  0.32068896627E+02  0.56644017123E+01  0.47787271345E+02  0.20000001370E+02 0.  0.
         12    1    1    2    0    0  0.28690131930E+02 -0.32068896627E+02 -0.56644017123E+01  0.43400728655E+02  0.00000000000E+00 0. -1.
         11    1    3    3    0    0 -0.26504102774E+00  0.68860412994E+01 -0.36917122493E+01  0.78177075359E+01  0.51100000000E-03 0.  1.
        -11    1    3    3    0    0 -0.57066169491E+00  0.34387956951E+01  0.34988769401E+00  0.35033401580E+01  0.51100000000E-03 0. -1.
         12    1    3    3    0    0 -0.27854429208E+02  0.21744059632E+02  0.90062262676E+01  0.36466223651E+02  0.00000000000E+00 0. -1.
</event>
<event>
 7    1  0.4937359E-010  0.4778727E+02  0.7816164E-02  0.1312668E+00
        -11   -1    0    0    0    0  0.00000000000E+00  0.00000000000E+00  0.45593999997E+02  0.45594000000E+02  0.51100000000E-03 0. -1.
         11   -1    0    0    0    0 -0.00000000000E+00 -0.00000000000E+00 -0.45593999997E+02  0.45594000000E+02  0.51100000000E-03 0.  1.
    9900012    2    1    2    0    0 -0.14874852311E+02  0.31392263513E+02 -0.26017076226E+02  0.47787266191E+02  0.19999977872E+02 0.  0.
         12    1    1    2    0    0  0.14874852311E+02 -0.31392263513E+02  0.26017076226E+02  0.43400733809E+02  0.00000000000E+00 0. -1.
         11    1    3    3    0    0 -0.12144946377E+02  0.73351974097E+01 -0.38014781074E+01  0.14688637772E+02  0.51100000000E-03 0. -1.
        -11    1    3    3    0    0  0.17309232240E+00  0.11847071350E+02 -0.90477997215E+01  0.14907908659E+02  0.51100000000E-03 0.  1.
         12    1    3    3    0    0 -0.29029982567E+01  0.12209994753E+02 -0.13167798397E+02  0.18190719760E+02  0.00000000000E+00 0. -1.
</event>
<event>
 7    1  0.4937359E-010  0.4778727E+02  0.7816164E-02  0.1312668E+00
        -11   -1    0    0    0    0  0.00000000000E+00  0.00000000000E+00  0.45593999997E+02  0.45594000000E+02  0.51100000000E-03 0.  1.
         11   -1    0    0    0    0 -0.00000000000E+00 -0.00000000000E+00 -0.45593999997E+02  0.45594000000E+02  0.51100000000E-03 0. -1.
    9900012    2    1    2    0    0  0.12441122107E+02 -0.40568313742E+02  0.91133631639E+01  0.47787274346E+02  0.20000015053E+02 0.  0.
         12    1    1    2    0    0 -0.12441122107E+02  0.40568313742E+02 -0.91133631639E+01  0.43400725654E+02  0.00000000000E+00 0. -1.
         11    1    3    3    0    0 -0.49274015651E+01 -0.49366078964E+01  0.13001351278E+01  0.70950500574E+01  0.51100000000E-03 0. -1.
        -11    1    3    3    0    0  0.77223329356E+01 -0.16547852036E+02  0.60468210108E+01  0.19236160677E+02  0.51100000000E-03 0.  1.
         12    1    3    3    0    0  0.96461907361E+01 -0.19083853809E+02  0.17664070253E+01  0.21456063612E+02  0.00000000000E+00 0. -1.
</event>
<event>
 7    1  0.4937359E-010  0.4778728E+02  0.7816164E-02  0.1312668E+00
        -11   -1    0    0    0    0  0.00000000000E+00  0.00000000000E+00  0.45593999997E+02  0.45594000000E+02  0.51100000000E-03 0.  1.
         11   -1    0    0    0    0 -0.00000000000E+00 -0.00000000000E+00 -0.45593999997E+02  0.45594000000E+02  0.51100000000E-03 0. -1.
    9900012    2    1    2    0    0 -0.35544871119E+02  0.24903488116E+02 -0.28796505440E-01  0.47787280968E+02  0.20000045247E+02 0.  0.
         12    1    1    2    0    0  0.35544871119E+02 -0.24903488116E+02  0.28796505440E-01  0.43400719032E+02  0.00000000000E+00 0. -1.
         11    1    3    3    0    0 -0.53938800526E+01  0.11241644869E+02 -0.47590185637E+01  0.13346039837E+02  0.51100000000E-03 0. -1.
        -11    1    3    3    0    0 -0.29103211271E+02  0.11823807666E+02  0.59893035325E+01  0.31979229057E+02  0.51100000000E-03 0.  1.
        -12    1    3    3    0    0 -0.10477797957E+01  0.18380355813E+01 -0.12590814742E+01  0.24620120749E+01  0.00000000000E+00 0.  1.
</event>
<event>
 7    1  0.4937359E-010  0.4778728E+02  0.7816164E-02  0.1312668E+00
        -11   -1    0    0    0    0  0.00000000000E+00  0.00000000000E+00  0.45593999997E+02  0.45594000000E+02  0.51100000000E-03 0.  1.
         11   -1    0    0    0    0 -0.00000000000E+00 -0.00000000000E+00 -0.45593999997E+02  0.45594000000E+02  0.51100000000E-03 0. -1.
    9900012    2    1    2    0    0  0.28155012726E+02 -0.53190467219E+01  0.32597943464E+02  0.47787275147E+02  0.20000018706E+02 0.  0.
         12    1    1    2    0    0 -0.28155012726E+02  0.53190467219E+01 -0.32597943464E+02  0.43400724853E+02  0.00000000000E+00 0. -1.
         11    1    3    3    0    0  0.73020319393E+01  0.19127312193E+01  0.17652789039E+00  0.75504551861E+01  0.51100000000E-03 0. -1.
        -11    1    3    3    0    0  0.85337920834E+01 -0.52342380484E+01  0.21237316065E+02  0.23478638145E+02  0.51100000000E-03 0.  1.
         12    1    3    3    0    0  0.12319188703E+02 -0.19975398928E+01  0.11184099509E+02  0.16758181816E+02  0.00000000000E+00 0. -1.
</event>
<event>
 7    1  0.4937359E-010  0.4778723E+02  0.7816164E-02  0.1312668E+00
        -11   -1    0    0    0    0  0.00000000000E+00  0.00000000000E+00  0.45593999997E+02  0.45594000000E+02  0.51100000000E-03 0.  1.
         11   -1    0    0    0    0 -0.00000000000E+00 -0.00000000000E+00 -0.45593999997E+02  0.45594000000E+02  0.51100000000E-03 0. -1.
    9900012    2    1    2    0    0  0.29150168040E+02 -0.23775042484E+02  0.21648144784E+02  0.47787226799E+02  0.19999798266E+02 0.  0.
         12    1    1    2    0    0 -0.29150168040E+02  0.23775042484E+02 -0.21648144784E+02  0.43400773201E+02  0.00000000000E+00 0. -1.
         11    1    3    3    0    0 -0.98423053591E+00 -0.52618487745E+01  0.27972427223E+00  0.53604111972E+01  0.51100000000E-03 0. -1.
        -11    1    3    3    0    0  0.27019932136E+02 -0.18397929156E+02  0.16425958995E+02  0.36583775899E+02  0.51100000000E-03 0.  1.
        -12    1    3    3    0    0  0.31144664394E+01 -0.11526455327E+00  0.49424615169E+01  0.58430397025E+01  0.00000000000E+00 0.  1.
</event>
<event>
 7    1  0.4937359E-010  0.4778727E+02  0.7816164E-02  0.1312668E+00
        -11   -1    0    0    0    0  0.00000000000E+00  0.00000000000E+00  0.45593999997E+02  0.45594000000E+02  0.51100000000E-03 0.  1.
         11   -1    0    0    0    0 -0.00000000000E+00 -0.00000000000E+00 -0.45593999997E+02  0.45594000000E+02  0.51100000000E-03 0. -1.
    9900012    2    1    2    0    0 -0.24061490399E+02 -0.21950605002E+02  0.28685170051E+02  0.47787270040E+02  0.19999995421E+02 0.  0.
         12    1    1    2    0    0  0.24061490399E+02  0.21950605002E+02 -0.28685170051E+02  0.43400729960E+02  0.00000000000E+00 0. -1.
         11    1    3    3    0    0 -0.15836682584E+01  0.66254526027E-01 -0.25826938782E+01  0.30302974680E+01  0.51100000000E-03 0. -1.
        -11    1    3    3    0    0 -0.11942802322E+02 -0.76173584393E+01  0.13128320225E+02  0.19313401282E+02  0.51100000000E-03 0.  1.
         12    1    3    3    0    0 -0.10535019818E+02 -0.14399501089E+02  0.18139543705E+02  0.25443571290E+02  0.00000000000E+00 0. -1.
</event>
<event>
 7    1  0.4937359E-010  0.4778726E+02  0.7816164E-02  0.1312668E+00
        -11   -1    0    0    0    0  0.00000000000E+00  0.00000000000E+00  0.45593999997E+02  0.45594000000E+02  0.51100000000E-03 0.  1.
         11   -1    0    0    0    0 -0.00000000000E+00 -0.00000000000E+00 -0.45593999997E+02  0.45594000000E+02  0.51100000000E-03 0. -1.
    9900012    2    1    2    0    0 -0.17031423721E+02 -0.11873924623E+02  0.38112525298E+02  0.47787261936E+02  0.19999958470E+02 0.  0.
         12    1    1    2    0    0  0.17031423721E+02  0.11873924623E+02 -0.38112525298E+02  0.43400738064E+02  0.00000000000E+00 0. -1.
         11    1    3    3    0    0  0.32638757818E+01  0.15005493085E+01  0.66221399819E+01  0.75337422007E+01  0.51100000000E-03 0. -1.
        -11    1    3    3    0    0 -0.14919597883E+02 -0.74761949034E+01  0.24505304667E+02  0.29647897874E+02  0.51100000000E-03 0.  1.
        -12    1    3    3    0    0 -0.53757016197E+01 -0.58982790280E+01  0.69850806491E+01  0.10605621862E+02  0.00000000000E+00 0.  1.
</event>
<event>
 7    1  0.4937359E-010  0.4778727E+02  0.7816164E-02  0.1312668E+00
        -11   -1    0    0    0    0  0.00000000000E+00  0.00000000000E+00  0.45593999997E+02  0.45594000000E+02  0.51100000000E-03 0.  1.
         11   -1    0    0    0    0 -0.00000000000E+00 -0.00000000000E+00 -0.45593999997E+02  0.45594000000E+02  0.51100000000E-03 0. -1.
    9900012    2    1    2    0    0 -0.41438825897E+02  0.54311105308E+01  0.11702567965E+02  0.47787270164E+02  0.19999995985E+02 0.  0.
         12    1    1    2    0    0  0.41438825897E+02 -0.54311105308E+01 -0.11702567965E+02  0.43400729836E+02  0.00000000000E+00 0. -1.
         11    1    3    3    0    0 -0.14444198614E+02  0.37262113843E+01 -0.40191786388E+01  0.15449055701E+02  0.51100000000E-03 0. -1.
        -11    1    3    3    0    0 -0.15314362765E+02 -0.25740122529E+01  0.64119625131E+01  0.16800848476E+02  0.51100000000E-03 0.  1.
         12    1    3    3    0    0 -0.11680264519E+02  0.42789113994E+01  0.93097840905E+01  0.15537365987E+02  0.00000000000E+00 0. -1.
</event>
<event>
 7    1  0.5056077E-010  0.4778727E+02  0.7816164E-02  0.1312668E+00
        -11   -1    0    0    0    0  0.00000000000E+00  0.00000000000E+00  0.45593999997E+02  0.45594000000E+02  0.51100000000E-03 0.  1.
         11   -1    0    0    0    0 -0.00000000000E+00 -0.00000000000E+00 -0.45593999997E+02  0.45594000000E+02  0.51100000000E-03 0. -1.
    9900012    2    1    2    0    0  0.37431342847E+02 -0.17881029446E+02  0.12758780801E+02  0.47787272715E+02  0.20000007617E+02 0.  0.
         12    1    1    2    0    0 -0.37431342847E+02  0.17881029446E+02 -0.12758780801E+02  0.43400727285E+02  0.00000000000E+00 0. -1.
         11    1    3    3    0    0  0.14848383001E+02 -0.22698187417E+01 -0.18862802207E+01  0.15138844348E+02  0.51100000000E-03 0. -1.
        -11    1    3    3    0    0  0.22728004977E+02 -0.12354298387E+02  0.12378676393E+02  0.28677910112E+02  0.51100000000E-03 0.  1.
         12    1    3    3    0    0 -0.14504513130E+00 -0.32569123172E+01  0.22663846279E+01  0.39705182551E+01  0.00000000000E+00 0. -1.
</event>
<event>
 7    1  0.4937359E-010  0.4778727E+02  0.7816164E-02  0.1312668E+00
        -11   -1    0    0    0    0  0.00000000000E+00  0.00000000000E+00  0.45593999997E+02  0.45594000000E+02  0.51100000000E-03 0.  1.
         11   -1    0    0    0    0 -0.00000000000E+00 -0.00000000000E+00 -0.45593999997E+02  0.45594000000E+02  0.51100000000E-03 0. -1.
    9900012    2    1    2    0    0 -0.18886672242E+01 -0.42243456454E+02  0.97747890027E+01  0.47787272159E+02  0.20000005081E+02 0.  0.
         12    1    1    2    0    0  0.18886672242E+01  0.42243456454E+02 -0.97747890027E+01  0.43400727841E+02  0.00000000000E+00 0. -1.
         11    1    3    3    0    0  0.28318551787E+01 -0.14657410413E+00 -0.19646916416E+01  0.34497682862E+01  0.51100000000E-03 0. -1.
        -11    1    3    3    0    0 -0.50634857791E+01 -0.37332560891E+02  0.86683581788E+01  0.38658756120E+02  0.51100000000E-03 0.  1.
        -12    1    3    3    0    0  0.34296337621E+00 -0.47643214590E+01  0.30711224656E+01  0.56787477529E+01  0.00000000000E+00 0.  1.
</event>
<event>
 7    1  0.4937359E-010  0.4778728E+02  0.7816164E-02  0.1312668E+00
        -11   -1    0    0    0    0  0.00000000000E+00  0.00000000000E+00  0.45593999997E+02  0.45594000000E+02  0.51100000000E-03 0. -1.
         11   -1    0    0    0    0 -0.00000000000E+00 -0.00000000000E+00 -0.45593999997E+02  0.45594000000E+02  0.51100000000E-03 0.  1.
    9900012    2    1    2    0    0 -0.17078906504E+02 -0.29336797163E+02 -0.27042299527E+02  0.47787277899E+02  0.20000031253E+02 0.  0.
         12    1    1    2    0    0  0.17078906504E+02  0.29336797163E+02  0.27042299527E+02  0.43400722101E+02  0.00000000000E+00 0. -1.
         11    1    3    3    0    0 -0.10295780392E+02 -0.63655660167E+01 -0.14911321154E+02  0.19206015292E+02  0.51100000000E-03 0. -1.
        -11    1    3    3    0    0  0.13739994830E+01 -0.89668835263E+01 -0.73746087110E+01  0.11690925056E+02  0.51100000000E-03 0.  1.
         12    1    3    3    0    0 -0.81571255956E+01 -0.14004347620E+02 -0.47563696627E+01  0.16890337552E+02  0.00000000000E+00 0. -1.
</event>
<event>
 7    1  0.4937359E-010  0.4778728E+02  0.7816164E-02  0.1312668E+00
        -11   -1    0    0    0    0  0.00000000000E+00  0.00000000000E+00  0.45593999997E+02  0.45594000000E+02  0.51100000000E-03 0. -1.
         11   -1    0    0    0    0 -0.00000000000E+00 -0.00000000000E+00 -0.45593999997E+02  0.45594000000E+02  0.51100000000E-03 0.  1.
    9900012    2    1    2    0    0  0.28055632126E+01 -0.41677574737E+02 -0.11778409147E+02  0.47787281770E+02  0.20000048901E+02 0.  0.
         12    1    1    2    0    0 -0.28055632126E+01  0.41677574737E+02  0.11778409147E+02  0.43400718230E+02  0.00000000000E+00 0. -1.
         11    1    3    3    0    0 -0.34080410533E+01  0.56586489106E+00 -0.14576710805E+01  0.37496336003E+01  0.51100000000E-03 0. -1.
        -11    1    3    3    0    0  0.61755684365E+01 -0.33379417611E+02 -0.83164634334E+01  0.34949774390E+02  0.51100000000E-03 0.  1.
         12    1    3    3    0    0  0.38035829485E-01 -0.88640220164E+01 -0.20042746334E+01  0.90878737798E+01  0.00000000000E+00 0. -1.
</event>
<event>
 7    1  0.4937359E-010  0.4778727E+02  0.7816164E-02  0.1312668E+00
        -11   -1    0    0    0    0  0.00000000000E+00  0.00000000000E+00  0.45593999997E+02  0.45594000000E+02  0.51100000000E-03 0.  1.
         11   -1    0    0    0    0 -0.00000000000E+00 -0.00000000000E+00 -0.45593999997E+02  0.45594000000E+02  0.51100000000E-03 0. -1.
    9900012    2    1    2    0    0  0.73063816998E+01 -0.41926304970E+02  0.85102961338E+01  0.47787269565E+02  0.19999993256E+02 0.  0.
         12    1    1    2    0    0 -0.73063816998E+01  0.41926304970E+02 -0.85102961338E+01  0.43400730435E+02  0.00000000000E+00 0. -1.
         11    1    3    3    0    0  0.49916887573E+01 -0.29136853205E+02  0.10237013175E+02  0.31283695599E+02  0.51100000000E-03 0. -1.
        -11    1    3    3    0    0  0.59427184035E+01 -0.50702486825E+01 -0.54608235647E-01  0.78119335665E+01  0.51100000000E-03 0.  1.
         12    1    3    3    0    0 -0.36280254610E+01 -0.77192030827E+01 -0.16721088059E+01  0.86916403996E+01  0.00000000000E+00 0. -1.
</event>
<event>
 7    1  0.4937359E-010  0.4778726E+02  0.7816164E-02  0.1312668E+00
        -11   -1    0    0    0    0  0.00000000000E+00  0.00000000000E+00  0.45593999997E+02  0.45594000000E+02  0.51100000000E-03 0.  1.
         11   -1    0    0    0    0 -0.00000000000E+00 -0.00000000000E+00 -0.45593999997E+02  0.45594000000E+02  0.51100000000E-03 0. -1.
    9900012    2    1    2    0    0 -0.25248688490E+02 -0.26171712518E+02  0.23689014953E+02  0.47787259959E+02  0.19999949458E+02 0.  0.
         12    1    1    2    0    0  0.25248688490E+02  0.26171712518E+02 -0.23689014953E+02  0.43400740041E+02  0.00000000000E+00 0. -1.
         11    1    3    3    0    0  0.22446952993E+01 -0.55257778500E+01  0.61999139122E+00  0.59964378943E+01  0.51100000000E-03 0. -1.
        -11    1    3    3    0    0 -0.51440369675E+01 -0.37538223903E+01  0.18021724733E+01  0.66181662675E+01  0.51100000000E-03 0.  1.
         12    1    3    3    0    0 -0.22349346822E+02 -0.16892112278E+02  0.21266851089E+02  0.35172655797E+02  0.00000000000E+00 0. -1.
</event>
<event>
 7    1  0.4937359E-010  0.4778727E+02  0.7816164E-02  0.1312668E+00
        -11   -1    0    0    0    0  0.00000000000E+00  0.00000000000E+00  0.45593999997E+02  0.45594000000E+02  0.51100000000E-03 0.  1.
         11   -1    0    0    0    0 -0.00000000000E+00 -0.00000000000E+00 -0.45593999997E+02  0.45594000000E+02  0.51100000000E-03 0. -1.
    9900012    2    1    2    0    0  0.37553089681E+01  0.19194788738E+02 -0.38743787997E+02  0.47787269954E+02  0.19999995029E+02 0.  0.
         12    1    1    2    0    0 -0.37553089681E+01 -0.19194788738E+02  0.38743787997E+02  0.43400730046E+02  0.00000000000E+00 0. -1.
         11    1    3    3    0    0  0.38794551473E+01  0.14083159187E+02 -0.16686010428E+02  0.22176755605E+02  0.51100000000E-03 0. -1.
        -11    1    3    3    0    0  0.28730603534E+01  0.25563823530E+01 -0.21243290421E+02  0.21588583897E+02  0.51100000000E-03 0.  1.
         12    1    3    3    0    0 -0.29972065325E+01  0.25552471984E+01 -0.81448714859E+00  0.40219304518E+01  0.00000000000E+00 0. -1.
</event>
<event>
 7    1  0.4937359E-010  0.4778727E+02  0.7816164E-02  0.1312668E+00
        -11   -1    0    0    0    0  0.00000000000E+00  0.00000000000E+00  0.45593999997E+02  0.45594000000E+02  0.51100000000E-03 0. -1.
         11   -1    0    0    0    0 -0.00000000000E+00 -0.00000000000E+00 -0.45593999997E+02  0.45594000000E+02  0.51100000000E-03 0.  1.
    9900012    2    1    2    0    0 -0.41207908820E+02  0.11763862471E+02  0.68660846126E+01  0.47787270427E+02  0.19999997186E+02 0.  0.
         12    1    1    2    0    0  0.41207908820E+02 -0.11763862471E+02 -0.68660846126E+01  0.43400729573E+02  0.00000000000E+00 0. -1.
         11    1    3    3    0    0 -0.38840075380E+02  0.72237518133E+01  0.73976507860E+01  0.40192776505E+02  0.51100000000E-03 0. -1.
        -11    1    3    3    0    0 -0.33523337152E+01  0.52960407173E+01 -0.81690877388E+00  0.63208803836E+01  0.51100000000E-03 0.  1.
         12    1    3    3    0    0  0.98450027489E+00 -0.75593005981E+00  0.28534260049E+00  0.12736135388E+01  0.00000000000E+00 0. -1.
</event>
<event>
 7    1  0.4937359E-010  0.4778727E+02  0.7816164E-02  0.1312668E+00
        -11   -1    0    0    0    0  0.00000000000E+00  0.00000000000E+00  0.45593999997E+02  0.45594000000E+02  0.51100000000E-03 0.  1.
         11   -1    0    0    0    0 -0.00000000000E+00 -0.00000000000E+00 -0.45593999997E+02  0.45594000000E+02  0.51100000000E-03 0. -1.
    9900012    2    1    2    0    0 -0.25708471410E+02 -0.12142598797E+02  0.32791079719E+02  0.47787272852E+02  0.20000008244E+02 0.  0.
         12    1    1    2    0    0  0.25708471410E+02  0.12142598797E+02 -0.32791079719E+02  0.43400727148E+02  0.00000000000E+00 0. -1.
         11    1    3    3    0    0  0.36658463332E+00 -0.29831998388E+01  0.12099933167E+02  0.12467648073E+02  0.51100000000E-03 0. -1.
        -11    1    3    3    0    0 -0.11052772005E+02 -0.22194044681E+01  0.44101360322E+01  0.12105322188E+02  0.51100000000E-03 0.  1.
         12    1    3    3    0    0 -0.15022284038E+02 -0.69399944905E+01  0.16281010520E+02  0.23214302591E+02  0.00000000000E+00 0. -1.
</event>
<event>
 7    1  0.4937359E-010  0.4778726E+02  0.7816164E-02  0.1312668E+00
        -11   -1    0    0    0    0  0.00000000000E+00  0.00000000000E+00  0.45593999997E+02  0.45594000000E+02  0.51100000000E-03 0. -1.
         11   -1    0    0    0    0 -0.00000000000E+00 -0.00000000000E+00 -0.45593999997E+02  0.45594000000E+02  0.51100000000E-03 0.  1.
    9900012    2    1    2    0    0 -0.20682805755E+02 -0.28557329709E+02 -0.25304637113E+02  0.47787260451E+02  0.19999951700E+02 0.  0.
         12    1    1    2    0    0  0.20682805755E+02  0.28557329709E+02  0.25304637113E+02  0.43400739549E+02  0.00000000000E+00 0. -1.
         11    1    3    3    0    0 -0.12228777785E+02 -0.43499303619E+01 -0.13625747311E+02  0.18818232922E+02  0.51100000000E-03 0. -1.
        -11    1    3    3    0    0 -0.29126394212E+01 -0.17800761906E+02 -0.77649238985E+01  0.19637836852E+02  0.51100000000E-03 0.  1.
         12    1    3    3    0    0 -0.55413885486E+01 -0.64066374419E+01 -0.39139659030E+01  0.93311906768E+01  0.00000000000E+00 0. -1.
</event>
<event>
 7    1  0.4937359E-010  0.4778727E+02  0.7816164E-02  0.1312668E+00
        -11   -1    0    0    0    0  0.00000000000E+00  0.00000000000E+00  0.45593999997E+02  0.45594000000E+02  0.51100000000E-03 0.  1.
         11   -1    0    0    0    0 -0.00000000000E+00 -0.00000000000E+00 -0.45593999997E+02  0.45594000000E+02  0.51100000000E-03 0. -1.
    9900012    2    1    2    0    0 -0.35067538637E+02  0.18781695416E+02  0.17353350223E+02  0.47787272901E+02  0.20000008463E+02 0.  0.
         12    1    1    2    0    0  0.35067538637E+02 -0.18781695416E+02 -0.17353350223E+02  0.43400727099E+02  0.00000000000E+00 0. -1.
         11    1    3    3    0    0 -0.21748487991E+02  0.71480681595E+01  0.74913164276E+00  0.22905300845E+02  0.51100000000E-03 0. -1.
        -11    1    3    3    0    0 -0.95638382683E+01  0.11165876261E+02  0.13883954209E+02  0.20221473236E+02  0.51100000000E-03 0.  1.
         12    1    3    3    0    0 -0.37552123783E+01  0.46775099574E+00  0.27202643715E+01  0.46604988200E+01  0.00000000000E+00 0. -1.
</event>
<event>
 7    1  0.4937359E-010  0.4778727E+02  0.7816164E-02  0.1312668E+00
        -11   -1    0    0    0    0  0.00000000000E+00  0.00000000000E+00  0.45593999997E+02  0.45594000000E+02  0.51100000000E-03 0.  1.
         11   -1    0    0    0    0 -0.00000000000E+00 -0.00000000000E+00 -0.45593999997E+02  0.45594000000E+02  0.51100000000E-03 0. -1.
    9900012    2    1    2    0    0 -0.23059177862E+02  0.90056325929E+01  0.35648229456E+02  0.47787269990E+02  0.19999995190E+02 0.  0.
         12    1    1    2    0    0  0.23059177862E+02 -0.90056325929E+01 -0.35648229456E+02  0.43400730010E+02  0.00000000000E+00 0. -1.
         11    1    3    3    0    0 -0.62243374851E+01  0.48669121254E+00 -0.24177498817E+00  0.62480157547E+01  0.51100000000E-03 0. -1.
        -11    1    3    3    0    0 -0.11892469715E+02  0.10216112444E+02  0.26328740435E+02  0.30643145441E+02  0.51100000000E-03 0.  1.
         12    1    3    3    0    0 -0.49423706624E+01 -0.16971710637E+01  0.95612640098E+01  0.10896108794E+02  0.00000000000E+00 0. -1.
</event>
<event>
 7    1  0.4937359E-010  0.4778727E+02  0.7816164E-02  0.1312668E+00
        -11   -1    0    0    0    0  0.00000000000E+00  0.00000000000E+00  0.45593999997E+02  0.45594000000E+02  0.51100000000E-03 0. -1.
         11   -1    0    0    0    0 -0.00000000000E+00 -0.00000000000E+00 -0.45593999997E+02  0.45594000000E+02  0.51100000000E-03 0.  1.
    9900012    2    1    2    0    0 -0.36714648849E+02  0.20254299935E+02  0.11199146459E+02  0.47787274345E+02  0.20000015049E+02 0.  0.
         12    1    1    2    0    0  0.36714648849E+02 -0.20254299935E+02 -0.11199146459E+02  0.43400725655E+02  0.00000000000E+00 0. -1.
         11    1    3    3    0    0 -0.25223188360E+02  0.18477507213E+02  0.83799705250E+00  0.31278263110E+02  0.51100000000E-03 0. -1.
        -11    1    3    3    0    0 -0.12104776446E+02  0.17626136635E+01  0.97459548054E+01  0.15640206363E+02  0.51100000000E-03 0.  1.
         12    1    3    3    0    0  0.61331595727E+00  0.14179058675E-01  0.61519460106E+00  0.86880487241E+00  0.00000000000E+00 0. -1.
</event>
<event>
 7    1  0.4937359E-010  0.4778727E+02  0.7816164E-02  0.1312668E+00
        -11   -1    0    0    0    0  0.00000000000E+00  0.00000000000E+00  0.45593999997E+02  0.45594000000E+02  0.51100000000E-03 0.  1.
         11   -1    0    0    0    0 -0.00000000000E+00 -0.00000000000E+00 -0.45593999997E+02  0.45594000000E+02  0.51100000000E-03 0. -1.
    9900012    2    1    2    0    0 -0.17063712778E+02  0.99116351035E+01  0.38655043414E+02  0.47787272062E+02  0.20000004640E+02 0.  0.
         12    1    1    2    0    0  0.17063712778E+02 -0.99116351035E+01 -0.38655043414E+02  0.43400727938E+02  0.00000000000E+00 0. -1.
         11    1    3    3    0    0 -0.58639803800E+01  0.43517333011E+01  0.81240457343E+00  0.73473702828E+01  0.51100000000E-03 0. -1.
        -11    1    3    3    0    0 -0.75835969601E+01  0.16169110915E+01  0.29710368954E+02  0.30705559236E+02  0.51100000000E-03 0.  1.
         12    1    3    3    0    0 -0.36161354378E+01  0.39429907108E+01  0.81322698867E+01  0.97343425438E+01  0.00000000000E+00 0. -1.
</event>
<event>
 7    1  0.4937359E-010  0.4778727E+02  0.7816164E-02  0.1312668E+00
        -11   -1    0    0    0    0  0.00000000000E+00  0.00000000000E+00  0.45593999997E+02  0.45594000000E+02  0.51100000000E-03 0.  1.
         11   -1    0    0    0    0 -0.00000000000E+00 -0.00000000000E+00 -0.45593999997E+02  0.45594000000E+02  0.51100000000E-03 0. -1.
    9900012    2    1    2    0    0  0.85765075895E+01 -0.40858910221E+02  0.11858171319E+02  0.47787271274E+02  0.20000001048E+02 0.  0.
         12    1    1    2    0    0 -0.85765075895E+01  0.40858910221E+02 -0.11858171319E+02  0.43400728726E+02  0.00000000000E+00 0. -1.
         11    1    3    3    0    0  0.14144628861E+00 -0.17933288051E+02  0.28545028847E+01  0.18159598409E+02  0.51100000000E-03 0. -1.
        -11    1    3    3    0    0  0.69180695926E+01 -0.19442475717E+01  0.25167288777E+01  0.76140468880E+01  0.51100000000E-03 0.  1.
        -12    1    3    3    0    0  0.15169917083E+01 -0.20981374598E+02  0.64869395568E+01  0.22013625978E+02  0.00000000000E+00 0.  1.
</event>
<event>
 7    1  0.4937359E-010  0.4778727E+02  0.7816164E-02  0.1312668E+00
        -11   -1    0    0    0    0  0.00000000000E+00  0.00000000000E+00  0.45593999997E+02  0.45594000000E+02  0.51100000000E-03 0.  1.
         11   -1    0    0    0    0 -0.00000000000E+00 -0.00000000000E+00 -0.45593999997E+02  0.45594000000E+02  0.51100000000E-03 0. -1.
    9900012    2    1    2    0    0 -0.37445679312E+02 -0.14794976137E+02  0.16203486782E+02  0.47787271874E+02  0.20000003780E+02 0.  0.
         12    1    1    2    0    0  0.37445679312E+02  0.14794976137E+02 -0.16203486782E+02  0.43400728126E+02  0.00000000000E+00 0. -1.
         11    1    3    3    0    0 -0.10329358107E+02 -0.50159651990E+01 -0.42917579943E+01  0.12258659499E+02  0.51100000000E-03 0. -1.
        -11    1    3    3    0    0 -0.14938169229E+02 -0.48170346252E+01  0.13083014960E+02  0.20433257284E+02  0.51100000000E-03 0.  1.
         12    1    3    3    0    0 -0.12178151975E+02 -0.49619763130E+01  0.74122298157E+01  0.15095355091E+02  0.00000000000E+00 0. -1.
</event>
<event>
 7    1  0.4937359E-010  0.4778726E+02  0.7816164E-02  0.1312668E+00
        -11   -1    0    0    0    0  0.00000000000E+00  0.00000000000E+00  0.45593999997E+02  0.45594000000E+02  0.51100000000E-03 0. -1.
         11   -1    0    0    0    0 -0.00000000000E+00 -0.00000000000E+00 -0.45593999997E+02  0.45594000000E+02  0.51100000000E-03 0.  1.
    9900012    2    1    2    0    0  0.38048727812E+02 -0.32918061952E+01  0.20617522132E+02  0.47787263889E+02  0.19999967376E+02 0.  0.
         12    1    1    2    0    0 -0.38048727812E+02  0.32918061952E+01 -0.20617522132E+02  0.43400736111E+02  0.00000000000E+00 0. -1.
         11    1    3    3    0    0  0.22063721546E+02 -0.85557070887E+01  0.50253287222E+01  0.24192185955E+02  0.51100000000E-03 0. -1.
        -11    1    3    3    0    0  0.14428929160E+02  0.62851189970E+01  0.14681034902E+02  0.21522767099E+02  0.51100000000E-03 0.  1.
        -12    1    3    3    0    0  0.15560771052E+01 -0.10212181036E+01  0.91115850769E+00  0.20723108354E+01  0.00000000000E+00 0.  1.
</event>
<event>
 7    1  0.4937359E-010  0.4778726E+02  0.7816164E-02  0.1312668E+00
        -11   -1    0    0    0    0  0.00000000000E+00  0.00000000000E+00  0.45593999997E+02  0.45594000000E+02  0.51100000000E-03 0. -1.
         11   -1    0    0    0    0 -0.00000000000E+00 -0.00000000000E+00 -0.45593999997E+02  0.45594000000E+02  0.51100000000E-03 0.  1.
    9900012    2    1    2    0    0 -0.11260652644E+02  0.17780330823E+02 -0.37956312446E+02  0.47787261335E+02  0.19999955732E+02 0.  0.
         12    1    1    2    0    0  0.11260652644E+02 -0.17780330823E+02  0.37956312446E+02  0.43400738665E+02  0.00000000000E+00 0. -1.
         11    1    3    3    0    0 -0.11147952070E+02  0.83246969492E+01 -0.29512206437E+02  0.32627407860E+02  0.51100000000E-03 0. -1.
        -11    1    3    3    0    0 -0.34871485189E+01  0.53298452419E+01 -0.73372896795E+01  0.97161347869E+01  0.51100000000E-03 0.  1.
         12    1    3    3    0    0  0.33744479455E+01  0.41257886316E+01 -0.11068163301E+01  0.54437186884E+01  0.00000000000E+00 0. -1.
</event>
<event>
 7    1  0.4937359E-010  0.4778727E+02  0.7816164E-02  0.1312668E+00
        -11   -1    0    0    0    0  0.00000000000E+00  0.00000000000E+00  0.45593999997E+02  0.45594000000E+02  0.51100000000E-03 0.  1.
         11   -1    0    0    0    0 -0.00000000000E+00 -0.00000000000E+00 -0.45593999997E+02  0.45594000000E+02  0.51100000000E-03 0. -1.
    9900012    2    1    2    0    0 -0.13374395395E+02 -0.30116793654E+02  0.28244069004E+02  0.47787272517E+02  0.20000006713E+02 0.  0.
         12    1    1    2    0    0  0.13374395395E+02  0.30116793654E+02 -0.28244069004E+02  0.43400727483E+02  0.00000000000E+00 0. -1.
         11    1    3    3    0    0 -0.12387808362E+02 -0.86648906516E+01  0.87201693246E+01  0.17452205572E+02  0.51100000000E-03 0. -1.
        -11    1    3    3    0    0 -0.45671487632E+01 -0.93341292598E+01  0.68995634736E+01  0.12473523690E+02  0.51100000000E-03 0.  1.
         12    1    3    3    0    0  0.35805617310E+01 -0.12117773743E+02  0.12624336205E+02  0.17861543254E+02  0.00000000000E+00 0. -1.
</event>
<event>
 7    1  0.4937359E-010  0.4778727E+02  0.7816164E-02  0.1312668E+00
        -11   -1    0    0    0    0  0.00000000000E+00  0.00000000000E+00  0.45593999997E+02  0.45594000000E+02  0.51100000000E-03 0.  1.
         11   -1    0    0    0    0 -0.00000000000E+00 -0.00000000000E+00 -0.45593999997E+02  0.45594000000E+02  0.51100000000E-03 0. -1.
    9900012    2    1    2    0    0  0.16700993871E+02  0.33046020813E+02  0.22642010287E+02  0.47787270539E+02  0.19999997697E+02 0.  0.
         12    1    1    2    0    0 -0.16700993871E+02 -0.33046020813E+02 -0.22642010287E+02  0.43400729461E+02  0.00000000000E+00 0. -1.
         11    1    3    3    0    0  0.22833373929E+01 -0.55063576589E+00 -0.11163450188E+01  0.26005875988E+01  0.51100000000E-03 0. -1.
        -11    1    3    3    0    0  0.12565824722E+02  0.33990833763E+02  0.23683554385E+02  0.43291886993E+02  0.51100000000E-03 0.  1.
        -12    1    3    3    0    0  0.18518317561E+01 -0.39417718382E+00  0.74800921409E-01  0.18947959476E+01  0.00000000000E+00 0.  1.
</event>
<event>
 7    1  0.4937359E-010  0.4778727E+02  0.7816164E-02  0.1312668E+00
        -11   -1    0    0    0    0  0.00000000000E+00  0.00000000000E+00  0.45593999997E+02  0.45594000000E+02  0.51100000000E-03 0.  1.
         11   -1    0    0    0    0 -0.00000000000E+00 -0.00000000000E+00 -0.45593999997E+02  0.45594000000E+02  0.51100000000E-03 0. -1.
    9900012    2    1    2    0    0  0.32713117037E+02 -0.20271048262E+02  0.20063886532E+02  0.47787274583E+02  0.20000016134E+02 0.  0.
         12    1    1    2    0    0 -0.32713117037E+02  0.20271048262E+02 -0.20063886532E+02  0.43400725417E+02  0.00000000000E+00 0. -1.
         11    1    3    3    0    0  0.18305095785E+02 -0.16154009049E+02  0.94195288223E+01  0.26167844076E+02  0.51100000000E-03 0. -1.
        -11    1    3    3    0    0  0.40633745030E+01 -0.21243903495E+01  0.10074914914E+02  0.11069234729E+02  0.51100000000E-03 0.  1.
        -12    1    3    3    0    0  0.10344646749E+02 -0.19926488631E+01  0.56944279583E+00  0.10550195778E+02  0.00000000000E+00 0.  1.
</event>
<event>
 7    1  0.4937359E-010  0.4778727E+02  0.7816164E-02  0.1312668E+00
        -11   -1    0    0    0    0  0.00000000000E+00  0.00000000000E+00  0.45593999997E+02  0.45594000000E+02  0.51100000000E-03 0.  1.
         11   -1    0    0    0    0 -0.00000000000E+00 -0.00000000000E+00 -0.45593999997E+02  0.45594000000E+02  0.51100000000E-03 0. -1.
    9900012    2    1    2    0    0 -0.13796379068E+02 -0.40581480379E+02  0.68137052799E+01  0.47787271841E+02  0.20000003632E+02 0.  0.
         12    1    1    2    0    0  0.13796379068E+02  0.40581480379E+02 -0.68137052799E+01  0.43400728159E+02  0.00000000000E+00 0. -1.
         11    1    3    3    0    0  0.83986284477E+00  0.51991944366E+00  0.11038267802E+01  0.14812561047E+01  0.51100000000E-03 0. -1.
        -11    1    3    3    0    0 -0.10336978347E+02 -0.32101012743E+02  0.10389422860E+02  0.35288358535E+02  0.51100000000E-03 0.  1.
        -12    1    3    3    0    0 -0.42992635654E+01 -0.90003870789E+01 -0.46795443604E+01  0.11017657201E+02  0.00000000000E+00 0.  1.
</event>
<event>
 7    1  0.4937359E-010  0.4778727E+02  0.7816164E-02  0.1312668E+00
        -11   -1    0    0    0    0  0.00000000000E+00  0.00000000000E+00  0.45593999997E+02  0.45594000000E+02  0.51100000000E-03 0.  1.
         11   -1    0    0    0    0 -0.00000000000E+00 -0.00000000000E+00 -0.45593999997E+02  0.45594000000E+02  0.51100000000E-03 0. -1.
    9900012    2    1    2    0    0 -0.27541494957E+02  0.15070581297E+02  0.29966101064E+02  0.47787267540E+02  0.19999984022E+02 0.  0.
         12    1    1    2    0    0  0.27541494957E+02 -0.15070581297E+02 -0.29966101064E+02  0.43400732460E+02  0.00000000000E+00 0. -1.
         11    1    3    3    0    0  0.65266865676E+00 -0.89623755002E-01 -0.57432927365E+00  0.87399265939E+00  0.51100000000E-03 0. -1.
        -11    1    3    3    0    0 -0.11630755618E+02  0.12395772184E+02  0.79500523717E+01  0.18765206561E+02  0.51100000000E-03 0.  1.
        -12    1    3    3    0    0 -0.16563407996E+02  0.27644328677E+01  0.22590377965E+02  0.28148068320E+02  0.00000000000E+00 0.  1.
</event>
<event>
 7    1  0.4937359E-010  0.4778729E+02  0.7816164E-02  0.1312668E+00
        -11   -1    0    0    0    0  0.00000000000E+00  0.00000000000E+00  0.45593999997E+02  0.45594000000E+02  0.51100000000E-03 0.  1.
         11   -1    0    0    0    0 -0.00000000000E+00 -0.00000000000E+00 -0.45593999997E+02  0.45594000000E+02  0.51100000000E-03 0. -1.
    9900012    2    1    2    0    0 -0.36473451516E+02  0.23522469383E+02 -0.49447591101E-01  0.47787289448E+02  0.20000083908E+02 0.  0.
         12    1    1    2    0    0  0.36473451516E+02 -0.23522469383E+02  0.49447591101E-01  0.43400710552E+02  0.00000000000E+00 0. -1.
         11    1    3    3    0    0  0.14388284631E+01 -0.38447488358E+00  0.13083618333E+00  0.14950473740E+01  0.51100000000E-03 0. -1.
        -11    1    3    3    0    0 -0.38524255684E+02  0.23283515565E+02 -0.10953756722E+01  0.45027105405E+02  0.51100000000E-03 0.  1.
        -12    1    3    3    0    0  0.61197570441E+00  0.62342870158E+00  0.91509189781E+00  0.12651366686E+01  0.00000000000E+00 0.  1.
</event>
<event>
 7    1  0.4937359E-010  0.4778727E+02  0.7816164E-02  0.1312668E+00
        -11   -1    0    0    0    0  0.00000000000E+00  0.00000000000E+00  0.45593999997E+02  0.45594000000E+02  0.51100000000E-03 0. -1.
         11   -1    0    0    0    0 -0.00000000000E+00 -0.00000000000E+00 -0.45593999997E+02  0.45594000000E+02  0.51100000000E-03 0.  1.
    9900012    2    1    2    0    0 -0.40892609287E+02  0.34013476998E+00 -0.14536235713E+02  0.47787270345E+02  0.19999996809E+02 0.  0.
         12    1    1    2    0    0  0.40892609287E+02 -0.34013476998E+00  0.14536235713E+02  0.43400729655E+02  0.00000000000E+00 0. -1.
         11    1    3    3    0    0 -0.13279577875E+02 -0.71212952646E-01 -0.18537594942E+01  0.13408530283E+02  0.51100000000E-03 0. -1.
        -11    1    3    3    0    0 -0.23624254315E+02  0.62018814548E+01 -0.12274411807E+02  0.27335506415E+02  0.51100000000E-03 0.  1.
        -12    1    3    3    0    0 -0.39887770963E+01 -0.57905337322E+01 -0.40806441178E+00  0.70432336460E+01  0.00000000000E+00 0.  1.
</event>
<event>
 7    1  0.4937359E-010  0.4778727E+02  0.7816164E-02  0.1312668E+00
        -11   -1    0    0    0    0  0.00000000000E+00  0.00000000000E+00  0.45593999997E+02  0.45594000000E+02  0.51100000000E-03 0. -1.
         11   -1    0    0    0    0 -0.00000000000E+00 -0.00000000000E+00 -0.45593999997E+02  0.45594000000E+02  0.51100000000E-03 0.  1.
    9900012    2    1    2    0    0 -0.70278895705E+00 -0.42392089778E+02 -0.92757791626E+01  0.47787271122E+02  0.20000000354E+02 0.  0.
         12    1    1    2    0    0  0.70278895705E+00  0.42392089778E+02  0.92757791626E+01  0.43400728878E+02  0.00000000000E+00 0. -1.
         11    1    3    3    0    0 -0.44422096080E+01 -0.88543179379E+01  0.47806542455E+01  0.10999401239E+02  0.51100000000E-03 0. -1.
        -11    1    3    3    0    0  0.10589384083E+01 -0.19833534925E+02 -0.64276729977E+01  0.20875953597E+02  0.51100000000E-03 0.  1.
         12    1    3    3    0    0  0.26804822426E+01 -0.13704236915E+02 -0.76287604104E+01  0.15911916286E+02  0.00000000000E+00 0. -1.
</event>
<event>
 7    1  0.4937359E-010  0.4778727E+02  0.7816164E-02  0.1312668E+00
        -11   -1    0    0    0    0  0.00000000000E+00  0.00000000000E+00  0.45593999997E+02  0.45594000000E+02  0.51100000000E-03 0. -1.
         11   -1    0    0    0    0 -0.00000000000E+00 -0.00000000000E+00 -0.45593999997E+02  0.45594000000E+02  0.51100000000E-03 0.  1.
    9900012    2    1    2    0    0  0.19056527414E+02 -0.37530630201E+02 -0.10579397452E+02  0.47787273153E+02  0.20000009614E+02 0.  0.
         12    1    1    2    0    0 -0.19056527414E+02  0.37530630201E+02  0.10579397452E+02  0.43400726847E+02  0.00000000000E+00 0. -1.
         11    1    3    3    0    0  0.11150773622E+02 -0.24601913001E+02 -0.10865476703E+02  0.29114471658E+02  0.51100000000E-03 0. -1.
        -11    1    3    3    0    0  0.10515739202E+02 -0.11844793726E+02  0.83074355315E-01  0.15839406901E+02  0.51100000000E-03 0.  1.
         12    1    3    3    0    0 -0.26099854095E+01 -0.10839234742E+01  0.20300489602E+00  0.28333945937E+01  0.00000000000E+00 0. -1.
</event>
<event>
 7    1  0.4937359E-010  0.4778727E+02  0.7816164E-02  0.1312668E+00
        -11   -1    0    0    0    0  0.00000000000E+00  0.00000000000E+00  0.45593999997E+02  0.45594000000E+02  0.51100000000E-03 0.  1.
         11   -1    0    0    0    0 -0.00000000000E+00 -0.00000000000E+00 -0.45593999997E+02  0.45594000000E+02  0.51100000000E-03 0. -1.
    9900012    2    1    2    0    0 -0.25878726212E+02 -0.16122310253E+02  0.30886664122E+02  0.47787269835E+02  0.19999994486E+02 0.  0.
         12    1    1    2    0    0  0.25878726212E+02  0.16122310253E+02 -0.30886664122E+02  0.43400730165E+02  0.00000000000E+00 0. -1.
         11    1    3    3    0    0 -0.10629148708E+02 -0.63575673400E+01  0.56427030549E+01  0.13610200688E+02  0.51100000000E-03 0. -1.
        -11    1    3    3    0    0 -0.90301433429E+01 -0.63007482415E+00  0.19983168855E+02  0.21937810302E+02  0.51100000000E-03 0.  1.
         12    1    3    3    0    0 -0.62194341613E+01 -0.91346680892E+01  0.52607922117E+01  0.12239258845E+02  0.00000000000E+00 0. -1.
</event>
<event>
 7    1  0.4937359E-010  0.4778727E+02  0.7816164E-02  0.1312668E+00
        -11   -1    0    0    0    0  0.00000000000E+00  0.00000000000E+00  0.45593999997E+02  0.45594000000E+02  0.51100000000E-03 0.  1.
         11   -1    0    0    0    0 -0.00000000000E+00 -0.00000000000E+00 -0.45593999997E+02  0.45594000000E+02  0.51100000000E-03 0. -1.
    9900012    2    1    2    0    0  0.19427809972E+02 -0.52763714384E+01  0.38449232701E+02  0.47787269693E+02  0.19999993838E+02 0.  0.
         12    1    1    2    0    0 -0.19427809972E+02  0.52763714384E+01 -0.38449232701E+02  0.43400730307E+02  0.00000000000E+00 0. -1.
         11    1    3    3    0    0 -0.50010622778E-01  0.37057346963E+01  0.61275646503E+01  0.71611465217E+01  0.51100000000E-03 0. -1.
        -11    1    3    3    0    0  0.18843724427E+02 -0.44338213286E+01  0.29339874249E+02  0.35150717533E+02  0.51100000000E-03 0.  1.
        -12    1    3    3    0    0  0.63409616823E+00 -0.45482848060E+01  0.29817938018E+01  0.54754056383E+01  0.00000000000E+00 0.  1.
</event>
<event>
 7    1  0.4937359E-010  0.4778727E+02  0.7816164E-02  0.1312668E+00
        -11   -1    0    0    0    0  0.00000000000E+00  0.00000000000E+00  0.45593999997E+02  0.45594000000E+02  0.51100000000E-03 0. -1.
         11   -1    0    0    0    0 -0.00000000000E+00 -0.00000000000E+00 -0.45593999997E+02  0.45594000000E+02  0.51100000000E-03 0.  1.
    9900012    2    1    2    0    0  0.39809803268E+02 -0.64145656115E+01 -0.16051672362E+02  0.47787271045E+02  0.20000000002E+02 0.  0.
         12    1    1    2    0    0 -0.39809803268E+02  0.64145656115E+01  0.16051672362E+02  0.43400728955E+02  0.00000000000E+00 0. -1.
         11    1    3    3    0    0  0.11186708419E+02 -0.50733339684E+01  0.20471468543E+01  0.12452789780E+02  0.51100000000E-03 0. -1.
        -11    1    3    3    0    0  0.28635534616E+02 -0.13990797720E+01 -0.15227810910E+02  0.32462863280E+02  0.51100000000E-03 0.  1.
        -12    1    3    3    0    0 -0.12439767262E-01  0.57848128944E-01 -0.28710083064E+01  0.28716179846E+01  0.00000000000E+00 0.  1.
</event>
<event>
 7    1  0.4937359E-010  0.4778727E+02  0.7816164E-02  0.1312668E+00
        -11   -1    0    0    0    0  0.00000000000E+00  0.00000000000E+00  0.45593999997E+02  0.45594000000E+02  0.51100000000E-03 0.  1.
         11   -1    0    0    0    0 -0.00000000000E+00 -0.00000000000E+00 -0.45593999997E+02  0.45594000000E+02  0.51100000000E-03 0. -1.
    9900012    2    1    2    0    0 -0.20123768270E+02  0.88432260071E+01  0.37422646805E+02  0.47787272016E+02  0.20000004431E+02 0.  0.
         12    1    1    2    0    0  0.20123768270E+02 -0.88432260071E+01 -0.37422646805E+02  0.43400727984E+02  0.00000000000E+00 0. -1.
         11    1    3    3    0    0 -0.54906289694E+01  0.79324444472E+01  0.21876837510E+02  0.23909552507E+02  0.51100000000E-03 0. -1.
        -11    1    3    3    0    0 -0.40086445534E+01  0.98841082648E+00 -0.96852930328E+00  0.42407825209E+01  0.51100000000E-03 0.  1.
         12    1    3    3    0    0 -0.10624494747E+02 -0.77629266540E-01  0.16514338599E+02  0.19636936989E+02  0.00000000000E+00 0. -1.
</event>
<event>
 7    1  0.4937359E-010  0.4778727E+02  0.7816164E-02  0.1312668E+00
        -11   -1    0    0    0    0  0.00000000000E+00  0.00000000000E+00  0.45593999997E+02  0.45594000000E+02  0.51100000000E-03 0. -1.
         11   -1    0    0    0    0 -0.00000000000E+00 -0.00000000000E+00 -0.45593999997E+02  0.45594000000E+02  0.51100000000E-03 0.  1.
    9900012    2    1    2    0    0  0.37005277177E+02  0.54647724272E+01 -0.22008389272E+02  0.47787268728E+02  0.19999989437E+02 0.  0.
         12    1    1    2    0    0 -0.37005277177E+02 -0.54647724272E+01  0.22008389272E+02  0.43400731272E+02  0.00000000000E+00 0. -1.
         11    1    3    3    0    0  0.28082367535E+02  0.41165886138E+01 -0.97371999909E+01  0.30006311538E+02  0.51100000000E-03 0. -1.
        -11    1    3    3    0    0  0.24027008776E+01  0.51863876571E+00 -0.10759352059E+02  0.11036558099E+02  0.51100000000E-03 0.  1.
        -12    1    3    3    0    0  0.65202087643E+01  0.82954504763E+00 -0.15118372224E+01  0.67443990913E+01  0.00000000000E+00 0.  1.
</event>
<event>
 7    1  0.4937359E-010  0.4778727E+02  0.7816164E-02  0.1312668E+00
        -11   -1    0    0    0    0  0.00000000000E+00  0.00000000000E+00  0.45593999997E+02  0.45594000000E+02  0.51100000000E-03 0.  1.
         11   -1    0    0    0    0 -0.00000000000E+00 -0.00000000000E+00 -0.45593999997E+02  0.45594000000E+02  0.51100000000E-03 0. -1.
    9900012    2    1    2    0    0  0.12451926838E+02  0.28408647338E+02  0.30356573090E+02  0.47787271258E+02  0.20000000975E+02 0.  0.
         12    1    1    2    0    0 -0.12451926838E+02 -0.28408647338E+02 -0.30356573090E+02  0.43400728742E+02  0.00000000000E+00 0. -1.
         11    1    3    3    0    0  0.10326787467E+02  0.95184224795E+01  0.19760204821E+02  0.24242702009E+02  0.51100000000E-03 0. -1.
        -11    1    3    3    0    0  0.55611733932E+01  0.13334946070E+02  0.65740603869E+01  0.15873427684E+02  0.51100000000E-03 0.  1.
         12    1    3    3    0    0 -0.34360340223E+01  0.55552787885E+01  0.40223078822E+01  0.76711415656E+01  0.00000000000E+00 0. -1.
</event>
<event>
 7    1  0.4937359E-010  0.4778727E+02  0.7816164E-02  0.1312668E+00
        -11   -1    0    0    0    0  0.00000000000E+00  0.00000000000E+00  0.45593999997E+02  0.45594000000E+02  0.51100000000E-03 0. -1.
         11   -1    0    0    0    0 -0.00000000000E+00 -0.00000000000E+00 -0.45593999997E+02  0.45594000000E+02  0.51100000000E-03 0.  1.
    9900012    2    1    2    0    0 -0.29079018665E+02 -0.31113787319E+02  0.83645867212E+01  0.47787269605E+02  0.19999993436E+02 0.  0.
         12    1    1    2    0    0  0.29079018665E+02  0.31113787319E+02 -0.83645867212E+01  0.43400730395E+02  0.00000000000E+00 0. -1.
         11    1    3    3    0    0 -0.18435656642E+02 -0.13434952603E+02  0.99321732105E+01  0.24880101531E+02  0.51100000000E-03 0. -1.
        -11    1    3    3    0    0 -0.84150375529E+01 -0.18453336931E+02 -0.42496343902E+00  0.20285933430E+02  0.51100000000E-03 0.  1.
         12    1    3    3    0    0 -0.22283244695E+01  0.77450221549E+00 -0.11426230502E+01  0.26212346439E+01  0.00000000000E+00 0. -1.
</event>
<event>
 7    1  0.4937359E-010  0.4778727E+02  0.7816164E-02  0.1312668E+00
        -11   -1    0    0    0    0  0.00000000000E+00  0.00000000000E+00  0.45593999997E+02  0.45594000000E+02  0.51100000000E-03 0. -1.
         11   -1    0    0    0    0 -0.00000000000E+00 -0.00000000000E+00 -0.45593999997E+02  0.45594000000E+02  0.51100000000E-03 0.  1.
    9900012    2    1    2    0    0 -0.17886047839E+02  0.39156648332E+02  0.55199351322E+01  0.47787268442E+02  0.19999988135E+02 0.  0.
         12    1    1    2    0    0  0.17886047839E+02 -0.39156648332E+02 -0.55199351322E+01  0.43400731558E+02  0.00000000000E+00 0. -1.
         11    1    3    3    0    0  0.13393618416E+00  0.66709811225E+01  0.45235869283E+01  0.80611889320E+01  0.51100000000E-03 0. -1.
        -11    1    3    3    0    0 -0.18993894731E+02  0.29916876187E+02 -0.22073667300E+01  0.35505773981E+02  0.51100000000E-03 0.  1.
         12    1    3    3    0    0  0.97391070779E+00  0.25687910226E+01  0.32037149340E+01  0.42203055295E+01  0.00000000000E+00 0. -1.
</event>
<event>
 7    1  0.4937359E-010  0.4778727E+02  0.7816164E-02  0.1312668E+00
        -11   -1    0    0    0    0  0.00000000000E+00  0.00000000000E+00  0.45593999997E+02  0.45594000000E+02  0.51100000000E-03 0. -1.
         11   -1    0    0    0    0 -0.00000000000E+00 -0.00000000000E+00 -0.45593999997E+02  0.45594000000E+02  0.51100000000E-03 0.  1.
    9900012    2    1    2    0    0  0.27447930766E+02 -0.24474526556E+02 -0.23048474904E+02  0.47787267876E+02  0.19999985556E+02 0.  0.
         12    1    1    2    0    0 -0.27447930766E+02  0.24474526556E+02  0.23048474904E+02  0.43400732124E+02  0.00000000000E+00 0. -1.
         11    1    3    3    0    0  0.62465627942E+01 -0.12978602135E+02 -0.53832412730E+01  0.15376701433E+02  0.51100000000E-03 0. -1.
        -11    1    3    3    0    0  0.58855758319E+01 -0.23067147888E+01 -0.12185960294E+02  0.13728021144E+02  0.51100000000E-03 0.  1.
         12    1    3    3    0    0  0.15315792140E+02 -0.91892096330E+01 -0.54792733368E+01  0.18682545299E+02  0.00000000000E+00 0. -1.
</event>
<event>
 7    1  0.4937359E-010  0.4778726E+02  0.7816164E-02  0.1312668E+00
        -11   -1    0    0    0    0  0.00000000000E+00  0.00000000000E+00  0.45593999997E+02  0.45594000000E+02  0.51100000000E-03 0.  1.
         11   -1    0    0    0    0 -0.00000000000E+00 -0.00000000000E+00 -0.45593999997E+02  0.45594000000E+02  0.51100000000E-03 0. -1.
    9900012    2    1    2    0    0 -0.40161268599E+02 -0.14636838377E+02  0.75139474324E+01  0.47787263380E+02  0.19999965056E+02 0.  0.
         12    1    1    2    0    0  0.40161268599E+02  0.14636838377E+02 -0.75139474324E+01  0.43400736620E+02  0.00000000000E+00 0. -1.
         11    1    3    3    0    0 -0.65675202982E+01 -0.82457473632E+01  0.62405176832E+01  0.12250254433E+02  0.51100000000E-03 0. -1.
        -11    1    3    3    0    0 -0.91861820158E+01  0.24633387707E+01  0.10839488184E+01  0.95722997879E+01  0.51100000000E-03 0.  1.
         12    1    3    3    0    0 -0.24407566285E+02 -0.88544297843E+01  0.18948093088E+00  0.25964709160E+02  0.00000000000E+00 0. -1.
</event>
<event>
 7    1  0.4937359E-010  0.4778727E+02  0.7816164E-02  0.1312668E+00
        -11   -1    0    0    0    0  0.00000000000E+00  0.00000000000E+00  0.45593999997E+02  0.45594000000E+02  0.51100000000E-03 0.  1.
         11   -1    0    0    0    0 -0.00000000000E+00 -0.00000000000E+00 -0.45593999997E+02  0.45594000000E+02  0.51100000000E-03 0. -1.
    9900012    2    1    2    0    0 -0.18513115251E+02 -0.29231162825E+02  0.26199759870E+02  0.47787265748E+02  0.19999975850E+02 0.  0.
         12    1    1    2    0    0  0.18513115251E+02  0.29231162825E+02 -0.26199759870E+02  0.43400734252E+02  0.00000000000E+00 0. -1.
         11    1    3    3    0    0 -0.52412122966E+01 -0.19636973940E+02  0.89634890006E+01  0.22213175981E+02  0.51100000000E-03 0. -1.
        -11    1    3    3    0    0 -0.70200624233E+01 -0.99145686481E+01  0.85006620440E+01  0.14827042974E+02  0.51100000000E-03 0.  1.
         12    1    3    3    0    0 -0.62518405308E+01  0.32037976240E+00  0.87356088251E+01  0.10747046793E+02  0.00000000000E+00 0. -1.
</event>
<event>
 7    1  0.4937359E-010  0.4778727E+02  0.7816164E-02  0.1312668E+00
        -11   -1    0    0    0    0  0.00000000000E+00  0.00000000000E+00  0.45593999997E+02  0.45594000000E+02  0.51100000000E-03 0. -1.
         11   -1    0    0    0    0 -0.00000000000E+00 -0.00000000000E+00 -0.45593999997E+02  0.45594000000E+02  0.51100000000E-03 0.  1.
    9900012    2    1    2    0    0 -0.66354342382E+01 -0.41219856641E+02 -0.11854025209E+02  0.47787268639E+02  0.19999989031E+02 0.  0.
         12    1    1    2    0    0  0.66354342382E+01  0.41219856641E+02  0.11854025209E+02  0.43400731361E+02  0.00000000000E+00 0. -1.
         11    1    3    3    0    0  0.24686039868E+01 -0.26006985135E+02 -0.43275069923E+01  0.26479890455E+02  0.51100000000E-03 0. -1.
        -11    1    3    3    0    0 -0.75727691908E+01 -0.15107910584E+02 -0.38632020953E+01  0.17335516321E+02  0.51100000000E-03 0.  1.
         12    1    3    3    0    0 -0.15312690342E+01 -0.10496092195E+00 -0.36633161218E+01  0.39718618630E+01  0.00000000000E+00 0. -1.
</event>
<event>
 7    1  0.4937359E-010  0.4778727E+02  0.7816164E-02  0.1312668E+00
        -11   -1    0    0    0    0  0.00000000000E+00  0.00000000000E+00  0.45593999997E+02  0.45594000000E+02  0.51100000000E-03 0. -1.
         11   -1    0    0    0    0 -0.00000000000E+00 -0.00000000000E+00 -0.45593999997E+02  0.45594000000E+02  0.51100000000E-03 0.  1.
    9900012    2    1    2    0    0 -0.17409649675E+02 -0.22927646177E+02 -0.32478457810E+02  0.47787273246E+02  0.20000010039E+02 0.  0.
         12    1    1    2    0    0  0.17409649675E+02  0.22927646177E+02  0.32478457810E+02  0.43400726754E+02  0.00000000000E+00 0. -1.
         11    1    3    3    0    0 -0.47641943400E+01 -0.89411730048E+01 -0.91541117893E+00  0.10172516911E+02  0.51100000000E-03 0. -1.
        -11    1    3    3    0    0 -0.81908971383E+01 -0.33291236312E+01 -0.12176477832E+02  0.15047939153E+02  0.51100000000E-03 0.  1.
        -12    1    3    3    0    0 -0.44545581963E+01 -0.10657349541E+02 -0.19386568799E+02  0.22566817183E+02  0.00000000000E+00 0.  1.
</event>
<event>
 7    1  0.4937359E-010  0.4778727E+02  0.7816164E-02  0.1312668E+00
        -11   -1    0    0    0    0  0.00000000000E+00  0.00000000000E+00  0.45593999997E+02  0.45594000000E+02  0.51100000000E-03 0. -1.
         11   -1    0    0    0    0 -0.00000000000E+00 -0.00000000000E+00 -0.45593999997E+02  0.45594000000E+02  0.51100000000E-03 0.  1.
    9900012    2    1    2    0    0 -0.21493204472E+02 -0.35334081467E+02 -0.13159326575E+02  0.47787273883E+02  0.20000012940E+02 0.  0.
         12    1    1    2    0    0  0.21493204472E+02  0.35334081467E+02  0.13159326575E+02  0.43400726117E+02  0.00000000000E+00 0. -1.
         11    1    3    3    0    0 -0.12777100876E+01 -0.17088177555E+02  0.67256659094E-01  0.17136011173E+02  0.51100000000E-03 0. -1.
        -11    1    3    3    0    0 -0.15248348535E+02 -0.14641307116E+02 -0.12262758628E+02  0.24438806365E+02  0.51100000000E-03 0.  1.
         12    1    3    3    0    0 -0.49671458499E+01 -0.36045967959E+01 -0.96382460569E+00  0.62124563440E+01  0.00000000000E+00 0. -1.
</event>
<event>
 7    1  0.4937359E-010  0.4778727E+02  0.7816164E-02  0.1312668E+00
        -11   -1    0    0    0    0  0.00000000000E+00  0.00000000000E+00  0.45593999997E+02  0.45594000000E+02  0.51100000000E-03 0.  1.
         11   -1    0    0    0    0 -0.00000000000E+00 -0.00000000000E+00 -0.45593999997E+02  0.45594000000E+02  0.51100000000E-03 0. -1.
    9900012    2    1    2    0    0  0.22041344318E+02  0.16903858323E+02  0.33347592081E+02  0.47787272089E+02  0.20000004764E+02 0.  0.
         12    1    1    2    0    0 -0.22041344318E+02 -0.16903858323E+02 -0.33347592081E+02  0.43400727911E+02  0.00000000000E+00 0. -1.
         11    1    3    3    0    0 -0.16311807646E+01  0.25371892642E+00  0.37578551815E+01  0.41044609642E+01  0.51100000000E-03 0. -1.
        -11    1    3    3    0    0  0.16501943063E+02  0.13121753052E+02  0.11753224877E+02  0.24137788284E+02  0.51100000000E-03 0.  1.
        -12    1    3    3    0    0  0.71705820202E+01  0.35283863446E+01  0.17836512023E+02  0.19545022841E+02  0.00000000000E+00 0.  1.
</event>
<event>
 7    1  0.4937359E-010  0.4778727E+02  0.7816164E-02  0.1312668E+00
        -11   -1    0    0    0    0  0.00000000000E+00  0.00000000000E+00  0.45593999997E+02  0.45594000000E+02  0.51100000000E-03 0.  1.
         11   -1    0    0    0    0 -0.00000000000E+00 -0.00000000000E+00 -0.45593999997E+02  0.45594000000E+02  0.51100000000E-03 0. -1.
    9900012    2    1    2    0    0  0.68292057435E+01  0.42730988373E+02  0.33238324349E+01  0.47787270969E+02  0.19999999654E+02 0.  0.
         12    1    1    2    0    0 -0.68292057435E+01 -0.42730988373E+02 -0.33238324349E+01  0.43400729031E+02  0.00000000000E+00 0. -1.
         11    1    3    3    0    0  0.68826953152E+01  0.29235303577E+02 -0.50110052672E+00  0.30038734528E+02  0.51100000000E-03 0. -1.
        -11    1    3    3    0    0 -0.54452954872E+01  0.60898569754E+01  0.19200037951E+01  0.83919017963E+01  0.51100000000E-03 0.  1.
        -12    1    3    3    0    0  0.53918059156E+01  0.74058278207E+01  0.19049291665E+01  0.93566346445E+01  0.00000000000E+00 0.  1.
</event>
<event>
 7    1  0.4937359E-010  0.4778726E+02  0.7816164E-02  0.1312668E+00
        -11   -1    0    0    0    0  0.00000000000E+00  0.00000000000E+00  0.45593999997E+02  0.45594000000E+02  0.51100000000E-03 0.  1.
         11   -1    0    0    0    0 -0.00000000000E+00 -0.00000000000E+00 -0.45593999997E+02  0.45594000000E+02  0.51100000000E-03 0. -1.
    9900012    2    1    2    0    0  0.22312679946E+02  0.43587352243E+01  0.36969847028E+02  0.47787264426E+02  0.19999969822E+02 0.  0.
         12    1    1    2    0    0 -0.22312679946E+02 -0.43587352243E+01 -0.36969847028E+02  0.43400735574E+02  0.00000000000E+00 0. -1.
         11    1    3    3    0    0  0.20715479908E+01  0.35223085625E+01  0.16238890963E+02  0.16745135074E+02  0.51100000000E-03 0. -1.
        -11    1    3    3    0    0 -0.37917090416E+00  0.23598112338E+01  0.27223089259E+01  0.36226296779E+01  0.51100000000E-03 0.  1.
         12    1    3    3    0    0  0.20620302859E+02 -0.15233845720E+01  0.18008647139E+02  0.27419499673E+02  0.00000000000E+00 0. -1.
</event>
<event>
 7    1  0.4937359E-010  0.4778727E+02  0.7816164E-02  0.1312668E+00
        -11   -1    0    0    0    0  0.00000000000E+00  0.00000000000E+00  0.45593999997E+02  0.45594000000E+02  0.51100000000E-03 0. -1.
         11   -1    0    0    0    0 -0.00000000000E+00 -0.00000000000E+00 -0.45593999997E+02  0.45594000000E+02  0.51100000000E-03 0.  1.
    9900012    2    1    2    0    0  0.32237480385E+01  0.42647984197E+02  0.73742740078E+01  0.47787273916E+02  0.20000013092E+02 0.  0.
         12    1    1    2    0    0 -0.32237480385E+01 -0.42647984197E+02 -0.73742740078E+01  0.43400726084E+02  0.00000000000E+00 0. -1.
         11    1    3    3    0    0 -0.53188165766E+01  0.25320048791E+02  0.88483900826E+01  0.27343896720E+02  0.51100000000E-03 0. -1.
        -11    1    3    3    0    0  0.53120896182E+01  0.16054329079E+02 -0.10162825377E+01  0.16940856199E+02  0.51100000000E-03 0.  1.
         12    1    3    3    0    0  0.32304749969E+01  0.12736063269E+01 -0.45783353703E+00  0.35025209963E+01  0.00000000000E+00 0. -1.
</event>
<event>
 7    1  0.4937359E-010  0.4778726E+02  0.7816164E-02  0.1312668E+00
        -11   -1    0    0    0    0  0.00000000000E+00  0.00000000000E+00  0.45593999997E+02  0.45594000000E+02  0.51100000000E-03 0.  1.
         11   -1    0    0    0    0 -0.00000000000E+00 -0.00000000000E+00 -0.45593999997E+02  0.45594000000E+02  0.51100000000E-03 0. -1.
    9900012    2    1    2    0    0  0.34001917321E+02  0.19502930398E+02  0.18631416559E+02  0.47787258547E+02  0.19999943020E+02 0.  0.
         12    1    1    2    0    0 -0.34001917321E+02 -0.19502930398E+02 -0.18631416559E+02  0.43400741453E+02  0.00000000000E+00 0. -1.
         11    1    3    3    0    0  0.30175482912E+02  0.19604347066E+02  0.16052687120E+02  0.39402778543E+02  0.51100000000E-03 0.  1.
        -11    1    3    3    0    0  0.69162732718E+00  0.68167863865E-01 -0.24000036451E+01  0.24986022042E+01  0.51100000000E-03 0. -1.
         12    1    3    3    0    0  0.31348070821E+01 -0.16958453090E+00  0.49787330843E+01  0.58858778003E+01  0.00000000000E+00 0. -1.
</event>
<event>
 7    1  0.4937359E-010  0.4778727E+02  0.7816164E-02  0.1312668E+00
        -11   -1    0    0    0    0  0.00000000000E+00  0.00000000000E+00  0.45593999997E+02  0.45594000000E+02  0.51100000000E-03 0.  1.
         11   -1    0    0    0    0 -0.00000000000E+00 -0.00000000000E+00 -0.45593999997E+02  0.45594000000E+02  0.51100000000E-03 0. -1.
    9900012    2    1    2    0    0  0.34500143565E+01  0.50278597569E+01  0.42970233926E+02  0.47787274471E+02  0.20000015624E+02 0.  0.
         12    1    1    2    0    0 -0.34500143565E+01 -0.50278597569E+01 -0.42970233926E+02  0.43400725529E+02  0.00000000000E+00 0. -1.
         11    1    3    3    0    0  0.30060856382E+01  0.48685041148E+01  0.33891750082E+01  0.66502173406E+01  0.51100000000E-03 0. -1.
        -11    1    3    3    0    0 -0.42537341449E+01  0.60938106551E+00  0.31398335219E+02  0.31691024822E+02  0.51100000000E-03 0.  1.
        -12    1    3    3    0    0  0.46976628632E+01 -0.45002542341E+00  0.81827236986E+01  0.94460323091E+01  0.00000000000E+00 0.  1.
</event>
<event>
 7    1  0.4937359E-010  0.4778727E+02  0.7816164E-02  0.1312668E+00
        -11   -1    0    0    0    0  0.00000000000E+00  0.00000000000E+00  0.45593999997E+02  0.45594000000E+02  0.51100000000E-03 0. -1.
         11   -1    0    0    0    0 -0.00000000000E+00 -0.00000000000E+00 -0.45593999997E+02  0.45594000000E+02  0.51100000000E-03 0.  1.
    9900012    2    1    2    0    0 -0.18272672027E+02 -0.24751534965E+02 -0.30611989603E+02  0.47787274965E+02  0.20000017875E+02 0.  0.
         12    1    1    2    0    0  0.18272672027E+02  0.24751534965E+02  0.30611989603E+02  0.43400725035E+02  0.00000000000E+00 0. -1.
         11    1    3    3    0    0 -0.22202474780E+01 -0.51460656550E+00 -0.10462224233E+02  0.10707588661E+02  0.51100000000E-03 0. -1.
        -11    1    3    3    0    0 -0.44304981774E+01 -0.15896019754E+02 -0.81341695766E+01  0.18397757284E+02  0.51100000000E-03 0.  1.
         12    1    3    3    0    0 -0.11621926372E+02 -0.83409086456E+01 -0.12015595793E+02  0.18681929020E+02  0.00000000000E+00 0. -1.
</event>
<event>
 7    1  0.4937359E-010  0.4778727E+02  0.7816164E-02  0.1312668E+00
        -11   -1    0    0    0    0  0.00000000000E+00  0.00000000000E+00  0.45593999997E+02  0.45594000000E+02  0.51100000000E-03 0.  1.
         11   -1    0    0    0    0 -0.00000000000E+00 -0.00000000000E+00 -0.45593999997E+02  0.45594000000E+02  0.51100000000E-03 0. -1.
    9900012    2    1    2    0    0  0.14676116196E+02  0.17432192040E+02  0.36937156502E+02  0.47787271476E+02  0.20000001969E+02 0.  0.
         12    1    1    2    0    0 -0.14676116196E+02 -0.17432192040E+02 -0.36937156502E+02  0.43400728524E+02  0.00000000000E+00 0. -1.
         11    1    3    3    0    0  0.65303357898E+00 -0.23067881976E+01  0.10063446497E+02  0.10345080005E+02  0.51100000000E-03 0. -1.
        -11    1    3    3    0    0  0.11083398299E+02  0.75023614789E+01  0.12186557924E+02  0.18100810476E+02  0.51100000000E-03 0.  1.
         12    1    3    3    0    0  0.29396843185E+01  0.12236618759E+02  0.14687152081E+02  0.19341380995E+02  0.00000000000E+00 0. -1.
</event>
<event>
 7    1  0.4937359E-010  0.4778728E+02  0.7816164E-02  0.1312668E+00
        -11   -1    0    0    0    0  0.00000000000E+00  0.00000000000E+00  0.45593999997E+02  0.45594000000E+02  0.51100000000E-03 0.  1.
         11   -1    0    0    0    0 -0.00000000000E+00 -0.00000000000E+00 -0.45593999997E+02  0.45594000000E+02  0.51100000000E-03 0. -1.
    9900012    2    1    2    0    0 -0.36764265114E+02  0.18643124027E+02 -0.13581064639E+02  0.47787279043E+02  0.20000036470E+02 0.  0.
         12    1    1    2    0    0  0.36764265114E+02 -0.18643124027E+02  0.13581064639E+02  0.43400720957E+02  0.00000000000E+00 0. -1.
         11    1    3    3    0    0 -0.52889442006E+01  0.14125640438E+00  0.42779801728E+01  0.68039693377E+01  0.51100000000E-03 0. -1.
        -11    1    3    3    0    0 -0.16297547035E+02  0.10959893248E+02 -0.69783252803E+01  0.20842896232E+02  0.51100000000E-03 0.  1.
         12    1    3    3    0    0 -0.15177773878E+02  0.75419743745E+01 -0.10880719531E+02  0.20140413474E+02  0.00000000000E+00 0. -1.
</event>
<event>
 7    1  0.4937359E-010  0.4778728E+02  0.7816164E-02  0.1312668E+00
        -11   -1    0    0    0    0  0.00000000000E+00  0.00000000000E+00  0.45593999997E+02  0.45594000000E+02  0.51100000000E-03 0. -1.
         11   -1    0    0    0    0 -0.00000000000E+00 -0.00000000000E+00 -0.45593999997E+02  0.45594000000E+02  0.51100000000E-03 0.  1.
    9900012    2    1    2    0    0 -0.19616477774E+02  0.30356778838E+02 -0.24026708007E+02  0.47787275129E+02  0.20000018623E+02 0.  0.
         12    1    1    2    0    0  0.19616477774E+02 -0.30356778838E+02  0.24026708007E+02  0.43400724871E+02  0.00000000000E+00 0. -1.
         11    1    3    3    0    0  0.12830751198E+01  0.12929270279E+02 -0.10894057830E+02  0.16955612875E+02  0.51100000000E-03 0. -1.
        -11    1    3    3    0    0 -0.17587690503E+02  0.17114343792E+02 -0.11107098345E+02  0.26936875368E+02  0.51100000000E-03 0.  1.
        -12    1    3    3    0    0 -0.33118623904E+01  0.31316476727E+00 -0.20255518316E+01  0.38947868860E+01  0.00000000000E+00 0.  1.
</event>
<event>
 7    1  0.4937359E-010  0.4778727E+02  0.7816164E-02  0.1312668E+00
        -11   -1    0    0    0    0  0.00000000000E+00  0.00000000000E+00  0.45593999997E+02  0.45594000000E+02  0.51100000000E-03 0.  1.
         11   -1    0    0    0    0 -0.00000000000E+00 -0.00000000000E+00 -0.45593999997E+02  0.45594000000E+02  0.51100000000E-03 0. -1.
    9900012    2    1    2    0    0  0.15591419718E+01  0.41907030762E+02  0.11180038678E+02  0.47787269409E+02  0.19999992545E+02 0.  0.
         12    1    1    2    0    0 -0.15591419718E+01 -0.41907030762E+02 -0.11180038678E+02  0.43400730591E+02  0.00000000000E+00 0. -1.
         11    1    3    3    0    0  0.33627150448E+01 -0.31030209170E+00  0.12539246998E+01  0.36022863954E+01  0.51100000000E-03 0. -1.
        -11    1    3    3    0    0 -0.43372096498E+01  0.29300573214E+02  0.45533173017E+01  0.29967777311E+02  0.51100000000E-03 0.  1.
        -12    1    3    3    0    0  0.25336365768E+01  0.12916759639E+02  0.53727966763E+01  0.14217205703E+02  0.00000000000E+00 0.  1.
</event>
<event>
 7    1  0.4937359E-010  0.4778727E+02  0.7816164E-02  0.1312668E+00
        -11   -1    0    0    0    0  0.00000000000E+00  0.00000000000E+00  0.45593999997E+02  0.45594000000E+02  0.51100000000E-03 0.  1.
         11   -1    0    0    0    0 -0.00000000000E+00 -0.00000000000E+00 -0.45593999997E+02  0.45594000000E+02  0.51100000000E-03 0. -1.
    9900012    2    1    2    0    0 -0.35607300345E+02 -0.29735251187E+01  0.24635371501E+02  0.47787271683E+02  0.20000002911E+02 0.  0.
         12    1    1    2    0    0  0.35607300345E+02  0.29735251187E+01 -0.24635371501E+02  0.43400728317E+02  0.00000000000E+00 0. -1.
         11    1    3    3    0    0 -0.71636459319E+00  0.83565912076E+00  0.34385482671E+01  0.36104180981E+01  0.51100000000E-03 0. -1.
        -11    1    3    3    0    0 -0.17014208033E+02 -0.36070091229E+01  0.19635940627E+02  0.26230973188E+02  0.51100000000E-03 0.  1.
         12    1    3    3    0    0 -0.17876727719E+02 -0.20217511652E+00  0.15608826062E+01  0.17945880397E+02  0.00000000000E+00 0. -1.
</event>
<event>
 7    1  0.4937359E-010  0.4778727E+02  0.7816164E-02  0.1312668E+00
        -11   -1    0    0    0    0  0.00000000000E+00  0.00000000000E+00  0.45593999997E+02  0.45594000000E+02  0.51100000000E-03 0.  1.
         11   -1    0    0    0    0 -0.00000000000E+00 -0.00000000000E+00 -0.45593999997E+02  0.45594000000E+02  0.51100000000E-03 0. -1.
    9900012    2    1    2    0    0  0.25855923108E+01  0.39516421015E+02  0.17759247030E+02  0.47787266452E+02  0.19999979060E+02 0.  0.
         12    1    1    2    0    0 -0.25855923108E+01 -0.39516421015E+02 -0.17759247030E+02  0.43400733548E+02  0.00000000000E+00 0. -1.
         11    1    3    3    0    0  0.60226104308E+01  0.13933607548E+02  0.59859801751E+01  0.16317144806E+02  0.51100000000E-03 0. -1.
        -11    1    3    3    0    0 -0.49918078328E+01  0.17522008832E+02  0.14446159860E+01  0.18276374218E+02  0.51100000000E-03 0.  1.
        -12    1    3    3    0    0  0.15547897127E+01  0.80608046347E+01  0.10328650868E+02  0.13193747427E+02  0.00000000000E+00 0.  1.
</event>
<event>
 7    1  0.4937359E-010  0.4778727E+02  0.7816164E-02  0.1312668E+00
        -11   -1    0    0    0    0  0.00000000000E+00  0.00000000000E+00  0.45593999997E+02  0.45594000000E+02  0.51100000000E-03 0. -1.
         11   -1    0    0    0    0 -0.00000000000E+00 -0.00000000000E+00 -0.45593999997E+02  0.45594000000E+02  0.51100000000E-03 0.  1.
    9900012    2    1    2    0    0  0.55374931429E+00  0.41829513843E+02 -0.11558916648E+02  0.47787269352E+02  0.19999992285E+02 0.  0.
         12    1    1    2    0    0 -0.55374931429E+00 -0.41829513843E+02  0.11558916648E+02  0.43400730648E+02  0.00000000000E+00 0. -1.
         11    1    3    3    0    0 -0.61756516420E+01  0.15246221534E+02 -0.62063411062E+01  0.17581371234E+02  0.51100000000E-03 0. -1.
        -11    1    3    3    0    0  0.80469813709E+01  0.26606066422E+02 -0.63987494274E+01  0.28523335606E+02  0.51100000000E-03 0.  1.
        -12    1    3    3    0    0 -0.13175804146E+01 -0.22774112454E-01  0.10461738852E+01  0.16825625121E+01  0.00000000000E+00 0.  1.
</event>
<event>
 7    1  0.4937359E-010  0.4778727E+02  0.7816164E-02  0.1312668E+00
        -11   -1    0    0    0    0  0.00000000000E+00  0.00000000000E+00  0.45593999997E+02  0.45594000000E+02  0.51100000000E-03 0.  1.
         11   -1    0    0    0    0 -0.00000000000E+00 -0.00000000000E+00 -0.45593999997E+02  0.45594000000E+02  0.51100000000E-03 0. -1.
    9900012    2    1    2    0    0 -0.56892577788E+01  0.93505041928E+01  0.41997902210E+02  0.47787269906E+02  0.19999994807E+02 0.  0.
         12    1    1    2    0    0  0.56892577788E+01 -0.93505041928E+01 -0.41997902210E+02  0.43400730094E+02  0.00000000000E+00 0. -1.
         11    1    3    3    0    0 -0.31338289356E+01 -0.10499993339E+01  0.18089686174E+01  0.37677247934E+01  0.51100000000E-03 0. -1.
        -11    1    3    3    0    0  0.33785714158E+01  0.11422195781E+02  0.25523650540E+02  0.28166257089E+02  0.51100000000E-03 0.  1.
        -12    1    3    3    0    0 -0.59340002590E+01 -0.10216922543E+01  0.14665283052E+02  0.15853288023E+02  0.00000000000E+00 0.  1.
</event>
<event>
 7    1  0.4937359E-010  0.4778727E+02  0.7816164E-02  0.1312668E+00
        -11   -1    0    0    0    0  0.00000000000E+00  0.00000000000E+00  0.45593999997E+02  0.45594000000E+02  0.51100000000E-03 0.  1.
         11   -1    0    0    0    0 -0.00000000000E+00 -0.00000000000E+00 -0.45593999997E+02  0.45594000000E+02  0.51100000000E-03 0. -1.
    9900012    2    1    2    0    0  0.26897361785E+02  0.27060883267E+02  0.20684868819E+02  0.47787271063E+02  0.20000000084E+02 0.  0.
         12    1    1    2    0    0 -0.26897361785E+02 -0.27060883267E+02 -0.20684868819E+02  0.43400728937E+02  0.00000000000E+00 0. -1.
         11    1    3    3    0    0  0.33387805454E+01  0.21781517081E+01 -0.77905869128E+00  0.40618632547E+01  0.51100000000E-03 0. -1.
        -11    1    3    3    0    0  0.14026378357E+02  0.82825758415E+01  0.19761238009E+01  0.16408699458E+02  0.51100000000E-03 0.  1.
        -12    1    3    3    0    0  0.95322028832E+01  0.16600155717E+02  0.19487803710E+02  0.27316708350E+02  0.00000000000E+00 0.  1.
</event>
<event>
 7    1  0.4937359E-010  0.4778727E+02  0.7816164E-02  0.1312668E+00
        -11   -1    0    0    0    0  0.00000000000E+00  0.00000000000E+00  0.45593999997E+02  0.45594000000E+02  0.51100000000E-03 0.  1.
         11   -1    0    0    0    0 -0.00000000000E+00 -0.00000000000E+00 -0.45593999997E+02  0.45594000000E+02  0.51100000000E-03 0. -1.
    9900012    2    1    2    0    0 -0.32922106548E+02  0.80125386776E+01  0.27121160356E+02  0.47787271726E+02  0.20000003109E+02 0.  0.
         12    1    1    2    0    0  0.32922106548E+02 -0.80125386776E+01 -0.27121160356E+02  0.43400728274E+02  0.00000000000E+00 0. -1.
         11    1    3    3    0    0 -0.13991533652E+00  0.52604598984E+01  0.54977394562E+01  0.76103320580E+01  0.51100000000E-03 0.  1.
        -11    1    3    3    0    0 -0.16765049338E+02 -0.25608108900E+01  0.11639067989E+02  0.20569213297E+02  0.51100000000E-03 0. -1.
        -12    1    3    3    0    0 -0.16017141873E+02  0.53128896692E+01  0.99843529109E+01  0.19607726372E+02  0.00000000000E+00 0.  1.
</event>
<event>
 7    1  0.4937359E-010  0.4778726E+02  0.7816164E-02  0.1312668E+00
        -11   -1    0    0    0    0  0.00000000000E+00  0.00000000000E+00  0.45593999997E+02  0.45594000000E+02  0.51100000000E-03 0.  1.
         11   -1    0    0    0    0 -0.00000000000E+00 -0.00000000000E+00 -0.45593999997E+02  0.45594000000E+02  0.51100000000E-03 0. -1.
    9900012    2    1    2    0    0  0.19014903674E+02 -0.11643668173E+02  0.37235503945E+02  0.47787258943E+02  0.19999944825E+02 0.  0.
         12    1    1    2    0    0 -0.19014903674E+02  0.11643668173E+02 -0.37235503945E+02  0.43400741057E+02  0.00000000000E+00 0. -1.
         11    1    3    3    0    0  0.11988099748E+01 -0.12522289855E+00  0.29568005863E+00  0.12410693326E+01  0.51100000000E-03 0. -1.
        -11    1    3    3    0    0  0.63450872392E+01 -0.48626696609E+01  0.31000945651E+02  0.32015063951E+02  0.51100000000E-03 0.  1.
        -12    1    3    3    0    0  0.11471006460E+02 -0.66557756139E+01  0.59388782358E+01  0.14531125659E+02  0.00000000000E+00 0.  1.
</event>
<event>
 7    1  0.4937359E-010  0.4778727E+02  0.7816164E-02  0.1312668E+00
        -11   -1    0    0    0    0  0.00000000000E+00  0.00000000000E+00  0.45593999997E+02  0.45594000000E+02  0.51100000000E-03 0.  1.
         11   -1    0    0    0    0 -0.00000000000E+00 -0.00000000000E+00 -0.45593999997E+02  0.45594000000E+02  0.51100000000E-03 0. -1.
    9900012    2    1    2    0    0 -0.46944935940E+01  0.13463692036E+02  0.40991629790E+02  0.47787274359E+02  0.20000015113E+02 0.  0.
         12    1    1    2    0    0  0.46944935940E+01 -0.13463692036E+02 -0.40991629790E+02  0.43400725641E+02  0.00000000000E+00 0. -1.
         11    1    3    3    0    0  0.60425483367E+01  0.52686678009E+01  0.14247115517E+02  0.16347830181E+02  0.51100000000E-03 0. -1.
        -11    1    3    3    0    0 -0.10313736876E+01 -0.18143927341E+01  0.67394537758E+01  0.70552101410E+01  0.51100000000E-03 0.  1.
         12    1    3    3    0    0 -0.97056682432E+01  0.10009416969E+02  0.20005060497E+02  0.24384234037E+02  0.00000000000E+00 0. -1.
</event>
<event>
 7    1  0.4937359E-010  0.4778727E+02  0.7816164E-02  0.1312668E+00
        -11   -1    0    0    0    0  0.00000000000E+00  0.00000000000E+00  0.45593999997E+02  0.45594000000E+02  0.51100000000E-03 0.  1.
         11   -1    0    0    0    0 -0.00000000000E+00 -0.00000000000E+00 -0.45593999997E+02  0.45594000000E+02  0.51100000000E-03 0. -1.
    9900012    2    1    2    0    0  0.23253721122E+02  0.34819439403E+02  0.11423407040E+02  0.47787272648E+02  0.20000007309E+02 0.  0.
         12    1    1    2    0    0 -0.23253721122E+02 -0.34819439403E+02 -0.11423407040E+02  0.43400727352E+02  0.00000000000E+00 0. -1.
         11    1    3    3    0    0  0.47755267549E+01 -0.16034800433E+01  0.25347773980E+01  0.56393174015E+01  0.51100000000E-03 0. -1.
        -11    1    3    3    0    0  0.71527018288E+01  0.16968465970E+02  0.15879413573E+01  0.18482736238E+02  0.51100000000E-03 0.  1.
         12    1    3    3    0    0  0.11325492538E+02  0.19454453476E+02  0.73006882851E+01  0.23665219008E+02  0.00000000000E+00 0. -1.
</event>
<event>
 7    1  0.4937359E-010  0.4778725E+02  0.7816164E-02  0.1312668E+00
        -11   -1    0    0    0    0  0.00000000000E+00  0.00000000000E+00  0.45593999997E+02  0.45594000000E+02  0.51100000000E-03 0. -1.
         11   -1    0    0    0    0 -0.00000000000E+00 -0.00000000000E+00 -0.45593999997E+02  0.45594000000E+02  0.51100000000E-03 0.  1.
    9900012    2    1    2    0    0 -0.13483646418E+02 -0.83239272611E+01 -0.40404559554E+02  0.47787252098E+02  0.19999913614E+02 0.  0.
         12    1    1    2    0    0  0.13483646418E+02  0.83239272611E+01  0.40404559554E+02  0.43400747902E+02  0.00000000000E+00 0. -1.
         11    1    3    3    0    0  0.15769061414E+00 -0.45898025810E+00 -0.99234661951E+01  0.99353264060E+01  0.51100000000E-03 0. -1.
        -11    1    3    3    0    0  0.85218702431E+00 -0.74415343209E+01 -0.69833506196E+01  0.10240597732E+02  0.51100000000E-03 0.  1.
        -12    1    3    3    0    0 -0.14493524056E+02 -0.42341268209E+00 -0.23497742739E+02  0.27611327959E+02  0.00000000000E+00 0.  1.
</event>
<event>
 7    1  0.4937359E-010  0.4778727E+02  0.7816164E-02  0.1312668E+00
        -11   -1    0    0    0    0  0.00000000000E+00  0.00000000000E+00  0.45593999997E+02  0.45594000000E+02  0.51100000000E-03 0. -1.
         11   -1    0    0    0    0 -0.00000000000E+00 -0.00000000000E+00 -0.45593999997E+02  0.45594000000E+02  0.51100000000E-03 0.  1.
    9900012    2    1    2    0    0 -0.13480995136E+02  0.12948246491E+02  0.39169234517E+02  0.47787271323E+02  0.20000001268E+02 0.  0.
         12    1    1    2    0    0  0.13480995136E+02 -0.12948246491E+02 -0.39169234517E+02  0.43400728677E+02  0.00000000000E+00 0. -1.
         11    1    3    3    0    0 -0.20130044086E+01  0.30756095441E+01  0.13686589776E+02  0.14171601913E+02  0.51100000000E-03 0. -1.
        -11    1    3    3    0    0 -0.98073332491E+01  0.14138344396E+02  0.21580482486E+02  0.27600612173E+02  0.51100000000E-03 0.  1.
        -12    1    3    3    0    0 -0.16606574780E+01 -0.42657074487E+01  0.39021622546E+01  0.60150572365E+01  0.00000000000E+00 0.  1.
</event>
<event>
 7    1  0.4937359E-010  0.4778727E+02  0.7816164E-02  0.1312668E+00
        -11   -1    0    0    0    0  0.00000000000E+00  0.00000000000E+00  0.45593999997E+02  0.45594000000E+02  0.51100000000E-03 0.  1.
         11   -1    0    0    0    0 -0.00000000000E+00 -0.00000000000E+00 -0.45593999997E+02  0.45594000000E+02  0.51100000000E-03 0. -1.
    9900012    2    1    2    0    0 -0.24796511875E+02 -0.26163577674E+02  0.24170713731E+02  0.47787271894E+02  0.20000003872E+02 0.  0.
         12    1    1    2    0    0  0.24796511875E+02  0.26163577674E+02 -0.24170713731E+02  0.43400728106E+02  0.00000000000E+00 0. -1.
         11    1    3    3    0    0  0.20202135495E+01 -0.15853057718E+01 -0.29359288876E+00  0.25846961565E+01  0.51100000000E-03 0. -1.
        -11    1    3    3    0    0 -0.14684948780E+02 -0.85561192315E+01  0.16177391474E+02  0.23464076630E+02  0.51100000000E-03 0.  1.
        -12    1    3    3    0    0 -0.12131776645E+02 -0.16022152671E+02  0.82869151466E+01  0.21738499107E+02  0.00000000000E+00 0.  1.
</event>
<event>
 7    1  0.4937359E-010  0.4778728E+02  0.7816164E-02  0.1312668E+00
        -11   -1    0    0    0    0  0.00000000000E+00  0.00000000000E+00  0.45593999997E+02  0.45594000000E+02  0.51100000000E-03 0.  1.
         11   -1    0    0    0    0 -0.00000000000E+00 -0.00000000000E+00 -0.45593999997E+02  0.45594000000E+02  0.51100000000E-03 0. -1.
    9900012    2    1    2    0    0  0.14677382147E+02 -0.83412349626E+01  0.39982758180E+02  0.47787277666E+02  0.20000030192E+02 0.  0.
         12    1    1    2    0    0 -0.14677382147E+02  0.83412349626E+01 -0.39982758180E+02  0.43400722334E+02  0.00000000000E+00 0. -1.
         11    1    3    3    0    0  0.11079521112E+02 -0.88660315228E+00  0.15573501708E+02  0.19133107665E+02  0.51100000000E-03 0. -1.
        -11    1    3    3    0    0  0.82616705136E+00 -0.49739090463E+01  0.24419338369E+02  0.24934442240E+02  0.51100000000E-03 0.  1.
         12    1    3    3    0    0  0.27716939839E+01 -0.24807227640E+01 -0.10081896469E-01  0.37197277611E+01  0.00000000000E+00 0. -1.
</event>
<event>
 7    1  0.4937359E-010  0.4778727E+02  0.7816164E-02  0.1312668E+00
        -11   -1    0    0    0    0  0.00000000000E+00  0.00000000000E+00  0.45593999997E+02  0.45594000000E+02  0.51100000000E-03 0.  1.
         11   -1    0    0    0    0 -0.00000000000E+00 -0.00000000000E+00 -0.45593999997E+02  0.45594000000E+02  0.51100000000E-03 0. -1.
    9900012    2    1    2    0    0 -0.13278657181E+01 -0.64045514386E+01  0.42905030801E+02  0.47787272189E+02  0.20000005217E+02 0.  0.
         12    1    1    2    0    0  0.13278657181E+01  0.64045514386E+01 -0.42905030801E+02  0.43400727811E+02  0.00000000000E+00 0. -1.
         11    1    3    3    0    0  0.29155519348E+01  0.60247690532E+01  0.12588544142E+02  0.14257269342E+02  0.51100000000E-03 0. -1.
        -11    1    3    3    0    0 -0.34485763145E+01 -0.12905194141E+02  0.27660693623E+02  0.30717270165E+02  0.51100000000E-03 0.  1.
        -12    1    3    3    0    0 -0.79484133841E+00  0.47587364938E+00  0.26557930367E+01  0.28127326815E+01  0.00000000000E+00 0.  1.
</event>
<event>
 7    1  0.4937359E-010  0.4778727E+02  0.7816164E-02  0.1312668E+00
        -11   -1    0    0    0    0  0.00000000000E+00  0.00000000000E+00  0.45593999997E+02  0.45594000000E+02  0.51100000000E-03 0.  1.
         11   -1    0    0    0    0 -0.00000000000E+00 -0.00000000000E+00 -0.45593999997E+02  0.45594000000E+02  0.51100000000E-03 0. -1.
    9900012    2    1    2    0    0  0.79467556617E+01  0.13549455140E+02  0.40458434049E+02  0.47787267911E+02  0.19999985714E+02 0.  0.
         12    1    1    2    0    0 -0.79467556617E+01 -0.13549455140E+02 -0.40458434049E+02  0.43400732089E+02  0.00000000000E+00 0. -1.
         11    1    3    3    0    0  0.40143982466E+01 -0.45417533291E+00  0.13895243276E+02  0.14470641122E+02  0.51100000000E-03 0. -1.
        -11    1    3    3    0    0  0.57457262332E+01  0.93216194357E+01  0.67192517520E+01  0.12847346155E+02  0.51100000000E-03 0.  1.
        -12    1    3    3    0    0 -0.18133688180E+01  0.46820110371E+01  0.19843939021E+02  0.20469280635E+02  0.00000000000E+00 0.  1.
</event>
<event>
 7    1  0.4937359E-010  0.4778727E+02  0.7816164E-02  0.1312668E+00
        -11   -1    0    0    0    0  0.00000000000E+00  0.00000000000E+00  0.45593999997E+02  0.45594000000E+02  0.51100000000E-03 0. -1.
         11   -1    0    0    0    0 -0.00000000000E+00 -0.00000000000E+00 -0.45593999997E+02  0.45594000000E+02  0.51100000000E-03 0.  1.
    9900012    2    1    2    0    0 -0.24592507277E+02 -0.29483279593E+02 -0.20237787718E+02  0.47787271417E+02  0.20000001700E+02 0.  0.
         12    1    1    2    0    0  0.24592507277E+02  0.29483279593E+02  0.20237787718E+02  0.43400728583E+02  0.00000000000E+00 0. -1.
         11    1    3    3    0    0 -0.45474069392E+01 -0.17050283225E+02 -0.74745237536E+01  0.19164017677E+02  0.51100000000E-03 0. -1.
        -11    1    3    3    0    0 -0.14784429791E+02 -0.54416579928E+01 -0.12070076453E+02  0.19846353614E+02  0.51100000000E-03 0.  1.
        -12    1    3    3    0    0 -0.52606705472E+01 -0.69913383757E+01 -0.69318751212E+00  0.87769001257E+01  0.00000000000E+00 0.  1.
</event>
<event>
 7    1  0.4937359E-010  0.4778727E+02  0.7816164E-02  0.1312668E+00
        -11   -1    0    0    0    0  0.00000000000E+00  0.00000000000E+00  0.45593999997E+02  0.45594000000E+02  0.51100000000E-03 0.  1.
         11   -1    0    0    0    0 -0.00000000000E+00 -0.00000000000E+00 -0.45593999997E+02  0.45594000000E+02  0.51100000000E-03 0. -1.
    9900012    2    1    2    0    0 -0.13259486500E+02 -0.13351499746E+02  0.39109421136E+02  0.47787270175E+02  0.19999996037E+02 0.  0.
         12    1    1    2    0    0  0.13259486500E+02  0.13351499746E+02 -0.39109421136E+02  0.43400729825E+02  0.00000000000E+00 0. -1.
         11    1    3    3    0    0 -0.19803234185E+01 -0.21842439696E+01  0.28234214410E+02  0.28387734432E+02  0.51100000000E-03 0. -1.
        -11    1    3    3    0    0 -0.70781482105E+01 -0.86054587078E+01  0.76722881136E+01  0.13528418489E+02  0.51100000000E-03 0.  1.
         12    1    3    3    0    0 -0.42010148715E+01 -0.25617970690E+01  0.32029186123E+01  0.58711172540E+01  0.00000000000E+00 0. -1.
</event>
<event>
 7    1  0.4937359E-010  0.4778722E+02  0.7816164E-02  0.1312668E+00
        -11   -1    0    0    0    0  0.00000000000E+00  0.00000000000E+00  0.45593999997E+02  0.45594000000E+02  0.51100000000E-03 0.  1.
         11   -1    0    0    0    0 -0.00000000000E+00 -0.00000000000E+00 -0.45593999997E+02  0.45594000000E+02  0.51100000000E-03 0. -1.
    9900012    2    1    2    0    0  0.26009793943E+02 -0.80184200243E+01  0.33805673560E+02  0.47787216534E+02  0.19999751463E+02 0.  0.
         12    1    1    2    0    0 -0.26009793943E+02  0.80184200243E+01 -0.33805673560E+02  0.43400783466E+02  0.00000000000E+00 0. -1.
         11    1    3    3    0    0  0.12681121878E+02 -0.58691128521E+01  0.26814487242E+02  0.30236965193E+02  0.51100000000E-03 0. -1.
        -11    1    3    3    0    0  0.95888039162E+01 -0.47725277387E+01  0.22078936793E+01  0.10936040249E+02  0.51100000000E-03 0.  1.
        -12    1    3    3    0    0  0.37398681486E+01  0.26232205665E+01  0.47832926387E+01  0.66142110926E+01  0.00000000000E+00 0.  1.
</event>
<event>
 7    1  0.4937359E-010  0.4778727E+02  0.7816164E-02  0.1312668E+00
        -11   -1    0    0    0    0  0.00000000000E+00  0.00000000000E+00  0.45593999997E+02  0.45594000000E+02  0.51100000000E-03 0.  1.
         11   -1    0    0    0    0 -0.00000000000E+00 -0.00000000000E+00 -0.45593999997E+02  0.45594000000E+02  0.51100000000E-03 0. -1.
    9900012    2    1    2    0    0  0.16823761768E+00  0.10465910694E+02  0.42119593316E+02  0.47787265770E+02  0.19999975953E+02 0.  0.
         12    1    1    2    0    0 -0.16823761768E+00 -0.10465910694E+02 -0.42119593316E+02  0.43400734230E+02  0.00000000000E+00 0. -1.
         11    1    3    3    0    0  0.36918422864E+01 -0.50676848946E+01  0.10755039454E+02  0.12449176823E+02  0.51100000000E-03 0. -1.
        -11    1    3    3    0    0 -0.34648890373E+01  0.80247780207E+01  0.15792024975E+02  0.18049669565E+02  0.51100000000E-03 0.  1.
         12    1    3    3    0    0 -0.58715631376E-01  0.75088175679E+01  0.15572528887E+02  0.17288419382E+02  0.00000000000E+00 0. -1.
</event>
<event>
 7    1  0.4937359E-010  0.4778727E+02  0.7816164E-02  0.1312668E+00
        -11   -1    0    0    0    0  0.00000000000E+00  0.00000000000E+00  0.45593999997E+02  0.45594000000E+02  0.51100000000E-03 0.  1.
         11   -1    0    0    0    0 -0.00000000000E+00 -0.00000000000E+00 -0.45593999997E+02  0.45594000000E+02  0.51100000000E-03 0. -1.
    9900012    2    1    2    0    0 -0.78299926074E+01  0.10207514729E+02  0.41450225327E+02  0.47787270504E+02  0.19999997535E+02 0.  0.
         12    1    1    2    0    0  0.78299926074E+01 -0.10207514729E+02 -0.41450225327E+02  0.43400729496E+02  0.00000000000E+00 0. -1.
         11    1    3    3    0    0  0.22432014764E+01 -0.26150876465E+01  0.12785823528E+02  0.13241900159E+02  0.51100000000E-03 0. -1.
        -11    1    3    3    0    0 -0.63147705444E+01  0.11740312312E+02  0.27338586992E+02  0.30415614398E+02  0.51100000000E-03 0.  1.
        -12    1    3    3    0    0 -0.37584235394E+01  0.10822900641E+01  0.13258148068E+01  0.41297559475E+01  0.00000000000E+00 0.  1.
</event>
<event>
 7    1  0.4937359E-010  0.4778728E+02  0.7816164E-02  0.1312668E+00
        -11   -1    0    0    0    0  0.00000000000E+00  0.00000000000E+00  0.45593999997E+02  0.45594000000E+02  0.51100000000E-03 0. -1.
         11   -1    0    0    0    0 -0.00000000000E+00 -0.00000000000E+00 -0.45593999997E+02  0.45594000000E+02  0.51100000000E-03 0.  1.
    9900012    2    1    2    0    0  0.37533726230E+02  0.19833375716E+02 -0.90265809864E+01  0.47787279254E+02  0.20000037429E+02 0.  0.
         12    1    1    2    0    0 -0.37533726230E+02 -0.19833375716E+02  0.90265809864E+01  0.43400720746E+02  0.00000000000E+00 0. -1.
         11    1    3    3    0    0  0.20828584491E+02  0.97566497299E+01 -0.33216663304E+01  0.23239096654E+02  0.51100000000E-03 0. -1.
        -11    1    3    3    0    0  0.78106037192E+01  0.35180593439E+01 -0.95668672429E+01  0.12841620657E+02  0.51100000000E-03 0.  1.
         12    1    3    3    0    0  0.88945380199E+01  0.65586666425E+01  0.38619525869E+01  0.11706561942E+02  0.00000000000E+00 0. -1.
</event>
<event>
 7    1  0.4937359E-010  0.4778727E+02  0.7816164E-02  0.1312668E+00
        -11   -1    0    0    0    0  0.00000000000E+00  0.00000000000E+00  0.45593999997E+02  0.45594000000E+02  0.51100000000E-03 0.  1.
         11   -1    0    0    0    0 -0.00000000000E+00 -0.00000000000E+00 -0.45593999997E+02  0.45594000000E+02  0.51100000000E-03 0. -1.
    9900012    2    1    2    0    0  0.39165602475E+01  0.37858605940E+02 -0.20856894025E+02  0.47787268252E+02  0.19999987268E+02 0.  0.
         12    1    1    2    0    0 -0.39165602475E+01 -0.37858605940E+02  0.20856894025E+02  0.43400731748E+02  0.00000000000E+00 0. -1.
         11    1    3    3    0    0  0.38736668603E+01  0.49606582021E+01  0.20921651639E+01  0.66325394892E+01  0.51100000000E-03 0. -1.
        -11    1    3    3    0    0 -0.24057192491E+01  0.29811985857E+02 -0.18309068010E+02  0.35067990497E+02  0.51100000000E-03 0.  1.
        -12    1    3    3    0    0  0.24486126363E+01  0.30859618804E+01 -0.46399911793E+01  0.60867382656E+01  0.00000000000E+00 0.  1.
</event>
<event>
 7    1  0.4937359E-010  0.4778727E+02  0.7816164E-02  0.1312668E+00
        -11   -1    0    0    0    0  0.00000000000E+00  0.00000000000E+00  0.45593999997E+02  0.45594000000E+02  0.51100000000E-03 0.  1.
         11   -1    0    0    0    0 -0.00000000000E+00 -0.00000000000E+00 -0.45593999997E+02  0.45594000000E+02  0.51100000000E-03 0. -1.
    9900012    2    1    2    0    0  0.13859921666E+02 -0.33189851421E+01  0.40994025025E+02  0.47787272141E+02  0.20000004999E+02 0.  0.
         12    1    1    2    0    0 -0.13859921666E+02  0.33189851421E+01 -0.40994025025E+02  0.43400727859E+02  0.00000000000E+00 0. -1.
         11    1    3    3    0    0 -0.33836240698E+01 -0.35979887116E+01  0.56074844520E+01  0.74725040485E+01  0.51100000000E-03 0. -1.
        -11    1    3    3    0    0  0.17644348527E+02  0.51324802199E+00  0.35650161172E+02  0.39780905600E+02  0.51100000000E-03 0.  1.
        -12    1    3    3    0    0 -0.40080279050E+00 -0.23424445245E+00 -0.26362059957E+00  0.53386249249E+00  0.00000000000E+00 0.  1.
</event>
<event>
 7    1  0.4937359E-010  0.4778728E+02  0.7816164E-02  0.1312668E+00
        -11   -1    0    0    0    0  0.00000000000E+00  0.00000000000E+00  0.45593999997E+02  0.45594000000E+02  0.51100000000E-03 0. -1.
         11   -1    0    0    0    0 -0.00000000000E+00 -0.00000000000E+00 -0.45593999997E+02  0.45594000000E+02  0.51100000000E-03 0.  1.
    9900012    2    1    2    0    0  0.37892607137E+02  0.71233104169E+01 -0.19925645639E+02  0.47787279026E+02  0.20000036392E+02 0.  0.
         12    1    1    2    0    0 -0.37892607137E+02 -0.71233104169E+01  0.19925645639E+02  0.43400720974E+02  0.00000000000E+00 0. -1.
         11    1    3    3    0    0  0.13129509021E+02  0.10484811553E+02 -0.31326211769E+01  0.17091769836E+02  0.51100000000E-03 0. -1.
        -11    1    3    3    0    0  0.73275480294E+01 -0.23723809666E+01 -0.81380359243E+01  0.11204855222E+02  0.51100000000E-03 0.  1.
         12    1    3    3    0    0  0.17435550087E+02 -0.98912016967E+00 -0.86549885377E+01  0.19490653968E+02  0.00000000000E+00 0. -1.
</event>
<event>
 7    1  0.4937359E-010  0.4778727E+02  0.7816164E-02  0.1312668E+00
        -11   -1    0    0    0    0  0.00000000000E+00  0.00000000000E+00  0.45593999997E+02  0.45594000000E+02  0.51100000000E-03 0.  1.
         11   -1    0    0    0    0 -0.00000000000E+00 -0.00000000000E+00 -0.45593999997E+02  0.45594000000E+02  0.51100000000E-03 0. -1.
    9900012    2    1    2    0    0  0.30477312325E+02 -0.30332744703E+02  0.58890823078E+01  0.47787271226E+02  0.20000000826E+02 0.  0.
         12    1    1    2    0    0 -0.30477312325E+02  0.30332744703E+02 -0.58890823078E+01  0.43400728774E+02  0.00000000000E+00 0. -1.
         11    1    3    3    0    0 -0.22965644098E+00  0.42161537088E+00 -0.76917847819E+00  0.90671792432E+00  0.51100000000E-03 0. -1.
        -11    1    3    3    0    0  0.11196642701E+02 -0.83970377904E+01  0.97348266780E+01  0.17048222844E+02  0.51100000000E-03 0.  1.
        -12    1    3    3    0    0  0.19510326064E+02 -0.22357322283E+02 -0.30765658921E+01  0.29832330457E+02  0.00000000000E+00 0.  1.
</event>
<event>
 7    1  0.4937359E-010  0.4778727E+02  0.7816164E-02  0.1312668E+00
        -11   -1    0    0    0    0  0.00000000000E+00  0.00000000000E+00  0.45593999997E+02  0.45594000000E+02  0.51100000000E-03 0.  1.
         11   -1    0    0    0    0 -0.00000000000E+00 -0.00000000000E+00 -0.45593999997E+02  0.45594000000E+02  0.51100000000E-03 0. -1.
    9900012    2    1    2    0    0 -0.11457702990E+02 -0.28285155893E+02  0.30859267458E+02  0.47787269710E+02  0.19999993916E+02 0.  0.
         12    1    1    2    0    0  0.11457702990E+02  0.28285155893E+02 -0.30859267458E+02  0.43400730290E+02  0.00000000000E+00 0. -1.
         11    1    3    3    0    0  0.30093725182E+01 -0.18595357021E+00  0.39859948441E-01  0.30153757245E+01  0.51100000000E-03 0. -1.
        -11    1    3    3    0    0 -0.94137222437E+01 -0.24465107699E+02  0.25734729056E+02  0.36734669470E+02  0.51100000000E-03 0.  1.
         12    1    3    3    0    0 -0.50533532641E+01 -0.36340946238E+01  0.50846784533E+01  0.80372245160E+01  0.00000000000E+00 0. -1.
</event>
<event>
 7    1  0.4937359E-010  0.4778727E+02  0.7816164E-02  0.1312668E+00
        -11   -1    0    0    0    0  0.00000000000E+00  0.00000000000E+00  0.45593999997E+02  0.45594000000E+02  0.51100000000E-03 0. -1.
         11   -1    0    0    0    0 -0.00000000000E+00 -0.00000000000E+00 -0.45593999997E+02  0.45594000000E+02  0.51100000000E-03 0.  1.
    9900012    2    1    2    0    0  0.28485745008E+02  0.43751620530E+01 -0.32450632817E+02  0.47787270952E+02  0.19999999579E+02 0.  0.
         12    1    1    2    0    0 -0.28485745008E+02 -0.43751620530E+01  0.32450632817E+02  0.43400729048E+02  0.00000000000E+00 0. -1.
         11    1    3    3    0    0  0.41674585606E+01  0.35934811375E+01 -0.16719560886E+02  0.17601833258E+02  0.51100000000E-03 0. -1.
        -11    1    3    3    0    0  0.17398592080E+02  0.31168161253E+01 -0.14317545881E+02  0.22746816688E+02  0.51100000000E-03 0.  1.
        -12    1    3    3    0    0  0.69196943672E+01 -0.23351352098E+01 -0.14135260499E+01  0.74386210064E+01  0.00000000000E+00 0.  1.
</event>
<event>
 7    1  0.4937359E-010  0.4778728E+02  0.7816164E-02  0.1312668E+00
        -11   -1    0    0    0    0  0.00000000000E+00  0.00000000000E+00  0.45593999997E+02  0.45594000000E+02  0.51100000000E-03 0. -1.
         11   -1    0    0    0    0 -0.00000000000E+00 -0.00000000000E+00 -0.45593999997E+02  0.45594000000E+02  0.51100000000E-03 0.  1.
    9900012    2    1    2    0    0  0.27080967552E+02 -0.33063202186E+02 -0.75543674579E+01  0.47787278692E+02  0.20000034868E+02 0.  0.
         12    1    1    2    0    0 -0.27080967552E+02  0.33063202186E+02  0.75543674579E+01  0.43400721308E+02  0.00000000000E+00 0. -1.
         11    1    3    3    0    0  0.18722852081E+02 -0.15763057684E+02 -0.10881826057E+02  0.26784945700E+02  0.51100000000E-03 0. -1.
        -11    1    3    3    0    0  0.78863803068E+01 -0.17994827228E+02  0.38395860662E+01  0.20018771759E+02  0.51100000000E-03 0.  1.
         12    1    3    3    0    0  0.47173516461E+00  0.69468272598E+00 -0.51212746738E+00  0.98356123254E+00  0.00000000000E+00 0. -1.
</event>
<event>
 7    1  0.4937359E-010  0.4778727E+02  0.7816164E-02  0.1312668E+00
        -11   -1    0    0    0    0  0.00000000000E+00  0.00000000000E+00  0.45593999997E+02  0.45594000000E+02  0.51100000000E-03 0. -1.
         11   -1    0    0    0    0 -0.00000000000E+00 -0.00000000000E+00 -0.45593999997E+02  0.45594000000E+02  0.51100000000E-03 0.  1.
    9900012    2    1    2    0    0 -0.21412141301E+02  0.35738859882E+02 -0.12160481644E+02  0.47787271728E+02  0.20000003116E+02 0.  0.
         12    1    1    2    0    0  0.21412141301E+02 -0.35738859882E+02  0.12160481644E+02  0.43400728272E+02  0.00000000000E+00 0. -1.
         11    1    3    3    0    0  0.34885788118E+00  0.65568850615E+01  0.29696645314E+01  0.72064798079E+01  0.51100000000E-03 0. -1.
        -11    1    3    3    0    0 -0.18695412404E+02  0.21466921144E+02 -0.78249004210E+01  0.29522469667E+02  0.51100000000E-03 0.  1.
         12    1    3    3    0    0 -0.30655867784E+01  0.77150536761E+01 -0.73052457546E+01  0.11058322253E+02  0.00000000000E+00 0. -1.
</event>
<event>
 7    1  0.4937359E-010  0.4778727E+02  0.7816164E-02  0.1312668E+00
        -11   -1    0    0    0    0  0.00000000000E+00  0.00000000000E+00  0.45593999997E+02  0.45594000000E+02  0.51100000000E-03 0.  1.
         11   -1    0    0    0    0 -0.00000000000E+00 -0.00000000000E+00 -0.45593999997E+02  0.45594000000E+02  0.51100000000E-03 0. -1.
    9900012    2    1    2    0    0 -0.34921346906E+02  0.19484511163E+02  0.16866440367E+02  0.47787268951E+02  0.19999990453E+02 0.  0.
         12    1    1    2    0    0  0.34921346906E+02 -0.19484511163E+02 -0.16866440367E+02  0.43400731049E+02  0.00000000000E+00 0. -1.
         11    1    3    3    0    0 -0.67934297162E+01  0.74620688754E+01  0.11963056613E+01  0.10161904679E+02  0.51100000000E-03 0. -1.
        -11    1    3    3    0    0 -0.48496326724E+01  0.96358125932E+01  0.43612802543E+01  0.11635660149E+02  0.51100000000E-03 0.  1.
        -12    1    3    3    0    0 -0.23278284517E+02  0.23866296944E+01  0.11308854452E+02  0.25989704122E+02  0.00000000000E+00 0.  1.
</event>
<event>
 7    1  0.4937359E-010  0.4778727E+02  0.7816164E-02  0.1312668E+00
        -11   -1    0    0    0    0  0.00000000000E+00  0.00000000000E+00  0.45593999997E+02  0.45594000000E+02  0.51100000000E-03 0.  1.
         11   -1    0    0    0    0 -0.00000000000E+00 -0.00000000000E+00 -0.45593999997E+02  0.45594000000E+02  0.51100000000E-03 0. -1.
    9900012    2    1    2    0    0  0.17682497574E+02  0.37240326750E+02  0.13568736119E+02  0.47787271242E+02  0.20000000899E+02 0.  0.
         12    1    1    2    0    0 -0.17682497574E+02 -0.37240326750E+02 -0.13568736119E+02  0.43400728758E+02  0.00000000000E+00 0. -1.
         11    1    3    3    0    0  0.17296483369E+01  0.85456051458E+01  0.70521281293E+01  0.11213900396E+02  0.51100000000E-03 0. -1.
        -11    1    3    3    0    0  0.14203914206E+02  0.13662080872E+02 -0.88191837087E+00  0.19727681384E+02  0.51100000000E-03 0.  1.
        -12    1    3    3    0    0  0.17489350313E+01  0.15032640732E+02  0.73985263601E+01  0.16845689462E+02  0.00000000000E+00 0.  1.
</event>
<event>
 7    1  0.4937359E-010  0.4778727E+02  0.7816164E-02  0.1312668E+00
        -11   -1    0    0    0    0  0.00000000000E+00  0.00000000000E+00  0.45593999997E+02  0.45594000000E+02  0.51100000000E-03 0. -1.
         11   -1    0    0    0    0 -0.00000000000E+00 -0.00000000000E+00 -0.45593999997E+02  0.45594000000E+02  0.51100000000E-03 0.  1.
    9900012    2    1    2    0    0  0.29345356770E+02 -0.18898976293E+02 -0.25793448496E+02  0.47787271271E+02  0.20000001035E+02 0.  0.
         12    1    1    2    0    0 -0.29345356770E+02  0.18898976293E+02  0.25793448496E+02  0.43400728729E+02  0.00000000000E+00 0. -1.
         11    1    3    3    0    0  0.12681591281E+02 -0.11269779249E+01 -0.11245305816E+02  0.16986751892E+02  0.51100000000E-03 0.  1.
        -11    1    3    3    0    0  0.47254435847E+01 -0.12688826995E+02 -0.10726211868E+02  0.17273904274E+02  0.51100000000E-03 0. -1.
        -12    1    3    3    0    0  0.11938321904E+02 -0.50831713727E+01 -0.38219308122E+01  0.13526615106E+02  0.00000000000E+00 0.  1.
</event>
<event>
 7    1  0.4937359E-010  0.4778727E+02  0.7816164E-02  0.1312668E+00
        -11   -1    0    0    0    0  0.00000000000E+00  0.00000000000E+00  0.45593999997E+02  0.45594000000E+02  0.51100000000E-03 0.  1.
         11   -1    0    0    0    0 -0.00000000000E+00 -0.00000000000E+00 -0.45593999997E+02  0.45594000000E+02  0.51100000000E-03 0. -1.
    9900012    2    1    2    0    0 -0.39403607823E+02 -0.17954702800E+02  0.29338496484E+01  0.47787272634E+02  0.20000007249E+02 0.  0.
         12    1    1    2    0    0  0.39403607823E+02  0.17954702800E+02 -0.29338496484E+01  0.43400727366E+02  0.00000000000E+00 0. -1.
         11    1    3    3    0    0 -0.12464465221E+02 -0.48103535284E+01 -0.33711333013E+01  0.13779221106E+02  0.51100000000E-03 0. -1.
        -11    1    3    3    0    0 -0.14432608851E+02 -0.14908868199E+02  0.31333820906E+01  0.20985533893E+02  0.51100000000E-03 0.  1.
        -12    1    3    3    0    0 -0.12506533752E+02  0.17645189272E+01  0.31716008590E+01  0.13022517634E+02  0.00000000000E+00 0.  1.
</event>
<event>
 7    1  0.4937359E-010  0.4778728E+02  0.7816164E-02  0.1312668E+00
        -11   -1    0    0    0    0  0.00000000000E+00  0.00000000000E+00  0.45593999997E+02  0.45594000000E+02  0.51100000000E-03 0.  1.
         11   -1    0    0    0    0 -0.00000000000E+00 -0.00000000000E+00 -0.45593999997E+02  0.45594000000E+02  0.51100000000E-03 0. -1.
    9900012    2    1    2    0    0  0.41926884542E+02  0.63868924765E+01 -0.92177315459E+01  0.47787278603E+02  0.20000034462E+02 0.  0.
         12    1    1    2    0    0 -0.41926884542E+02 -0.63868924765E+01  0.92177315459E+01  0.43400721397E+02  0.00000000000E+00 0. -1.
         11    1    3    3    0    0  0.17696958875E+02  0.21084179775E+01 -0.13572531880E+02  0.22401816928E+02  0.51100000000E-03 0. -1.
        -11    1    3    3    0    0  0.72710562320E+01 -0.75415720484E+00  0.96018067974E+00  0.73728528412E+01  0.51100000000E-03 0.  1.
         12    1    3    3    0    0  0.16958869435E+02  0.50326317038E+01  0.33946196545E+01  0.18012608833E+02  0.00000000000E+00 0. -1.
</event>
<event>
 7    1  0.4937359E-010  0.4778727E+02  0.7816164E-02  0.1312668E+00
        -11   -1    0    0    0    0  0.00000000000E+00  0.00000000000E+00  0.45593999997E+02  0.45594000000E+02  0.51100000000E-03 0.  1.
         11   -1    0    0    0    0 -0.00000000000E+00 -0.00000000000E+00 -0.45593999997E+02  0.45594000000E+02  0.51100000000E-03 0. -1.
    9900012    2    1    2    0    0 -0.22861360158E+02 -0.14308088531E+02  0.34003821779E+02  0.47787273264E+02  0.20000010118E+02 0.  0.
         12    1    1    2    0    0  0.22861360158E+02  0.14308088531E+02 -0.34003821779E+02  0.43400726736E+02  0.00000000000E+00 0. -1.
         11    1    3    3    0    0  0.42239724355E+00  0.69224897603E+00 -0.16279091508E+00  0.82712104273E+00  0.51100000000E-03 0. -1.
        -11    1    3    3    0    0 -0.11146885542E+01 -0.88168134572E+01  0.12604261769E+02  0.15422261349E+02  0.51100000000E-03 0.  1.
        -12    1    3    3    0    0 -0.22169068848E+02 -0.61835240496E+01  0.21562350925E+02  0.31537890872E+02  0.00000000000E+00 0.  1.
</event>
<event>
 7    1  0.4937359E-010  0.4778727E+02  0.7816164E-02  0.1312668E+00
        -11   -1    0    0    0    0  0.00000000000E+00  0.00000000000E+00  0.45593999997E+02  0.45594000000E+02  0.51100000000E-03 0. -1.
         11   -1    0    0    0    0 -0.00000000000E+00 -0.00000000000E+00 -0.45593999997E+02  0.45594000000E+02  0.51100000000E-03 0.  1.
    9900012    2    1    2    0    0  0.17497715488E+02  0.39664372795E+02 -0.20471137685E+01  0.47787271996E+02  0.20000004339E+02 0.  0.
         12    1    1    2    0    0 -0.17497715488E+02 -0.39664372795E+02  0.20471137685E+01  0.43400728004E+02  0.00000000000E+00 0. -1.
         11    1    3    3    0    0  0.67429027652E+01  0.62595321717E+01 -0.64340898239E+00  0.92229309923E+01  0.51100000000E-03 0. -1.
        -11    1    3    3    0    0  0.30663397842E+00  0.40419332325E+01  0.53126353548E+01  0.66824653630E+01  0.51100000000E-03 0.  1.
        -12    1    3    3    0    0  0.10448178744E+02  0.29362907390E+02 -0.67163401409E+01  0.31881875641E+02  0.00000000000E+00 0.  1.
</event>
<event>
 7    1  0.4937359E-010  0.4778727E+02  0.7816164E-02  0.1312668E+00
        -11   -1    0    0    0    0  0.00000000000E+00  0.00000000000E+00  0.45593999997E+02  0.45594000000E+02  0.51100000000E-03 0.  1.
         11   -1    0    0    0    0 -0.00000000000E+00 -0.00000000000E+00 -0.45593999997E+02  0.45594000000E+02  0.51100000000E-03 0. -1.
    9900012    2    1    2    0    0 -0.78788044443E+01  0.97307282898E+01  0.41555514533E+02  0.47787269354E+02  0.19999992292E+02 0.  0.
         12    1    1    2    0    0  0.78788044443E+01 -0.97307282898E+01 -0.41555514533E+02  0.43400730646E+02  0.00000000000E+00 0. -1.
         11    1    3    3    0    0  0.36734783811E+00  0.11649379758E+02  0.16878556213E+02  0.20511671148E+02  0.51100000000E-03 0. -1.
        -11    1    3    3    0    0 -0.42483000810E+01 -0.45737871661E+01  0.95813844927E+01  0.11435493504E+02  0.51100000000E-03 0.  1.
         12    1    3    3    0    0 -0.39978522014E+01  0.26551356981E+01  0.15095573828E+02  0.15840104702E+02  0.00000000000E+00 0. -1.
</event>
<event>
 7    1  0.4937359E-010  0.4778727E+02  0.7816164E-02  0.1312668E+00
        -11   -1    0    0    0    0  0.00000000000E+00  0.00000000000E+00  0.45593999997E+02  0.45594000000E+02  0.51100000000E-03 0. -1.
         11   -1    0    0    0    0 -0.00000000000E+00 -0.00000000000E+00 -0.45593999997E+02  0.45594000000E+02  0.51100000000E-03 0.  1.
    9900012    2    1    2    0    0 -0.24157825527E+02 -0.21777084594E+02 -0.28736409460E+02  0.47787272169E+02  0.20000005127E+02 0.  0.
         12    1    1    2    0    0  0.24157825527E+02  0.21777084594E+02  0.28736409460E+02  0.43400727831E+02  0.00000000000E+00 0. -1.
         11    1    3    3    0    0 -0.74484237890E+01 -0.30803894599E+01 -0.11118136045E+01  0.81365807264E+01  0.51100000000E-03 0. -1.
        -11    1    3    3    0    0 -0.50349881934E+01 -0.26835455976E+01 -0.15262388280E+02  0.16293956529E+02  0.51100000000E-03 0.  1.
        -12    1    3    3    0    0 -0.11674413545E+02 -0.16013149537E+02 -0.12362207575E+02  0.23356734914E+02  0.00000000000E+00 0.  1.
</event>
<event>
 7    1  0.5231907E-010  0.4778727E+02  0.7816164E-02  0.1312668E+00
        -11   -1    0    0    0    0  0.00000000000E+00  0.00000000000E+00  0.45593999997E+02  0.45594000000E+02  0.51100000000E-03 0.  1.
         11   -1    0    0    0    0 -0.00000000000E+00 -0.00000000000E+00 -0.45593999997E+02  0.45594000000E+02  0.51100000000E-03 0. -1.
    9900012    2    1    2    0    0  0.33496819089E+02 -0.26159052588E+02 -0.87914828521E+01  0.47787273138E+02  0.20000009546E+02 0.  0.
         12    1    1    2    0    0 -0.33496819089E+02  0.26159052588E+02  0.87914828521E+01  0.43400726862E+02  0.00000000000E+00 0. -1.
         11    1    3    3    0    0  0.13652718335E+02 -0.19883958975E+02 -0.79990512801E+01  0.25411677711E+02  0.51100000000E-03 0. -1.
        -11    1    3    3    0    0  0.15874055194E+02 -0.82086153443E+01  0.96767468032E-01  0.17871104006E+02  0.51100000000E-03 0.  1.
         12    1    3    3    0    0  0.39700455599E+01  0.19335217309E+01 -0.88919904007E+00  0.45044914213E+01  0.00000000000E+00 0. -1.
</event>
<event>
 7    1  0.4937359E-010  0.4778727E+02  0.7816164E-02  0.1312668E+00
        -11   -1    0    0    0    0  0.00000000000E+00  0.00000000000E+00  0.45593999997E+02  0.45594000000E+02  0.51100000000E-03 0.  1.
         11   -1    0    0    0    0 -0.00000000000E+00 -0.00000000000E+00 -0.45593999997E+02  0.45594000000E+02  0.51100000000E-03 0. -1.
    9900012    2    1    2    0    0 -0.13437855085E+02 -0.99743780050E+00  0.41255938113E+02  0.47787271192E+02  0.20000000673E+02 0.  0.
         12    1    1    2    0    0  0.13437855085E+02  0.99743780050E+00 -0.41255938113E+02  0.43400728808E+02  0.00000000000E+00 0. -1.
         11    1    3    3    0    0  0.18510370682E+01 -0.38627565427E+01  0.27074239362E+01  0.50672843780E+01  0.51100000000E-03 0. -1.
        -11    1    3    3    0    0 -0.80377192779E+01  0.25042260813E+01  0.31483300886E+02  0.32589481653E+02  0.51100000000E-03 0.  1.
         12    1    3    3    0    0 -0.72511728751E+01  0.36109266085E+00  0.70652132913E+01  0.10130505161E+02  0.00000000000E+00 0. -1.
</event>
<event>
 7    1  0.4937359E-010  0.4778726E+02  0.7816164E-02  0.1312668E+00
        -11   -1    0    0    0    0  0.00000000000E+00  0.00000000000E+00  0.45593999997E+02  0.45594000000E+02  0.51100000000E-03 0.  1.
         11   -1    0    0    0    0 -0.00000000000E+00 -0.00000000000E+00 -0.45593999997E+02  0.45594000000E+02  0.51100000000E-03 0. -1.
    9900012    2    1    2    0    0 -0.30893690076E+02 -0.25013724221E+02  0.17421749100E+02  0.47787264665E+02  0.19999970913E+02 0.  0.
         12    1    1    2    0    0  0.30893690076E+02  0.25013724221E+02 -0.17421749100E+02  0.43400735335E+02  0.00000000000E+00 0. -1.
         11    1    3    3    0    0 -0.50585630003E+01 -0.86913462516E+01  0.97484459468E+01  0.14005740178E+02  0.51100000000E-03 0. -1.
        -11    1    3    3    0    0 -0.25272656793E+02 -0.15803623289E+02  0.99149667693E+01  0.31412867694E+02  0.51100000000E-03 0.  1.
        -12    1    3    3    0    0 -0.56247028260E+00 -0.51875468082E+00 -0.22416636158E+01  0.23686567933E+01  0.00000000000E+00 0.  1.
</event>
<event>
 7    1  0.4937359E-010  0.4778728E+02  0.7816164E-02  0.1312668E+00
        -11   -1    0    0    0    0  0.00000000000E+00  0.00000000000E+00  0.45593999997E+02  0.45594000000E+02  0.51100000000E-03 0. -1.
         11   -1    0    0    0    0 -0.00000000000E+00 -0.00000000000E+00 -0.45593999997E+02  0.45594000000E+02  0.51100000000E-03 0.  1.
    9900012    2    1    2    0    0  0.84670346207E+01  0.10636750832E+02 -0.41216401200E+02  0.47787275681E+02  0.20000021138E+02 0.  0.
         12    1    1    2    0    0 -0.84670346207E+01 -0.10636750832E+02  0.41216401200E+02  0.43400724319E+02  0.00000000000E+00 0. -1.
         11    1    3    3    0    0  0.17126553487E+01 -0.12978245076E+01 -0.20523618005E+00  0.21586243181E+01  0.51100000000E-03 0. -1.
        -11    1    3    3    0    0  0.20879238453E+01  0.89466716700E+01 -0.38435484981E+02  0.39518209296E+02  0.51100000000E-03 0.  1.
        -12    1    3    3    0    0  0.46664554267E+01  0.29879036695E+01 -0.25756800394E+01  0.61104420668E+01  0.00000000000E+00 0.  1.
</event>
<event>
 7    1  0.4937359E-010  0.4778727E+02  0.7816164E-02  0.1312668E+00
        -11   -1    0    0    0    0  0.00000000000E+00  0.00000000000E+00  0.45593999997E+02  0.45594000000E+02  0.51100000000E-03 0.  1.
         11   -1    0    0    0    0 -0.00000000000E+00 -0.00000000000E+00 -0.45593999997E+02  0.45594000000E+02  0.51100000000E-03 0. -1.
    9900012    2    1    2    0    0 -0.97087217164E+01 -0.39848703307E+02  0.14193133410E+02  0.47787268801E+02  0.19999989771E+02 0.  0.
         12    1    1    2    0    0  0.97087217164E+01  0.39848703307E+02 -0.14193133410E+02  0.43400731199E+02  0.00000000000E+00 0. -1.
         11    1    3    3    0    0  0.30290744440E+01 -0.18902613359E+01  0.55935937399E+01  0.66360131927E+01  0.51100000000E-03 0. -1.
        -11    1    3    3    0    0 -0.91503530892E+01 -0.27819677774E+02  0.80977840428E+01  0.30384824169E+02  0.51100000000E-03 0.  1.
        -12    1    3    3    0    0 -0.35874430711E+01 -0.10138764197E+02  0.50175562772E+00  0.10766431439E+02  0.00000000000E+00 0.  1.
</event>
<event>
 7    1  0.4937359E-010  0.4778727E+02  0.7816164E-02  0.1312668E+00
        -11   -1    0    0    0    0  0.00000000000E+00  0.00000000000E+00  0.45593999997E+02  0.45594000000E+02  0.51100000000E-03 0. -1.
         11   -1    0    0    0    0 -0.00000000000E+00 -0.00000000000E+00 -0.45593999997E+02  0.45594000000E+02  0.51100000000E-03 0.  1.
    9900012    2    1    2    0    0 -0.38829847819E+02 -0.12764475827E+02 -0.14592271631E+02  0.47787270558E+02  0.19999997780E+02 0.  0.
         12    1    1    2    0    0  0.38829847819E+02  0.12764475827E+02  0.14592271631E+02  0.43400729442E+02  0.00000000000E+00 0. -1.
         11    1    3    3    0    0 -0.12852439360E+02 -0.17476978727E+01  0.21727332005E+01  0.13151441562E+02  0.51100000000E-03 0. -1.
        -11    1    3    3    0    0 -0.94326178678E+01 -0.80293449697E+01 -0.11794217724E+02  0.17104041407E+02  0.51100000000E-03 0.  1.
        -12    1    3    3    0    0 -0.16544790591E+02 -0.29874329848E+01 -0.49707871076E+01  0.17531787588E+02  0.00000000000E+00 0.  1.
</event>
<event>
 7    1  0.4937359E-010  0.4778727E+02  0.7816164E-02  0.1312668E+00
        -11   -1    0    0    0    0  0.00000000000E+00  0.00000000000E+00  0.45593999997E+02  0.45594000000E+02  0.51100000000E-03 0.  1.
         11   -1    0    0    0    0 -0.00000000000E+00 -0.00000000000E+00 -0.45593999997E+02  0.45594000000E+02  0.51100000000E-03 0. -1.
    9900012    2    1    2    0    0  0.32996524236E+02 -0.30704354401E+01  0.28025435279E+02  0.47787271804E+02  0.20000003461E+02 0.  0.
         12    1    1    2    0    0 -0.32996524236E+02  0.30704354401E+01 -0.28025435279E+02  0.43400728196E+02  0.00000000000E+00 0. -1.
         11    1    3    3    0    0  0.14262452522E+02  0.49248133132E+01  0.18370876184E+02  0.23773103082E+02  0.51100000000E-03 0. -1.
        -11    1    3    3    0    0  0.18611695435E+02 -0.54733774875E+01  0.79377762258E+01  0.20960948446E+02  0.51100000000E-03 0.  1.
         12    1    3    3    0    0  0.12237627893E+00 -0.25218712657E+01  0.17167828689E+01  0.30532202760E+01  0.00000000000E+00 0. -1.
</event>
<event>
 7    1  0.4937359E-010  0.4778726E+02  0.7816164E-02  0.1312668E+00
        -11   -1    0    0    0    0  0.00000000000E+00  0.00000000000E+00  0.45593999997E+02  0.45594000000E+02  0.51100000000E-03 0.  1.
         11   -1    0    0    0    0 -0.00000000000E+00 -0.00000000000E+00 -0.45593999997E+02  0.45594000000E+02  0.51100000000E-03 0. -1.
    9900012    2    1    2    0    0  0.20853787785E+02  0.39940043687E+01  0.37852231946E+02  0.47787262689E+02  0.19999961902E+02 0.  0.
         12    1    1    2    0    0 -0.20853787785E+02 -0.39940043687E+01 -0.37852231946E+02  0.43400737311E+02  0.00000000000E+00 0. -1.
         11    1    3    3    0    0  0.34409749062E+01  0.70817153704E+01  0.70932830077E+01  0.10597436717E+02  0.51100000000E-03 0. -1.
        -11    1    3    3    0    0  0.11864003080E+02 -0.57849750381E+01  0.26758131578E+02  0.29836523106E+02  0.51100000000E-03 0.  1.
        -12    1    3    3    0    0  0.55488097991E+01  0.26972640364E+01  0.40008173603E+01  0.73533028646E+01  0.00000000000E+00 0.  1.
</event>
<event>
 7    1  0.4937359E-010  0.4778727E+02  0.7816164E-02  0.1312668E+00
        -11   -1    0    0    0    0  0.00000000000E+00  0.00000000000E+00  0.45593999997E+02  0.45594000000E+02  0.51100000000E-03 0.  1.
         11   -1    0    0    0    0 -0.00000000000E+00 -0.00000000000E+00 -0.45593999997E+02  0.45594000000E+02  0.51100000000E-03 0. -1.
    9900012    2    1    2    0    0 -0.13820533008E+02  0.24057649197E+02  0.33374326869E+02  0.47787270611E+02  0.19999998025E+02 0.  0.
         12    1    1    2    0    0  0.13820533008E+02 -0.24057649197E+02 -0.33374326869E+02  0.43400729389E+02  0.00000000000E+00 0. -1.
         11    1    3    3    0    0 -0.13902121617E+02  0.16091933272E+02  0.11723919728E+02  0.24283113390E+02  0.51100000000E-03 0. -1.
        -11    1    3    3    0    0  0.21001446360E+01  0.22603678069E+01  0.78823835592E+01  0.84647410445E+01  0.51100000000E-03 0.  1.
         12    1    3    3    0    0 -0.20185560270E+01  0.57053481185E+01  0.13768023582E+02  0.15039416176E+02  0.00000000000E+00 0. -1.
</event>
<event>
 7    1  0.4937359E-010  0.4778727E+02  0.7816164E-02  0.1312668E+00
        -11   -1    0    0    0    0  0.00000000000E+00  0.00000000000E+00  0.45593999997E+02  0.45594000000E+02  0.51100000000E-03 0.  1.
         11   -1    0    0    0    0 -0.00000000000E+00 -0.00000000000E+00 -0.45593999997E+02  0.45594000000E+02  0.51100000000E-03 0. -1.
    9900012    2    1    2    0    0  0.62107427518E+01 -0.69101153712E+01  0.42394578127E+02  0.47787271037E+02  0.19999999965E+02 0.  0.
         12    1    1    2    0    0 -0.62107427518E+01  0.69101153712E+01 -0.42394578127E+02  0.43400728963E+02  0.00000000000E+00 0. -1.
         11    1    3    3    0    0 -0.56793020336E+01 -0.39937632956E+01  0.24441171401E+02  0.25408177356E+02  0.51100000000E-03 0. -1.
        -11    1    3    3    0    0  0.99661130912E+01 -0.43572443887E+01  0.15579318671E+02  0.19000635761E+02  0.51100000000E-03 0.  1.
         12    1    3    3    0    0  0.19239316941E+01  0.14408923131E+01  0.23740880547E+01  0.33784579194E+01  0.00000000000E+00 0. -1.
</event>
<event>
 7    1  0.4937359E-010  0.4778727E+02  0.7816164E-02  0.1312668E+00
        -11   -1    0    0    0    0  0.00000000000E+00  0.00000000000E+00  0.45593999997E+02  0.45594000000E+02  0.51100000000E-03 0.  1.
         11   -1    0    0    0    0 -0.00000000000E+00 -0.00000000000E+00 -0.45593999997E+02  0.45594000000E+02  0.51100000000E-03 0. -1.
    9900012    2    1    2    0    0 -0.15039884418E+02 -0.21121283498E+02  0.34803978121E+02  0.47787266907E+02  0.19999981137E+02 0.  0.
         12    1    1    2    0    0  0.15039884418E+02  0.21121283498E+02 -0.34803978121E+02  0.43400733093E+02  0.00000000000E+00 0. -1.
         11    1    3    3    0    0 -0.87753050753E+01 -0.12908370458E+01  0.11240218653E+02  0.14318336323E+02  0.51100000000E-03 0. -1.
        -11    1    3    3    0    0 -0.11315944611E+01 -0.16290675576E+02  0.21291280150E+02  0.26832540458E+02  0.51100000000E-03 0.  1.
        -12    1    3    3    0    0 -0.51329848813E+01 -0.35397708770E+01  0.22724793190E+01  0.66363901263E+01  0.00000000000E+00 0.  1.
</event>
<event>
 7    1  0.5822030E-010  0.4778727E+02  0.7816164E-02  0.1312668E+00
        -11   -1    0    0    0    0  0.00000000000E+00  0.00000000000E+00  0.45593999997E+02  0.45594000000E+02  0.51100000000E-03 0. -1.
         11   -1    0    0    0    0 -0.00000000000E+00 -0.00000000000E+00 -0.45593999997E+02  0.45594000000E+02  0.51100000000E-03 0.  1.
    9900012    2    1    2    0    0 -0.32140641280E+02  0.29123606836E+01 -0.29019308700E+02  0.47787274844E+02  0.20000017323E+02 0.  0.
         12    1    1    2    0    0  0.32140641280E+02 -0.29123606836E+01  0.29019308700E+02  0.43400725156E+02  0.00000000000E+00 0. -1.
         11    1    3    3    0    0 -0.18011712068E+02  0.63541615568E+01 -0.16384171017E+02  0.25164224623E+02  0.51100000000E-03 0. -1.
        -11    1    3    3    0    0 -0.13738488594E+02 -0.54057671520E+01 -0.64306928348E+01  0.16103484031E+02  0.51100000000E-03 0.  1.
         12    1    3    3    0    0 -0.39044061825E+00  0.19639662788E+01 -0.62044448484E+01  0.65195661893E+01  0.00000000000E+00 0. -1.
</event>
<event>
 7    1  0.4937359E-010  0.4778727E+02  0.7816164E-02  0.1312668E+00
        -11   -1    0    0    0    0  0.00000000000E+00  0.00000000000E+00  0.45593999997E+02  0.45594000000E+02  0.51100000000E-03 0.  1.
         11   -1    0    0    0    0 -0.00000000000E+00 -0.00000000000E+00 -0.45593999997E+02  0.45594000000E+02  0.51100000000E-03 0. -1.
    9900012    2    1    2    0    0 -0.37067332460E+02  0.18381798713E+02  0.13105175500E+02  0.47787270922E+02  0.19999999441E+02 0.  0.
         12    1    1    2    0    0  0.37067332460E+02 -0.18381798713E+02 -0.13105175500E+02  0.43400729078E+02  0.00000000000E+00 0. -1.
         11    1    3    3    0    0 -0.17533288228E+02  0.35110300287E+00  0.60086866027E+01  0.18537631573E+02  0.51100000000E-03 0. -1.
        -11    1    3    3    0    0 -0.16273605914E+02  0.12884899553E+02  0.12315557631E+01  0.20793451272E+02  0.51100000000E-03 0.  1.
         12    1    3    3    0    0 -0.32604383184E+01  0.51457961565E+01  0.58649331344E+01  0.84561880764E+01  0.00000000000E+00 0. -1.
</event>
<event>
 7    1  0.4937359E-010  0.4778727E+02  0.7816164E-02  0.1312668E+00
        -11   -1    0    0    0    0  0.00000000000E+00  0.00000000000E+00  0.45593999997E+02  0.45594000000E+02  0.51100000000E-03 0.  1.
         11   -1    0    0    0    0 -0.00000000000E+00 -0.00000000000E+00 -0.45593999997E+02  0.45594000000E+02  0.51100000000E-03 0. -1.
    9900012    2    1    2    0    0 -0.23320659495E+01  0.42916886970E+02  0.60271056855E+01  0.47787265885E+02  0.19999976474E+02 0.  0.
         12    1    1    2    0    0  0.23320659495E+01 -0.42916886970E+02 -0.60271056855E+01  0.43400734115E+02  0.00000000000E+00 0. -1.
         11    1    3    3    0    0  0.56478653253E+01  0.10444212710E+02 -0.16861189819E+01  0.11992621037E+02  0.51100000000E-03 0. -1.
        -11    1    3    3    0    0 -0.72718827998E+01  0.12201810307E+02  0.60635239960E+01  0.15444441645E+02  0.51100000000E-03 0.  1.
        -12    1    3    3    0    0 -0.70804847498E+00  0.20270863954E+02  0.16497006715E+01  0.20350203202E+02  0.00000000000E+00 0.  1.
</event>
<event>
 7    1  0.4937359E-010  0.4778727E+02  0.7816164E-02  0.1312668E+00
        -11   -1    0    0    0    0  0.00000000000E+00  0.00000000000E+00  0.45593999997E+02  0.45594000000E+02  0.51100000000E-03 0. -1.
         11   -1    0    0    0    0 -0.00000000000E+00 -0.00000000000E+00 -0.45593999997E+02  0.45594000000E+02  0.51100000000E-03 0.  1.
    9900012    2    1    2    0    0 -0.57044266307E+01 -0.42997827851E+02 -0.15065098765E+01  0.47787271260E+02  0.20000000985E+02 0.  0.
         12    1    1    2    0    0  0.57044266307E+01  0.42997827851E+02  0.15065098765E+01  0.43400728740E+02  0.00000000000E+00 0. -1.
         11    1    3    3    0    0  0.26867635317E+01 -0.27194440937E+02 -0.45789128706E+01  0.27707810442E+02  0.51100000000E-03 0. -1.
        -11    1    3    3    0    0 -0.18752794861E+01  0.72359980278E+00 -0.18376513402E+00  0.20184250571E+01  0.51100000000E-03 0.  1.
         12    1    3    3    0    0 -0.65159106762E+01 -0.16526986717E+02  0.32561681282E+01  0.18061035761E+02  0.00000000000E+00 0. -1.
</event>
<event>
 7    1  0.4937359E-010  0.4778727E+02  0.7816164E-02  0.1312668E+00
        -11   -1    0    0    0    0  0.00000000000E+00  0.00000000000E+00  0.45593999997E+02  0.45594000000E+02  0.51100000000E-03 0.  1.
         11   -1    0    0    0    0 -0.00000000000E+00 -0.00000000000E+00 -0.45593999997E+02  0.45594000000E+02  0.51100000000E-03 0. -1.
    9900012    2    1    2    0    0 -0.16876218491E+02 -0.32146199813E+02  0.23778946539E+02  0.47787271763E+02  0.20000003278E+02 0.  0.
         12    1    1    2    0    0  0.16876218491E+02  0.32146199813E+02 -0.23778946539E+02  0.43400728237E+02  0.00000000000E+00 0. -1.
         11    1    3    3    0    0  0.20706172559E+01 -0.18749275097E+01 -0.22468096413E+00  0.28023723493E+01  0.51100000000E-03 0. -1.
        -11    1    3    3    0    0 -0.13446444886E+02 -0.10210018309E+02  0.13850048800E+02  0.21837472517E+02  0.51100000000E-03 0.  1.
        -12    1    3    3    0    0 -0.55003908611E+01 -0.20061253994E+02  0.10153578704E+02  0.23147426897E+02  0.00000000000E+00 0.  1.
</event>
<event>
 7    1  0.4937359E-010  0.4778728E+02  0.7816164E-02  0.1312668E+00
        -11   -1    0    0    0    0  0.00000000000E+00  0.00000000000E+00  0.45593999997E+02  0.45594000000E+02  0.51100000000E-03 0. -1.
         11   -1    0    0    0    0 -0.00000000000E+00 -0.00000000000E+00 -0.45593999997E+02  0.45594000000E+02  0.51100000000E-03 0.  1.
    9900012    2    1    2    0    0  0.65108940692E+01 -0.32533381291E+02 -0.27978733955E+02  0.47787283490E+02  0.20000056746E+02 0.  0.
         12    1    1    2    0    0 -0.65108940692E+01  0.32533381291E+02  0.27978733955E+02  0.43400716510E+02  0.00000000000E+00 0. -1.
         11    1    3    3    0    0 -0.12821019550E+01  0.11121498176E+01 -0.50537138490E+01  0.53311055672E+01  0.51100000000E-03 0. -1.
        -11    1    3    3    0    0  0.74152747025E+01 -0.22301500226E+02 -0.19673076486E+02  0.30649194931E+02  0.51100000000E-03 0.  1.
        -12    1    3    3    0    0  0.37772132160E+00 -0.11344030883E+02 -0.32519436201E+01  0.11806982992E+02  0.00000000000E+00 0.  1.
</event>
<event>
 7    1  0.5673696E-010  0.4778728E+02  0.7816164E-02  0.1312668E+00
        -11   -1    0    0    0    0  0.00000000000E+00  0.00000000000E+00  0.45593999997E+02  0.45594000000E+02  0.51100000000E-03 0.  1.
         11   -1    0    0    0    0 -0.00000000000E+00 -0.00000000000E+00 -0.45593999997E+02  0.45594000000E+02  0.51100000000E-03 0. -1.
    9900012    2    1    2    0    0 -0.95831617425E+01  0.37904990410E+02  0.18841369948E+02  0.47787279862E+02  0.20000040202E+02 0.  0.
         12    1    1    2    0    0  0.95831617425E+01 -0.37904990410E+02 -0.18841369948E+02  0.43400720138E+02  0.00000000000E+00 0. -1.
         11    1    3    3    0    0 -0.24550086621E+01  0.73446319864E+00 -0.17598106466E+01  0.31086070022E+01  0.51100000000E-03 0. -1.
        -11    1    3    3    0    0 -0.10094985524E+02  0.32242134061E+02  0.16401406709E+02  0.37556225634E+02  0.51100000000E-03 0.  1.
        -12    1    3    3    0    0  0.29668324435E+01  0.49283931503E+01  0.41997738864E+01  0.71224472261E+01  0.00000000000E+00 0.  1.
</event>
<event>
 7    1  0.4937359E-010  0.4778727E+02  0.7816164E-02  0.1312668E+00
        -11   -1    0    0    0    0  0.00000000000E+00  0.00000000000E+00  0.45593999997E+02  0.45594000000E+02  0.51100000000E-03 0.  1.
         11   -1    0    0    0    0 -0.00000000000E+00 -0.00000000000E+00 -0.45593999997E+02  0.45594000000E+02  0.51100000000E-03 0. -1.
    9900012    2    1    2    0    0 -0.27473098440E+01 -0.41596241407E+02 -0.12075935437E+02  0.47787271582E+02  0.20000002451E+02 0.  0.
         12    1    1    2    0    0  0.27473098440E+01  0.41596241407E+02  0.12075935437E+02  0.43400728418E+02  0.00000000000E+00 0. -1.
         11    1    3    3    0    0 -0.52799857827E+01 -0.88074668343E+01 -0.79665921630E+01  0.12996780865E+02  0.51100000000E-03 0. -1.
        -11    1    3    3    0    0  0.45407456769E+01 -0.28280611786E+02 -0.44948253606E+00  0.28646350712E+02  0.51100000000E-03 0.  1.
        -12    1    3    3    0    0 -0.20080697383E+01 -0.45081627867E+01 -0.36598607378E+01  0.61441400053E+01  0.00000000000E+00 0.  1.
</event>
<event>
 7    1  0.4937359E-010  0.4778727E+02  0.7816164E-02  0.1312668E+00
        -11   -1    0    0    0    0  0.00000000000E+00  0.00000000000E+00  0.45593999997E+02  0.45594000000E+02  0.51100000000E-03 0.  1.
         11   -1    0    0    0    0 -0.00000000000E+00 -0.00000000000E+00 -0.45593999997E+02  0.45594000000E+02  0.51100000000E-03 0. -1.
    9900012    2    1    2    0    0 -0.57635257491E+01  0.42305238601E+02  0.77891976968E+01  0.47787273705E+02  0.20000012132E+02 0.  0.
         12    1    1    2    0    0  0.57635257491E+01 -0.42305238601E+02 -0.77891976968E+01  0.43400726295E+02  0.00000000000E+00 0. -1.
         11    1    3    3    0    0 -0.69360860222E+01  0.29965326193E+01  0.16675949297E+01  0.77375299778E+01  0.51100000000E-03 0. -1.
        -11    1    3    3    0    0  0.82055755976E-01  0.22500146023E+02  0.56519166707E+01  0.23199298837E+02  0.51100000000E-03 0.  1.
         12    1    3    3    0    0  0.10905045172E+01  0.16808559958E+02  0.46968609636E+00  0.16850444890E+02  0.00000000000E+00 0. -1.
</event>
<event>
 7    1  0.4937359E-010  0.4778727E+02  0.7816164E-02  0.1312668E+00
        -11   -1    0    0    0    0  0.00000000000E+00  0.00000000000E+00  0.45593999997E+02  0.45594000000E+02  0.51100000000E-03 0.  1.
         11   -1    0    0    0    0 -0.00000000000E+00 -0.00000000000E+00 -0.45593999997E+02  0.45594000000E+02  0.51100000000E-03 0. -1.
    9900012    2    1    2    0    0 -0.15343419394E+02  0.35332653160E+02  0.19995157135E+02  0.47787271817E+02  0.20000003521E+02 0.  0.
         12    1    1    2    0    0  0.15343419394E+02 -0.35332653160E+02 -0.19995157135E+02  0.43400728183E+02  0.00000000000E+00 0. -1.
         11    1    3    3    0    0 -0.13052241443E+02  0.13089171906E+02  0.33040633069E+01  0.18777759783E+02  0.51100000000E-03 0. -1.
        -11    1    3    3    0    0  0.21466482835E+01  0.14976492636E+02  0.95048008531E+01  0.17867419233E+02  0.51100000000E-03 0.  1.
        -12    1    3    3    0    0 -0.44378262344E+01  0.72669886179E+01  0.71862929753E+01  0.11142092801E+02  0.00000000000E+00 0.  1.
</event>
<event>
 7    1  0.4937359E-010  0.4778727E+02  0.7816164E-02  0.1312668E+00
        -11   -1    0    0    0    0  0.00000000000E+00  0.00000000000E+00  0.45593999997E+02  0.45594000000E+02  0.51100000000E-03 0. -1.
         11   -1    0    0    0    0 -0.00000000000E+00 -0.00000000000E+00 -0.45593999997E+02  0.45594000000E+02  0.51100000000E-03 0.  1.
    9900012    2    1    2    0    0  0.18189498833E+02 -0.73845914445E+01 -0.38707016519E+02  0.47787272052E+02  0.20000004596E+02 0.  0.
         12    1    1    2    0    0 -0.18189498833E+02  0.73845914445E+01  0.38707016519E+02  0.43400727948E+02  0.00000000000E+00 0. -1.
         11    1    3    3    0    0  0.16670643689E+02 -0.65107718304E+01 -0.28461733902E+02  0.33620987609E+02  0.51100000000E-03 0. -1.
        -11    1    3    3    0    0  0.54259820707E+01 -0.17001320429E+01 -0.70134582111E+01  0.90288607662E+01  0.51100000000E-03 0.  1.
         12    1    3    3    0    0 -0.39071269265E+01  0.82631242889E+00 -0.32318244052E+01  0.51374236769E+01  0.00000000000E+00 0. -1.
</event>
<event>
 7    1  0.4937359E-010  0.4778727E+02  0.7816164E-02  0.1312668E+00
        -11   -1    0    0    0    0  0.00000000000E+00  0.00000000000E+00  0.45593999997E+02  0.45594000000E+02  0.51100000000E-03 0.  1.
         11   -1    0    0    0    0 -0.00000000000E+00 -0.00000000000E+00 -0.45593999997E+02  0.45594000000E+02  0.51100000000E-03 0. -1.
    9900012    2    1    2    0    0  0.45560772369E+01 -0.28983229244E+02  0.31981831277E+02  0.47787274787E+02  0.20000017062E+02 0.  0.
         12    1    1    2    0    0 -0.45560772369E+01  0.28983229244E+02 -0.31981831277E+02  0.43400725213E+02  0.00000000000E+00 0. -1.
         11    1    3    3    0    0  0.71959885128E+01 -0.70998692761E+01  0.17390043058E+01  0.10257413448E+02  0.51100000000E-03 0.  1.
        -11    1    3    3    0    0 -0.21350530659E+01 -0.15400462949E+02  0.23361159299E+02  0.28062011238E+02  0.51100000000E-03 0. -1.
        -12    1    3    3    0    0 -0.50485821000E+00 -0.64828970198E+01  0.68816676718E+01  0.94678501005E+01  0.00000000000E+00 0.  1.
</event>
<event>
 7    1  0.6241646E-010  0.4778727E+02  0.7816164E-02  0.1312668E+00
        -11   -1    0    0    0    0  0.00000000000E+00  0.00000000000E+00  0.45593999997E+02  0.45594000000E+02  0.51100000000E-03 0.  1.
         11   -1    0    0    0    0 -0.00000000000E+00 -0.00000000000E+00 -0.45593999997E+02  0.45594000000E+02  0.51100000000E-03 0. -1.
    9900012    2    1    2    0    0  0.37296097106E+02 -0.20440347531E+02 -0.86496721688E+01  0.47787268495E+02  0.19999988376E+02 0.  0.
         12    1    1    2    0    0 -0.37296097106E+02  0.20440347531E+02  0.86496721688E+01  0.43400731505E+02  0.00000000000E+00 0. -1.
         11    1    3    3    0    0  0.75618793211E-01  0.10998308084E+01 -0.23347650478E+01  0.25819516065E+01  0.51100000000E-03 0. -1.
        -11    1    3    3    0    0  0.25619780585E+02 -0.13907503493E+02  0.16480497836E+01  0.29197737566E+02  0.51100000000E-03 0.  1.
        -12    1    3    3    0    0  0.11600697728E+02 -0.76326748469E+01 -0.79629569047E+01  0.16007579322E+02  0.00000000000E+00 0.  1.
</event>
<event>
 7    1  0.4937359E-010  0.4778727E+02  0.7816164E-02  0.1312668E+00
        -11   -1    0    0    0    0  0.00000000000E+00  0.00000000000E+00  0.45593999997E+02  0.45594000000E+02  0.51100000000E-03 0.  1.
         11   -1    0    0    0    0 -0.00000000000E+00 -0.00000000000E+00 -0.45593999997E+02  0.45594000000E+02  0.51100000000E-03 0. -1.
    9900012    2    1    2    0    0 -0.20680201754E+02 -0.48625671255E+01  0.37845845514E+02  0.47787270441E+02  0.19999997247E+02 0.  0.
         12    1    1    2    0    0  0.20680201754E+02  0.48625671255E+01 -0.37845845514E+02  0.43400729559E+02  0.00000000000E+00 0. -1.
         11    1    3    3    0    0 -0.70855622794E+01 -0.75568096321E+01  0.17705895199E+02  0.20513636677E+02  0.51100000000E-03 0. -1.
        -11    1    3    3    0    0 -0.12193347384E+02  0.22186567708E+01  0.73722820942E+01  0.14420495894E+02  0.51100000000E-03 0.  1.
         12    1    3    3    0    0 -0.14012920906E+01  0.47558573586E+00  0.12767668220E+02  0.12853137870E+02  0.00000000000E+00 0. -1.
</event>
<event>
 7    1  0.4937359E-010  0.4778723E+02  0.7816164E-02  0.1312668E+00
        -11   -1    0    0    0    0  0.00000000000E+00  0.00000000000E+00  0.45593999997E+02  0.45594000000E+02  0.51100000000E-03 0. -1.
         11   -1    0    0    0    0 -0.00000000000E+00 -0.00000000000E+00 -0.45593999997E+02  0.45594000000E+02  0.51100000000E-03 0.  1.
    9900012    2    1    2    0    0  0.18755347279E+02 -0.25848194221E+02 -0.29389362886E+02  0.47787229881E+02  0.19999812320E+02 0.  0.
         12    1    1    2    0    0 -0.18755347279E+02  0.25848194221E+02  0.29389362886E+02  0.43400770119E+02  0.00000000000E+00 0. -1.
         11    1    3    3    0    0  0.71609122764E+00 -0.11250062053E+02 -0.14564612102E+02  0.18417508214E+02  0.51100000000E-03 0. -1.
        -11    1    3    3    0    0  0.18186535698E+02 -0.15830248716E+02 -0.14169968809E+02  0.27966674300E+02  0.51100000000E-03 0.  1.
        -12    1    3    3    0    0 -0.14727964591E+00  0.12321165480E+01 -0.65478197453E+00  0.14030473677E+01  0.00000000000E+00 0.  1.
</event>
<event>
 7    1  0.4937359E-010  0.4778727E+02  0.7816164E-02  0.1312668E+00
        -11   -1    0    0    0    0  0.00000000000E+00  0.00000000000E+00  0.45593999997E+02  0.45594000000E+02  0.51100000000E-03 0. -1.
         11   -1    0    0    0    0 -0.00000000000E+00 -0.00000000000E+00 -0.45593999997E+02  0.45594000000E+02  0.51100000000E-03 0.  1.
    9900012    2    1    2    0    0  0.27834099292E+02 -0.20240937603E+02 -0.26442221208E+02  0.47787266125E+02  0.19999977571E+02 0.  0.
         12    1    1    2    0    0 -0.27834099292E+02  0.20240937603E+02  0.26442221208E+02  0.43400733875E+02  0.00000000000E+00 0. -1.
         11    1    3    3    0    0  0.94747896605E+01 -0.49979125669E+01 -0.34085855117E+01  0.11241406700E+02  0.51100000000E-03 0. -1.
        -11    1    3    3    0    0 -0.11298988099E+01  0.20270396803E+01 -0.21933229138E+01  0.31931531205E+01  0.51100000000E-03 0.  1.
        -12    1    3    3    0    0  0.19489208442E+02 -0.17270064716E+02 -0.20840312783E+02  0.33352706305E+02  0.00000000000E+00 0.  1.
</event>
<event>
 7    1  0.4937359E-010  0.4778727E+02  0.7816164E-02  0.1312668E+00
        -11   -1    0    0    0    0  0.00000000000E+00  0.00000000000E+00  0.45593999997E+02  0.45594000000E+02  0.51100000000E-03 0.  1.
         11   -1    0    0    0    0 -0.00000000000E+00 -0.00000000000E+00 -0.45593999997E+02  0.45594000000E+02  0.51100000000E-03 0. -1.
    9900012    2    1    2    0    0 -0.28199129301E+02 -0.21427802445E+02  0.25085495526E+02  0.47787266173E+02  0.19999977788E+02 0.  0.
         12    1    1    2    0    0  0.28199129301E+02  0.21427802445E+02 -0.25085495526E+02  0.43400733827E+02  0.00000000000E+00 0. -1.
         11    1    3    3    0    0 -0.19343820011E+01 -0.22304138630E+01 -0.18458056425E+01  0.34818929417E+01  0.51100000000E-03 0. -1.
        -11    1    3    3    0    0 -0.23595363133E+02 -0.17125913067E+02  0.16853171567E+02  0.33675917982E+02  0.51100000000E-03 0.  1.
        -12    1    3    3    0    0 -0.26693841666E+01 -0.20714755148E+01  0.10078129601E+02  0.10629455249E+02  0.00000000000E+00 0.  1.
</event>
<event>
 7    1  0.4937359E-010  0.4778727E+02  0.7816164E-02  0.1312668E+00
        -11   -1    0    0    0    0  0.00000000000E+00  0.00000000000E+00  0.45593999997E+02  0.45594000000E+02  0.51100000000E-03 0.  1.
         11   -1    0    0    0    0 -0.00000000000E+00 -0.00000000000E+00 -0.45593999997E+02  0.45594000000E+02  0.51100000000E-03 0. -1.
    9900012    2    1    2    0    0  0.94612666976E+01  0.15167689319E+02  0.39548058416E+02  0.47787270844E+02  0.19999999084E+02 0.  0.
         12    1    1    2    0    0 -0.94612666976E+01 -0.15167689319E+02 -0.39548058416E+02  0.43400729156E+02  0.00000000000E+00 0. -1.
         11    1    3    3    0    0  0.34492627127E+01 -0.59286298288E+00  0.91961537331E+00  0.36186451158E+01  0.51100000000E-03 0. -1.
        -11    1    3    3    0    0  0.73788599672E+01  0.17447370695E+02  0.31924117371E+02  0.37121524602E+02  0.51100000000E-03 0.  1.
        -12    1    3    3    0    0 -0.13668559823E+01 -0.16868183926E+01  0.67043256718E+01  0.70471011259E+01  0.00000000000E+00 0.  1.
</event>
<event>
 7    1  0.4937359E-010  0.4778727E+02  0.7816164E-02  0.1312668E+00
        -11   -1    0    0    0    0  0.00000000000E+00  0.00000000000E+00  0.45593999997E+02  0.45594000000E+02  0.51100000000E-03 0.  1.
         11   -1    0    0    0    0 -0.00000000000E+00 -0.00000000000E+00 -0.45593999997E+02  0.45594000000E+02  0.51100000000E-03 0. -1.
    9900012    2    1    2    0    0 -0.27674545416E+01  0.39403680430E+02  0.17980953192E+02  0.47787268281E+02  0.19999987400E+02 0.  0.
         12    1    1    2    0    0  0.27674545416E+01 -0.39403680430E+02 -0.17980953192E+02  0.43400731719E+02  0.00000000000E+00 0. -1.
         11    1    3    3    0    0 -0.23177951061E+01  0.11988711178E+02 -0.26224426901E+01  0.12489138312E+02  0.51100000000E-03 0. -1.
        -11    1    3    3    0    0 -0.42360127427E+01  0.17631948687E+02  0.13912390667E+02  0.22855722102E+02  0.51100000000E-03 0.  1.
         12    1    3    3    0    0  0.37863533072E+01  0.97830205654E+01  0.66910052147E+01  0.12442407867E+02  0.00000000000E+00 0. -1.
</event>
<event>
 7    1  0.4937359E-010  0.4778727E+02  0.7816164E-02  0.1312668E+00
        -11   -1    0    0    0    0  0.00000000000E+00  0.00000000000E+00  0.45593999997E+02  0.45594000000E+02  0.51100000000E-03 0.  1.
         11   -1    0    0    0    0 -0.00000000000E+00 -0.00000000000E+00 -0.45593999997E+02  0.45594000000E+02  0.51100000000E-03 0. -1.
    9900012    2    1    2    0    0  0.31864498301E+02 -0.49268198799E+01  0.29051739608E+02  0.47787269818E+02  0.19999994407E+02 0.  0.
         12    1    1    2    0    0 -0.31864498301E+02  0.49268198799E+01 -0.29051739608E+02  0.43400730182E+02  0.00000000000E+00 0. -1.
         11    1    3    3    0    0  0.12243511487E+02  0.53364735406E+01  0.13821094186E+02  0.19219889909E+02  0.51100000000E-03 0. -1.
        -11    1    3    3    0    0  0.80517520994E+01  0.87412216158E+00  0.47082350501E+01  0.93681523777E+01  0.51100000000E-03 0.  1.
         12    1    3    3    0    0  0.11569234715E+02 -0.11137415582E+02  0.10522410372E+02  0.19199227531E+02  0.00000000000E+00 0. -1.
</event>
<event>
 7    1  0.4937359E-010  0.4778727E+02  0.7816164E-02  0.1312668E+00
        -11   -1    0    0    0    0  0.00000000000E+00  0.00000000000E+00  0.45593999997E+02  0.45594000000E+02  0.51100000000E-03 0. -1.
         11   -1    0    0    0    0 -0.00000000000E+00 -0.00000000000E+00 -0.45593999997E+02  0.45594000000E+02  0.51100000000E-03 0.  1.
    9900012    2    1    2    0    0  0.25897212810E+02  0.24775400047E+02 -0.24477279264E+02  0.47787270986E+02  0.19999999732E+02 0.  0.
         12    1    1    2    0    0 -0.25897212810E+02 -0.24775400047E+02  0.24477279264E+02  0.43400729014E+02  0.00000000000E+00 0. -1.
         11    1    3    3    0    0  0.11414210619E+02  0.18974203465E+02 -0.11521374916E+02  0.24960903056E+02  0.51100000000E-03 0. -1.
        -11    1    3    3    0    0  0.13846927311E+02  0.18185957731E+01 -0.69698695781E+01  0.15608451836E+02  0.51100000000E-03 0.  1.
        -12    1    3    3    0    0  0.63607488054E+00  0.39826008088E+01 -0.59860347702E+01  0.72179160930E+01  0.00000000000E+00 0.  1.
</event>
<event>
 7    1  0.4937359E-010  0.4778727E+02  0.7816164E-02  0.1312668E+00
        -11   -1    0    0    0    0  0.00000000000E+00  0.00000000000E+00  0.45593999997E+02  0.45594000000E+02  0.51100000000E-03 0.  1.
         11   -1    0    0    0    0 -0.00000000000E+00 -0.00000000000E+00 -0.45593999997E+02  0.45594000000E+02  0.51100000000E-03 0. -1.
    9900012    2    1    2    0    0  0.18472941800E+02  0.39191412253E+02  0.25312325365E+01  0.47787268310E+02  0.19999987531E+02 0.  0.
         12    1    1    2    0    0 -0.18472941800E+02 -0.39191412253E+02 -0.25312325365E+01  0.43400731690E+02  0.00000000000E+00 0. -1.
         11    1    3    3    0    0 -0.27427897918E+01  0.68811263627E+01  0.28219474164E+01  0.79269277367E+01  0.51100000000E-03 0. -1.
        -11    1    3    3    0    0  0.14215055723E+02  0.16173984735E+02  0.36364348249E+01  0.21837794072E+02  0.51100000000E-03 0.  1.
         12    1    3    3    0    0  0.70006758689E+01  0.16136301155E+02 -0.39271497048E+01  0.18022546501E+02  0.00000000000E+00 0. -1.
</event>
<event>
 7    1  0.4937359E-010  0.4778725E+02  0.7816164E-02  0.1312668E+00
        -11   -1    0    0    0    0  0.00000000000E+00  0.00000000000E+00  0.45593999997E+02  0.45594000000E+02  0.51100000000E-03 0. -1.
         11   -1    0    0    0    0 -0.00000000000E+00 -0.00000000000E+00 -0.45593999997E+02  0.45594000000E+02  0.51100000000E-03 0.  1.
    9900012    2    1    2    0    0  0.31532222361E+02  0.26883017584E+02 -0.12909188351E+02  0.47787253171E+02  0.19999918506E+02 0.  0.
         12    1    1    2    0    0 -0.31532222361E+02 -0.26883017584E+02  0.12909188351E+02  0.43400746829E+02  0.00000000000E+00 0. -1.
         11    1    3    3    0    0  0.64288212139E+01  0.26985778768E+01  0.25532760666E+01  0.74250443561E+01  0.51100000000E-03 0. -1.
        -11    1    3    3    0    0  0.24750889470E+02  0.21334916761E+02 -0.17279425256E+02  0.36964357701E+02  0.51100000000E-03 0.  1.
        -12    1    3    3    0    0  0.35251167694E+00  0.28495229462E+01  0.18169608387E+01  0.33978511140E+01  0.00000000000E+00 0.  1.
</event>
<event>
 7    1  0.4937359E-010  0.4778727E+02  0.7816164E-02  0.1312668E+00
        -11   -1    0    0    0    0  0.00000000000E+00  0.00000000000E+00  0.45593999997E+02  0.45594000000E+02  0.51100000000E-03 0. -1.
         11   -1    0    0    0    0 -0.00000000000E+00 -0.00000000000E+00 -0.45593999997E+02  0.45594000000E+02  0.51100000000E-03 0.  1.
    9900012    2    1    2    0    0  0.25943784990E+02  0.14258821035E+02 -0.31736874309E+02  0.47787272496E+02  0.20000006621E+02 0.  0.
         12    1    1    2    0    0 -0.25943784990E+02 -0.14258821035E+02  0.31736874309E+02  0.43400727504E+02  0.00000000000E+00 0. -1.
         11    1    3    3    0    0 -0.10644157514E+01 -0.17345818770E+01 -0.52010009536E+01  0.55849947502E+01  0.51100000000E-03 0. -1.
        -11    1    3    3    0    0  0.20664581521E+02  0.78510573140E+01 -0.14955326976E+02  0.26689433033E+02  0.51100000000E-03 0.  1.
        -12    1    3    3    0    0  0.63436192198E+01  0.81423455984E+01 -0.11580546379E+02  0.15512844713E+02  0.00000000000E+00 0.  1.
</event>
<event>
 7    1  0.4937359E-010  0.4778727E+02  0.7816164E-02  0.1312668E+00
        -11   -1    0    0    0    0  0.00000000000E+00  0.00000000000E+00  0.45593999997E+02  0.45594000000E+02  0.51100000000E-03 0.  1.
         11   -1    0    0    0    0 -0.00000000000E+00 -0.00000000000E+00 -0.45593999997E+02  0.45594000000E+02  0.51100000000E-03 0. -1.
    9900012    2    1    2    0    0 -0.33265515814E+02 -0.27864577079E+02 -0.77069999816E+00  0.47787272164E+02  0.20000005106E+02 0.  0.
         12    1    1    2    0    0  0.33265515814E+02  0.27864577079E+02  0.77069999816E+00  0.43400727836E+02  0.00000000000E+00 0. -1.
         11    1    3    3    0    0 -0.28032081806E+02 -0.21546129394E+02  0.59426271496E-01  0.35355859967E+02  0.51100000000E-03 0.  1.
        -11    1    3    3    0    0 -0.32348251117E+01 -0.81742285087E+01 -0.26152764258E+01  0.91717924235E+01  0.51100000000E-03 0. -1.
         12    1    3    3    0    0 -0.19986088965E+01  0.18557808244E+01  0.17851501561E+01  0.32596197737E+01  0.00000000000E+00 0. -1.
</event>
<event>
 7    1  0.4937359E-010  0.4778728E+02  0.7816164E-02  0.1312668E+00
        -11   -1    0    0    0    0  0.00000000000E+00  0.00000000000E+00  0.45593999997E+02  0.45594000000E+02  0.51100000000E-03 0.  1.
         11   -1    0    0    0    0 -0.00000000000E+00 -0.00000000000E+00 -0.45593999997E+02  0.45594000000E+02  0.51100000000E-03 0. -1.
    9900012    2    1    2    0    0  0.34913894917E+02 -0.10043452486E+02  0.23743877342E+02  0.47787277571E+02  0.20000029758E+02 0.  0.
         12    1    1    2    0    0 -0.34913894917E+02  0.10043452486E+02 -0.23743877342E+02  0.43400722429E+02  0.00000000000E+00 0. -1.
         11    1    3    3    0    0  0.29470838723E+01  0.15778384961E+01 -0.28049770459E+01  0.43638027177E+01  0.51100000000E-03 0. -1.
        -11    1    3    3    0    0  0.17594116062E+02 -0.45313431474E+01  0.11960325367E+02  0.21751675197E+02  0.51100000000E-03 0.  1.
         12    1    3    3    0    0  0.14372694983E+02 -0.70899478347E+01  0.14588529021E+02  0.21671799657E+02  0.00000000000E+00 0. -1.
</event>
<event>
 7    1  0.4937359E-010  0.4778728E+02  0.7816164E-02  0.1312668E+00
        -11   -1    0    0    0    0  0.00000000000E+00  0.00000000000E+00  0.45593999997E+02  0.45594000000E+02  0.51100000000E-03 0.  1.
         11   -1    0    0    0    0 -0.00000000000E+00 -0.00000000000E+00 -0.45593999997E+02  0.45594000000E+02  0.51100000000E-03 0. -1.
    9900012    2    1    2    0    0  0.25429114291E+02  0.99141372341E+01  0.33744522765E+02  0.47787276650E+02  0.20000025556E+02 0.  0.
         12    1    1    2    0    0 -0.25429114291E+02 -0.99141372341E+01 -0.33744522765E+02  0.43400723350E+02  0.00000000000E+00 0. -1.
         11    1    3    3    0    0  0.94489848654E+01 -0.22681692217E+01  0.41575997744E+01  0.10569462747E+02  0.51100000000E-03 0. -1.
        -11    1    3    3    0    0  0.96453048892E+01  0.95207998326E+01  0.11175999082E+02  0.17566459279E+02  0.51100000000E-03 0.  1.
         12    1    3    3    0    0  0.63348245366E+01  0.26615066232E+01  0.18410923908E+02  0.19651354624E+02  0.00000000000E+00 0. -1.
</event>
<event>
 7    1  0.4937359E-010  0.4778725E+02  0.7816164E-02  0.1312668E+00
        -11   -1    0    0    0    0  0.00000000000E+00  0.00000000000E+00  0.45593999997E+02  0.45594000000E+02  0.51100000000E-03 0. -1.
         11   -1    0    0    0    0 -0.00000000000E+00 -0.00000000000E+00 -0.45593999997E+02  0.45594000000E+02  0.51100000000E-03 0.  1.
    9900012    2    1    2    0    0 -0.16178245562E+01  0.43325313721E+02  0.19810828041E+01  0.47787252836E+02  0.19999916982E+02 0.  0.
         12    1    1    2    0    0  0.16178245562E+01 -0.43325313721E+02 -0.19810828041E+01  0.43400747164E+02  0.00000000000E+00 0. -1.
         11    1    3    3    0    0  0.37534928009E+01  0.12077278947E+02  0.60367365708E+01  0.14013977439E+02  0.51100000000E-03 0. -1.
        -11    1    3    3    0    0 -0.63853882497E+01  0.78963898677E+01 -0.11864907512E+01  0.10224182931E+02  0.51100000000E-03 0.  1.
        -12    1    3    3    0    0  0.10140708926E+01  0.23351644906E+02 -0.28691630155E+01  0.23549092467E+02  0.00000000000E+00 0.  1.
</event>
<event>
 7    1  0.4937359E-010  0.4778726E+02  0.7816164E-02  0.1312668E+00
        -11   -1    0    0    0    0  0.00000000000E+00  0.00000000000E+00  0.45593999997E+02  0.45594000000E+02  0.51100000000E-03 0.  1.
         11   -1    0    0    0    0 -0.00000000000E+00 -0.00000000000E+00 -0.45593999997E+02  0.45594000000E+02  0.51100000000E-03 0. -1.
    9900012    2    1    2    0    0  0.16361712005E+02 -0.18552916362E+02  0.35661011991E+02  0.47787261510E+02  0.19999956528E+02 0.  0.
         12    1    1    2    0    0 -0.16361712005E+02  0.18552916362E+02 -0.35661011991E+02  0.43400738490E+02  0.00000000000E+00 0. -1.
         11    1    3    3    0    0  0.16807770704E+02 -0.63024040329E+01  0.23626083387E+02  0.29671758780E+02  0.51100000000E-03 0. -1.
        -11    1    3    3    0    0  0.16671221153E+01 -0.10736344415E+02  0.10426112566E+02  0.15058293763E+02  0.51100000000E-03 0.  1.
         12    1    3    3    0    0 -0.21131808138E+01 -0.15141679135E+01  0.16088160381E+01  0.30572089668E+01  0.00000000000E+00 0. -1.
</event>
<event>
 7    1  0.4937359E-010  0.4778727E+02  0.7816164E-02  0.1312668E+00
        -11   -1    0    0    0    0  0.00000000000E+00  0.00000000000E+00  0.45593999997E+02  0.45594000000E+02  0.51100000000E-03 0. -1.
         11   -1    0    0    0    0 -0.00000000000E+00 -0.00000000000E+00 -0.45593999997E+02  0.45594000000E+02  0.51100000000E-03 0.  1.
    9900012    2    1    2    0    0  0.35069142099E+02  0.22730971989E+02 -0.11708177573E+02  0.47787271467E+02  0.20000001927E+02 0.  0.
         12    1    1    2    0    0 -0.35069142099E+02 -0.22730971989E+02  0.11708177573E+02  0.43400728533E+02  0.00000000000E+00 0. -1.
         11    1    3    3    0    0  0.12483884523E+02  0.11846070505E+01 -0.39603303401E+01  0.13150470840E+02  0.51100000000E-03 0. -1.
        -11    1    3    3    0    0  0.19812504793E+02  0.23217331969E+02 -0.69974230163E+01  0.31313635673E+02  0.51100000000E-03 0.  1.
        -12    1    3    3    0    0  0.27727527829E+01 -0.16709670302E+01 -0.75042421674E+00  0.33231649547E+01  0.00000000000E+00 0.  1.
</event>
<event>
 7    1  0.4937359E-010  0.4778727E+02  0.7816164E-02  0.1312668E+00
        -11   -1    0    0    0    0  0.00000000000E+00  0.00000000000E+00  0.45593999997E+02  0.45594000000E+02  0.51100000000E-03 0.  1.
         11   -1    0    0    0    0 -0.00000000000E+00 -0.00000000000E+00 -0.45593999997E+02  0.45594000000E+02  0.51100000000E-03 0. -1.
    9900012    2    1    2    0    0 -0.36557602083E+02 -0.13183608294E+02  0.19322457680E+02  0.47787272259E+02  0.20000005537E+02 0.  0.
         12    1    1    2    0    0  0.36557602083E+02  0.13183608294E+02 -0.19322457680E+02  0.43400727741E+02  0.00000000000E+00 0. -1.
         11    1    3    3    0    0 -0.77883784168E+01 -0.70379009113E+01  0.12247243851E+02  0.16130278045E+02  0.51100000000E-03 0. -1.
        -11    1    3    3    0    0 -0.20529977025E+02 -0.18973232223E+01  0.84569641750E+01  0.22284524572E+02  0.51100000000E-03 0.  1.
         12    1    3    3    0    0 -0.82392466405E+01 -0.42483841602E+01 -0.13817503461E+01  0.93724696422E+01  0.00000000000E+00 0. -1.
</event>
<event>
 7    1  0.4937359E-010  0.4778727E+02  0.7816164E-02  0.1312668E+00
        -11   -1    0    0    0    0  0.00000000000E+00  0.00000000000E+00  0.45593999997E+02  0.45594000000E+02  0.51100000000E-03 0.  1.
         11   -1    0    0    0    0 -0.00000000000E+00 -0.00000000000E+00 -0.45593999997E+02  0.45594000000E+02  0.51100000000E-03 0. -1.
    9900012    2    1    2    0    0  0.26840227161E+02  0.60467662176E+01  0.33565787309E+02  0.47787271280E+02  0.20000001073E+02 0.  0.
         12    1    1    2    0    0 -0.26840227161E+02 -0.60467662176E+01 -0.33565787309E+02  0.43400728720E+02  0.00000000000E+00 0. -1.
         11    1    3    3    0    0  0.20955130665E+02  0.46617053765E+01  0.23399392382E+02  0.31755008460E+02  0.51100000000E-03 0.  1.
        -11    1    3    3    0    0 -0.20220245668E+01  0.31406087953E+01  0.11416260777E+01  0.39058055912E+01  0.51100000000E-03 0. -1.
         12    1    3    3    0    0  0.79071210629E+01 -0.17555479542E+01  0.90247688496E+01  0.12126457228E+02  0.00000000000E+00 0. -1.
</event>
<event>
 7    1  0.4937359E-010  0.4778728E+02  0.7816164E-02  0.1312668E+00
        -11   -1    0    0    0    0  0.00000000000E+00  0.00000000000E+00  0.45593999997E+02  0.45594000000E+02  0.51100000000E-03 0. -1.
         11   -1    0    0    0    0 -0.00000000000E+00 -0.00000000000E+00 -0.45593999997E+02  0.45594000000E+02  0.51100000000E-03 0.  1.
    9900012    2    1    2    0    0 -0.12791066100E+02  0.26317784727E+02 -0.32052851555E+02  0.47787280447E+02  0.20000042870E+02 0.  0.
         12    1    1    2    0    0  0.12791066100E+02 -0.26317784727E+02  0.32052851555E+02  0.43400719553E+02  0.00000000000E+00 0. -1.
         11    1    3    3    0    0 -0.23262569628E+01 -0.59230489480E+00 -0.13702084158E+01  0.27640130082E+01  0.51100000000E-03 0. -1.
        -11    1    3    3    0    0 -0.73961069536E+01  0.19460784067E+02 -0.30545413552E+02  0.36965481248E+02  0.51100000000E-03 0.  1.
        -12    1    3    3    0    0 -0.30687021838E+01  0.74493055545E+01 -0.13722958729E+00  0.80577861908E+01  0.00000000000E+00 0.  1.
</event>
<event>
 7    1  0.4937359E-010  0.4778727E+02  0.7816164E-02  0.1312668E+00
        -11   -1    0    0    0    0  0.00000000000E+00  0.00000000000E+00  0.45593999997E+02  0.45594000000E+02  0.51100000000E-03 0.  1.
         11   -1    0    0    0    0 -0.00000000000E+00 -0.00000000000E+00 -0.45593999997E+02  0.45594000000E+02  0.51100000000E-03 0. -1.
    9900012    2    1    2    0    0  0.29983089899E+02  0.10244497749E+02  0.29659531998E+02  0.47787271292E+02  0.20000001130E+02 0.  0.
         12    1    1    2    0    0 -0.29983089899E+02 -0.10244497749E+02 -0.29659531998E+02  0.43400728708E+02  0.00000000000E+00 0. -1.
         11    1    3    3    0    0 -0.28018356285E+01  0.23630749555E+01  0.37800950264E+01  0.52653133624E+01  0.51100000000E-03 0. -1.
        -11    1    3    3    0    0  0.26481899866E+02  0.68114847413E+01  0.20763162848E+02  0.34333602732E+02  0.51100000000E-03 0.  1.
         12    1    3    3    0    0  0.63030256619E+01  0.10699380527E+01  0.51162741240E+01  0.81883551977E+01  0.00000000000E+00 0. -1.
</event>
<event>
 7    1  0.4937359E-010  0.4778725E+02  0.7816164E-02  0.1312668E+00
        -11   -1    0    0    0    0  0.00000000000E+00  0.00000000000E+00  0.45593999997E+02  0.45594000000E+02  0.51100000000E-03 0.  1.
         11   -1    0    0    0    0 -0.00000000000E+00 -0.00000000000E+00 -0.45593999997E+02  0.45594000000E+02  0.51100000000E-03 0. -1.
    9900012    2    1    2    0    0 -0.22748880394E+01 -0.21874791776E+02  0.37415815352E+02  0.47787252665E+02  0.19999916200E+02 0.  0.
         12    1    1    2    0    0  0.22748880394E+01  0.21874791776E+02 -0.37415815352E+02  0.43400747335E+02  0.00000000000E+00 0. -1.
         11    1    3    3    0    0  0.50546548460E+00  0.62520609273E+00  0.45386709819E+01  0.46093288619E+01  0.51100000000E-03 0. -1.
        -11    1    3    3    0    0 -0.37273033245E+01 -0.54243762820E+00  0.16734467943E+00  0.37702829014E+01  0.51100000000E-03 0.  1.
        -12    1    3    3    0    0  0.94694980056E+00 -0.21957560241E+02  0.32709799690E+02  0.39407640901E+02  0.00000000000E+00 0.  1.
</event>
<event>
 7    1  0.4937359E-010  0.4778727E+02  0.7816164E-02  0.1312668E+00
        -11   -1    0    0    0    0  0.00000000000E+00  0.00000000000E+00  0.45593999997E+02  0.45594000000E+02  0.51100000000E-03 0. -1.
         11   -1    0    0    0    0 -0.00000000000E+00 -0.00000000000E+00 -0.45593999997E+02  0.45594000000E+02  0.51100000000E-03 0.  1.
    9900012    2    1    2    0    0 -0.35476731097E+02 -0.18020142808E+02 -0.17329140047E+02  0.47787273152E+02  0.20000009610E+02 0.  0.
         12    1    1    2    0    0  0.35476731097E+02  0.18020142808E+02  0.17329140047E+02  0.43400726848E+02  0.00000000000E+00 0. -1.
         11    1    3    3    0    0 -0.26093389546E+02 -0.17361188824E+02 -0.20077884914E+02  0.37220925812E+02  0.51100000000E-03 0. -1.
        -11    1    3    3    0    0 -0.49765241704E+01  0.46214871593E+00  0.32951728218E+01  0.59864462280E+01  0.51100000000E-03 0.  1.
         12    1    3    3    0    0 -0.44068173805E+01 -0.11211026996E+01 -0.54642795466E+00  0.45799011122E+01  0.00000000000E+00 0. -1.
</event>
<event>
 7    1  0.4937359E-010  0.4778727E+02  0.7816164E-02  0.1312668E+00
        -11   -1    0    0    0    0  0.00000000000E+00  0.00000000000E+00  0.45593999997E+02  0.45594000000E+02  0.51100000000E-03 0. -1.
         11   -1    0    0    0    0 -0.00000000000E+00 -0.00000000000E+00 -0.45593999997E+02  0.45594000000E+02  0.51100000000E-03 0.  1.
    9900012    2    1    2    0    0 -0.15824328565E+02  0.14178918799E+02 -0.37844049683E+02  0.47787271789E+02  0.20000003396E+02 0.  0.
         12    1    1    2    0    0  0.15824328565E+02 -0.14178918799E+02  0.37844049683E+02  0.43400728211E+02  0.00000000000E+00 0. -1.
         11    1    3    3    0    0  0.34050353318E+01  0.11950905945E+01 -0.25233778324E+01  0.44034013087E+01  0.51100000000E-03 0. -1.
        -11    1    3    3    0    0 -0.11902429434E+02  0.13226899824E+02 -0.26411061528E+02  0.31845924020E+02  0.51100000000E-03 0.  1.
        -12    1    3    3    0    0 -0.73269344630E+01 -0.24307161976E+00 -0.89096103226E+01  0.11537946461E+02  0.00000000000E+00 0.  1.
</event>
<event>
 7    1  0.5046815E-010  0.4778727E+02  0.7816164E-02  0.1312668E+00
        -11   -1    0    0    0    0  0.00000000000E+00  0.00000000000E+00  0.45593999997E+02  0.45594000000E+02  0.51100000000E-03 0. -1.
         11   -1    0    0    0    0 -0.00000000000E+00 -0.00000000000E+00 -0.45593999997E+02  0.45594000000E+02  0.51100000000E-03 0.  1.
    9900012    2    1    2    0    0  0.28502818579E+02  0.31932994538E+02  0.71761123917E+01  0.47787269636E+02  0.19999993577E+02 0.  0.
         12    1    1    2    0    0 -0.28502818579E+02 -0.31932994538E+02 -0.71761123917E+01  0.43400730364E+02  0.00000000000E+00 0. -1.
         11    1    3    3    0    0  0.11563774007E+02  0.76392865529E+01 -0.51380020832E+01  0.14781022766E+02  0.51100000000E-03 0.  1.
        -11    1    3    3    0    0  0.14824931639E+02  0.16026051878E+02  0.68826456819E+01  0.22890691312E+02  0.51100000000E-03 0. -1.
         12    1    3    3    0    0  0.21141129320E+01  0.82676561070E+01  0.54314687930E+01  0.10115555558E+02  0.00000000000E+00 0. -1.
</event>
<event>
 7    1  0.4937359E-010  0.4778729E+02  0.7816164E-02  0.1312668E+00
        -11   -1    0    0    0    0  0.00000000000E+00  0.00000000000E+00  0.45593999997E+02  0.45594000000E+02  0.51100000000E-03 0.  1.
         11   -1    0    0    0    0 -0.00000000000E+00 -0.00000000000E+00 -0.45593999997E+02  0.45594000000E+02  0.51100000000E-03 0. -1.
    9900012    2    1    2    0    0  0.43246230440E+02 -0.27968989525E+01 -0.23585444502E+01  0.47787287760E+02  0.20000076211E+02 0.  0.
         12    1    1    2    0    0 -0.43246230440E+02  0.27968989525E+01  0.23585444502E+01  0.43400712240E+02  0.00000000000E+00 0. -1.
         11    1    3    3    0    0 -0.17688554531E+01  0.11980959152E+01 -0.89706294282E+00  0.23171114821E+01  0.51100000000E-03 0. -1.
        -11    1    3    3    0    0  0.18963717923E+02  0.34706443258E+00  0.62462040000E+00  0.18977175819E+02  0.51100000000E-03 0.  1.
         12    1    3    3    0    0  0.26051367971E+02 -0.43420593003E+01 -0.20861019073E+01  0.26493000458E+02  0.00000000000E+00 0. -1.
</event>
<event>
 7    1  0.8511127E-010  0.4778726E+02  0.7816164E-02  0.1312668E+00
        -11   -1    0    0    0    0  0.00000000000E+00  0.00000000000E+00  0.45593999997E+02  0.45594000000E+02  0.51100000000E-03 0. -1.
         11   -1    0    0    0    0 -0.00000000000E+00 -0.00000000000E+00 -0.45593999997E+02  0.45594000000E+02  0.51100000000E-03 0.  1.
    9900012    2    1    2    0    0 -0.12654775013E+02  0.31966028990E+02 -0.26488743683E+02  0.47787264039E+02  0.19999968060E+02 0.  0.
         12    1    1    2    0    0  0.12654775013E+02 -0.31966028990E+02  0.26488743683E+02  0.43400735961E+02  0.00000000000E+00 0. -1.
         11    1    3    3    0    0 -0.91156504608E+01  0.39431781514E+01 -0.51141258376E+01  0.11171303442E+02  0.51100000000E-03 0. -1.
        -11    1    3    3    0    0 -0.50115772458E+01  0.88210752515E+01 -0.10021900906E+02  0.14260637192E+02  0.51100000000E-03 0.  1.
         12    1    3    3    0    0  0.14724526937E+01  0.19201775587E+02 -0.11352716940E+02  0.22355323405E+02  0.00000000000E+00 0. -1.
</event>
<event>
 7    1  0.4937359E-010  0.4778727E+02  0.7816164E-02  0.1312668E+00
        -11   -1    0    0    0    0  0.00000000000E+00  0.00000000000E+00  0.45593999997E+02  0.45594000000E+02  0.51100000000E-03 0. -1.
         11   -1    0    0    0    0 -0.00000000000E+00 -0.00000000000E+00 -0.45593999997E+02  0.45594000000E+02  0.51100000000E-03 0.  1.
    9900012    2    1    2    0    0  0.27724443083E+02 -0.33342466478E+02 -0.18051581664E+01  0.47787269463E+02  0.19999992791E+02 0.  0.
         12    1    1    2    0    0 -0.27724443083E+02  0.33342466478E+02  0.18051581664E+01  0.43400730537E+02  0.00000000000E+00 0. -1.
         11    1    3    3    0    0  0.55661039451E+01 -0.21050331858E+02 -0.11102052533E+01  0.21802076516E+02  0.51100000000E-03 0. -1.
        -11    1    3    3    0    0  0.39482870735E+01 -0.49194451886E+01  0.29001347856E+00  0.63145878612E+01  0.51100000000E-03 0.  1.
         12    1    3    3    0    0  0.18210052065E+02 -0.73726894313E+01 -0.98496639165E+00  0.19670605086E+02  0.00000000000E+00 0. -1.
</event>
<event>
 7    1  0.4937359E-010  0.4778727E+02  0.7816164E-02  0.1312668E+00
        -11   -1    0    0    0    0  0.00000000000E+00  0.00000000000E+00  0.45593999997E+02  0.45594000000E+02  0.51100000000E-03 0.  1.
         11   -1    0    0    0    0 -0.00000000000E+00 -0.00000000000E+00 -0.45593999997E+02  0.45594000000E+02  0.51100000000E-03 0. -1.
    9900012    2    1    2    0    0 -0.22681765679E+02 -0.34973009017E+02  0.12085091013E+02  0.47787270988E+02  0.19999999741E+02 0.  0.
         12    1    1    2    0    0  0.22681765679E+02  0.34973009017E+02 -0.12085091013E+02  0.43400729012E+02  0.00000000000E+00 0. -1.
         11    1    3    3    0    0 -0.20367289743E+01 -0.69825005576E+01 -0.83054064014E+00  0.73207497544E+01  0.51100000000E-03 0. -1.
        -11    1    3    3    0    0 -0.13476509421E+02 -0.28096007422E+02  0.11003325578E+02  0.33046559779E+02  0.51100000000E-03 0.  1.
        -12    1    3    3    0    0 -0.71685272838E+01  0.10549896238E+00  0.19123060753E+01  0.74199614538E+01  0.00000000000E+00 0.  1.
</event>
<event>
 7    1  0.4937359E-010  0.4778727E+02  0.7816164E-02  0.1312668E+00
        -11   -1    0    0    0    0  0.00000000000E+00  0.00000000000E+00  0.45593999997E+02  0.45594000000E+02  0.51100000000E-03 0. -1.
         11   -1    0    0    0    0 -0.00000000000E+00 -0.00000000000E+00 -0.45593999997E+02  0.45594000000E+02  0.51100000000E-03 0.  1.
    9900012    2    1    2    0    0  0.40327020872E+02  0.16598407167E+01 -0.15956177792E+02  0.47787270821E+02  0.19999998979E+02 0.  0.
         12    1    1    2    0    0 -0.40327020872E+02 -0.16598407167E+01  0.15956177792E+02  0.43400729179E+02  0.00000000000E+00 0. -1.
         11    1    3    3    0    0  0.35293451475E+02  0.26820486549E+01 -0.75462934440E+01  0.36190712165E+02  0.51100000000E-03 0.  1.
        -11    1    3    3    0    0  0.10721496675E+01  0.19038139356E+01 -0.53986492341E+01  0.58240386524E+01  0.51100000000E-03 0. -1.
         12    1    3    3    0    0  0.39614197289E+01 -0.29260218738E+01 -0.30112351137E+01  0.57725200029E+01  0.00000000000E+00 0. -1.
</event>
<event>
 7    1  0.4937359E-010  0.4778728E+02  0.7816164E-02  0.1312668E+00
        -11   -1    0    0    0    0  0.00000000000E+00  0.00000000000E+00  0.45593999997E+02  0.45594000000E+02  0.51100000000E-03 0.  1.
         11   -1    0    0    0    0 -0.00000000000E+00 -0.00000000000E+00 -0.45593999997E+02  0.45594000000E+02  0.51100000000E-03 0. -1.
    9900012    2    1    2    0    0 -0.26805042681E+02  0.34103578171E+02 -0.14347672922E+01  0.47787275186E+02  0.20000018883E+02 0.  0.
         12    1    1    2    0    0  0.26805042681E+02 -0.34103578171E+02  0.14347672922E+01  0.43400724814E+02  0.00000000000E+00 0. -1.
         11    1    3    3    0    0 -0.24181006529E+02  0.26734257238E+02 -0.29584351866E+01  0.36168963572E+02  0.51100000000E-03 0. -1.
        -11    1    3    3    0    0 -0.54228603269E+00  0.85216819308E+01  0.27112170648E+01  0.89590086117E+01  0.51100000000E-03 0.  1.
         12    1    3    3    0    0 -0.20817501192E+01 -0.11523609979E+01 -0.11875491704E+01  0.26593030028E+01  0.00000000000E+00 0. -1.
</event>
<event>
 7    1  0.4937359E-010  0.4778727E+02  0.7816164E-02  0.1312668E+00
        -11   -1    0    0    0    0  0.00000000000E+00  0.00000000000E+00  0.45593999997E+02  0.45594000000E+02  0.51100000000E-03 0.  1.
         11   -1    0    0    0    0 -0.00000000000E+00 -0.00000000000E+00 -0.45593999997E+02  0.45594000000E+02  0.51100000000E-03 0. -1.
    9900012    2    1    2    0    0  0.25391816497E+02 -0.34935408850E+02  0.42890629021E+01  0.47787271929E+02  0.20000004031E+02 0.  0.
         12    1    1    2    0    0 -0.25391816497E+02  0.34935408850E+02 -0.42890629021E+01  0.43400728071E+02  0.00000000000E+00 0. -1.
         11    1    3    3    0    0  0.59948196860E+00 -0.15900180198E+02  0.23871056202E+01  0.16089542643E+02  0.51100000000E-03 0. -1.
        -11    1    3    3    0    0  0.13111557862E+02 -0.88577862369E+01  0.32258250311E+01  0.16148661678E+02  0.51100000000E-03 0.  1.
         12    1    3    3    0    0  0.11680776666E+02 -0.10177442415E+02 -0.13238677492E+01  0.15549067607E+02  0.00000000000E+00 0. -1.
</event>
<event>
 7    1  0.4937359E-010  0.4778727E+02  0.7816164E-02  0.1312668E+00
        -11   -1    0    0    0    0  0.00000000000E+00  0.00000000000E+00  0.45593999997E+02  0.45594000000E+02  0.51100000000E-03 0.  1.
         11   -1    0    0    0    0 -0.00000000000E+00 -0.00000000000E+00 -0.45593999997E+02  0.45594000000E+02  0.51100000000E-03 0. -1.
    9900012    2    1    2    0    0  0.23309248523E+02  0.29025672753E+02  0.22311710676E+02  0.47787272140E+02  0.20000004997E+02 0.  0.
         12    1    1    2    0    0 -0.23309248523E+02 -0.29025672753E+02 -0.22311710676E+02  0.43400727860E+02  0.00000000000E+00 0. -1.
         11    1    3    3    0    0  0.63055576642E+01 -0.12378731607E+01  0.46963692892E+01  0.79591627813E+01  0.51100000000E-03 0. -1.
        -11    1    3    3    0    0  0.73047438827E+01  0.21275023265E+02  0.10839009085E+02  0.24969381577E+02  0.51100000000E-03 0.  1.
        -12    1    3    3    0    0  0.96989469762E+01  0.89885226484E+01  0.67763323012E+01  0.14858727782E+02  0.00000000000E+00 0.  1.
</event>
<event>
 7    1  0.4937359E-010  0.4778727E+02  0.7816164E-02  0.1312668E+00
        -11   -1    0    0    0    0  0.00000000000E+00  0.00000000000E+00  0.45593999997E+02  0.45594000000E+02  0.51100000000E-03 0.  1.
         11   -1    0    0    0    0 -0.00000000000E+00 -0.00000000000E+00 -0.45593999997E+02  0.45594000000E+02  0.51100000000E-03 0. -1.
    9900012    2    1    2    0    0  0.27627685778E+01 -0.27485138057E+02  0.33474732682E+02  0.47787269219E+02  0.19999991677E+02 0.  0.
         12    1    1    2    0    0 -0.27627685778E+01  0.27485138057E+02 -0.33474732682E+02  0.43400730781E+02  0.00000000000E+00 0. -1.
         11    1    3    3    0    0  0.19650110692E+01 -0.24298149776E+01  0.14907566974E+02  0.15231573217E+02  0.51100000000E-03 0. -1.
        -11    1    3    3    0    0 -0.32040360099E+01 -0.19835013084E+02  0.14993744299E+02  0.25070021124E+02  0.51100000000E-03 0.  1.
         12    1    3    3    0    0  0.40017935186E+01 -0.52203099958E+01  0.35734214088E+01  0.74856748783E+01  0.00000000000E+00 0. -1.
</event>
<event>
 7    1  0.4937359E-010  0.4778725E+02  0.7816164E-02  0.1312668E+00
        -11   -1    0    0    0    0  0.00000000000E+00  0.00000000000E+00  0.45593999997E+02  0.45594000000E+02  0.51100000000E-03 0.  1.
         11   -1    0    0    0    0 -0.00000000000E+00 -0.00000000000E+00 -0.45593999997E+02  0.45594000000E+02  0.51100000000E-03 0. -1.
    9900012    2    1    2    0    0  0.60705635493E+01  0.14961607893E+02  0.40285523257E+02  0.47787253041E+02  0.19999917914E+02 0.  0.
         12    1    1    2    0    0 -0.60705635493E+01 -0.14961607893E+02 -0.40285523257E+02  0.43400746959E+02  0.00000000000E+00 0. -1.
         11    1    3    3    0    0  0.62137230205E+01  0.70380932159E+01  0.82463462136E+01  0.12495892766E+02  0.51100000000E-03 0. -1.
        -11    1    3    3    0    0 -0.60598339214E+01  0.61043307316E+01  0.18124004445E+02  0.20061504884E+02  0.51100000000E-03 0.  1.
         12    1    3    3    0    0  0.59166744502E+01  0.18191839458E+01  0.13915172598E+02  0.15229855390E+02  0.00000000000E+00 0. -1.
</event>
<event>
 7    1  0.4937359E-010  0.4778727E+02  0.7816164E-02  0.1312668E+00
        -11   -1    0    0    0    0  0.00000000000E+00  0.00000000000E+00  0.45593999997E+02  0.45594000000E+02  0.51100000000E-03 0. -1.
         11   -1    0    0    0    0 -0.00000000000E+00 -0.00000000000E+00 -0.45593999997E+02  0.45594000000E+02  0.51100000000E-03 0.  1.
    9900012    2    1    2    0    0  0.42841715871E+02  0.69370177710E+01 -0.29745935387E+00  0.47787270554E+02  0.19999997764E+02 0.  0.
         12    1    1    2    0    0 -0.42841715871E+02 -0.69370177710E+01  0.29745935387E+00  0.43400729446E+02  0.00000000000E+00 0. -1.
         11    1    3    3    0    0  0.70698234313E-01  0.19642852451E+01  0.23333614378E+01  0.30508999697E+01  0.51100000000E-03 0. -1.
        -11    1    3    3    0    0  0.38979345840E+02  0.62632954118E+01  0.76279485146E+00  0.39486708241E+02  0.51100000000E-03 0.  1.
         12    1    3    3    0    0  0.37916717977E+01 -0.12905628859E+01 -0.33936156431E+01  0.52496623431E+01  0.00000000000E+00 0. -1.
</event>
<event>
 7    1  0.4937359E-010  0.4778723E+02  0.7816164E-02  0.1312668E+00
        -11   -1    0    0    0    0  0.00000000000E+00  0.00000000000E+00  0.45593999997E+02  0.45594000000E+02  0.51100000000E-03 0.  1.
         11   -1    0    0    0    0 -0.00000000000E+00 -0.00000000000E+00 -0.45593999997E+02  0.45594000000E+02  0.51100000000E-03 0. -1.
    9900012    2    1    2    0    0  0.23384859879E+02 -0.34999656142E+01  0.36394023956E+02  0.47787234908E+02  0.19999835240E+02 0.  0.
         12    1    1    2    0    0 -0.23384859879E+02  0.34999656142E+01 -0.36394023956E+02  0.43400765092E+02  0.00000000000E+00 0. -1.
         11    1    3    3    0    0  0.61790925025E+01  0.54736085896E+01  0.12994881541E+02  0.15395081087E+02  0.51100000000E-03 0. -1.
        -11    1    3    3    0    0  0.14990733035E+02 -0.72062216912E+01  0.11652211147E+02  0.20308267599E+02  0.51100000000E-03 0.  1.
        -12    1    3    3    0    0  0.22150343418E+01 -0.17673525126E+01  0.11746931268E+02  0.12083886223E+02  0.00000000000E+00 0.  1.
</event>
<event>
 7    1  0.4937359E-010  0.4778729E+02  0.7816164E-02  0.1312668E+00
        -11   -1    0    0    0    0  0.00000000000E+00  0.00000000000E+00  0.45593999997E+02  0.45594000000E+02  0.51100000000E-03 0.  1.
         11   -1    0    0    0    0 -0.00000000000E+00 -0.00000000000E+00 -0.45593999997E+02  0.45594000000E+02  0.51100000000E-03 0. -1.
    9900012    2    1    2    0    0 -0.37625239889E+02 -0.84279233464E+01  0.19923188585E+02  0.47787285581E+02  0.20000066280E+02 0.  0.
         12    1    1    2    0    0  0.37625239889E+02  0.84279233464E+01 -0.19923188585E+02  0.43400714419E+02  0.00000000000E+00 0. -1.
         11    1    3    3    0    0 -0.69917979708E+01  0.25376738138E+01  0.60769648879E+01  0.96049221632E+01  0.51100000000E-03 0. -1.
        -11    1    3    3    0    0 -0.50574658131E+01 -0.69107201869E+01 -0.50056163490E+00  0.85782618382E+01  0.51100000000E-03 0.  1.
        -12    1    3    3    0    0 -0.25575976105E+02 -0.40548769733E+01  0.14346785332E+02  0.29604101580E+02  0.00000000000E+00 0.  1.
</event>
<event>
 7    1  0.4937359E-010  0.4778727E+02  0.7816164E-02  0.1312668E+00
        -11   -1    0    0    0    0  0.00000000000E+00  0.00000000000E+00  0.45593999997E+02  0.45594000000E+02  0.51100000000E-03 0.  1.
         11   -1    0    0    0    0 -0.00000000000E+00 -0.00000000000E+00 -0.45593999997E+02  0.45594000000E+02  0.51100000000E-03 0. -1.
    9900012    2    1    2    0    0  0.17765068773E+02 -0.15034908585E+02  0.36633003332E+02  0.47787273303E+02  0.20000010300E+02 0.  0.
         12    1    1    2    0    0 -0.17765068773E+02  0.15034908585E+02 -0.36633003332E+02  0.43400726697E+02  0.00000000000E+00 0. -1.
         11    1    3    3    0    0  0.77588042752E+01 -0.39497785986E+01  0.26604374167E+02  0.27992722623E+02  0.51100000000E-03 0. -1.
        -11    1    3    3    0    0  0.10634407824E+02 -0.89130340661E+01  0.10601405539E+02  0.17462033264E+02  0.51100000000E-03 0.  1.
         12    1    3    3    0    0 -0.62814332655E+00 -0.21720959201E+01 -0.57277637442E+00  0.23325174169E+01  0.00000000000E+00 0. -1.
</event>
<event>
 7    1  0.4937359E-010  0.4778728E+02  0.7816164E-02  0.1312668E+00
        -11   -1    0    0    0    0  0.00000000000E+00  0.00000000000E+00  0.45593999997E+02  0.45594000000E+02  0.51100000000E-03 0.  1.
         11   -1    0    0    0    0 -0.00000000000E+00 -0.00000000000E+00 -0.45593999997E+02  0.45594000000E+02  0.51100000000E-03 0. -1.
    9900012    2    1    2    0    0 -0.40878584263E+02  0.13139467523E+01  0.14520249807E+02  0.47787276943E+02  0.20000026895E+02 0.  0.
         12    1    1    2    0    0  0.40878584263E+02 -0.13139467523E+01 -0.14520249807E+02  0.43400723057E+02  0.00000000000E+00 0. -1.
         11    1    3    3    0    0 -0.51313873318E+01  0.22252257985E+01 -0.13796159231E+01  0.57607383346E+01  0.51100000000E-03 0. -1.
        -11    1    3    3    0    0 -0.27432226906E+02 -0.31944121221E+01  0.18233405904E+02  0.33093631305E+02  0.51100000000E-03 0.  1.
        -12    1    3    3    0    0 -0.83149700248E+01  0.22831330759E+01 -0.23335401738E+01  0.89329073038E+01  0.00000000000E+00 0.  1.
</event>
<event>
 7    1  0.4937359E-010  0.4778727E+02  0.7816164E-02  0.1312668E+00
        -11   -1    0    0    0    0  0.00000000000E+00  0.00000000000E+00  0.45593999997E+02  0.45594000000E+02  0.51100000000E-03 0. -1.
         11   -1    0    0    0    0 -0.00000000000E+00 -0.00000000000E+00 -0.45593999997E+02  0.45594000000E+02  0.51100000000E-03 0.  1.
    9900012    2    1    2    0    0 -0.36761265985E+02 -0.23061737495E+02 -0.62383701503E+00  0.47787267451E+02  0.19999983618E+02 0.  0.
         12    1    1    2    0    0  0.36761265985E+02  0.23061737495E+02  0.62383701503E+00  0.43400732549E+02  0.00000000000E+00 0. -1.
         11    1    3    3    0    0 -0.16716683904E+02 -0.14942816457E+02  0.76944067921E+01  0.23705256391E+02  0.51100000000E-03 0. -1.
        -11    1    3    3    0    0 -0.18064236226E+02 -0.92478805835E+01 -0.71191666160E+01  0.21506335329E+02  0.51100000000E-03 0.  1.
         12    1    3    3    0    0 -0.19803458551E+01  0.11289595460E+01 -0.11990771912E+01  0.25756757313E+01  0.00000000000E+00 0. -1.
</event>
<event>
 7    1  0.4937359E-010  0.4778727E+02  0.7816164E-02  0.1312668E+00
        -11   -1    0    0    0    0  0.00000000000E+00  0.00000000000E+00  0.45593999997E+02  0.45594000000E+02  0.51100000000E-03 0. -1.
         11   -1    0    0    0    0 -0.00000000000E+00 -0.00000000000E+00 -0.45593999997E+02  0.45594000000E+02  0.51100000000E-03 0.  1.
    9900012    2    1    2    0    0 -0.60264107712E-01  0.43293505423E+02  0.30482870750E+01  0.47787270770E+02  0.19999998750E+02 0.  0.
         12    1    1    2    0    0  0.60264107712E-01 -0.43293505423E+02 -0.30482870750E+01  0.43400729230E+02  0.00000000000E+00 0. -1.
         11    1    3    3    0    0  0.57182634205E+01  0.22760648483E+02  0.10599105113E+01  0.23491893633E+02  0.51100000000E-03 0. -1.
        -11    1    3    3    0    0 -0.51742719732E+01  0.24178191827E+01  0.23268504492E+01  0.61671041281E+01  0.51100000000E-03 0.  1.
        -12    1    3    3    0    0 -0.60425555504E+00  0.18115037757E+02 -0.33847388543E+00  0.18128273009E+02  0.00000000000E+00 0.  1.
</event>
<event>
 7    1  0.4937359E-010  0.4778727E+02  0.7816164E-02  0.1312668E+00
        -11   -1    0    0    0    0  0.00000000000E+00  0.00000000000E+00  0.45593999997E+02  0.45594000000E+02  0.51100000000E-03 0.  1.
         11   -1    0    0    0    0 -0.00000000000E+00 -0.00000000000E+00 -0.45593999997E+02  0.45594000000E+02  0.51100000000E-03 0. -1.
    9900012    2    1    2    0    0  0.15242713990E+02 -0.31035962802E+02  0.26230739776E+02  0.47787273900E+02  0.20000013020E+02 0.  0.
         12    1    1    2    0    0 -0.15242713990E+02  0.31035962802E+02 -0.26230739776E+02  0.43400726100E+02  0.00000000000E+00 0. -1.
         11    1    3    3    0    0  0.65130105954E+01 -0.93509671490E+01  0.66441151020E+00  0.11414961084E+02  0.51100000000E-03 0. -1.
        -11    1    3    3    0    0  0.86806734266E+01 -0.85074356522E+01  0.15977777144E+02  0.20075355918E+02  0.51100000000E-03 0.  1.
         12    1    3    3    0    0  0.49029967576E-01 -0.13177560001E+02  0.95885511214E+01  0.16296956897E+02  0.00000000000E+00 0. -1.
</event>
<event>
 7    1  0.4937359E-010  0.4778727E+02  0.7816164E-02  0.1312668E+00
        -11   -1    0    0    0    0  0.00000000000E+00  0.00000000000E+00  0.45593999997E+02  0.45594000000E+02  0.51100000000E-03 0.  1.
         11   -1    0    0    0    0 -0.00000000000E+00 -0.00000000000E+00 -0.45593999997E+02  0.45594000000E+02  0.51100000000E-03 0. -1.
    9900012    2    1    2    0    0 -0.34347801327E+01 -0.18762278208E+02  0.38984649654E+02  0.47787266058E+02  0.19999977263E+02 0.  0.
         12    1    1    2    0    0  0.34347801327E+01  0.18762278208E+02 -0.38984649654E+02  0.43400733942E+02  0.00000000000E+00 0. -1.
         11    1    3    3    0    0 -0.16105725074E+01 -0.12518604215E+02  0.10523787026E+02  0.16433486816E+02  0.51100000000E-03 0. -1.
        -11    1    3    3    0    0 -0.57339482866E+01 -0.13918462612E+01  0.19959629908E+02  0.20813510643E+02  0.51100000000E-03 0.  1.
        -12    1    3    3    0    0  0.39097406613E+01 -0.48518277315E+01  0.85012327204E+01  0.10540268599E+02  0.00000000000E+00 0.  1.
</event>
<event>
 7    1  0.4937359E-010  0.4778727E+02  0.7816164E-02  0.1312668E+00
        -11   -1    0    0    0    0  0.00000000000E+00  0.00000000000E+00  0.45593999997E+02  0.45594000000E+02  0.51100000000E-03 0. -1.
         11   -1    0    0    0    0 -0.00000000000E+00 -0.00000000000E+00 -0.45593999997E+02  0.45594000000E+02  0.51100000000E-03 0.  1.
    9900012    2    1    2    0    0 -0.31628472777E+02 -0.24415967446E+02 -0.16944713122E+02  0.47787273517E+02  0.20000011272E+02 0.  0.
         12    1    1    2    0    0  0.31628472777E+02  0.24415967446E+02  0.16944713122E+02  0.43400726483E+02  0.00000000000E+00 0. -1.
         11    1    3    3    0    0 -0.77534251787E+01 -0.61254195354E+01 -0.11018829650E+02  0.14800370725E+02  0.51100000000E-03 0. -1.
        -11    1    3    3    0    0 -0.57697465712E+01 -0.62579959946E+01 -0.72874121753E+01  0.11205305254E+02  0.51100000000E-03 0.  1.
         12    1    3    3    0    0 -0.18105301027E+02 -0.12032551916E+02  0.13615287032E+01  0.21781597537E+02  0.00000000000E+00 0. -1.
</event>
<event>
 7    1  0.4937359E-010  0.4778727E+02  0.7816164E-02  0.1312668E+00
        -11   -1    0    0    0    0  0.00000000000E+00  0.00000000000E+00  0.45593999997E+02  0.45594000000E+02  0.51100000000E-03 0. -1.
         11   -1    0    0    0    0 -0.00000000000E+00 -0.00000000000E+00 -0.45593999997E+02  0.45594000000E+02  0.51100000000E-03 0.  1.
    9900012    2    1    2    0    0 -0.80186906767E+00  0.21236214050E+02 -0.37841818766E+02  0.47787273869E+02  0.20000012879E+02 0.  0.
         12    1    1    2    0    0  0.80186906767E+00 -0.21236214050E+02  0.37841818766E+02  0.43400726131E+02  0.00000000000E+00 0. -1.
         11    1    3    3    0    0  0.58488266872E+01  0.13216646562E+02 -0.26673403919E+02  0.30337419087E+02  0.51100000000E-03 0. -1.
        -11    1    3    3    0    0 -0.73850138743E+01  0.33803795648E+01 -0.44757887706E+01  0.92735150458E+01  0.51100000000E-03 0.  1.
        -12    1    3    3    0    0  0.73431811934E+00  0.46391879235E+01 -0.66926260763E+01  0.81763397365E+01  0.00000000000E+00 0.  1.
</event>
<event>
 7    1  0.4937359E-010  0.4778727E+02  0.7816164E-02  0.1312668E+00
        -11   -1    0    0    0    0  0.00000000000E+00  0.00000000000E+00  0.45593999997E+02  0.45594000000E+02  0.51100000000E-03 0. -1.
         11   -1    0    0    0    0 -0.00000000000E+00 -0.00000000000E+00 -0.45593999997E+02  0.45594000000E+02  0.51100000000E-03 0.  1.
    9900012    2    1    2    0    0  0.12109291647E+02 -0.26392582485E+02 -0.32255542596E+02  0.47787269792E+02  0.19999994290E+02 0.  0.
         12    1    1    2    0    0 -0.12109291647E+02  0.26392582485E+02  0.32255542596E+02  0.43400730208E+02  0.00000000000E+00 0. -1.
         11    1    3    3    0    0  0.94948027649E+01 -0.11623752264E+02 -0.92839918612E+01  0.17648099087E+02  0.51100000000E-03 0. -1.
        -11    1    3    3    0    0  0.15452478679E+01 -0.11764746794E+01 -0.13255685331E+02  0.13397204093E+02  0.51100000000E-03 0.  1.
        -12    1    3    3    0    0  0.10692410144E+01 -0.13592355541E+02 -0.97158654036E+01  0.16741966612E+02  0.00000000000E+00 0.  1.
</event>
<event>
 7    1  0.5501763E-010  0.4778727E+02  0.7816164E-02  0.1312668E+00
        -11   -1    0    0    0    0  0.00000000000E+00  0.00000000000E+00  0.45593999997E+02  0.45594000000E+02  0.51100000000E-03 0. -1.
         11   -1    0    0    0    0 -0.00000000000E+00 -0.00000000000E+00 -0.45593999997E+02  0.45594000000E+02  0.51100000000E-03 0.  1.
    9900012    2    1    2    0    0 -0.42239005692E+02  0.99472820902E+01  0.73556448400E+00  0.47787273302E+02  0.20000010294E+02 0.  0.
         12    1    1    2    0    0  0.42239005692E+02 -0.99472820902E+01 -0.73556448400E+00  0.43400726698E+02  0.00000000000E+00 0. -1.
         11    1    3    3    0    0 -0.34752265325E+01 -0.27636722812E+01  0.39153616858E+01  0.59198936918E+01  0.51100000000E-03 0. -1.
        -11    1    3    3    0    0 -0.33158259949E+02  0.78391666095E+01 -0.84678607535E+00  0.34082837072E+02  0.51100000000E-03 0.  1.
         12    1    3    3    0    0 -0.56055192104E+01  0.48717877619E+01 -0.23330111264E+01  0.77845425383E+01  0.00000000000E+00 0. -1.
</event>
<event>
 7    1  0.4937359E-010  0.4778730E+02  0.7816164E-02  0.1312668E+00
        -11   -1    0    0    0    0  0.00000000000E+00  0.00000000000E+00  0.45593999997E+02  0.45594000000E+02  0.51100000000E-03 0.  1.
         11   -1    0    0    0    0 -0.00000000000E+00 -0.00000000000E+00 -0.45593999997E+02  0.45594000000E+02  0.51100000000E-03 0. -1.
    9900012    2    1    2    0    0  0.11026083398E+01 -0.36455501440E+02  0.23524487884E+02  0.47787298847E+02  0.20000126761E+02 0.  0.
         12    1    1    2    0    0 -0.11026083398E+01  0.36455501440E+02 -0.23524487884E+02  0.43400701153E+02  0.00000000000E+00 0. -1.
         11    1    3    3    0    0  0.29677510605E+01 -0.87568295010E+01 -0.13765795570E+01  0.93479720156E+01  0.51100000000E-03 0. -1.
        -11    1    3    3    0    0 -0.19860532133E+01 -0.27871404573E+02  0.22086925979E+02  0.35617297760E+02  0.51100000000E-03 0.  1.
         12    1    3    3    0    0  0.12091049263E+00  0.17273263427E+00  0.28141414619E+01  0.28220290710E+01  0.00000000000E+00 0. -1.
</event>
<event>
 7    1  0.4937359E-010  0.4778727E+02  0.7816164E-02  0.1312668E+00
        -11   -1    0    0    0    0  0.00000000000E+00  0.00000000000E+00  0.45593999997E+02  0.45594000000E+02  0.51100000000E-03 0.  1.
         11   -1    0    0    0    0 -0.00000000000E+00 -0.00000000000E+00 -0.45593999997E+02  0.45594000000E+02  0.51100000000E-03 0. -1.
    9900012    2    1    2    0    0 -0.27049542753E+02 -0.89816479282E+01  0.32730345508E+02  0.47787270977E+02  0.19999999692E+02 0.  0.
         12    1    1    2    0    0  0.27049542753E+02  0.89816479282E+01 -0.32730345508E+02  0.43400729023E+02  0.00000000000E+00 0. -1.
         11    1    3    3    0    0 -0.46028599471E+01  0.23185542373E+01  0.10657209500E+02  0.11837995102E+02  0.51100000000E-03 0. -1.
        -11    1    3    3    0    0 -0.18905662498E+02 -0.80706310435E+01  0.97983779546E+01  0.22772074362E+02  0.51100000000E-03 0.  1.
        -12    1    3    3    0    0 -0.35410203082E+01 -0.32295711220E+01  0.12274758053E+02  0.13177201513E+02  0.00000000000E+00 0.  1.
</event>
<event>
 7    1  0.4937359E-010  0.4778725E+02  0.7816164E-02  0.1312668E+00
        -11   -1    0    0    0    0  0.00000000000E+00  0.00000000000E+00  0.45593999997E+02  0.45594000000E+02  0.51100000000E-03 0.  1.
         11   -1    0    0    0    0 -0.00000000000E+00 -0.00000000000E+00 -0.45593999997E+02  0.45594000000E+02  0.51100000000E-03 0. -1.
    9900012    2    1    2    0    0 -0.32925424648E+02 -0.30156196572E+01  0.28114899743E+02  0.47787249572E+02  0.19999902099E+02 0.  0.
         12    1    1    2    0    0  0.32925424648E+02  0.30156196572E+01 -0.28114899743E+02  0.43400750428E+02  0.00000000000E+00 0. -1.
         11    1    3    3    0    0 -0.52811100575E+00 -0.10712154056E+01  0.27250814713E+01  0.29753105663E+01  0.51100000000E-03 0. -1.
        -11    1    3    3    0    0 -0.18031927694E+02 -0.63796433301E+01  0.22449056135E+02  0.29492547991E+02  0.51100000000E-03 0.  1.
        -12    1    3    3    0    0 -0.14365385948E+02  0.44352390785E+01  0.29407621364E+01  0.15319391015E+02  0.00000000000E+00 0.  1.
</event>
<event>
 7    1  0.4937359E-010  0.4778728E+02  0.7816164E-02  0.1312668E+00
        -11   -1    0    0    0    0  0.00000000000E+00  0.00000000000E+00  0.45593999997E+02  0.45594000000E+02  0.51100000000E-03 0. -1.
         11   -1    0    0    0    0 -0.00000000000E+00 -0.00000000000E+00 -0.45593999997E+02  0.45594000000E+02  0.51100000000E-03 0.  1.
    9900012    2    1    2    0    0 -0.39267739488E+01 -0.41683313553E+02 -0.11432586506E+02  0.47787283225E+02  0.20000055535E+02 0.  0.
         12    1    1    2    0    0  0.39267739488E+01  0.41683313553E+02  0.11432586506E+02  0.43400716775E+02  0.00000000000E+00 0. -1.
         11    1    3    3    0    0 -0.56354885249E+01 -0.25636245483E+02 -0.97576241811E+01  0.28003339859E+02  0.51100000000E-03 0.  1.
        -11    1    3    3    0    0 -0.22713259259E+01 -0.62503008575E+01  0.40227392664E+01  0.77722335102E+01  0.51100000000E-03 0. -1.
        -12    1    3    3    0    0  0.39800405020E+01 -0.97967672126E+01 -0.56977015918E+01  0.12011709855E+02  0.00000000000E+00 0.  1.
</event>
<event>
 7    1  0.4937359E-010  0.4778726E+02  0.7816164E-02  0.1312668E+00
        -11   -1    0    0    0    0  0.00000000000E+00  0.00000000000E+00  0.45593999997E+02  0.45594000000E+02  0.51100000000E-03 0.  1.
         11   -1    0    0    0    0 -0.00000000000E+00 -0.00000000000E+00 -0.45593999997E+02  0.45594000000E+02  0.51100000000E-03 0. -1.
    9900012    2    1    2    0    0  0.28430352460E+02 -0.15452224883E+02  0.28923480042E+02  0.47787263916E+02  0.19999967501E+02 0.  0.
         12    1    1    2    0    0 -0.28430352460E+02  0.15452224883E+02 -0.28923480042E+02  0.43400736084E+02  0.00000000000E+00 0. -1.
         11    1    3    3    0    0  0.19462657916E+02 -0.17097345271E+02  0.21216626019E+02  0.33485212981E+02  0.51100000000E-03 0. -1.
        -11    1    3    3    0    0  0.20269347628E+01  0.41620369400E+01  0.35097938387E+01  0.58094465377E+01  0.51100000000E-03 0.  1.
        -12    1    3    3    0    0  0.69407597815E+01 -0.25169165524E+01  0.41970601843E+01  0.84926043983E+01  0.00000000000E+00 0.  1.
</event>
<event>
 7    1  0.4937359E-010  0.4778727E+02  0.7816164E-02  0.1312668E+00
        -11   -1    0    0    0    0  0.00000000000E+00  0.00000000000E+00  0.45593999997E+02  0.45594000000E+02  0.51100000000E-03 0. -1.
         11   -1    0    0    0    0 -0.00000000000E+00 -0.00000000000E+00 -0.45593999997E+02  0.45594000000E+02  0.51100000000E-03 0.  1.
    9900012    2    1    2    0    0 -0.29950866117E+02  0.30045347367E+02  0.91567591315E+01  0.47787268239E+02  0.19999987210E+02 0.  0.
         12    1    1    2    0    0  0.29950866117E+02 -0.30045347367E+02 -0.91567591315E+01  0.43400731761E+02  0.00000000000E+00 0. -1.
         11    1    3    3    0    0 -0.88919087123E+01  0.67376908824E+00  0.24829922625E+01  0.92566330904E+01  0.51100000000E-03 0. -1.
        -11    1    3    3    0    0 -0.20614097460E+02  0.30427041226E+02  0.61205566242E+01  0.37258650881E+02  0.51100000000E-03 0.  1.
        -12    1    3    3    0    0 -0.44485994516E+00 -0.10554629469E+01  0.55321024479E+00  0.12719842680E+01  0.00000000000E+00 0.  1.
</event>
<event>
 7    1  0.4937359E-010  0.4778727E+02  0.7816164E-02  0.1312668E+00
        -11   -1    0    0    0    0  0.00000000000E+00  0.00000000000E+00  0.45593999997E+02  0.45594000000E+02  0.51100000000E-03 0.  1.
         11   -1    0    0    0    0 -0.00000000000E+00 -0.00000000000E+00 -0.45593999997E+02  0.45594000000E+02  0.51100000000E-03 0. -1.
    9900012    2    1    2    0    0 -0.12853085531E+02 -0.10265540381E+02  0.40162669514E+02  0.47787272478E+02  0.20000006536E+02 0.  0.
         12    1    1    2    0    0  0.12853085531E+02  0.10265540381E+02 -0.40162669514E+02  0.43400727522E+02  0.00000000000E+00 0. -1.
         11    1    3    3    0    0  0.14537963462E+01  0.39423200110E+01  0.53923845196E+01  0.68361701232E+01  0.51100000000E-03 0. -1.
        -11    1    3    3    0    0 -0.75168320899E+01 -0.11117898555E+02  0.16859806969E+02  0.21549095671E+02  0.51100000000E-03 0.  1.
         12    1    3    3    0    0 -0.67900497874E+01 -0.30899618367E+01  0.17910478025E+02  0.19402006683E+02  0.00000000000E+00 0. -1.
</event>
<event>
 7    1  0.4937359E-010  0.4778726E+02  0.7816164E-02  0.1312668E+00
        -11   -1    0    0    0    0  0.00000000000E+00  0.00000000000E+00  0.45593999997E+02  0.45594000000E+02  0.51100000000E-03 0. -1.
         11   -1    0    0    0    0 -0.00000000000E+00 -0.00000000000E+00 -0.45593999997E+02  0.45594000000E+02  0.51100000000E-03 0.  1.
    9900012    2    1    2    0    0 -0.11560009451E+02 -0.13997731963E+02 -0.39421488090E+02  0.47787262197E+02  0.19999959659E+02 0.  0.
         12    1    1    2    0    0  0.11560009451E+02  0.13997731963E+02  0.39421488090E+02  0.43400737803E+02  0.00000000000E+00 0. -1.
         11    1    3    3    0    0 -0.38308356196E+01 -0.61636118746E+01 -0.23558841437E+02  0.24651256012E+02  0.51100000000E-03 0.  1.
        -11    1    3    3    0    0 -0.68981550366E+01 -0.95309434768E+01 -0.62167683244E+01  0.13306826636E+02  0.51100000000E-03 0. -1.
        -12    1    3    3    0    0 -0.83101879504E+00  0.16968233880E+01 -0.96458783292E+01  0.98291795481E+01  0.00000000000E+00 0.  1.
</event>
<event>
 7    1  0.4937359E-010  0.4778727E+02  0.7816164E-02  0.1312668E+00
        -11   -1    0    0    0    0  0.00000000000E+00  0.00000000000E+00  0.45593999997E+02  0.45594000000E+02  0.51100000000E-03 0.  1.
         11   -1    0    0    0    0 -0.00000000000E+00 -0.00000000000E+00 -0.45593999997E+02  0.45594000000E+02  0.51100000000E-03 0. -1.
    9900012    2    1    2    0    0  0.12245287929E+02  0.33789519769E+02  0.24329904008E+02  0.47787274756E+02  0.20000016922E+02 0.  0.
         12    1    1    2    0    0 -0.12245287929E+02 -0.33789519769E+02 -0.24329904008E+02  0.43400725244E+02  0.00000000000E+00 0. -1.
         11    1    3    3    0    0  0.55982549863E+01  0.99789411450E+00  0.51967567081E+01  0.77034104200E+01  0.51100000000E-03 0. -1.
        -11    1    3    3    0    0 -0.13534471536E+01  0.20497483958E+02  0.10635629289E+02  0.23132126544E+02  0.51100000000E-03 0.  1.
        -12    1    3    3    0    0  0.80004800966E+01  0.12294141697E+02  0.84975180105E+01  0.16951737792E+02  0.00000000000E+00 0.  1.
</event>
<event>
 7    1  0.4937359E-010  0.4778728E+02  0.7816164E-02  0.1312668E+00
        -11   -1    0    0    0    0  0.00000000000E+00  0.00000000000E+00  0.45593999997E+02  0.45594000000E+02  0.51100000000E-03 0.  1.
         11   -1    0    0    0    0 -0.00000000000E+00 -0.00000000000E+00 -0.45593999997E+02  0.45594000000E+02  0.51100000000E-03 0. -1.
    9900012    2    1    2    0    0  0.78470633868E+01  0.32454185054E+02  0.27726741861E+02  0.47787277131E+02  0.20000027750E+02 0.  0.
         12    1    1    2    0    0 -0.78470633868E+01 -0.32454185054E+02 -0.27726741861E+02  0.43400722869E+02  0.00000000000E+00 0. -1.
         11    1    3    3    0    0  0.69591469727E+00  0.72526417500E+00 -0.11079250398E+01  0.14959289904E+01  0.51100000000E-03 0. -1.
        -11    1    3    3    0    0  0.32627558709E+00  0.10739587229E+02  0.10331646827E+01  0.10794101126E+02  0.51100000000E-03 0.  1.
        -12    1    3    3    0    0  0.68248731024E+01  0.20989333650E+02  0.27801502218E+02  0.35497247014E+02  0.00000000000E+00 0.  1.
</event>
<event>
 7    1  0.4937359E-010  0.4778730E+02  0.7816164E-02  0.1312668E+00
        -11   -1    0    0    0    0  0.00000000000E+00  0.00000000000E+00  0.45593999997E+02  0.45594000000E+02  0.51100000000E-03 0. -1.
         11   -1    0    0    0    0 -0.00000000000E+00 -0.00000000000E+00 -0.45593999997E+02  0.45594000000E+02  0.51100000000E-03 0.  1.
    9900012    2    1    2    0    0  0.32983984759E+02  0.27831531642E+02 -0.45916653812E+01  0.47787299602E+02  0.20000130204E+02 0.  0.
         12    1    1    2    0    0 -0.32983984759E+02 -0.27831531642E+02  0.45916653812E+01  0.43400700398E+02  0.00000000000E+00 0. -1.
         11    1    3    3    0    0 -0.58625734053E+00  0.65304246423E+00  0.50642022857E+00  0.10132244758E+01  0.51100000000E-03 0.  1.
        -11    1    3    3    0    0  0.11902066400E+02  0.16679411464E+02  0.42828884587E+01  0.20933348637E+02  0.51100000000E-03 0. -1.
        -12    1    3    3    0    0  0.21668175699E+02  0.10499077714E+02 -0.93809740685E+01  0.25840726489E+02  0.00000000000E+00 0.  1.
</event>
<event>
 7    1  0.4937359E-010  0.4778727E+02  0.7816164E-02  0.1312668E+00
        -11   -1    0    0    0    0  0.00000000000E+00  0.00000000000E+00  0.45593999997E+02  0.45594000000E+02  0.51100000000E-03 0.  1.
         11   -1    0    0    0    0 -0.00000000000E+00 -0.00000000000E+00 -0.45593999997E+02  0.45594000000E+02  0.51100000000E-03 0. -1.
    9900012    2    1    2    0    0  0.27162936961E+02  0.47451408789E+01  0.33515399141E+02  0.47787268602E+02  0.19999988865E+02 0.  0.
         12    1    1    2    0    0 -0.27162936961E+02 -0.47451408789E+01 -0.33515399141E+02  0.43400731398E+02  0.00000000000E+00 0. -1.
         11    1    3    3    0    0 -0.99469206199E+00  0.60284059863E+00  0.44510473866E+00  0.12453704569E+01  0.51100000000E-03 0. -1.
        -11    1    3    3    0    0  0.16416492050E+02  0.81715061030E+01  0.27215888605E+02  0.32817363026E+02  0.51100000000E-03 0.  1.
        -12    1    3    3    0    0  0.11741136973E+02 -0.40292058227E+01  0.58544057976E+01  0.13724535119E+02  0.00000000000E+00 0.  1.
</event>
<event>
 7    1  0.4937359E-010  0.4778726E+02  0.7816164E-02  0.1312668E+00
        -11   -1    0    0    0    0  0.00000000000E+00  0.00000000000E+00  0.45593999997E+02  0.45594000000E+02  0.51100000000E-03 0. -1.
         11   -1    0    0    0    0 -0.00000000000E+00 -0.00000000000E+00 -0.45593999997E+02  0.45594000000E+02  0.51100000000E-03 0.  1.
    9900012    2    1    2    0    0  0.88090810787E+00  0.39947108985E+02 -0.16943329500E+02  0.47787263486E+02  0.19999965540E+02 0.  0.
         12    1    1    2    0    0 -0.88090810787E+00 -0.39947108985E+02  0.16943329500E+02  0.43400736514E+02  0.00000000000E+00 0. -1.
         11    1    3    3    0    0  0.82648725780E+01  0.24846685794E+02 -0.99829765347E+01  0.28023663830E+02  0.51100000000E-03 0. -1.
        -11    1    3    3    0    0 -0.23788141882E+00  0.65108176820E+01 -0.54388405864E+01  0.84869500790E+01  0.51100000000E-03 0.  1.
         12    1    3    3    0    0 -0.71460830513E+01  0.85896055091E+01 -0.15215123791E+01  0.11276649578E+02  0.00000000000E+00 0. -1.
</event>
<event>
 7    1  0.4937359E-010  0.4778727E+02  0.7816164E-02  0.1312668E+00
        -11   -1    0    0    0    0  0.00000000000E+00  0.00000000000E+00  0.45593999997E+02  0.45594000000E+02  0.51100000000E-03 0. -1.
         11   -1    0    0    0    0 -0.00000000000E+00 -0.00000000000E+00 -0.45593999997E+02  0.45594000000E+02  0.51100000000E-03 0.  1.
    9900012    2    1    2    0    0  0.36537900938E+02 -0.23414016656E+02 -0.62362623591E+00  0.47787270852E+02  0.19999999122E+02 0.  0.
         12    1    1    2    0    0 -0.36537900938E+02  0.23414016656E+02  0.62362623591E+00  0.43400729148E+02  0.00000000000E+00 0. -1.
         11    1    3    3    0    0  0.23670241951E+02 -0.10313522028E+02  0.42445471955E+01  0.26166109222E+02  0.51100000000E-03 0. -1.
        -11    1    3    3    0    0  0.12454874280E+01 -0.75715639766E+01  0.47010755299E+00  0.76877058579E+01  0.51100000000E-03 0.  1.
         12    1    3    3    0    0  0.11622171558E+02 -0.55289306518E+01 -0.53382809844E+01  0.13933455772E+02  0.00000000000E+00 0. -1.
</event>
<event>
 7    1  0.4937359E-010  0.4778727E+02  0.7816164E-02  0.1312668E+00
        -11   -1    0    0    0    0  0.00000000000E+00  0.00000000000E+00  0.45593999997E+02  0.45594000000E+02  0.51100000000E-03 0.  1.
         11   -1    0    0    0    0 -0.00000000000E+00 -0.00000000000E+00 -0.45593999997E+02  0.45594000000E+02  0.51100000000E-03 0. -1.
    9900012    2    1    2    0    0  0.22710149824E+02  0.95067364379E+01  0.35742049188E+02  0.47787273936E+02  0.20000013184E+02 0.  0.
         12    1    1    2    0    0 -0.22710149824E+02 -0.95067364379E+01 -0.35742049188E+02  0.43400726064E+02  0.00000000000E+00 0. -1.
         11    1    3    3    0    0  0.16596528203E+01  0.11605555135E+00 -0.17237172799E+00  0.16726113263E+01  0.51100000000E-03 0. -1.
        -11    1    3    3    0    0  0.14998035544E+02  0.11772165451E+02  0.15141430375E+02  0.24347235236E+02  0.51100000000E-03 0.  1.
        -12    1    3    3    0    0  0.60524614597E+01 -0.23814845642E+01  0.20772990541E+02  0.21767427374E+02  0.00000000000E+00 0.  1.
</event>
<event>
 7    1  0.4937359E-010  0.4778728E+02  0.7816164E-02  0.1312668E+00
        -11   -1    0    0    0    0  0.00000000000E+00  0.00000000000E+00  0.45593999997E+02  0.45594000000E+02  0.51100000000E-03 0. -1.
         11   -1    0    0    0    0 -0.00000000000E+00 -0.00000000000E+00 -0.45593999997E+02  0.45594000000E+02  0.51100000000E-03 0.  1.
    9900012    2    1    2    0    0  0.22594995307E+02 -0.37714097434E+01 -0.36862782638E+02  0.47787284704E+02  0.20000062282E+02 0.  0.
         12    1    1    2    0    0 -0.22594995307E+02  0.37714097434E+01  0.36862782638E+02  0.43400715296E+02  0.00000000000E+00 0. -1.
         11    1    3    3    0    0 -0.80071757453E+00 -0.33840216936E+01 -0.12725406923E+02  0.13191995038E+02  0.51100000000E-03 0. -1.
        -11    1    3    3    0    0  0.10400142372E+02  0.35521200704E+00 -0.16488111340E+02  0.19497357584E+02  0.51100000000E-03 0.  1.
         12    1    3    3    0    0  0.12995570509E+02 -0.74260005686E+00 -0.76492643744E+01  0.15097932083E+02  0.00000000000E+00 0. -1.
</event>
<event>
 7    1  0.4937359E-010  0.4778727E+02  0.7816164E-02  0.1312668E+00
        -11   -1    0    0    0    0  0.00000000000E+00  0.00000000000E+00  0.45593999997E+02  0.45594000000E+02  0.51100000000E-03 0.  1.
         11   -1    0    0    0    0 -0.00000000000E+00 -0.00000000000E+00 -0.45593999997E+02  0.45594000000E+02  0.51100000000E-03 0. -1.
    9900012    2    1    2    0    0  0.29539030326E+02  0.93292512330E+01  0.30397929830E+02  0.47787269832E+02  0.19999994472E+02 0.  0.
         12    1    1    2    0    0 -0.29539030326E+02 -0.93292512330E+01 -0.30397929830E+02  0.43400730168E+02  0.00000000000E+00 0. -1.
         11    1    3    3    0    0  0.10535525445E+02  0.11464538604E+02  0.10915839508E+02  0.19015480384E+02  0.51100000000E-03 0. -1.
        -11    1    3    3    0    0  0.14705211279E+02 -0.15868718467E+01  0.19454614137E+02  0.24438564044E+02  0.51100000000E-03 0.  1.
         12    1    3    3    0    0  0.42982936009E+01 -0.54841552393E+00  0.27476185328E-01  0.43332254046E+01  0.00000000000E+00 0. -1.
</event>
<event>
 7    1  0.4937359E-010  0.4778727E+02  0.7816164E-02  0.1312668E+00
        -11   -1    0    0    0    0  0.00000000000E+00  0.00000000000E+00  0.45593999997E+02  0.45594000000E+02  0.51100000000E-03 0.  1.
         11   -1    0    0    0    0 -0.00000000000E+00 -0.00000000000E+00 -0.45593999997E+02  0.45594000000E+02  0.51100000000E-03 0. -1.
    9900012    2    1    2    0    0 -0.23429262185E+02 -0.55632415887E+01  0.36107386312E+02  0.47787270401E+02  0.19999997064E+02 0.  0.
         12    1    1    2    0    0  0.23429262185E+02  0.55632415887E+01 -0.36107386312E+02  0.43400729599E+02  0.00000000000E+00 0. -1.
         11    1    3    3    0    0 -0.34860098795E+01  0.26905720375E+01  0.28875057492E+01  0.52658458468E+01  0.51100000000E-03 0. -1.
        -11    1    3    3    0    0 -0.60975186243E+01 -0.71313130506E+01  0.40631821605E+01  0.10224715582E+02  0.51100000000E-03 0.  1.
        -12    1    3    3    0    0 -0.13845733681E+02 -0.11225005756E+01  0.29156698402E+02  0.32296708972E+02  0.00000000000E+00 0.  1.
</event>
<event>
 7    1  0.4937359E-010  0.4778727E+02  0.7816164E-02  0.1312668E+00
        -11   -1    0    0    0    0  0.00000000000E+00  0.00000000000E+00  0.45593999997E+02  0.45594000000E+02  0.51100000000E-03 0. -1.
         11   -1    0    0    0    0 -0.00000000000E+00 -0.00000000000E+00 -0.45593999997E+02  0.45594000000E+02  0.51100000000E-03 0.  1.
    9900012    2    1    2    0    0  0.80792673754E+01  0.42432794261E+02  0.42198471327E+01  0.47787266136E+02  0.19999977618E+02 0.  0.
         12    1    1    2    0    0 -0.80792673754E+01 -0.42432794261E+02 -0.42198471327E+01  0.43400733864E+02  0.00000000000E+00 0. -1.
         11    1    3    3    0    0  0.30346973938E+01  0.24910293626E+01 -0.36189351928E+01  0.53395980886E+01  0.51100000000E-03 0. -1.
        -11    1    3    3    0    0  0.37593863953E+01  0.21528413753E+02  0.96717972146E+01  0.23898728970E+02  0.51100000000E-03 0.  1.
        -12    1    3    3    0    0  0.12851835864E+01  0.18413351146E+02 -0.18330148891E+01  0.18548939077E+02  0.00000000000E+00 0.  1.
</event>
<event>
 7    1  0.4937359E-010  0.4778729E+02  0.7816164E-02  0.1312668E+00
        -11   -1    0    0    0    0  0.00000000000E+00  0.00000000000E+00  0.45593999997E+02  0.45594000000E+02  0.51100000000E-03 0.  1.
         11   -1    0    0    0    0 -0.00000000000E+00 -0.00000000000E+00 -0.45593999997E+02  0.45594000000E+02  0.51100000000E-03 0. -1.
    9900012    2    1    2    0    0 -0.11165168699E+02  0.26028381579E+02  0.32885920943E+02  0.47787292218E+02  0.20000096540E+02 0.  0.
         12    1    1    2    0    0  0.11165168699E+02 -0.26028381579E+02 -0.32885920943E+02  0.43400707782E+02  0.00000000000E+00 0. -1.
         11    1    3    3    0    0 -0.35803353582E+01  0.14874062104E+02  0.27468441677E+02  0.31441561875E+02  0.51100000000E-03 0. -1.
        -11    1    3    3    0    0 -0.71129873960E+00  0.49825059200E+01  0.50061430199E+01  0.70987871736E+01  0.51100000000E-03 0.  1.
         12    1    3    3    0    0 -0.68735346008E+01  0.61718135555E+01  0.41133624612E+00  0.92469431695E+01  0.00000000000E+00 0. -1.
</event>
<event>
 7    1  0.4937359E-010  0.4778727E+02  0.7816164E-02  0.1312668E+00
        -11   -1    0    0    0    0  0.00000000000E+00  0.00000000000E+00  0.45593999997E+02  0.45594000000E+02  0.51100000000E-03 0.  1.
         11   -1    0    0    0    0 -0.00000000000E+00 -0.00000000000E+00 -0.45593999997E+02  0.45594000000E+02  0.51100000000E-03 0. -1.
    9900012    2    1    2    0    0 -0.11856032367E+02 -0.28608532661E+02  0.30407392258E+02  0.47787272489E+02  0.20000006588E+02 0.  0.
         12    1    1    2    0    0  0.11856032367E+02  0.28608532661E+02 -0.30407392258E+02  0.43400727511E+02  0.00000000000E+00 0. -1.
         11    1    3    3    0    0  0.22339272819E+01 -0.75793018708E+01  0.34020276292E+01  0.86029088220E+01  0.51100000000E-03 0. -1.
        -11    1    3    3    0    0 -0.14588192163E+02 -0.15668116527E+02  0.15340907908E+02  0.26337210972E+02  0.51100000000E-03 0.  1.
        -12    1    3    3    0    0  0.49823251398E+00 -0.53611142634E+01  0.11664456720E+02  0.12847152695E+02  0.00000000000E+00 0.  1.
</event>
<event>
 7    1  0.4937359E-010  0.4778727E+02  0.7816164E-02  0.1312668E+00
        -11   -1    0    0    0    0  0.00000000000E+00  0.00000000000E+00  0.45593999997E+02  0.45594000000E+02  0.51100000000E-03 0.  1.
         11   -1    0    0    0    0 -0.00000000000E+00 -0.00000000000E+00 -0.45593999997E+02  0.45594000000E+02  0.51100000000E-03 0. -1.
    9900012    2    1    2    0    0  0.38207679209E+02  0.20727857719E+01  0.20481704374E+02  0.47787269528E+02  0.19999993087E+02 0.  0.
         12    1    1    2    0    0 -0.38207679209E+02 -0.20727857719E+01 -0.20481704374E+02  0.43400730472E+02  0.00000000000E+00 0. -1.
         11    1    3    3    0    0  0.18814959475E+02  0.79663136256E+01  0.12035350908E+02  0.23713171963E+02  0.51100000000E-03 0. -1.
        -11    1    3    3    0    0  0.88784774972E+01 -0.66775503084E+01  0.76745864378E+01  0.13502456000E+02  0.51100000000E-03 0.  1.
        -12    1    3    3    0    0  0.10514242237E+02  0.78402245468E+00  0.77176702904E+00  0.10571641565E+02  0.00000000000E+00 0.  1.
</event>
<event>
 7    1  0.4937359E-010  0.4778727E+02  0.7816164E-02  0.1312668E+00
        -11   -1    0    0    0    0  0.00000000000E+00  0.00000000000E+00  0.45593999997E+02  0.45594000000E+02  0.51100000000E-03 0.  1.
         11   -1    0    0    0    0 -0.00000000000E+00 -0.00000000000E+00 -0.45593999997E+02  0.45594000000E+02  0.51100000000E-03 0. -1.
    9900012    2    1    2    0    0 -0.29164862397E+01  0.49869967956E+01  0.43014501948E+02  0.47787269512E+02  0.19999993013E+02 0.  0.
         12    1    1    2    0    0  0.29164862397E+01 -0.49869967956E+01 -0.43014501948E+02  0.43400730488E+02  0.00000000000E+00 0. -1.
         11    1    3    3    0    0 -0.66337195553E+01  0.10257546121E+00  0.33744351017E+02  0.34390376310E+02  0.51100000000E-03 0. -1.
        -11    1    3    3    0    0  0.68186275722E-01  0.41360846149E+01  0.86935414408E+01  0.96275390602E+01  0.51100000000E-03 0.  1.
         12    1    3    3    0    0  0.36490470399E+01  0.74833671941E+00  0.57660949022E+00  0.37693541422E+01  0.00000000000E+00 0. -1.
</event>
<event>
 7    1  0.4937359E-010  0.4778727E+02  0.7816164E-02  0.1312668E+00
        -11   -1    0    0    0    0  0.00000000000E+00  0.00000000000E+00  0.45593999997E+02  0.45594000000E+02  0.51100000000E-03 0. -1.
         11   -1    0    0    0    0 -0.00000000000E+00 -0.00000000000E+00 -0.45593999997E+02  0.45594000000E+02  0.51100000000E-03 0.  1.
    9900012    2    1    2    0    0  0.15650644658E+02  0.40060473637E+02 -0.58171406979E+01  0.47787270143E+02  0.19999995891E+02 0.  0.
         12    1    1    2    0    0 -0.15650644658E+02 -0.40060473637E+02  0.58171406979E+01  0.43400729857E+02  0.00000000000E+00 0. -1.
         11    1    3    3    0    0  0.72437622601E+01  0.37272616571E+01 -0.23975246998E+01  0.84919194585E+01  0.51100000000E-03 0. -1.
        -11    1    3    3    0    0  0.52270272628E+01  0.30312396110E+02  0.16536669341E+01  0.30804184562E+02  0.51100000000E-03 0.  1.
        -12    1    3    3    0    0  0.31798551351E+01  0.60208158692E+01 -0.50732829321E+01  0.84911661226E+01  0.00000000000E+00 0.  1.
</event>
<event>
 7    1  0.4937359E-010  0.4778727E+02  0.7816164E-02  0.1312668E+00
        -11   -1    0    0    0    0  0.00000000000E+00  0.00000000000E+00  0.45593999997E+02  0.45594000000E+02  0.51100000000E-03 0. -1.
         11   -1    0    0    0    0 -0.00000000000E+00 -0.00000000000E+00 -0.45593999997E+02  0.45594000000E+02  0.51100000000E-03 0.  1.
    9900012    2    1    2    0    0  0.46541356580E+01 -0.43150429473E+02 -0.54897092779E-01  0.47787267793E+02  0.19999985176E+02 0.  0.
         12    1    1    2    0    0 -0.46541356580E+01  0.43150429473E+02  0.54897092779E-01  0.43400732207E+02  0.00000000000E+00 0. -1.
         11    1    3    3    0    0 -0.35659527100E+01 -0.11024055192E+02  0.44669435842E+01  0.12417704976E+02  0.51100000000E-03 0. -1.
        -11    1    3    3    0    0  0.94313159982E+01 -0.30990137568E+02 -0.62300081834E+01  0.32987139164E+02  0.51100000000E-03 0.  1.
        -12    1    3    3    0    0 -0.12112276302E+01 -0.11362367119E+01  0.17081675064E+01  0.23824236541E+01  0.00000000000E+00 0.  1.
</event>
<event>
 7    1  0.4937359E-010  0.4778727E+02  0.7816164E-02  0.1312668E+00
        -11   -1    0    0    0    0  0.00000000000E+00  0.00000000000E+00  0.45593999997E+02  0.45594000000E+02  0.51100000000E-03 0.  1.
         11   -1    0    0    0    0 -0.00000000000E+00 -0.00000000000E+00 -0.45593999997E+02  0.45594000000E+02  0.51100000000E-03 0. -1.
    9900012    2    1    2    0    0  0.36919732703E+02 -0.14494897814E+02  0.17619721646E+02  0.47787270555E+02  0.19999997768E+02 0.  0.
         12    1    1    2    0    0 -0.36919732703E+02  0.14494897814E+02 -0.17619721646E+02  0.43400729445E+02  0.00000000000E+00 0. -1.
         11    1    3    3    0    0  0.56761517420E+01 -0.56107076213E+01 -0.16319863730E+01  0.81462947646E+01  0.51100000000E-03 0. -1.
        -11    1    3    3    0    0  0.14112918273E+02  0.18350741510E+01  0.10135045328E+02  0.17471722965E+02  0.51100000000E-03 0.  1.
        -12    1    3    3    0    0  0.17130662688E+02 -0.10719264343E+02  0.91166626912E+01  0.22169252825E+02  0.00000000000E+00 0.  1.
</event>
<event>
 7    1  0.4937359E-010  0.4778727E+02  0.7816164E-02  0.1312668E+00
        -11   -1    0    0    0    0  0.00000000000E+00  0.00000000000E+00  0.45593999997E+02  0.45594000000E+02  0.51100000000E-03 0.  1.
         11   -1    0    0    0    0 -0.00000000000E+00 -0.00000000000E+00 -0.45593999997E+02  0.45594000000E+02  0.51100000000E-03 0. -1.
    9900012    2    1    2    0    0 -0.12384263729E+02  0.21206380905E+02  0.35784675140E+02  0.47787267816E+02  0.19999985281E+02 0.  0.
         12    1    1    2    0    0  0.12384263729E+02 -0.21206380905E+02 -0.35784675140E+02  0.43400732184E+02  0.00000000000E+00 0. -1.
         11    1    3    3    0    0 -0.35529502293E+01  0.59170575562E+01  0.21158562577E+01  0.72188554092E+01  0.51100000000E-03 0. -1.
        -11    1    3    3    0    0 -0.63089370847E+01  0.17304395166E+02  0.32029228394E+02  0.36947479629E+02  0.51100000000E-03 0.  1.
        -12    1    3    3    0    0 -0.25223764155E+01 -0.20150718174E+01  0.16395904888E+01  0.36209327778E+01  0.00000000000E+00 0.  1.
</event>
<event>
 7    1  0.4937359E-010  0.4778728E+02  0.7816164E-02  0.1312668E+00
        -11   -1    0    0    0    0  0.00000000000E+00  0.00000000000E+00  0.45593999997E+02  0.45594000000E+02  0.51100000000E-03 0.  1.
         11   -1    0    0    0    0 -0.00000000000E+00 -0.00000000000E+00 -0.45593999997E+02  0.45594000000E+02  0.51100000000E-03 0. -1.
    9900012    2    1    2    0    0  0.24420000073E+02  0.10477899879E+02  0.34314721619E+02  0.47787275245E+02  0.20000019153E+02 0.  0.
         12    1    1    2    0    0 -0.24420000073E+02 -0.10477899879E+02 -0.34314721619E+02  0.43400724755E+02  0.00000000000E+00 0. -1.
         11    1    3    3    0    0  0.22278232644E+01  0.56050312876E+01  0.15490811471E+01  0.62272967565E+01  0.51100000000E-03 0. -1.
        -11    1    3    3    0    0  0.19272842876E+02 -0.65332399088E+00  0.25627513550E+02  0.32072398659E+02  0.51100000000E-03 0.  1.
        -12    1    3    3    0    0  0.29193339331E+01  0.55261925820E+01  0.71381269223E+01  0.94875798297E+01  0.00000000000E+00 0.  1.
</event>
<event>
 7    1  0.4937359E-010  0.4778727E+02  0.7816164E-02  0.1312668E+00
        -11   -1    0    0    0    0  0.00000000000E+00  0.00000000000E+00  0.45593999997E+02  0.45594000000E+02  0.51100000000E-03 0.  1.
         11   -1    0    0    0    0 -0.00000000000E+00 -0.00000000000E+00 -0.45593999997E+02  0.45594000000E+02  0.51100000000E-03 0. -1.
    9900012    2    1    2    0    0  0.33474470878E+02  0.16535910824E+02  0.22127957567E+02  0.47787273584E+02  0.20000011581E+02 0.  0.
         12    1    1    2    0    0 -0.33474470878E+02 -0.16535910824E+02 -0.22127957567E+02  0.43400726416E+02  0.00000000000E+00 0. -1.
         11    1    3    3    0    0  0.29472590016E+02  0.12259535348E+02  0.18265710974E+02  0.36777247951E+02  0.51100000000E-03 0. -1.
        -11    1    3    3    0    0  0.53878052976E+01  0.48652784884E+00  0.43548316051E+01  0.69447616116E+01  0.51100000000E-03 0.  1.
         12    1    3    3    0    0 -0.13859244355E+01  0.37898476271E+01 -0.49258501202E+00  0.40652640223E+01  0.00000000000E+00 0. -1.
</event>
<event>
 7    1  0.4937359E-010  0.4778727E+02  0.7816164E-02  0.1312668E+00
        -11   -1    0    0    0    0  0.00000000000E+00  0.00000000000E+00  0.45593999997E+02  0.45594000000E+02  0.51100000000E-03 0.  1.
         11   -1    0    0    0    0 -0.00000000000E+00 -0.00000000000E+00 -0.45593999997E+02  0.45594000000E+02  0.51100000000E-03 0. -1.
    9900012    2    1    2    0    0  0.17713739880E+02  0.23897663002E+02  0.31602977285E+02  0.47787273615E+02  0.20000011719E+02 0.  0.
         12    1    1    2    0    0 -0.17713739880E+02 -0.23897663002E+02 -0.31602977285E+02  0.43400726385E+02  0.00000000000E+00 0. -1.
         11    1    3    3    0    0 -0.18709760520E+01  0.60440207936E+00 -0.10769945989E+01  0.22418231170E+01  0.51100000000E-03 0. -1.
        -11    1    3    3    0    0  0.18602738030E+02  0.20810036059E+02  0.25208082878E+02  0.37610728597E+02  0.51100000000E-03 0.  1.
         12    1    3    3    0    0  0.98197790204E+00  0.24832248644E+01  0.74718890056E+01  0.79347219006E+01  0.00000000000E+00 0. -1.
</event>
<event>
 7    1  0.4937359E-010  0.4778727E+02  0.7816164E-02  0.1312668E+00
        -11   -1    0    0    0    0  0.00000000000E+00  0.00000000000E+00  0.45593999997E+02  0.45594000000E+02  0.51100000000E-03 0. -1.
         11   -1    0    0    0    0 -0.00000000000E+00 -0.00000000000E+00 -0.45593999997E+02  0.45594000000E+02  0.51100000000E-03 0.  1.
    9900012    2    1    2    0    0  0.13880195158E+02  0.11251369545E+02 -0.39552123831E+02  0.47787266898E+02  0.19999981095E+02 0.  0.
         12    1    1    2    0    0 -0.13880195158E+02 -0.11251369545E+02  0.39552123831E+02  0.43400733102E+02  0.00000000000E+00 0. -1.
         11    1    3    3    0    0 -0.33803614318E+01  0.37682918554E+01 -0.74249699042E+01  0.89864923778E+01  0.51100000000E-03 0. -1.
        -11    1    3    3    0    0  0.10978828191E+02  0.30353528343E+00 -0.10642693373E+02  0.15293584427E+02  0.51100000000E-03 0.  1.
        -12    1    3    3    0    0  0.62817283986E+01  0.71795424067E+01 -0.21484460553E+02  0.23507190094E+02  0.00000000000E+00 0.  1.
</event>
<event>
 7    1  0.4937359E-010  0.4778728E+02  0.7816164E-02  0.1312668E+00
        -11   -1    0    0    0    0  0.00000000000E+00  0.00000000000E+00  0.45593999997E+02  0.45594000000E+02  0.51100000000E-03 0.  1.
         11   -1    0    0    0    0 -0.00000000000E+00 -0.00000000000E+00 -0.45593999997E+02  0.45594000000E+02  0.51100000000E-03 0. -1.
    9900012    2    1    2    0    0 -0.10302134700E+02  0.26300124741E+02  0.32951351935E+02  0.47787284164E+02  0.20000059817E+02 0.  0.
         12    1    1    2    0    0  0.10302134700E+02 -0.26300124741E+02 -0.32951351935E+02  0.43400715836E+02  0.00000000000E+00 0. -1.
         11    1    3    3    0    0 -0.44403152475E+01  0.18461752953E+01  0.91634170510E+01  0.10348573575E+02  0.51100000000E-03 0.  1.
        -11    1    3    3    0    0 -0.36818779508E-01  0.22874608661E+02  0.18780503752E+02  0.29596560585E+02  0.51100000000E-03 0. -1.
         12    1    3    3    0    0 -0.58250006725E+01  0.15793407842E+01  0.50074311317E+01  0.78421500040E+01  0.00000000000E+00 0. -1.
</event>
<event>
 7    1  0.4937359E-010  0.4778728E+02  0.7816164E-02  0.1312668E+00
        -11   -1    0    0    0    0  0.00000000000E+00  0.00000000000E+00  0.45593999997E+02  0.45594000000E+02  0.51100000000E-03 0. -1.
         11   -1    0    0    0    0 -0.00000000000E+00 -0.00000000000E+00 -0.45593999997E+02  0.45594000000E+02  0.51100000000E-03 0.  1.
    9900012    2    1    2    0    0 -0.32743018686E+02 -0.12421928992E+02 -0.25636172371E+02  0.47787275048E+02  0.20000018252E+02 0.  0.
         12    1    1    2    0    0  0.32743018686E+02  0.12421928992E+02  0.25636172371E+02  0.43400724952E+02  0.00000000000E+00 0. -1.
         11    1    3    3    0    0 -0.45801562909E+01 -0.21123099014E+01  0.20252469013E+01  0.54351918127E+01  0.51100000000E-03 0. -1.
        -11    1    3    3    0    0 -0.18079202133E+02 -0.11875691768E+02 -0.16327989052E+02  0.27101528213E+02  0.51100000000E-03 0.  1.
        -12    1    3    3    0    0 -0.10083660262E+02  0.15660726776E+01 -0.11333430220E+02  0.15250555022E+02  0.00000000000E+00 0.  1.
</event>
<event>
 7    1  0.4937359E-010  0.4778727E+02  0.7816164E-02  0.1312668E+00
        -11   -1    0    0    0    0  0.00000000000E+00  0.00000000000E+00  0.45593999997E+02  0.45594000000E+02  0.51100000000E-03 0.  1.
         11   -1    0    0    0    0 -0.00000000000E+00 -0.00000000000E+00 -0.45593999997E+02  0.45594000000E+02  0.51100000000E-03 0. -1.
    9900012    2    1    2    0    0  0.42179371385E+02  0.90910842113E+01 -0.46771528022E+01  0.47787274880E+02  0.20000017489E+02 0.  0.
         12    1    1    2    0    0 -0.42179371385E+02 -0.90910842113E+01  0.46771528022E+01  0.43400725120E+02  0.00000000000E+00 0. -1.
         11    1    3    3    0    0  0.56574122987E+01 -0.15110814341E+01 -0.71575328418E+01  0.92477001282E+01  0.51100000000E-03 0. -1.
        -11    1    3    3    0    0  0.29736694085E+02  0.10527171278E+02  0.32422112462E+01  0.31711263681E+02  0.51100000000E-03 0.  1.
        -12    1    3    3    0    0  0.67852650016E+01  0.74994367503E-01 -0.76183120663E+00  0.68283110712E+01  0.00000000000E+00 0.  1.
</event>
<event>
 7    1  0.4937359E-010  0.4778727E+02  0.7816164E-02  0.1312668E+00
        -11   -1    0    0    0    0  0.00000000000E+00  0.00000000000E+00  0.45593999997E+02  0.45594000000E+02  0.51100000000E-03 0.  1.
         11   -1    0    0    0    0 -0.00000000000E+00 -0.00000000000E+00 -0.45593999997E+02  0.45594000000E+02  0.51100000000E-03 0. -1.
    9900012    2    1    2    0    0  0.59194813731E+01 -0.34599886411E+02  0.25523144697E+02  0.47787270575E+02  0.19999997860E+02 0.  0.
         12    1    1    2    0    0 -0.59194813731E+01  0.34599886411E+02 -0.25523144697E+02  0.43400729425E+02  0.00000000000E+00 0. -1.
         11    1    3    3    0    0  0.78690731367E-01 -0.77779416467E+01  0.10288149644E+02  0.12897619620E+02  0.51100000000E-03 0. -1.
        -11    1    3    3    0    0 -0.10848610923E+00 -0.24359606942E+02  0.91235432319E+01  0.26012329019E+02  0.51100000000E-03 0.  1.
        -12    1    3    3    0    0  0.59492767510E+01 -0.24623378221E+01  0.61114518209E+01  0.88773219368E+01  0.00000000000E+00 0.  1.
</event>
<event>
 7    1  0.4937359E-010  0.4778727E+02  0.7816164E-02  0.1312668E+00
        -11   -1    0    0    0    0  0.00000000000E+00  0.00000000000E+00  0.45593999997E+02  0.45594000000E+02  0.51100000000E-03 0.  1.
         11   -1    0    0    0    0 -0.00000000000E+00 -0.00000000000E+00 -0.45593999997E+02  0.45594000000E+02  0.51100000000E-03 0. -1.
    9900012    2    1    2    0    0 -0.20812999953E+02 -0.24592282215E+02  0.29080266079E+02  0.47787272048E+02  0.20000004574E+02 0.  0.
         12    1    1    2    0    0  0.20812999953E+02  0.24592282215E+02 -0.29080266079E+02  0.43400727952E+02  0.00000000000E+00 0. -1.
         11    1    3    3    0    0 -0.15653470963E+02 -0.79266528917E+01  0.92315932624E+01  0.19826378734E+02  0.51100000000E-03 0. -1.
        -11    1    3    3    0    0 -0.54363275365E+01 -0.17700886591E+02  0.17999064808E+02  0.25823272012E+02  0.51100000000E-03 0.  1.
         12    1    3    3    0    0  0.27679854736E+00  0.10352572671E+01  0.18496080089E+01  0.21376213022E+01  0.00000000000E+00 0. -1.
</event>
<event>
 7    1  0.4937359E-010  0.4778727E+02  0.7816164E-02  0.1312668E+00
        -11   -1    0    0    0    0  0.00000000000E+00  0.00000000000E+00  0.45593999997E+02  0.45594000000E+02  0.51100000000E-03 0.  1.
         11   -1    0    0    0    0 -0.00000000000E+00 -0.00000000000E+00 -0.45593999997E+02  0.45594000000E+02  0.51100000000E-03 0. -1.
    9900012    2    1    2    0    0 -0.40984875377E+02  0.13165751755E+02  0.55250413104E+01  0.47787272928E+02  0.20000008587E+02 0.  0.
         12    1    1    2    0    0  0.40984875377E+02 -0.13165751755E+02 -0.55250413104E+01  0.43400727072E+02  0.00000000000E+00 0. -1.
         11    1    3    3    0    0 -0.15418921484E+02  0.13483654234E+02  0.32080461788E+00  0.20485482349E+02  0.51100000000E-03 0. -1.
        -11    1    3    3    0    0 -0.23666334705E+02  0.15433174613E+01  0.31159348028E+01  0.23920415488E+02  0.51100000000E-03 0.  1.
        -12    1    3    3    0    0 -0.18996191883E+01 -0.18612199400E+01  0.20883018897E+01  0.33813750913E+01  0.00000000000E+00 0.  1.
</event>
<event>
 7    1  0.4937359E-010  0.4778727E+02  0.7816164E-02  0.1312668E+00
        -11   -1    0    0    0    0  0.00000000000E+00  0.00000000000E+00  0.45593999997E+02  0.45594000000E+02  0.51100000000E-03 0.  1.
         11   -1    0    0    0    0 -0.00000000000E+00 -0.00000000000E+00 -0.45593999997E+02  0.45594000000E+02  0.51100000000E-03 0. -1.
    9900012    2    1    2    0    0  0.78373058079E+01  0.33069598233E+02  0.26992615816E+02  0.47787274220E+02  0.20000014479E+02 0.  0.
         12    1    1    2    0    0 -0.78373058079E+01 -0.33069598233E+02 -0.26992615816E+02  0.43400725780E+02  0.00000000000E+00 0. -1.
         11    1    3    3    0    0  0.99743802530E+01  0.13639953797E+02  0.10091734860E+02  0.19681964174E+02  0.51100000000E-03 0. -1.
        -11    1    3    3    0    0 -0.54533947423E+01  0.16053838559E+02  0.15950889111E+02  0.23278662126E+02  0.51100000000E-03 0.  1.
        -12    1    3    3    0    0  0.33163202972E+01  0.33758058776E+01  0.94999184571E+00  0.48266479200E+01  0.00000000000E+00 0.  1.
</event>
<event>
 7    1  0.4937359E-010  0.4778728E+02  0.7816164E-02  0.1312668E+00
        -11   -1    0    0    0    0  0.00000000000E+00  0.00000000000E+00  0.45593999997E+02  0.45594000000E+02  0.51100000000E-03 0.  1.
         11   -1    0    0    0    0 -0.00000000000E+00 -0.00000000000E+00 -0.45593999997E+02  0.45594000000E+02  0.51100000000E-03 0. -1.
    9900012    2    1    2    0    0 -0.20903074820E+02 -0.32330149957E+02  0.20036105611E+02  0.47787278102E+02  0.20000032179E+02 0.  0.
         12    1    1    2    0    0  0.20903074820E+02  0.32330149957E+02 -0.20036105611E+02  0.43400721898E+02  0.00000000000E+00 0. -1.
         11    1    3    3    0    0 -0.75753512138E+01 -0.13122518993E+01  0.28579006608E+01  0.82021672446E+01  0.51100000000E-03 0. -1.
        -11    1    3    3    0    0 -0.14596150398E+02 -0.28486227578E+02  0.17885973265E+02  0.36666344349E+02  0.51100000000E-03 0.  1.
        -12    1    3    3    0    0  0.12684267913E+01 -0.25316704800E+01 -0.70776831430E+00  0.29187665085E+01  0.00000000000E+00 0.  1.
</event>
<event>
 7    1  0.4937359E-010  0.4778727E+02  0.7816164E-02  0.1312668E+00
        -11   -1    0    0    0    0  0.00000000000E+00  0.00000000000E+00  0.45593999997E+02  0.45594000000E+02  0.51100000000E-03 0.  1.
         11   -1    0    0    0    0 -0.00000000000E+00 -0.00000000000E+00 -0.45593999997E+02  0.45594000000E+02  0.51100000000E-03 0. -1.
    9900012    2    1    2    0    0 -0.25063174369E+02 -0.30523945768E+02  0.17993040924E+02  0.47787268481E+02  0.19999988312E+02 0.  0.
         12    1    1    2    0    0  0.25063174369E+02  0.30523945768E+02 -0.17993040924E+02  0.43400731519E+02  0.00000000000E+00 0. -1.
         11    1    3    3    0    0 -0.11869025954E+01 -0.27056455162E+01  0.12344110319E+01  0.32020347104E+01  0.51100000000E-03 0. -1.
        -11    1    3    3    0    0 -0.24412575022E+02 -0.29149525158E+02  0.12394470511E+02  0.39991143215E+02  0.51100000000E-03 0.  1.
        -12    1    3    3    0    0  0.53630324778E+00  0.13312249070E+01  0.43641593813E+01  0.45940905554E+01  0.00000000000E+00 0.  1.
</event>
<event>
 7    1  0.4937359E-010  0.4778732E+02  0.7816164E-02  0.1312668E+00
        -11   -1    0    0    0    0  0.00000000000E+00  0.00000000000E+00  0.45593999997E+02  0.45594000000E+02  0.51100000000E-03 0.  1.
         11   -1    0    0    0    0 -0.00000000000E+00 -0.00000000000E+00 -0.45593999997E+02  0.45594000000E+02  0.51100000000E-03 0. -1.
    9900012    2    1    2    0    0 -0.80725418884E+01  0.33217998017E+02  0.26739820620E+02  0.47787316461E+02  0.20000207073E+02 0.  0.
         12    1    1    2    0    0  0.80725418884E+01 -0.33217998017E+02 -0.26739820620E+02  0.43400683539E+02  0.00000000000E+00 0. -1.
         11    1    3    3    0    0  0.15574708396E+01  0.13988345167E+02  0.37422243130E+01  0.14563782441E+02  0.51100000000E-03 0. -1.
        -11    1    3    3    0    0 -0.63803570764E+01  0.81752271947E+01  0.17761741643E+02  0.20567517171E+02  0.51100000000E-03 0.  1.
        -12    1    3    3    0    0 -0.32496556516E+01  0.11054425656E+02  0.52358546636E+01  0.12656016849E+02  0.00000000000E+00 0.  1.
</event>
<event>
 7    1  0.4937359E-010  0.4778727E+02  0.7816164E-02  0.1312668E+00
        -11   -1    0    0    0    0  0.00000000000E+00  0.00000000000E+00  0.45593999997E+02  0.45594000000E+02  0.51100000000E-03 0.  1.
         11   -1    0    0    0    0 -0.00000000000E+00 -0.00000000000E+00 -0.45593999997E+02  0.45594000000E+02  0.51100000000E-03 0. -1.
    9900012    2    1    2    0    0  0.33048060922E+01  0.39999612118E+02 -0.16514620789E+02  0.47787269445E+02  0.19999992709E+02 0.  0.
         12    1    1    2    0    0 -0.33048060922E+01 -0.39999612118E+02  0.16514620789E+02  0.43400730555E+02  0.00000000000E+00 0. -1.
         11    1    3    3    0    0  0.78969563388E+01  0.95548746804E+01 -0.76081291734E+01  0.14544455279E+02  0.51100000000E-03 0. -1.
        -11    1    3    3    0    0  0.12685685739E+01  0.15359091449E+02 -0.16272816219E+01  0.15497064306E+02  0.51100000000E-03 0.  1.
         12    1    3    3    0    0 -0.58607188205E+01  0.15085645989E+02 -0.72792099937E+01  0.17745749861E+02  0.00000000000E+00 0. -1.
</event>
<event>
 7    1  0.4937359E-010  0.4778727E+02  0.7816164E-02  0.1312668E+00
        -11   -1    0    0    0    0  0.00000000000E+00  0.00000000000E+00  0.45593999997E+02  0.45594000000E+02  0.51100000000E-03 0. -1.
         11   -1    0    0    0    0 -0.00000000000E+00 -0.00000000000E+00 -0.45593999997E+02  0.45594000000E+02  0.51100000000E-03 0.  1.
    9900012    2    1    2    0    0 -0.34711680792E+02  0.26134110503E+01 -0.25920895325E+02  0.47787268264E+02  0.19999987324E+02 0.  0.
         12    1    1    2    0    0  0.34711680792E+02 -0.26134110503E+01  0.25920895325E+02  0.43400731736E+02  0.00000000000E+00 0. -1.
         11    1    3    3    0    0 -0.26690582531E+01  0.35218392575E+00 -0.12507288567E+02  0.12793755236E+02  0.51100000000E-03 0. -1.
        -11    1    3    3    0    0 -0.28521439140E+02  0.11263989716E+01 -0.11075820968E+02  0.30617234944E+02  0.51100000000E-03 0.  1.
         12    1    3    3    0    0 -0.35211833993E+01  0.11348281529E+01 -0.23377857903E+01  0.43762780841E+01  0.00000000000E+00 0. -1.
</event>
<event>
 7    1  0.4937359E-010  0.4778727E+02  0.7816164E-02  0.1312668E+00
        -11   -1    0    0    0    0  0.00000000000E+00  0.00000000000E+00  0.45593999997E+02  0.45594000000E+02  0.51100000000E-03 0. -1.
         11   -1    0    0    0    0 -0.00000000000E+00 -0.00000000000E+00 -0.45593999997E+02  0.45594000000E+02  0.51100000000E-03 0.  1.
    9900012    2    1    2    0    0  0.26743518922E+02 -0.68514074022E+01 -0.33488292268E+02  0.47787270665E+02  0.19999998272E+02 0.  0.
         12    1    1    2    0    0 -0.26743518922E+02  0.68514074022E+01  0.33488292268E+02  0.43400729335E+02  0.00000000000E+00 0. -1.
         11    1    3    3    0    0  0.21852348975E+02 -0.57729485539E+01 -0.14291683605E+02  0.26741434354E+02  0.51100000000E-03 0. -1.
        -11    1    3    3    0    0  0.23989600895E+01 -0.35202477105E+01 -0.14974474294E+02  0.15568623385E+02  0.51100000000E-03 0.  1.
        -12    1    3    3    0    0  0.24922098575E+01  0.24417888622E+01 -0.42221343688E+01  0.54772129271E+01  0.00000000000E+00 0.  1.
</event>
<event>
 7    1  0.4937359E-010  0.4778727E+02  0.7816164E-02  0.1312668E+00
        -11   -1    0    0    0    0  0.00000000000E+00  0.00000000000E+00  0.45593999997E+02  0.45594000000E+02  0.51100000000E-03 0.  1.
         11   -1    0    0    0    0 -0.00000000000E+00 -0.00000000000E+00 -0.45593999997E+02  0.45594000000E+02  0.51100000000E-03 0. -1.
    9900012    2    1    2    0    0  0.19346469896E+02 -0.33798526125E+02  0.19157166006E+02  0.47787271031E+02  0.19999999937E+02 0.  0.
         12    1    1    2    0    0 -0.19346469896E+02  0.33798526125E+02 -0.19157166006E+02  0.43400728969E+02  0.00000000000E+00 0. -1.
         11    1    3    3    0    0  0.11307124938E+02 -0.45995329325E+01  0.21523615663E+01  0.12395137681E+02  0.51100000000E-03 0. -1.
        -11    1    3    3    0    0  0.48214700018E+01 -0.20936278019E+02  0.15266825358E+02  0.26356218755E+02  0.51100000000E-03 0.  1.
        -12    1    3    3    0    0  0.32178749566E+01 -0.82627151737E+01  0.17379790813E+01  0.90359145949E+01  0.00000000000E+00 0.  1.
</event>
<event>
 7    1  0.4937359E-010  0.4778727E+02  0.7816164E-02  0.1312668E+00
        -11   -1    0    0    0    0  0.00000000000E+00  0.00000000000E+00  0.45593999997E+02  0.45594000000E+02  0.51100000000E-03 0.  1.
         11   -1    0    0    0    0 -0.00000000000E+00 -0.00000000000E+00 -0.45593999997E+02  0.45594000000E+02  0.51100000000E-03 0. -1.
    9900012    2    1    2    0    0 -0.83934283749E+01  0.26181173649E+01  0.42500813326E+02  0.47787270607E+02  0.19999998006E+02 0.  0.
         12    1    1    2    0    0  0.83934283749E+01 -0.26181173649E+01 -0.42500813326E+02  0.43400729393E+02  0.00000000000E+00 0. -1.
         11    1    3    3    0    0 -0.11533802250E+02 -0.79767707294E+00  0.23473755693E+02  0.26166430587E+02  0.51100000000E-03 0.  1.
        -11    1    3    3    0    0  0.35547818758E+01  0.34837187973E+01  0.34918310779E+01  0.60799387645E+01  0.51100000000E-03 0. -1.
        -12    1    3    3    0    0 -0.41440800025E+00 -0.67924359441E-01  0.15535226555E+02  0.15540901255E+02  0.00000000000E+00 0.  1.
</event>
<event>
 7    1  0.4937359E-010  0.4778727E+02  0.7816164E-02  0.1312668E+00
        -11   -1    0    0    0    0  0.00000000000E+00  0.00000000000E+00  0.45593999997E+02  0.45594000000E+02  0.51100000000E-03 0. -1.
         11   -1    0    0    0    0 -0.00000000000E+00 -0.00000000000E+00 -0.45593999997E+02  0.45594000000E+02  0.51100000000E-03 0.  1.
    9900012    2    1    2    0    0 -0.12217907950E+02  0.25101377461E+01 -0.41569760965E+02  0.47787273129E+02  0.20000009506E+02 0.  0.
         12    1    1    2    0    0  0.12217907950E+02 -0.25101377461E+01  0.41569760965E+02  0.43400726871E+02  0.00000000000E+00 0. -1.
         11    1    3    3    0    0 -0.38419654517E+01 -0.30841001850E+01 -0.66420284113E+00  0.49712712819E+01  0.51100000000E-03 0. -1.
        -11    1    3    3    0    0 -0.32127161163E+01  0.52661506613E+01 -0.31336252047E+02  0.31937667107E+02  0.51100000000E-03 0.  1.
         12    1    3    3    0    0 -0.51632263817E+01  0.32808726982E+00 -0.95693060776E+01  0.10878334741E+02  0.00000000000E+00 0. -1.
</event>
<event>
 7    1  0.4937359E-010  0.4778728E+02  0.7816164E-02  0.1312668E+00
        -11   -1    0    0    0    0  0.00000000000E+00  0.00000000000E+00  0.45593999997E+02  0.45594000000E+02  0.51100000000E-03 0.  1.
         11   -1    0    0    0    0 -0.00000000000E+00 -0.00000000000E+00 -0.45593999997E+02  0.45594000000E+02  0.51100000000E-03 0. -1.
    9900012    2    1    2    0    0 -0.17874469387E+02  0.38918165974E+02  0.70358053370E+01  0.47787275866E+02  0.20000021982E+02 0.  0.
         12    1    1    2    0    0  0.17874469387E+02 -0.38918165974E+02 -0.70358053370E+01  0.43400724134E+02  0.00000000000E+00 0. -1.
         11    1    3    3    0    0 -0.81863475508E+01  0.28415796230E+01  0.19143501262E+01  0.88744350606E+01  0.51100000000E-03 0. -1.
        -11    1    3    3    0    0 -0.53111727341E+01  0.17362671112E+02  0.73029182396E+01  0.19570475698E+02  0.51100000000E-03 0.  1.
         12    1    3    3    0    0 -0.43769491019E+01  0.18713915239E+02 -0.21814630289E+01  0.19342365107E+02  0.00000000000E+00 0. -1.
</event>
<event>
 7    1  0.4937359E-010  0.4778727E+02  0.7816164E-02  0.1312668E+00
        -11   -1    0    0    0    0  0.00000000000E+00  0.00000000000E+00  0.45593999997E+02  0.45594000000E+02  0.51100000000E-03 0.  1.
         11   -1    0    0    0    0 -0.00000000000E+00 -0.00000000000E+00 -0.45593999997E+02  0.45594000000E+02  0.51100000000E-03 0. -1.
    9900012    2    1    2    0    0  0.10119822828E+01 -0.34721544689E+02 -0.26019485283E+02  0.47787269728E+02  0.19999993998E+02 0.  0.
         12    1    1    2    0    0 -0.10119822828E+01  0.34721544689E+02  0.26019485283E+02  0.43400730272E+02  0.00000000000E+00 0. -1.
         11    1    3    3    0    0  0.12918087366E+01 -0.87537672419E+00  0.13417834308E+01  0.20580177982E+01  0.51100000000E-03 0. -1.
        -11    1    3    3    0    0  0.48704144745E+01 -0.26717749523E+02 -0.16591754272E+02  0.31825231921E+02  0.51100000000E-03 0.  1.
        -12    1    3    3    0    0 -0.51502409283E+01 -0.71284184418E+01 -0.10769514442E+02  0.13904020009E+02  0.00000000000E+00 0.  1.
</event>
<event>
 7    1  0.4937359E-010  0.4778729E+02  0.7816164E-02  0.1312668E+00
        -11   -1    0    0    0    0  0.00000000000E+00  0.00000000000E+00  0.45593999997E+02  0.45594000000E+02  0.51100000000E-03 0.  1.
         11   -1    0    0    0    0 -0.00000000000E+00 -0.00000000000E+00 -0.45593999997E+02  0.45594000000E+02  0.51100000000E-03 0. -1.
    9900012    2    1    2    0    0 -0.46210530276E+01  0.41307717527E+02  0.12487601503E+02  0.47787287452E+02  0.20000074809E+02 0.  0.
         12    1    1    2    0    0  0.46210530276E+01 -0.41307717527E+02 -0.12487601503E+02  0.43400712548E+02  0.00000000000E+00 0. -1.
         11    1    3    3    0    0  0.15417808002E+01  0.24980029495E+01  0.15410992186E+01  0.33154326767E+01  0.51100000000E-03 0. -1.
        -11    1    3    3    0    0  0.32652148233E+01  0.77349891452E+01 -0.32864057442E+01  0.90162158301E+01  0.51100000000E-03 0.  1.
        -12    1    3    3    0    0 -0.94280486511E+01  0.31074725432E+02  0.14232908028E+02  0.35455638945E+02  0.00000000000E+00 0.  1.
</event>
<event>
 7    1  0.4937359E-010  0.4778728E+02  0.7816164E-02  0.1312668E+00
        -11   -1    0    0    0    0  0.00000000000E+00  0.00000000000E+00  0.45593999997E+02  0.45594000000E+02  0.51100000000E-03 0. -1.
         11   -1    0    0    0    0 -0.00000000000E+00 -0.00000000000E+00 -0.45593999997E+02  0.45594000000E+02  0.51100000000E-03 0.  1.
    9900012    2    1    2    0    0 -0.22837969199E+02 -0.16404905095E+02 -0.33059477863E+02  0.47787276217E+02  0.20000023584E+02 0.  0.
         12    1    1    2    0    0  0.22837969199E+02  0.16404905095E+02  0.33059477863E+02  0.43400723783E+02  0.00000000000E+00 0. -1.
         11    1    3    3    0    0  0.20711915440E+01 -0.15976668975E+01 -0.45933820130E+01  0.52859750761E+01  0.51100000000E-03 0. -1.
        -11    1    3    3    0    0 -0.25002863715E+02 -0.13758169914E+02 -0.29486265967E+02  0.41034988903E+02  0.51100000000E-03 0.  1.
        -12    1    3    3    0    0  0.93702972066E-01 -0.10490682840E+01  0.10201701170E+01  0.14663122380E+01  0.00000000000E+00 0.  1.
</event>
<event>
 7    1  0.4937359E-010  0.4778727E+02  0.7816164E-02  0.1312668E+00
        -11   -1    0    0    0    0  0.00000000000E+00  0.00000000000E+00  0.45593999997E+02  0.45594000000E+02  0.51100000000E-03 0.  1.
         11   -1    0    0    0    0 -0.00000000000E+00 -0.00000000000E+00 -0.45593999997E+02  0.45594000000E+02  0.51100000000E-03 0. -1.
    9900012    2    1    2    0    0  0.40742462399E+02 -0.41948390122E+01  0.14355432472E+02  0.47787270073E+02  0.19999995573E+02 0.  0.
         12    1    1    2    0    0 -0.40742462399E+02  0.41948390122E+01 -0.14355432472E+02  0.43400729927E+02  0.00000000000E+00 0. -1.
         11    1    3    3    0    0  0.22910673263E+02 -0.10349691827E+02  0.58790741289E+01  0.25818183188E+02  0.51100000000E-03 0. -1.
        -11    1    3    3    0    0  0.17771930602E+02  0.52871649926E+01  0.93244430874E+01  0.20754297630E+02  0.51100000000E-03 0.  1.
        -12    1    3    3    0    0  0.59858535111E-01  0.86768782202E+00 -0.84808474461E+00  0.12147892553E+01  0.00000000000E+00 0.  1.
</event>
<event>
 7    1  0.4937359E-010  0.4778727E+02  0.7816164E-02  0.1312668E+00
        -11   -1    0    0    0    0  0.00000000000E+00  0.00000000000E+00  0.45593999997E+02  0.45594000000E+02  0.51100000000E-03 0.  1.
         11   -1    0    0    0    0 -0.00000000000E+00 -0.00000000000E+00 -0.45593999997E+02  0.45594000000E+02  0.51100000000E-03 0. -1.
    9900012    2    1    2    0    0 -0.25901161374E+02  0.13935475952E+02  0.31914821414E+02  0.47787268711E+02  0.19999989360E+02 0.  0.
         12    1    1    2    0    0  0.25901161374E+02 -0.13935475952E+02 -0.31914821414E+02  0.43400731289E+02  0.00000000000E+00 0. -1.
         11    1    3    3    0    0 -0.16722257089E+02  0.14907246981E+02  0.23839042299E+02  0.32713297490E+02  0.51100000000E-03 0. -1.
        -11    1    3    3    0    0 -0.40122542605E+01  0.15108328160E+01  0.82951988595E+01  0.93376187772E+01  0.51100000000E-03 0.  1.
         12    1    3    3    0    0 -0.51666500244E+01 -0.24826038453E+01 -0.21941974400E+00  0.57363524431E+01  0.00000000000E+00 0. -1.
</event>
<event>
 7    1  0.4937359E-010  0.4778726E+02  0.7816164E-02  0.1312668E+00
        -11   -1    0    0    0    0  0.00000000000E+00  0.00000000000E+00  0.45593999997E+02  0.45594000000E+02  0.51100000000E-03 0.  1.
         11   -1    0    0    0    0 -0.00000000000E+00 -0.00000000000E+00 -0.45593999997E+02  0.45594000000E+02  0.51100000000E-03 0. -1.
    9900012    2    1    2    0    0 -0.86482251641E+01 -0.24168262579E+02  0.34996103161E+02  0.47787263243E+02  0.19999964430E+02 0.  0.
         12    1    1    2    0    0  0.86482251641E+01  0.24168262579E+02 -0.34996103161E+02  0.43400736757E+02  0.00000000000E+00 0. -1.
         11    1    3    3    0    0  0.82666278956E+00 -0.13433885702E+02  0.72645352326E+01  0.15294643795E+02  0.51100000000E-03 0. -1.
        -11    1    3    3    0    0 -0.51104250678E+01 -0.11422852161E+02  0.20630936205E+02  0.24129515636E+02  0.51100000000E-03 0.  1.
         12    1    3    3    0    0 -0.43644628858E+01  0.68847528328E+00  0.71006317234E+01  0.83631038119E+01  0.00000000000E+00 0. -1.
</event>
<event>
 7    1  0.4937359E-010  0.4778727E+02  0.7816164E-02  0.1312668E+00
        -11   -1    0    0    0    0  0.00000000000E+00  0.00000000000E+00  0.45593999997E+02  0.45594000000E+02  0.51100000000E-03 0. -1.
         11   -1    0    0    0    0 -0.00000000000E+00 -0.00000000000E+00 -0.45593999997E+02  0.45594000000E+02  0.51100000000E-03 0.  1.
    9900012    2    1    2    0    0 -0.14971804452E+02 -0.40156472784E+02 -0.68502669287E+01  0.47787269684E+02  0.19999993796E+02 0.  0.
         12    1    1    2    0    0  0.14971804452E+02  0.40156472784E+02  0.68502669287E+01  0.43400730316E+02  0.00000000000E+00 0. -1.
         11    1    3    3    0    0 -0.17304801150E+02 -0.25653988807E+02 -0.60230748288E+01  0.31525556541E+02  0.51100000000E-03 0. -1.
        -11    1    3    3    0    0  0.34914047008E+00 -0.14125017671E+02 -0.12957457602E+01  0.14188621519E+02  0.51100000000E-03 0.  1.
         12    1    3    3    0    0  0.19838562282E+01 -0.37746630538E+00  0.46855366024E+00  0.20730916232E+01  0.00000000000E+00 0. -1.
</event>
<event>
 7    1  0.4937359E-010  0.4778727E+02  0.7816164E-02  0.1312668E+00
        -11   -1    0    0    0    0  0.00000000000E+00  0.00000000000E+00  0.45593999997E+02  0.45594000000E+02  0.51100000000E-03 0.  1.
         11   -1    0    0    0    0 -0.00000000000E+00 -0.00000000000E+00 -0.45593999997E+02  0.45594000000E+02  0.51100000000E-03 0. -1.
    9900012    2    1    2    0    0 -0.99581781784E+01  0.35204109513E+02  0.23347991892E+02  0.47787269999E+02  0.19999995233E+02 0.  0.
         12    1    1    2    0    0  0.99581781784E+01 -0.35204109513E+02 -0.23347991892E+02  0.43400730001E+02  0.00000000000E+00 0. -1.
         11    1    3    3    0    0 -0.19785897788E+00  0.41905940514E+01  0.12630170633E+02  0.13308697801E+02  0.51100000000E-03 0. -1.
        -11    1    3    3    0    0 -0.49830931392E+01  0.11512776331E+02  0.25393149003E+01  0.12799349847E+02  0.51100000000E-03 0.  1.
         12    1    3    3    0    0 -0.47772260613E+01  0.19500739130E+02  0.81785063585E+01  0.21679222351E+02  0.00000000000E+00 0. -1.
</event>
<event>
 7    1  0.4937359E-010  0.4778726E+02  0.7816164E-02  0.1312668E+00
        -11   -1    0    0    0    0  0.00000000000E+00  0.00000000000E+00  0.45593999997E+02  0.45594000000E+02  0.51100000000E-03 0.  1.
         11   -1    0    0    0    0 -0.00000000000E+00 -0.00000000000E+00 -0.45593999997E+02  0.45594000000E+02  0.51100000000E-03 0. -1.
    9900012    2    1    2    0    0  0.20445595229E+01 -0.33188967580E+02  0.27891506363E+02  0.47787263602E+02  0.19999966069E+02 0.  0.
         12    1    1    2    0    0 -0.20445595229E+01  0.33188967580E+02 -0.27891506363E+02  0.43400736398E+02  0.00000000000E+00 0. -1.
         11    1    3    3    0    0  0.74651298645E+01 -0.26140165055E+02  0.14675328180E+02  0.30893391696E+02  0.51100000000E-03 0. -1.
        -11    1    3    3    0    0 -0.64661045809E+00 -0.39847028201E+01  0.88773928862E+01  0.97521313756E+01  0.51100000000E-03 0.  1.
         12    1    3    3    0    0 -0.47739598834E+01 -0.30640997049E+01  0.43387852962E+01  0.71417405313E+01  0.00000000000E+00 0. -1.
</event>
<event>
 7    1  0.4937359E-010  0.4778727E+02  0.7816164E-02  0.1312668E+00
        -11   -1    0    0    0    0  0.00000000000E+00  0.00000000000E+00  0.45593999997E+02  0.45594000000E+02  0.51100000000E-03 0.  1.
         11   -1    0    0    0    0 -0.00000000000E+00 -0.00000000000E+00 -0.45593999997E+02  0.45594000000E+02  0.51100000000E-03 0. -1.
    9900012    2    1    2    0    0  0.61366933119E+01  0.41772740971E+02 -0.10049977477E+02  0.47787274888E+02  0.20000017522E+02 0.  0.
         12    1    1    2    0    0 -0.61366933119E+01 -0.41772740971E+02  0.10049977477E+02  0.43400725112E+02  0.00000000000E+00 0. -1.
         11    1    3    3    0    0 -0.39443841238E+01  0.54993026663E+01 -0.38961208512E+01  0.78089854578E+01  0.51100000000E-03 0. -1.
        -11    1    3    3    0    0  0.10481233922E+02  0.15696896254E+02 -0.19720569525E+01  0.18977297632E+02  0.51100000000E-03 0.  1.
        -12    1    3    3    0    0 -0.40015648667E+00  0.20576542050E+02 -0.41817996736E+01  0.21000991798E+02  0.00000000000E+00 0.  1.
</event>
<event>
 7    1  0.4937359E-010  0.4778727E+02  0.7816164E-02  0.1312668E+00
        -11   -1    0    0    0    0  0.00000000000E+00  0.00000000000E+00  0.45593999997E+02  0.45594000000E+02  0.51100000000E-03 0. -1.
         11   -1    0    0    0    0 -0.00000000000E+00 -0.00000000000E+00 -0.45593999997E+02  0.45594000000E+02  0.51100000000E-03 0.  1.
    9900012    2    1    2    0    0  0.35410929295E+02 -0.15061483831E+02 -0.20070902866E+02  0.47787270160E+02  0.19999995969E+02 0.  0.
         12    1    1    2    0    0 -0.35410929295E+02  0.15061483831E+02  0.20070902866E+02  0.43400729840E+02  0.00000000000E+00 0. -1.
         11    1    3    3    0    0  0.11247658520E+00 -0.45447987156E+01  0.66635494238E+00  0.45947661005E+01  0.51100000000E-03 0. -1.
        -11    1    3    3    0    0  0.85356551192E+01 -0.22336556869E+01 -0.90795741944E+00  0.88696681436E+01  0.51100000000E-03 0.  1.
         12    1    3    3    0    0  0.26762797591E+02 -0.82830294289E+01 -0.19829300389E+02  0.34322835916E+02  0.00000000000E+00 0. -1.
</event>
<event>
 7    1  0.4937359E-010  0.4778727E+02  0.7816164E-02  0.1312668E+00
        -11   -1    0    0    0    0  0.00000000000E+00  0.00000000000E+00  0.45593999997E+02  0.45594000000E+02  0.51100000000E-03 0.  1.
         11   -1    0    0    0    0 -0.00000000000E+00 -0.00000000000E+00 -0.45593999997E+02  0.45594000000E+02  0.51100000000E-03 0. -1.
    9900012    2    1    2    0    0 -0.25486819637E+02  0.81375299408E+01  0.34173470464E+02  0.47787268989E+02  0.19999990630E+02 0.  0.
         12    1    1    2    0    0  0.25486819637E+02 -0.81375299408E+01 -0.34173470464E+02  0.43400731011E+02  0.00000000000E+00 0. -1.
         11    1    3    3    0    0 -0.45951120333E+01  0.35825515911E+01 -0.79160294528E+00  0.58801671732E+01  0.51100000000E-03 0. -1.
        -11    1    3    3    0    0 -0.46257506706E+01  0.47764000423E+01  0.78605258724E+01  0.10295602648E+02  0.51100000000E-03 0.  1.
         12    1    3    3    0    0 -0.16265956933E+02 -0.22142169247E+00  0.27104547537E+02  0.31611499168E+02  0.00000000000E+00 0. -1.
</event>
<event>
 7    1  0.4937359E-010  0.4778727E+02  0.7816164E-02  0.1312668E+00
        -11   -1    0    0    0    0  0.00000000000E+00  0.00000000000E+00  0.45593999997E+02  0.45594000000E+02  0.51100000000E-03 0.  1.
         11   -1    0    0    0    0 -0.00000000000E+00 -0.00000000000E+00 -0.45593999997E+02  0.45594000000E+02  0.51100000000E-03 0. -1.
    9900012    2    1    2    0    0  0.25920126082E+02  0.23442107056E+02  0.25733988039E+02  0.47787268903E+02  0.19999990238E+02 0.  0.
         12    1    1    2    0    0 -0.25920126082E+02 -0.23442107056E+02 -0.25733988039E+02  0.43400731097E+02  0.00000000000E+00 0. -1.
         11    1    3    3    0    0  0.53580983852E+01 -0.11519844057E+01  0.89454053829E+01  0.10490784723E+02  0.51100000000E-03 0. -1.
        -11    1    3    3    0    0  0.74635580311E+01  0.12835098610E+02  0.35350096479E+01  0.15262396545E+02  0.51100000000E-03 0.  1.
        -12    1    3    3    0    0  0.13098469666E+02  0.11758992852E+02  0.13253573008E+02  0.22034087636E+02  0.00000000000E+00 0.  1.
</event>
<event>
 7    1  0.4937359E-010  0.4778727E+02  0.7816164E-02  0.1312668E+00
        -11   -1    0    0    0    0  0.00000000000E+00  0.00000000000E+00  0.45593999997E+02  0.45594000000E+02  0.51100000000E-03 0.  1.
         11   -1    0    0    0    0 -0.00000000000E+00 -0.00000000000E+00 -0.45593999997E+02  0.45594000000E+02  0.51100000000E-03 0. -1.
    9900012    2    1    2    0    0 -0.96329356099E+01  0.41980096342E+02 -0.53386837571E+01  0.47787268651E+02  0.19999989090E+02 0.  0.
         12    1    1    2    0    0  0.96329356099E+01 -0.41980096342E+02  0.53386837571E+01  0.43400731349E+02  0.00000000000E+00 0. -1.
         11    1    3    3    0    0 -0.10619379398E+02  0.23588807355E+02  0.37240547133E+01  0.26135639173E+02  0.51100000000E-03 0. -1.
        -11    1    3    3    0    0 -0.28203747467E+01  0.50167734749E+01 -0.28170354065E+01  0.64076687299E+01  0.51100000000E-03 0.  1.
         12    1    3    3    0    0  0.38068185346E+01  0.13374515512E+02 -0.62457030639E+01  0.15243960748E+02  0.00000000000E+00 0. -1.
</event>
<event>
 7    1  0.4937359E-010  0.4778726E+02  0.7816164E-02  0.1312668E+00
        -11   -1    0    0    0    0  0.00000000000E+00  0.00000000000E+00  0.45593999997E+02  0.45594000000E+02  0.51100000000E-03 0.  1.
         11   -1    0    0    0    0 -0.00000000000E+00 -0.00000000000E+00 -0.45593999997E+02  0.45594000000E+02  0.51100000000E-03 0. -1.
    9900012    2    1    2    0    0  0.12740619574E+02 -0.36697063210E+02  0.19355273404E+02  0.47787257565E+02  0.19999938543E+02 0.  0.
         12    1    1    2    0    0 -0.12740619574E+02  0.36697063210E+02 -0.19355273404E+02  0.43400742435E+02  0.00000000000E+00 0. -1.
         11    1    3    3    0    0  0.16055106324E+00 -0.10866216799E+02  0.69545583969E+00  0.10889632834E+02  0.51100000000E-03 0. -1.
        -11    1    3    3    0    0  0.75972656066E+01 -0.16688143041E+02  0.19098858789E+02  0.26476007444E+02  0.51100000000E-03 0.  1.
        -12    1    3    3    0    0  0.49828029038E+01 -0.91427033697E+01 -0.43904122527E+00  0.10421617287E+02  0.00000000000E+00 0.  1.
</event>
<event>
 7    1  0.4937359E-010  0.4778729E+02  0.7816164E-02  0.1312668E+00
        -11   -1    0    0    0    0  0.00000000000E+00  0.00000000000E+00  0.45593999997E+02  0.45594000000E+02  0.51100000000E-03 0.  1.
         11   -1    0    0    0    0 -0.00000000000E+00 -0.00000000000E+00 -0.45593999997E+02  0.45594000000E+02  0.51100000000E-03 0. -1.
    9900012    2    1    2    0    0  0.27796595095E+02  0.23301279844E+02  0.23833202009E+02  0.47787287342E+02  0.20000074308E+02 0.  0.
         12    1    1    2    0    0 -0.27796595095E+02 -0.23301279844E+02 -0.23833202009E+02  0.43400712658E+02  0.00000000000E+00 0. -1.
         11    1    3    3    0    0  0.11759458823E+02  0.14677937456E+02  0.19396033805E+02  0.27017269428E+02  0.51100000000E-03 0. -1.
        -11    1    3    3    0    0  0.82769662578E+01  0.22056516420E+01  0.61637677290E+01  0.10552966525E+02  0.51100000000E-03 0.  1.
         12    1    3    3    0    0  0.77601700144E+01  0.64176907459E+01 -0.17265995250E+01  0.10217051389E+02  0.00000000000E+00 0. -1.
</event>
<event>
 7    1  0.4937359E-010  0.4778727E+02  0.7816164E-02  0.1312668E+00
        -11   -1    0    0    0    0  0.00000000000E+00  0.00000000000E+00  0.45593999997E+02  0.45594000000E+02  0.51100000000E-03 0.  1.
         11   -1    0    0    0    0 -0.00000000000E+00 -0.00000000000E+00 -0.45593999997E+02  0.45594000000E+02  0.51100000000E-03 0. -1.
    9900012    2    1    2    0    0 -0.31813848145E+02  0.22521379605E+02  0.19086379818E+02  0.47787269964E+02  0.19999995075E+02 0.  0.
         12    1    1    2    0    0  0.31813848145E+02 -0.22521379605E+02 -0.19086379818E+02  0.43400730036E+02  0.00000000000E+00 0. -1.
         11    1    3    3    0    0 -0.23440095650E+02  0.15559515579E+02  0.10793726841E+02  0.30133721119E+02  0.51100000000E-03 0. -1.
        -11    1    3    3    0    0 -0.50736157403E+01  0.89551951166E+00  0.93419022582E+01  0.10668395847E+02  0.51100000000E-03 0.  1.
         12    1    3    3    0    0 -0.33001367546E+01  0.60663445137E+01 -0.10492492804E+01  0.69851529984E+01  0.00000000000E+00 0. -1.
</event>
<event>
 7    1  0.4937359E-010  0.4778727E+02  0.7816164E-02  0.1312668E+00
        -11   -1    0    0    0    0  0.00000000000E+00  0.00000000000E+00  0.45593999997E+02  0.45594000000E+02  0.51100000000E-03 0. -1.
         11   -1    0    0    0    0 -0.00000000000E+00 -0.00000000000E+00 -0.45593999997E+02  0.45594000000E+02  0.51100000000E-03 0.  1.
    9900012    2    1    2    0    0  0.41658827623E+02  0.12143507945E+02  0.83703266095E+00  0.47787270423E+02  0.19999997167E+02 0.  0.
         12    1    1    2    0    0 -0.41658827623E+02 -0.12143507945E+02 -0.83703266095E+00  0.43400729577E+02  0.00000000000E+00 0. -1.
         11    1    3    3    0    0  0.37684366477E+01  0.25524411026E+01 -0.38760640920E+01  0.59782893420E+01  0.51100000000E-03 0. -1.
        -11    1    3    3    0    0  0.31339526691E+01  0.17808405781E+01 -0.37424567053E+01  0.51960595598E+01  0.51100000000E-03 0.  1.
        -12    1    3    3    0    0  0.34756438306E+02  0.78102262638E+01  0.84555534583E+01  0.36612921521E+02  0.00000000000E+00 0.  1.
</event>
<event>
 7    1  0.4937359E-010  0.4778728E+02  0.7816164E-02  0.1312668E+00
        -11   -1    0    0    0    0  0.00000000000E+00  0.00000000000E+00  0.45593999997E+02  0.45594000000E+02  0.51100000000E-03 0.  1.
         11   -1    0    0    0    0 -0.00000000000E+00 -0.00000000000E+00 -0.45593999997E+02  0.45594000000E+02  0.51100000000E-03 0. -1.
    9900012    2    1    2    0    0  0.42460632206E+01  0.36489596996E+02  0.23110671750E+02  0.47787275461E+02  0.20000020135E+02 0.  0.
         12    1    1    2    0    0 -0.42460632206E+01 -0.36489596996E+02 -0.23110671750E+02  0.43400724539E+02  0.00000000000E+00 0. -1.
         11    1    3    3    0    0 -0.23039123011E+01  0.20457102304E+01 -0.19245990694E+01  0.36327708539E+01  0.51100000000E-03 0. -1.
        -11    1    3    3    0    0  0.20702753190E+01  0.17168710857E+02  0.18029100819E+02  0.24981976483E+02  0.51100000000E-03 0.  1.
         12    1    3    3    0    0  0.44797002027E+01  0.17275175909E+02  0.70061700000E+01  0.19172528124E+02  0.00000000000E+00 0. -1.
</event>
<event>
 7    1  0.4937359E-010  0.4778727E+02  0.7816164E-02  0.1312668E+00
        -11   -1    0    0    0    0  0.00000000000E+00  0.00000000000E+00  0.45593999997E+02  0.45594000000E+02  0.51100000000E-03 0. -1.
         11   -1    0    0    0    0 -0.00000000000E+00 -0.00000000000E+00 -0.45593999997E+02  0.45594000000E+02  0.51100000000E-03 0.  1.
    9900012    2    1    2    0    0 -0.33253475333E+01 -0.18975041911E+02 -0.38891039341E+02  0.47787273131E+02  0.20000009513E+02 0.  0.
         12    1    1    2    0    0  0.33253475333E+01  0.18975041911E+02  0.38891039341E+02  0.43400726869E+02  0.00000000000E+00 0. -1.
         11    1    3    3    0    0  0.74913345194E+01 -0.25982171448E+01 -0.10628760425E+02  0.13260519358E+02  0.51100000000E-03 0.  1.
        -11    1    3    3    0    0 -0.60990393871E+01 -0.11653867449E+02 -0.18420775603E+02  0.22634837796E+02  0.51100000000E-03 0. -1.
        -12    1    3    3    0    0 -0.47176426656E+01 -0.47229573169E+01 -0.98415033129E+01  0.11891915977E+02  0.00000000000E+00 0.  1.
</event>
<event>
 7    1  0.4937359E-010  0.4778727E+02  0.7816164E-02  0.1312668E+00
        -11   -1    0    0    0    0  0.00000000000E+00  0.00000000000E+00  0.45593999997E+02  0.45594000000E+02  0.51100000000E-03 0.  1.
         11   -1    0    0    0    0 -0.00000000000E+00 -0.00000000000E+00 -0.45593999997E+02  0.45594000000E+02  0.51100000000E-03 0. -1.
    9900012    2    1    2    0    0 -0.14845097452E+02  0.76249214246E+01  0.40063785733E+02  0.47787271062E+02  0.20000000080E+02 0.  0.
         12    1    1    2    0    0  0.14845097452E+02 -0.76249214246E+01 -0.40063785733E+02  0.43400728938E+02  0.00000000000E+00 0. -1.
         11    1    3    3    0    0  0.29286401447E+00  0.80385719541E+01  0.76799219818E+01  0.11121403252E+02  0.51100000000E-03 0. -1.
        -11    1    3    3    0    0 -0.30947440565E+01 -0.35887638423E+01  0.87096068167E+01  0.99153375058E+01  0.51100000000E-03 0.  1.
         12    1    3    3    0    0 -0.12043217410E+02  0.31751133127E+01  0.23674256934E+02  0.26750530304E+02  0.00000000000E+00 0. -1.
</event>
<event>
 7    1  0.4937359E-010  0.4778727E+02  0.7816164E-02  0.1312668E+00
        -11   -1    0    0    0    0  0.00000000000E+00  0.00000000000E+00  0.45593999997E+02  0.45594000000E+02  0.51100000000E-03 0. -1.
         11   -1    0    0    0    0 -0.00000000000E+00 -0.00000000000E+00 -0.45593999997E+02  0.45594000000E+02  0.51100000000E-03 0.  1.
    9900012    2    1    2    0    0 -0.86766899445E+01 -0.41881643452E+02 -0.73665712567E+01  0.47787269837E+02  0.19999994493E+02 0.  0.
         12    1    1    2    0    0  0.86766899445E+01  0.41881643452E+02  0.73665712567E+01  0.43400730163E+02  0.00000000000E+00 0. -1.
         11    1    3    3    0    0 -0.17568707407E+01 -0.22679053162E+02  0.50474903551E+01  0.23300283395E+02  0.51100000000E-03 0. -1.
        -11    1    3    3    0    0 -0.73861447398E+01 -0.15156097907E+02 -0.11183151169E+02  0.20231789545E+02  0.51100000000E-03 0.  1.
         12    1    3    3    0    0  0.46632553595E+00 -0.40464923827E+01 -0.12309104429E+01  0.42551968964E+01  0.00000000000E+00 0. -1.
</event>
<event>
 7    1  0.4937359E-010  0.4778728E+02  0.7816164E-02  0.1312668E+00
        -11   -1    0    0    0    0  0.00000000000E+00  0.00000000000E+00  0.45593999997E+02  0.45594000000E+02  0.51100000000E-03 0. -1.
         11   -1    0    0    0    0 -0.00000000000E+00 -0.00000000000E+00 -0.45593999997E+02  0.45594000000E+02  0.51100000000E-03 0.  1.
    9900012    2    1    2    0    0 -0.10734806219E+02  0.28320933302E+00 -0.42051236320E+02  0.47787277101E+02  0.20000027617E+02 0.  0.
         12    1    1    2    0    0  0.10734806219E+02 -0.28320933302E+00  0.42051236320E+02  0.43400722899E+02  0.00000000000E+00 0. -1.
         11    1    3    3    0    0  0.43939742574E+01 -0.19986786746E+00 -0.41403900398E+01  0.60406776839E+01  0.51100000000E-03 0. -1.
        -11    1    3    3    0    0 -0.11039772094E+02 -0.84993814284E+00 -0.16255153299E+02  0.19667968166E+02  0.51100000000E-03 0.  1.
         12    1    3    3    0    0 -0.40890083818E+01  0.13330153433E+01 -0.21655692981E+02  0.22078631251E+02  0.00000000000E+00 0. -1.
</event>
<event>
 7    1  0.4937359E-010  0.4778727E+02  0.7816164E-02  0.1312668E+00
        -11   -1    0    0    0    0  0.00000000000E+00  0.00000000000E+00  0.45593999997E+02  0.45594000000E+02  0.51100000000E-03 0.  1.
         11   -1    0    0    0    0 -0.00000000000E+00 -0.00000000000E+00 -0.45593999997E+02  0.45594000000E+02  0.51100000000E-03 0. -1.
    9900012    2    1    2    0    0  0.56388503286E+01  0.11832222569E+02  0.41374209490E+02  0.47787270341E+02  0.19999996795E+02 0.  0.
         12    1    1    2    0    0 -0.56388503286E+01 -0.11832222569E+02 -0.41374209490E+02  0.43400729659E+02  0.00000000000E+00 0. -1.
         11    1    3    3    0    0  0.16977239371E+01  0.63058040387E+01  0.46563684053E+01  0.80204238123E+01  0.51100000000E-03 0. -1.
        -11    1    3    3    0    0 -0.14457178823E+01 -0.10458067951E+01  0.26128819601E+02  0.26189674035E+02  0.51100000000E-03 0.  1.
        -12    1    3    3    0    0  0.53868442737E+01  0.65722253249E+01  0.10589021484E+02  0.13577172494E+02  0.00000000000E+00 0.  1.
</event>
<event>
 7    1  0.4937359E-010  0.4778727E+02  0.7816164E-02  0.1312668E+00
        -11   -1    0    0    0    0  0.00000000000E+00  0.00000000000E+00  0.45593999997E+02  0.45594000000E+02  0.51100000000E-03 0.  1.
         11   -1    0    0    0    0 -0.00000000000E+00 -0.00000000000E+00 -0.45593999997E+02  0.45594000000E+02  0.51100000000E-03 0. -1.
    9900012    2    1    2    0    0  0.39687318276E+02  0.53829296255E+01  0.16720185534E+02  0.47787265356E+02  0.19999974065E+02 0.  0.
         12    1    1    2    0    0 -0.39687318276E+02 -0.53829296255E+01 -0.16720185534E+02  0.43400734644E+02  0.00000000000E+00 0. -1.
         11    1    3    3    0    0  0.30337782508E+01  0.20639468690E+01 -0.31461601038E+01  0.48334264051E+01  0.51100000000E-03 0. -1.
        -11    1    3    3    0    0  0.26493375164E+02 -0.20532495304E+01  0.13262545442E+02  0.29698651032E+02  0.51100000000E-03 0.  1.
        -12    1    3    3    0    0  0.10160164861E+02  0.53722322868E+01  0.66038001962E+01  0.13255187919E+02  0.00000000000E+00 0.  1.
</event>
<event>
 7    1  0.4937359E-010  0.4778727E+02  0.7816164E-02  0.1312668E+00
        -11   -1    0    0    0    0  0.00000000000E+00  0.00000000000E+00  0.45593999997E+02  0.45594000000E+02  0.51100000000E-03 0.  1.
         11   -1    0    0    0    0 -0.00000000000E+00 -0.00000000000E+00 -0.45593999997E+02  0.45594000000E+02  0.51100000000E-03 0. -1.
    9900012    2    1    2    0    0 -0.69000937289E+01 -0.30829846341E+02  0.29757897796E+02  0.47787271894E+02  0.20000003875E+02 0.  0.
         12    1    1    2    0    0  0.69000937289E+01  0.30829846341E+02 -0.29757897796E+02  0.43400728106E+02  0.00000000000E+00 0. -1.
         11    1    3    3    0    0  0.28022092731E+01 -0.57736011352E+01 -0.50669482256E+00  0.64376693596E+01  0.51100000000E-03 0. -1.
        -11    1    3    3    0    0 -0.78290196854E+01 -0.10056615442E+02  0.16941551963E+02  0.21200123740E+02  0.51100000000E-03 0.  1.
         12    1    3    3    0    0 -0.18732833165E+01 -0.14999629763E+02  0.13323040655E+02  0.20149478795E+02  0.00000000000E+00 0. -1.
</event>
<event>
 7    1  0.4937359E-010  0.4778727E+02  0.7816164E-02  0.1312668E+00
        -11   -1    0    0    0    0  0.00000000000E+00  0.00000000000E+00  0.45593999997E+02  0.45594000000E+02  0.51100000000E-03 0.  1.
         11   -1    0    0    0    0 -0.00000000000E+00 -0.00000000000E+00 -0.45593999997E+02  0.45594000000E+02  0.51100000000E-03 0. -1.
    9900012    2    1    2    0    0 -0.39175696480E+02 -0.18444720457E+02  0.29462486418E+01  0.47787270876E+02  0.19999999234E+02 0.  0.
         12    1    1    2    0    0  0.39175696480E+02  0.18444720457E+02 -0.29462486418E+01  0.43400729124E+02  0.00000000000E+00 0. -1.
         11    1    3    3    0    0 -0.97800127296E+00 -0.58770349186E-01 -0.68894033475E+00  0.11977393246E+01  0.51100000000E-03 0.  1.
        -11    1    3    3    0    0 -0.17766348442E+02 -0.47421725917E+01 -0.71876373937E+01  0.19743187925E+02  0.51100000000E-03 0. -1.
        -12    1    3    3    0    0 -0.20431346764E+02 -0.13643777516E+02  0.10822826370E+02  0.26846343627E+02  0.00000000000E+00 0.  1.
</event>
<event>
 7    1  0.4937359E-010  0.4778727E+02  0.7816164E-02  0.1312668E+00
        -11   -1    0    0    0    0  0.00000000000E+00  0.00000000000E+00  0.45593999997E+02  0.45594000000E+02  0.51100000000E-03 0.  1.
         11   -1    0    0    0    0 -0.00000000000E+00 -0.00000000000E+00 -0.45593999997E+02  0.45594000000E+02  0.51100000000E-03 0. -1.
    9900012    2    1    2    0    0 -0.35028807585E+02  0.13479545862E+02  0.21792382695E+02  0.47787268889E+02  0.19999990173E+02 0.  0.
         12    1    1    2    0    0  0.35028807585E+02 -0.13479545862E+02 -0.21792382695E+02  0.43400731111E+02  0.00000000000E+00 0. -1.
         11    1    3    3    0    0 -0.19324522749E+02  0.25626808362E+01  0.27854062598E+01  0.19691698780E+02  0.51100000000E-03 0. -1.
        -11    1    3    3    0    0 -0.78126807462E+01  0.84535052896E+01  0.15002469683E+02  0.18909622656E+02  0.51100000000E-03 0.  1.
        -12    1    3    3    0    0 -0.78916040896E+01  0.24633597359E+01  0.40045067519E+01  0.91859474536E+01  0.00000000000E+00 0.  1.
</event>
<event>
 7    1  0.4937359E-010  0.4778727E+02  0.7816164E-02  0.1312668E+00
        -11   -1    0    0    0    0  0.00000000000E+00  0.00000000000E+00  0.45593999997E+02  0.45594000000E+02  0.51100000000E-03 0. -1.
         11   -1    0    0    0    0 -0.00000000000E+00 -0.00000000000E+00 -0.45593999997E+02  0.45594000000E+02  0.51100000000E-03 0.  1.
    9900012    2    1    2    0    0 -0.14589257922E+02  0.39390862490E+02 -0.10914989439E+02  0.47787268568E+02  0.19999988709E+02 0.  0.
         12    1    1    2    0    0  0.14589257922E+02 -0.39390862490E+02  0.10914989439E+02  0.43400731432E+02  0.00000000000E+00 0. -1.
         11    1    3    3    0    0 -0.10871015054E+01  0.16426172522E+02  0.12971376256E+01  0.16513131129E+02  0.51100000000E-03 0. -1.
        -11    1    3    3    0    0 -0.12243235605E+02  0.22209304896E+02 -0.76613309047E+01  0.26492376894E+02  0.51100000000E-03 0.  1.
         12    1    3    3    0    0 -0.12589208115E+01  0.75538507237E+00 -0.45507961601E+01  0.47817605448E+01  0.00000000000E+00 0. -1.
</event>
<event>
 7    1  0.4937359E-010  0.4778727E+02  0.7816164E-02  0.1312668E+00
        -11   -1    0    0    0    0  0.00000000000E+00  0.00000000000E+00  0.45593999997E+02  0.45594000000E+02  0.51100000000E-03 0. -1.
         11   -1    0    0    0    0 -0.00000000000E+00 -0.00000000000E+00 -0.45593999997E+02  0.45594000000E+02  0.51100000000E-03 0.  1.
    9900012    2    1    2    0    0  0.62828194189E+01 -0.19531860005E+02 -0.38244686688E+02  0.47787269188E+02  0.19999991535E+02 0.  0.
         12    1    1    2    0    0 -0.62828194189E+01  0.19531860005E+02  0.38244686688E+02  0.43400730812E+02  0.00000000000E+00 0. -1.
         11    1    3    3    0    0 -0.12362892865E+01 -0.44851023081E+01 -0.61545926805E+01  0.77151516666E+01  0.51100000000E-03 0.  1.
        -11    1    3    3    0    0 -0.28871254280E+01  0.23128130640E+01 -0.60501926936E+01  0.70915040293E+01  0.51100000000E-03 0. -1.
        -12    1    3    3    0    0  0.10406234133E+02 -0.17359570761E+02 -0.26039901314E+02  0.32980613492E+02  0.00000000000E+00 0.  1.
</event>
<event>
 7    1  0.4937359E-010  0.4778727E+02  0.7816164E-02  0.1312668E+00
        -11   -1    0    0    0    0  0.00000000000E+00  0.00000000000E+00  0.45593999997E+02  0.45594000000E+02  0.51100000000E-03 0. -1.
         11   -1    0    0    0    0 -0.00000000000E+00 -0.00000000000E+00 -0.45593999997E+02  0.45594000000E+02  0.51100000000E-03 0.  1.
    9900012    2    1    2    0    0 -0.32890445972E+02 -0.46795236741E+01 -0.27927472458E+02  0.47787273094E+02  0.20000009347E+02 0.  0.
         12    1    1    2    0    0  0.32890445972E+02  0.46795236741E+01  0.27927472458E+02  0.43400726906E+02  0.00000000000E+00 0. -1.
         11    1    3    3    0    0 -0.14324078647E+02 -0.39756486002E+01 -0.83986997901E+01  0.17074049587E+02  0.51100000000E-03 0. -1.
        -11    1    3    3    0    0 -0.16827718846E+02 -0.47611414140E+01 -0.98405417428E+01  0.20066809691E+02  0.51100000000E-03 0.  1.
         12    1    3    3    0    0 -0.17386484787E+01  0.40572663401E+01 -0.96882309253E+01  0.10646413816E+02  0.00000000000E+00 0. -1.
</event>
<event>
 7    1  0.4937359E-010  0.4778727E+02  0.7816164E-02  0.1312668E+00
        -11   -1    0    0    0    0  0.00000000000E+00  0.00000000000E+00  0.45593999997E+02  0.45594000000E+02  0.51100000000E-03 0. -1.
         11   -1    0    0    0    0 -0.00000000000E+00 -0.00000000000E+00 -0.45593999997E+02  0.45594000000E+02  0.51100000000E-03 0.  1.
    9900012    2    1    2    0    0 -0.22266093417E+02 -0.32208132841E+02 -0.18721126639E+02  0.47787270515E+02  0.19999997587E+02 0.  0.
         12    1    1    2    0    0  0.22266093417E+02  0.32208132841E+02  0.18721126639E+02  0.43400729485E+02  0.00000000000E+00 0. -1.
         11    1    3    3    0    0  0.28769166157E+00  0.19009617912E+01 -0.19292766231E+01  0.27236979960E+01  0.51100000000E-03 0. -1.
        -11    1    3    3    0    0 -0.10946804209E+02 -0.19654401804E+02 -0.13495693343E+02  0.26234743600E+02  0.51100000000E-03 0.  1.
         12    1    3    3    0    0 -0.11606980869E+02 -0.14454692828E+02 -0.32961566731E+01  0.18828828919E+02  0.00000000000E+00 0. -1.
</event>
<event>
 7    1  0.4937359E-010  0.4778727E+02  0.7816164E-02  0.1312668E+00
        -11   -1    0    0    0    0  0.00000000000E+00  0.00000000000E+00  0.45593999997E+02  0.45594000000E+02  0.51100000000E-03 0. -1.
         11   -1    0    0    0    0 -0.00000000000E+00 -0.00000000000E+00 -0.45593999997E+02  0.45594000000E+02  0.51100000000E-03 0.  1.
    9900012    2    1    2    0    0 -0.83082476008E+01  0.25741932927E+02 -0.33940381128E+02  0.47787267747E+02  0.19999984965E+02 0.  0.
         12    1    1    2    0    0  0.83082476008E+01 -0.25741932927E+02  0.33940381128E+02  0.43400732253E+02  0.00000000000E+00 0. -1.
         11    1    3    3    0    0 -0.45764628017E+01  0.11169186564E+02 -0.53263039832E+01  0.13193341300E+02  0.51100000000E-03 0. -1.
        -11    1    3    3    0    0 -0.32851188769E+01  0.16230420125E+02 -0.28384554504E+02  0.32861854453E+02  0.51100000000E-03 0.  1.
        -12    1    3    3    0    0 -0.44666592215E+00 -0.16576737624E+01 -0.22952264104E+00  0.17320719937E+01  0.00000000000E+00 0.  1.
</event>
<event>
 7    1  0.4937359E-010  0.4778727E+02  0.7816164E-02  0.1312668E+00
        -11   -1    0    0    0    0  0.00000000000E+00  0.00000000000E+00  0.45593999997E+02  0.45594000000E+02  0.51100000000E-03 0.  1.
         11   -1    0    0    0    0 -0.00000000000E+00 -0.00000000000E+00 -0.45593999997E+02  0.45594000000E+02  0.51100000000E-03 0. -1.
    9900012    2    1    2    0    0  0.20770901325E+02  0.30358706076E+02  0.23033495525E+02  0.47787270829E+02  0.19999999018E+02 0.  0.
         12    1    1    2    0    0 -0.20770901325E+02 -0.30358706076E+02 -0.23033495525E+02  0.43400729171E+02  0.00000000000E+00 0. -1.
         11    1    3    3    0    0  0.39721184784E+01  0.14772325285E+01  0.10420636713E+02  0.11249427138E+02  0.51100000000E-03 0. -1.
        -11    1    3    3    0    0  0.13137320059E+02  0.25457504472E+02  0.80443380967E+01  0.29755421152E+02  0.51100000000E-03 0.  1.
        -12    1    3    3    0    0  0.36614627885E+01  0.34239690758E+01  0.45685207150E+01  0.67824225397E+01  0.00000000000E+00 0.  1.
</event>
<event>
 7    1  0.4937359E-010  0.4778727E+02  0.7816164E-02  0.1312668E+00
        -11   -1    0    0    0    0  0.00000000000E+00  0.00000000000E+00  0.45593999997E+02  0.45594000000E+02  0.51100000000E-03 0. -1.
         11   -1    0    0    0    0 -0.00000000000E+00 -0.00000000000E+00 -0.45593999997E+02  0.45594000000E+02  0.51100000000E-03 0.  1.
    9900012    2    1    2    0    0 -0.11797362035E+02 -0.41724392045E+02 -0.18763456448E+01  0.47787270565E+02  0.19999997815E+02 0.  0.
         12    1    1    2    0    0  0.11797362035E+02  0.41724392045E+02  0.18763456448E+01  0.43400729435E+02  0.00000000000E+00 0. -1.
         11    1    3    3    0    0 -0.11322004419E+02 -0.37953641420E+02  0.18689599862E+01  0.39650469011E+02  0.51100000000E-03 0. -1.
        -11    1    3    3    0    0 -0.45770834387E+00  0.20529555205E+00 -0.41132512595E+01  0.41437277151E+01  0.51100000000E-03 0.  1.
        -12    1    3    3    0    0 -0.17649272098E-01 -0.39760461775E+01  0.36794562856E+00  0.39930738395E+01  0.00000000000E+00 0.  1.
</event>
<event>
 7    1  0.4937359E-010  0.4778727E+02  0.7816164E-02  0.1312668E+00
        -11   -1    0    0    0    0  0.00000000000E+00  0.00000000000E+00  0.45593999997E+02  0.45594000000E+02  0.51100000000E-03 0.  1.
         11   -1    0    0    0    0 -0.00000000000E+00 -0.00000000000E+00 -0.45593999997E+02  0.45594000000E+02  0.51100000000E-03 0. -1.
    9900012    2    1    2    0    0  0.19521642121E+02  0.13648445030E+02  0.36280141743E+02  0.47787271345E+02  0.20000001372E+02 0.  0.
         12    1    1    2    0    0 -0.19521642121E+02 -0.13648445030E+02 -0.36280141743E+02  0.43400728655E+02  0.00000000000E+00 0. -1.
         11    1    3    3    0    0  0.12956788832E+02  0.12923633381E+02  0.23689124973E+02  0.29934483775E+02  0.51100000000E-03 0. -1.
        -11    1    3    3    0    0  0.27370996165E+01  0.37435429792E+01  0.12094008108E+02  0.12952639141E+02  0.51100000000E-03 0.  1.
         12    1    3    3    0    0  0.38277536724E+01 -0.30187313305E+01  0.49700866251E+00  0.49001484297E+01  0.00000000000E+00 0. -1.
</event>
<event>
 7    1  0.4968617E-010  0.4778727E+02  0.7816164E-02  0.1312668E+00
        -11   -1    0    0    0    0  0.00000000000E+00  0.00000000000E+00  0.45593999997E+02  0.45594000000E+02  0.51100000000E-03 0. -1.
         11   -1    0    0    0    0 -0.00000000000E+00 -0.00000000000E+00 -0.45593999997E+02  0.45594000000E+02  0.51100000000E-03 0.  1.
    9900012    2    1    2    0    0  0.86232187485E+01 -0.40813779541E+02 -0.11979100440E+02  0.47787270175E+02  0.19999996035E+02 0.  0.
         12    1    1    2    0    0 -0.86232187485E+01  0.40813779541E+02  0.11979100440E+02  0.43400729825E+02  0.00000000000E+00 0. -1.
         11    1    3    3    0    0  0.40129745543E+01 -0.36730131899E+01  0.25121288043E+01  0.59921433609E+01  0.51100000000E-03 0. -1.
        -11    1    3    3    0    0  0.20903935114E+01 -0.14926627464E+02 -0.12066606133E+02  0.19307432152E+02  0.51100000000E-03 0.  1.
        -12    1    3    3    0    0  0.25198506828E+01 -0.22214138887E+02 -0.24246231108E+01  0.22487694662E+02  0.00000000000E+00 0.  1.
</event>
<event>
 7    1  0.4937359E-010  0.4778727E+02  0.7816164E-02  0.1312668E+00
        -11   -1    0    0    0    0  0.00000000000E+00  0.00000000000E+00  0.45593999997E+02  0.45594000000E+02  0.51100000000E-03 0. -1.
         11   -1    0    0    0    0 -0.00000000000E+00 -0.00000000000E+00 -0.45593999997E+02  0.45594000000E+02  0.51100000000E-03 0.  1.
    9900012    2    1    2    0    0  0.17145538906E+02 -0.38554842081E+02 -0.10157643598E+02  0.47787273327E+02  0.20000010408E+02 0.  0.
         12    1    1    2    0    0 -0.17145538906E+02  0.38554842081E+02  0.10157643598E+02  0.43400726673E+02  0.00000000000E+00 0. -1.
         11    1    3    3    0    0  0.10558437305E+02 -0.23619055792E+02 -0.14673531851E+02  0.29743115709E+02  0.51100000000E-03 0. -1.
        -11    1    3    3    0    0  0.69581357202E+01 -0.13606333431E+02  0.23298720067E+01  0.15458857201E+02  0.51100000000E-03 0.  1.
         12    1    3    3    0    0 -0.37103411942E+00 -0.13294528581E+01  0.21860162460E+01  0.25853004173E+01  0.00000000000E+00 0. -1.
</event>
<event>
 7    1  0.4937359E-010  0.4778727E+02  0.7816164E-02  0.1312668E+00
        -11   -1    0    0    0    0  0.00000000000E+00  0.00000000000E+00  0.45593999997E+02  0.45594000000E+02  0.51100000000E-03 0. -1.
         11   -1    0    0    0    0 -0.00000000000E+00 -0.00000000000E+00 -0.45593999997E+02  0.45594000000E+02  0.51100000000E-03 0.  1.
    9900012    2    1    2    0    0 -0.60458949609E+01  0.42324043978E+02  0.74663345644E+01  0.47787266177E+02  0.19999977806E+02 0.  0.
         12    1    1    2    0    0  0.60458949609E+01 -0.42324043978E+02 -0.74663345644E+01  0.43400733823E+02  0.00000000000E+00 0. -1.
         11    1    3    3    0    0 -0.82734968672E+01  0.51751715129E+01  0.15434181237E+01  0.98800450588E+01  0.51100000000E-03 0. -1.
        -11    1    3    3    0    0  0.22022243036E+01  0.35822754469E+02  0.48814191321E+01  0.36220819740E+02  0.51100000000E-03 0.  1.
        -12    1    3    3    0    0  0.25377602620E-01  0.13261179962E+01  0.10414973086E+01  0.16864013776E+01  0.00000000000E+00 0.  1.
</event>
<event>
 7    1  0.4937359E-010  0.4778727E+02  0.7816164E-02  0.1312668E+00
        -11   -1    0    0    0    0  0.00000000000E+00  0.00000000000E+00  0.45593999997E+02  0.45594000000E+02  0.51100000000E-03 0.  1.
         11   -1    0    0    0    0 -0.00000000000E+00 -0.00000000000E+00 -0.45593999997E+02  0.45594000000E+02  0.51100000000E-03 0. -1.
    9900012    2    1    2    0    0 -0.42073248855E+02 -0.10216398807E+02  0.30150770197E+01  0.47787265407E+02  0.19999974296E+02 0.  0.
         12    1    1    2    0    0  0.42073248855E+02  0.10216398807E+02 -0.30150770197E+01  0.43400734593E+02  0.00000000000E+00 0. -1.
         11    1    3    3    0    0 -0.21686735361E+02 -0.49139532113E+01  0.77867464835E+01  0.23560450926E+02  0.51100000000E-03 0. -1.
        -11    1    3    3    0    0  0.13171798680E+01  0.13498679951E+00 -0.65337527174E+00  0.14765106662E+01  0.51100000000E-03 0.  1.
         12    1    3    3    0    0 -0.21703693361E+02 -0.54374323955E+01 -0.41182941921E+01  0.22750303814E+02  0.00000000000E+00 0. -1.
</event>
<event>
 7    1  0.4937359E-010  0.4778727E+02  0.7816164E-02  0.1312668E+00
        -11   -1    0    0    0    0  0.00000000000E+00  0.00000000000E+00  0.45593999997E+02  0.45594000000E+02  0.51100000000E-03 0.  1.
         11   -1    0    0    0    0 -0.00000000000E+00 -0.00000000000E+00 -0.45593999997E+02  0.45594000000E+02  0.51100000000E-03 0. -1.
    9900012    2    1    2    0    0 -0.21438766864E+02  0.15633065960E+02  0.34345449068E+02  0.47787270195E+02  0.19999996125E+02 0.  0.
         12    1    1    2    0    0  0.21438766864E+02 -0.15633065960E+02 -0.34345449068E+02  0.43400729805E+02  0.00000000000E+00 0. -1.
         11    1    3    3    0    0 -0.73520345172E+01  0.75835537088E+01  0.28148198266E+02  0.30064659723E+02  0.51100000000E-03 0. -1.
        -11    1    3    3    0    0 -0.73366259950E+01  0.58246654463E+01  0.46085505054E+01  0.10439901655E+02  0.51100000000E-03 0.  1.
         12    1    3    3    0    0 -0.67501063519E+01  0.22248468045E+01  0.15887002970E+01  0.72827088161E+01  0.00000000000E+00 0. -1.
</event>
<event>
 7    1  0.4937359E-010  0.4778727E+02  0.7816164E-02  0.1312668E+00
        -11   -1    0    0    0    0  0.00000000000E+00  0.00000000000E+00  0.45593999997E+02  0.45594000000E+02  0.51100000000E-03 0. -1.
         11   -1    0    0    0    0 -0.00000000000E+00 -0.00000000000E+00 -0.45593999997E+02  0.45594000000E+02  0.51100000000E-03 0.  1.
    9900012    2    1    2    0    0  0.53808815331E+01  0.39439759448E+02 -0.17296667793E+02  0.47787271571E+02  0.20000002402E+02 0.  0.
         12    1    1    2    0    0 -0.53808815331E+01 -0.39439759448E+02  0.17296667793E+02  0.43400728429E+02  0.00000000000E+00 0. -1.
         11    1    3    3    0    0 -0.37705137924E+01  0.20277564896E+02 -0.10677039826E+02  0.23224891648E+02  0.51100000000E-03 0. -1.
        -11    1    3    3    0    0  0.59141764322E+01  0.17664816435E+02 -0.20139756714E+01  0.18737110791E+02  0.51100000000E-03 0.  1.
         12    1    3    3    0    0  0.32372188933E+01  0.14973781177E+01 -0.46056522949E+01  0.58252691313E+01  0.00000000000E+00 0. -1.
</event>
<event>
 7    1  0.4937359E-010  0.4778728E+02  0.7816164E-02  0.1312668E+00
        -11   -1    0    0    0    0  0.00000000000E+00  0.00000000000E+00  0.45593999997E+02  0.45594000000E+02  0.51100000000E-03 0. -1.
         11   -1    0    0    0    0 -0.00000000000E+00 -0.00000000000E+00 -0.45593999997E+02  0.45594000000E+02  0.51100000000E-03 0.  1.
    9900012    2    1    2    0    0  0.43183045782E+02  0.40414634731E+01 -0.15853571157E+01  0.47787283102E+02  0.20000054977E+02 0.  0.
         12    1    1    2    0    0 -0.43183045782E+02 -0.40414634731E+01  0.15853571157E+01  0.43400716898E+02  0.00000000000E+00 0. -1.
         11    1    3    3    0    0  0.25574046482E+01 -0.28660164770E+01 -0.44363351851E+01  0.58681717013E+01  0.51100000000E-03 0. -1.
        -11    1    3    3    0    0  0.20171413902E+02  0.59968623256E+01 -0.10759124528E+01  0.21071447137E+02  0.51100000000E-03 0.  1.
         12    1    3    3    0    0  0.20454227232E+02  0.91061762445E+00  0.39268905222E+01  0.20847664265E+02  0.00000000000E+00 0. -1.
</event>
<event>
 7    1  0.4937359E-010  0.4778726E+02  0.7816164E-02  0.1312668E+00
        -11   -1    0    0    0    0  0.00000000000E+00  0.00000000000E+00  0.45593999997E+02  0.45594000000E+02  0.51100000000E-03 0.  1.
         11   -1    0    0    0    0 -0.00000000000E+00 -0.00000000000E+00 -0.45593999997E+02  0.45594000000E+02  0.51100000000E-03 0. -1.
    9900012    2    1    2    0    0 -0.43072381404E+02 -0.21041436835E+01 -0.48955668927E+01  0.47787262268E+02  0.19999959986E+02 0.  0.
         12    1    1    2    0    0  0.43072381404E+02  0.21041436835E+01  0.48955668927E+01  0.43400737732E+02  0.00000000000E+00 0. -1.
         11    1    3    3    0    0 -0.11996378934E+02  0.38414602019E+01 -0.19623593269E+01  0.12748363753E+02  0.51100000000E-03 0. -1.
        -11    1    3    3    0    0 -0.75678362481E+01 -0.69600688422E+01  0.31162812077E+01  0.10743645219E+02  0.51100000000E-03 0.  1.
        -12    1    3    3    0    0 -0.23508166222E+02  0.10144649567E+01 -0.60494887736E+01  0.24295253296E+02  0.00000000000E+00 0.  1.
</event>
<event>
 7    1  0.4937359E-010  0.4778727E+02  0.7816164E-02  0.1312668E+00
        -11   -1    0    0    0    0  0.00000000000E+00  0.00000000000E+00  0.45593999997E+02  0.45594000000E+02  0.51100000000E-03 0.  1.
         11   -1    0    0    0    0 -0.00000000000E+00 -0.00000000000E+00 -0.45593999997E+02  0.45594000000E+02  0.51100000000E-03 0. -1.
    9900012    2    1    2    0    0  0.15773913997E+01  0.31775753592E+02  0.29520110793E+02  0.47787267043E+02  0.19999981757E+02 0.  0.
         12    1    1    2    0    0 -0.15773913997E+01 -0.31775753592E+02 -0.29520110793E+02  0.43400732957E+02  0.00000000000E+00 0. -1.
         11    1    3    3    0    0 -0.51531467973E+01  0.50873009176E+01  0.13454454978E+02  0.15279329552E+02  0.51100000000E-03 0. -1.
        -11    1    3    3    0    0  0.31996459902E+01  0.22254245477E+02  0.13941248676E+02  0.26454632696E+02  0.51100000000E-03 0.  1.
         12    1    3    3    0    0  0.35308922067E+01  0.44342071978E+01  0.21244071391E+01  0.60533047950E+01  0.00000000000E+00 0. -1.
</event>
<event>
 7    1  0.5116841E-010  0.4778727E+02  0.7816164E-02  0.1312668E+00
        -11   -1    0    0    0    0  0.00000000000E+00  0.00000000000E+00  0.45593999997E+02  0.45594000000E+02  0.51100000000E-03 0.  1.
         11   -1    0    0    0    0 -0.00000000000E+00 -0.00000000000E+00 -0.45593999997E+02  0.45594000000E+02  0.51100000000E-03 0. -1.
    9900012    2    1    2    0    0 -0.30612815551E+02  0.10790635134E+01  0.30745966442E+02  0.47787270669E+02  0.19999998286E+02 0.  0.
         12    1    1    2    0    0  0.30612815551E+02 -0.10790635134E+01 -0.30745966442E+02  0.43400729331E+02  0.00000000000E+00 0. -1.
         11    1    3    3    0    0  0.15355772255E+01 -0.93110480593E+00  0.49662161766E+00  0.18632194898E+01  0.51100000000E-03 0. -1.
        -11    1    3    3    0    0 -0.25297038704E+02  0.35345399809E+01  0.29252382982E+02  0.38834714502E+02  0.51100000000E-03 0.  1.
        -12    1    3    3    0    0 -0.68513540733E+01 -0.15243716616E+01  0.99696184183E+00  0.70893366766E+01  0.00000000000E+00 0.  1.
</event>
<event>
 7    1  0.4937359E-010  0.4778727E+02  0.7816164E-02  0.1312668E+00
        -11   -1    0    0    0    0  0.00000000000E+00  0.00000000000E+00  0.45593999997E+02  0.45594000000E+02  0.51100000000E-03 0. -1.
         11   -1    0    0    0    0 -0.00000000000E+00 -0.00000000000E+00 -0.45593999997E+02  0.45594000000E+02  0.51100000000E-03 0.  1.
    9900012    2    1    2    0    0  0.29186720836E+02 -0.27688321421E+02 -0.16282372086E+02  0.47787268935E+02  0.19999990381E+02 0.  0.
         12    1    1    2    0    0 -0.29186720836E+02  0.27688321421E+02  0.16282372086E+02  0.43400731065E+02  0.00000000000E+00 0. -1.
         11    1    3    3    0    0  0.68946029697E+01 -0.14961622286E+02 -0.44622687023E+01  0.17067440751E+02  0.51100000000E-03 0. -1.
        -11    1    3    3    0    0  0.69816174948E+01 -0.10887720323E+02 -0.54662809215E+01  0.14041569145E+02  0.51100000000E-03 0.  1.
         12    1    3    3    0    0  0.15310500372E+02 -0.18389788116E+01 -0.63538224625E+01  0.16678259039E+02  0.00000000000E+00 0. -1.
</event>
<event>
 7    1  0.4937359E-010  0.4778727E+02  0.7816164E-02  0.1312668E+00
        -11   -1    0    0    0    0  0.00000000000E+00  0.00000000000E+00  0.45593999997E+02  0.45594000000E+02  0.51100000000E-03 0.  1.
         11   -1    0    0    0    0 -0.00000000000E+00 -0.00000000000E+00 -0.45593999997E+02  0.45594000000E+02  0.51100000000E-03 0. -1.
    9900012    2    1    2    0    0  0.31694583262E+02 -0.17591008903E+02  0.23866996470E+02  0.47787265872E+02  0.19999976418E+02 0.  0.
         12    1    1    2    0    0 -0.31694583262E+02  0.17591008903E+02 -0.23866996470E+02  0.43400734128E+02  0.00000000000E+00 0. -1.
         11    1    3    3    0    0  0.18097043210E+02 -0.13109449876E+02  0.20787568282E+02  0.30520216977E+02  0.51100000000E-03 0. -1.
        -11    1    3    3    0    0  0.11085648728E+02 -0.50584048843E+00  0.50197768691E+01  0.12179722591E+02  0.51100000000E-03 0.  1.
         12    1    3    3    0    0  0.25118913237E+01 -0.39757185383E+01 -0.19403486813E+01  0.50873263040E+01  0.00000000000E+00 0. -1.
</event>
<event>
 7    1  0.4937359E-010  0.4778727E+02  0.7816164E-02  0.1312668E+00
        -11   -1    0    0    0    0  0.00000000000E+00  0.00000000000E+00  0.45593999997E+02  0.45594000000E+02  0.51100000000E-03 0.  1.
         11   -1    0    0    0    0 -0.00000000000E+00 -0.00000000000E+00 -0.45593999997E+02  0.45594000000E+02  0.51100000000E-03 0. -1.
    9900012    2    1    2    0    0  0.43384624767E+02  0.41102427702E+00 -0.11084636434E+01  0.47787270758E+02  0.19999998693E+02 0.  0.
         12    1    1    2    0    0 -0.43384624767E+02 -0.41102427702E+00  0.11084636434E+01  0.43400729242E+02  0.00000000000E+00 0. -1.
         11    1    3    3    0    0  0.26060645774E+02 -0.50503520152E+01  0.75995406470E+01  0.27611887511E+02  0.51100000000E-03 0. -1.
        -11    1    3    3    0    0  0.99285629904E+01  0.33936358406E+01 -0.44755171326E+01  0.11407163589E+02  0.51100000000E-03 0.  1.
         12    1    3    3    0    0  0.73954160024E+01  0.20677404516E+01 -0.42324871579E+01  0.87682196577E+01  0.00000000000E+00 0. -1.
</event>
<event>
 7    1  0.4937359E-010  0.4778727E+02  0.7816164E-02  0.1312668E+00
        -11   -1    0    0    0    0  0.00000000000E+00  0.00000000000E+00  0.45593999997E+02  0.45594000000E+02  0.51100000000E-03 0.  1.
         11   -1    0    0    0    0 -0.00000000000E+00 -0.00000000000E+00 -0.45593999997E+02  0.45594000000E+02  0.51100000000E-03 0. -1.
    9900012    2    1    2    0    0  0.24990156184E+02  0.35205969487E+02  0.44333993021E+01  0.47787271631E+02  0.20000002673E+02 0.  0.
         12    1    1    2    0    0 -0.24990156184E+02 -0.35205969487E+02 -0.44333993021E+01  0.43400728369E+02  0.00000000000E+00 0. -1.
         11    1    3    3    0    0  0.48372930756E+01  0.19456305212E+02 -0.10966342572E+01  0.20078591180E+02  0.51100000000E-03 0. -1.
        -11    1    3    3    0    0  0.20707843722E+02  0.16114439654E+02  0.47183925680E+01  0.26659954720E+02  0.51100000000E-03 0.  1.
        -12    1    3    3    0    0 -0.55498061409E+00 -0.36477537937E+00  0.81164099132E+00  0.10487257307E+01  0.00000000000E+00 0.  1.
</event>
<event>
 7    1  0.4937359E-010  0.4778726E+02  0.7816164E-02  0.1312668E+00
        -11   -1    0    0    0    0  0.00000000000E+00  0.00000000000E+00  0.45593999997E+02  0.45594000000E+02  0.51100000000E-03 0. -1.
         11   -1    0    0    0    0 -0.00000000000E+00 -0.00000000000E+00 -0.45593999997E+02  0.45594000000E+02  0.51100000000E-03 0.  1.
    9900012    2    1    2    0    0 -0.26901847851E+02  0.34037894379E+02 -0.11561643633E+01  0.47787258214E+02  0.19999941500E+02 0.  0.
         12    1    1    2    0    0  0.26901847851E+02 -0.34037894379E+02  0.11561643633E+01  0.43400741786E+02  0.00000000000E+00 0. -1.
         11    1    3    3    0    0 -0.24773774800E+01  0.11748211254E+01  0.33067699661E+01  0.42956177349E+01  0.51100000000E-03 0. -1.
        -11    1    3    3    0    0 -0.21250129566E+02  0.22959045581E+02 -0.83656987880E+01  0.32383185406E+02  0.51100000000E-03 0.  1.
        -12    1    3    3    0    0 -0.31743408046E+01  0.99040276726E+01  0.39027644586E+01  0.11108455073E+02  0.00000000000E+00 0.  1.
</event>
<event>
 7    1  0.4937359E-010  0.4778727E+02  0.7816164E-02  0.1312668E+00
        -11   -1    0    0    0    0  0.00000000000E+00  0.00000000000E+00  0.45593999997E+02  0.45594000000E+02  0.51100000000E-03 0.  1.
         11   -1    0    0    0    0 -0.00000000000E+00 -0.00000000000E+00 -0.45593999997E+02  0.45594000000E+02  0.51100000000E-03 0. -1.
    9900012    2    1    2    0    0 -0.26717169931E+02 -0.13162826553E+02  0.31568272311E+02  0.47787274330E+02  0.20000014982E+02 0.  0.
         12    1    1    2    0    0  0.26717169931E+02  0.13162826553E+02 -0.31568272311E+02  0.43400725670E+02  0.00000000000E+00 0. -1.
         11    1    3    3    0    0 -0.22632849757E+02 -0.66000176543E+01  0.14939318296E+02  0.27910380731E+02  0.51100000000E-03 0. -1.
        -11    1    3    3    0    0 -0.51725970056E+01 -0.25347150414E+01  0.13449303845E+02  0.14630936890E+02  0.51100000000E-03 0.  1.
         12    1    3    3    0    0  0.10882768316E+01 -0.40280938574E+01  0.31796501701E+01  0.52459567087E+01  0.00000000000E+00 0. -1.
</event>
<event>
 7    1  0.4937359E-010  0.4778727E+02  0.7816164E-02  0.1312668E+00
        -11   -1    0    0    0    0  0.00000000000E+00  0.00000000000E+00  0.45593999997E+02  0.45594000000E+02  0.51100000000E-03 0. -1.
         11   -1    0    0    0    0 -0.00000000000E+00 -0.00000000000E+00 -0.45593999997E+02  0.45594000000E+02  0.51100000000E-03 0.  1.
    9900012    2    1    2    0    0  0.33803824015E+02 -0.27159168594E+02  0.18177496432E+01  0.47787272235E+02  0.20000005430E+02 0.  0.
         12    1    1    2    0    0 -0.33803824015E+02  0.27159168594E+02 -0.18177496432E+01  0.43400727765E+02  0.00000000000E+00 0. -1.
         11    1    3    3    0    0  0.13833052969E+02 -0.22530658799E+02  0.36549144778E+01  0.26689742233E+02  0.51100000000E-03 0. -1.
        -11    1    3    3    0    0  0.15867412813E+02 -0.46666591391E+01  0.14563497316E+00  0.16540063685E+02  0.51100000000E-03 0.  1.
         12    1    3    3    0    0  0.41033582325E+01  0.38149344363E-01 -0.19827998077E+01  0.45574663174E+01  0.00000000000E+00 0. -1.
</event>
<event>
 7    1  0.4937359E-010  0.4778727E+02  0.7816164E-02  0.1312668E+00
        -11   -1    0    0    0    0  0.00000000000E+00  0.00000000000E+00  0.45593999997E+02  0.45594000000E+02  0.51100000000E-03 0.  1.
         11   -1    0    0    0    0 -0.00000000000E+00 -0.00000000000E+00 -0.45593999997E+02  0.45594000000E+02  0.51100000000E-03 0. -1.
    9900012    2    1    2    0    0  0.30002508436E+02  0.26800162455E+02  0.16285702518E+02  0.47787270438E+02  0.19999997233E+02 0.  0.
         12    1    1    2    0    0 -0.30002508436E+02 -0.26800162455E+02 -0.16285702518E+02  0.43400729562E+02  0.00000000000E+00 0. -1.
         11    1    3    3    0    0  0.13440860315E+01  0.55413530012E+01 -0.15766454940E+01  0.59159928684E+01  0.51100000000E-03 0. -1.
        -11    1    3    3    0    0  0.11971771433E+02  0.25860913141E+01  0.93950669294E+01  0.15436271001E+02  0.51100000000E-03 0.  1.
        -12    1    3    3    0    0  0.16686650971E+02  0.18672718139E+02  0.84672810830E+01  0.26435006569E+02  0.00000000000E+00 0.  1.
</event>
<event>
 7    1  0.4937359E-010  0.4778728E+02  0.7816164E-02  0.1312668E+00
        -11   -1    0    0    0    0  0.00000000000E+00  0.00000000000E+00  0.45593999997E+02  0.45594000000E+02  0.51100000000E-03 0.  1.
         11   -1    0    0    0    0 -0.00000000000E+00 -0.00000000000E+00 -0.45593999997E+02  0.45594000000E+02  0.51100000000E-03 0. -1.
    9900012    2    1    2    0    0  0.37419426246E+01  0.23002636114E+02  0.36612822043E+02  0.47787284099E+02  0.20000059520E+02 0.  0.
         12    1    1    2    0    0 -0.37419426246E+01 -0.23002636114E+02 -0.36612822043E+02  0.43400715901E+02  0.00000000000E+00 0. -1.
         11    1    3    3    0    0 -0.51252813916E+01  0.75348310416E+01  0.72036217397E+01  0.11616124767E+02  0.51100000000E-03 0. -1.
        -11    1    3    3    0    0  0.36953000197E+01  0.32537483031E+01  0.18045156698E+02  0.18704806889E+02  0.51100000000E-03 0.  1.
        -12    1    3    3    0    0  0.51719239964E+01  0.12214056769E+02  0.11364043606E+02  0.17466352443E+02  0.00000000000E+00 0.  1.
</event>
<event>
 7    1  0.4937359E-010  0.4778727E+02  0.7816164E-02  0.1312668E+00
        -11   -1    0    0    0    0  0.00000000000E+00  0.00000000000E+00  0.45593999997E+02  0.45594000000E+02  0.51100000000E-03 0.  1.
         11   -1    0    0    0    0 -0.00000000000E+00 -0.00000000000E+00 -0.45593999997E+02  0.45594000000E+02  0.51100000000E-03 0. -1.
    9900012    2    1    2    0    0 -0.33404934039E+02  0.15907531154E+02  0.22686650927E+02  0.47787270792E+02  0.19999998847E+02 0.  0.
         12    1    1    2    0    0  0.33404934039E+02 -0.15907531154E+02 -0.22686650927E+02  0.43400729208E+02  0.00000000000E+00 0. -1.
         11    1    3    3    0    0 -0.21971026691E+01 -0.18475740428E+01  0.66470789444E+00  0.29466297406E+01  0.51100000000E-03 0. -1.
        -11    1    3    3    0    0 -0.96942171540E+01  0.23716546941E+01  0.14018930786E+02  0.17208515707E+02  0.51100000000E-03 0.  1.
        -12    1    3    3    0    0 -0.21513614216E+02  0.15383450503E+02  0.80030122468E+01  0.27632125344E+02  0.00000000000E+00 0.  1.
</event>
<event>
 7    1  0.4937359E-010  0.4778727E+02  0.7816164E-02  0.1312668E+00
        -11   -1    0    0    0    0  0.00000000000E+00  0.00000000000E+00  0.45593999997E+02  0.45594000000E+02  0.51100000000E-03 0.  1.
         11   -1    0    0    0    0 -0.00000000000E+00 -0.00000000000E+00 -0.45593999997E+02  0.45594000000E+02  0.51100000000E-03 0. -1.
    9900012    2    1    2    0    0 -0.88210192386E+01  0.40862418181E+02  0.11665138877E+02  0.47787273451E+02  0.20000010973E+02 0.  0.
         12    1    1    2    0    0  0.88210192386E+01 -0.40862418181E+02 -0.11665138877E+02  0.43400726549E+02  0.00000000000E+00 0. -1.
         11    1    3    3    0    0  0.38829023380E+01  0.95248942094E+01  0.65791940757E+01  0.12210091532E+02  0.51100000000E-03 0. -1.
        -11    1    3    3    0    0 -0.11451875861E+02  0.31859488363E+02  0.48724836330E+01  0.34203999130E+02  0.51100000000E-03 0.  1.
        -12    1    3    3    0    0 -0.12520457160E+01 -0.52196439214E+00  0.21346116795E+00  0.13731827890E+01  0.00000000000E+00 0.  1.
</event>
<event>
 7    1  0.4937359E-010  0.4778727E+02  0.7816164E-02  0.1312668E+00
        -11   -1    0    0    0    0  0.00000000000E+00  0.00000000000E+00  0.45593999997E+02  0.45594000000E+02  0.51100000000E-03 0. -1.
         11   -1    0    0    0    0 -0.00000000000E+00 -0.00000000000E+00 -0.45593999997E+02  0.45594000000E+02  0.51100000000E-03 0.  1.
    9900012    2    1    2    0    0  0.38743352630E+02  0.70092779285E+01 -0.18260500273E+02  0.47787271661E+02  0.20000002813E+02 0.  0.
         12    1    1    2    0    0 -0.38743352630E+02 -0.70092779285E+01  0.18260500273E+02  0.43400728339E+02  0.00000000000E+00 0. -1.
         11    1    3    3    0    0  0.82787131824E+01 -0.50718988011E+01 -0.92176875688E+01  0.13387569375E+02  0.51100000000E-03 0. -1.
        -11    1    3    3    0    0  0.25387997512E+02  0.91761667677E+01 -0.54645962744E+01  0.27542953126E+02  0.51100000000E-03 0.  1.
         12    1    3    3    0    0  0.50766419360E+01  0.29050099619E+01 -0.35782164295E+01  0.68567491599E+01  0.00000000000E+00 0. -1.
</event>
<event>
 7    1  0.4937359E-010  0.4778727E+02  0.7816164E-02  0.1312668E+00
        -11   -1    0    0    0    0  0.00000000000E+00  0.00000000000E+00  0.45593999997E+02  0.45594000000E+02  0.51100000000E-03 0.  1.
         11   -1    0    0    0    0 -0.00000000000E+00 -0.00000000000E+00 -0.45593999997E+02  0.45594000000E+02  0.51100000000E-03 0. -1.
    9900012    2    1    2    0    0  0.12525852462E+01 -0.27669734777E+02  0.33413171222E+02  0.47787271855E+02  0.20000003696E+02 0.  0.
         12    1    1    2    0    0 -0.12525852462E+01  0.27669734777E+02 -0.33413171222E+02  0.43400728145E+02  0.00000000000E+00 0. -1.
         11    1    3    3    0    0 -0.74495305739E+01 -0.83122976322E+01  0.73394407649E+01  0.13358786947E+02  0.51100000000E-03 0. -1.
        -11    1    3    3    0    0  0.51622022825E+01 -0.78222268688E+01  0.63982355895E+01  0.11347818491E+02  0.51100000000E-03 0.  1.
         12    1    3    3    0    0  0.35399135375E+01 -0.11535210276E+02  0.19675494867E+02  0.23080666417E+02  0.00000000000E+00 0. -1.
</event>
<event>
 7    1  0.4937359E-010  0.4778728E+02  0.7816164E-02  0.1312668E+00
        -11   -1    0    0    0    0  0.00000000000E+00  0.00000000000E+00  0.45593999997E+02  0.45594000000E+02  0.51100000000E-03 0. -1.
         11   -1    0    0    0    0 -0.00000000000E+00 -0.00000000000E+00 -0.45593999997E+02  0.45594000000E+02  0.51100000000E-03 0.  1.
    9900012    2    1    2    0    0  0.18991440200E+02 -0.21236997999E+02 -0.32740460016E+02  0.47787278728E+02  0.20000035031E+02 0.  0.
         12    1    1    2    0    0 -0.18991440200E+02  0.21236997999E+02  0.32740460016E+02  0.43400721272E+02  0.00000000000E+00 0. -1.
         11    1    3    3    0    0  0.42706590739E+01 -0.14876269508E+02 -0.99603298231E+01  0.18405164869E+02  0.51100000000E-03 0. -1.
        -11    1    3    3    0    0 -0.50226214405E+00 -0.28915617076E+01 -0.32756168994E+01  0.43980748860E+01  0.51100000000E-03 0.  1.
         12    1    3    3    0    0  0.15223043270E+02 -0.34691667832E+01 -0.19504513293E+02  0.24984038973E+02  0.00000000000E+00 0. -1.
</event>
<event>
 7    1  0.4937359E-010  0.4778728E+02  0.7816164E-02  0.1312668E+00
        -11   -1    0    0    0    0  0.00000000000E+00  0.00000000000E+00  0.45593999997E+02  0.45594000000E+02  0.51100000000E-03 0.  1.
         11   -1    0    0    0    0 -0.00000000000E+00 -0.00000000000E+00 -0.45593999997E+02  0.45594000000E+02  0.51100000000E-03 0. -1.
    9900012    2    1    2    0    0  0.66725143561E+01  0.14101699767E+02  0.40499904895E+02  0.47787277879E+02  0.20000031160E+02 0.  0.
         12    1    1    2    0    0 -0.66725143561E+01 -0.14101699767E+02 -0.40499904895E+02  0.43400722121E+02  0.00000000000E+00 0. -1.
         11    1    3    3    0    0  0.15900890711E+01 -0.33029788944E+01  0.28864929507E+01  0.46658219691E+01  0.51100000000E-03 0. -1.
        -11    1    3    3    0    0  0.71450654258E+01  0.14269443713E+02  0.22733292882E+02  0.27775377393E+02  0.51100000000E-03 0.  1.
         12    1    3    3    0    0 -0.20626401408E+01  0.31352349490E+01  0.14880119062E+02  0.15346078517E+02  0.00000000000E+00 0. -1.
</event>
<event>
 7    1  0.4937359E-010  0.4778726E+02  0.7816164E-02  0.1312668E+00
        -11   -1    0    0    0    0  0.00000000000E+00  0.00000000000E+00  0.45593999997E+02  0.45594000000E+02  0.51100000000E-03 0. -1.
         11   -1    0    0    0    0 -0.00000000000E+00 -0.00000000000E+00 -0.45593999997E+02  0.45594000000E+02  0.51100000000E-03 0.  1.
    9900012    2    1    2    0    0  0.44141349034E+01 -0.41025962561E+02 -0.13454004163E+02  0.47787257852E+02  0.19999939850E+02 0.  0.
         12    1    1    2    0    0 -0.44141349034E+01  0.41025962561E+02  0.13454004163E+02  0.43400742148E+02  0.00000000000E+00 0. -1.
         11    1    3    3    0    0  0.15312003921E+01  0.10438175010E+01  0.39321034303E-02  0.18531447161E+01  0.51100000000E-03 0. -1.
        -11    1    3    3    0    0 -0.17326187604E+01 -0.31508106107E+02 -0.13709689110E+02  0.34405207367E+02  0.51100000000E-03 0.  1.
         12    1    3    3    0    0  0.46155532718E+01 -0.10561673955E+02  0.25175284381E+00  0.11528905769E+02  0.00000000000E+00 0. -1.
</event>
<event>
 7    1  0.4937359E-010  0.4778727E+02  0.7816164E-02  0.1312668E+00
        -11   -1    0    0    0    0  0.00000000000E+00  0.00000000000E+00  0.45593999997E+02  0.45594000000E+02  0.51100000000E-03 0.  1.
         11   -1    0    0    0    0 -0.00000000000E+00 -0.00000000000E+00 -0.45593999997E+02  0.45594000000E+02  0.51100000000E-03 0. -1.
    9900012    2    1    2    0    0  0.15948613433E+02  0.33595064399E+01  0.40224106093E+02  0.47787271148E+02  0.20000000471E+02 0.  0.
         12    1    1    2    0    0 -0.15948613433E+02 -0.33595064399E+01 -0.40224106093E+02  0.43400728852E+02  0.00000000000E+00 0. -1.
         11    1    3    3    0    0 -0.21523193891E+01 -0.23651002333E+01  0.35586625668E+01  0.47843763849E+01  0.51100000000E-03 0. -1.
        -11    1    3    3    0    0  0.74643378987E+01  0.73357642424E+01  0.25168156831E+02  0.27257400753E+02  0.51100000000E-03 0.  1.
        -12    1    3    3    0    0  0.10636594923E+02 -0.16111575692E+01  0.11497286695E+02  0.15745494010E+02  0.00000000000E+00 0.  1.
</event>
<event>
 7    1  0.7867488E-010  0.4778728E+02  0.7816164E-02  0.1312668E+00
        -11   -1    0    0    0    0  0.00000000000E+00  0.00000000000E+00  0.45593999997E+02  0.45594000000E+02  0.51100000000E-03 0. -1.
         11   -1    0    0    0    0 -0.00000000000E+00 -0.00000000000E+00 -0.45593999997E+02  0.45594000000E+02  0.51100000000E-03 0.  1.
    9900012    2    1    2    0    0  0.34487136616E+02 -0.13777242026E+02 -0.22459914770E+02  0.47787276949E+02  0.20000026922E+02 0.  0.
         12    1    1    2    0    0 -0.34487136616E+02  0.13777242026E+02  0.22459914770E+02  0.43400723051E+02  0.00000000000E+00 0. -1.
         11    1    3    3    0    0  0.57261784373E+01  0.26240652132E+01 -0.93300558919E+01  0.11257210176E+02  0.51100000000E-03 0. -1.
        -11    1    3    3    0    0  0.22551982782E+02 -0.14137313119E+02 -0.13627341661E+02  0.29902508099E+02  0.51100000000E-03 0.  1.
         12    1    3    3    0    0  0.62089753974E+01 -0.22639941207E+01  0.49748278233E+00  0.66275586744E+01  0.00000000000E+00 0. -1.
</event>
<event>
 7    1  0.4937359E-010  0.4778727E+02  0.7816164E-02  0.1312668E+00
        -11   -1    0    0    0    0  0.00000000000E+00  0.00000000000E+00  0.45593999997E+02  0.45594000000E+02  0.51100000000E-03 0.  1.
         11   -1    0    0    0    0 -0.00000000000E+00 -0.00000000000E+00 -0.45593999997E+02  0.45594000000E+02  0.51100000000E-03 0. -1.
    9900012    2    1    2    0    0  0.24448303206E+02  0.27937388647E+02  0.22481238134E+02  0.47787270949E+02  0.19999999566E+02 0.  0.
         12    1    1    2    0    0 -0.24448303206E+02 -0.27937388647E+02 -0.22481238134E+02  0.43400729051E+02  0.00000000000E+00 0. -1.
         11    1    3    3    0    0 -0.38071236142E+00  0.26599063093E+01  0.51425007365E+00  0.27357808530E+01  0.51100000000E-03 0. -1.
        -11    1    3    3    0    0  0.11426920052E+02  0.22019326686E+02  0.98473678419E+01  0.26690745648E+02  0.51100000000E-03 0.  1.
        -12    1    3    3    0    0  0.13402095516E+02  0.32581556524E+01  0.12119620218E+02  0.18360744448E+02  0.00000000000E+00 0.  1.
</event>
<event>
 7    1  0.4937359E-010  0.4778726E+02  0.7816164E-02  0.1312668E+00
        -11   -1    0    0    0    0  0.00000000000E+00  0.00000000000E+00  0.45593999997E+02  0.45594000000E+02  0.51100000000E-03 0.  1.
         11   -1    0    0    0    0 -0.00000000000E+00 -0.00000000000E+00 -0.45593999997E+02  0.45594000000E+02  0.51100000000E-03 0. -1.
    9900012    2    1    2    0    0 -0.96657137055E+01  0.42029846504E+02  0.48672701558E+01  0.47787258792E+02  0.19999944138E+02 0.  0.
         12    1    1    2    0    0  0.96657137055E+01 -0.42029846504E+02 -0.48672701558E+01  0.43400741208E+02  0.00000000000E+00 0. -1.
         11    1    3    3    0    0 -0.22171769634E+01 -0.34497707329E+00  0.31778345888E+01  0.38901819755E+01  0.51100000000E-03 0. -1.
        -11    1    3    3    0    0 -0.14242393752E+00  0.69798597345E+01  0.32959593004E+01  0.77202379797E+01  0.51100000000E-03 0.  1.
         12    1    3    3    0    0 -0.73061128046E+01  0.35394963843E+02 -0.16065237334E+01  0.36176838837E+02  0.00000000000E+00 0. -1.
</event>
<event>
 7    1  0.4937359E-010  0.4778727E+02  0.7816164E-02  0.1312668E+00
        -11   -1    0    0    0    0  0.00000000000E+00  0.00000000000E+00  0.45593999997E+02  0.45594000000E+02  0.51100000000E-03 0. -1.
         11   -1    0    0    0    0 -0.00000000000E+00 -0.00000000000E+00 -0.45593999997E+02  0.45594000000E+02  0.51100000000E-03 0.  1.
    9900012    2    1    2    0    0 -0.23885463395E+02 -0.33572800033E+02 -0.13637266848E+02  0.47787270619E+02  0.19999998062E+02 0.  0.
         12    1    1    2    0    0  0.23885463395E+02  0.33572800033E+02  0.13637266848E+02  0.43400729381E+02  0.00000000000E+00 0. -1.
         11    1    3    3    0    0 -0.11622422998E+02 -0.20420388086E+02 -0.14402496133E+02  0.27559115752E+02  0.51100000000E-03 0. -1.
        -11    1    3    3    0    0 -0.88052226248E+01 -0.84627275153E+01 -0.38390938222E+01  0.12801888302E+02  0.51100000000E-03 0.  1.
         12    1    3    3    0    0 -0.34578177727E+01 -0.46896844319E+01  0.46043231071E+01  0.74262665650E+01  0.00000000000E+00 0. -1.
</event>
<event>
 7    1  0.4937359E-010  0.4778727E+02  0.7816164E-02  0.1312668E+00
        -11   -1    0    0    0    0  0.00000000000E+00  0.00000000000E+00  0.45593999997E+02  0.45594000000E+02  0.51100000000E-03 0.  1.
         11   -1    0    0    0    0 -0.00000000000E+00 -0.00000000000E+00 -0.45593999997E+02  0.45594000000E+02  0.51100000000E-03 0. -1.
    9900012    2    1    2    0    0 -0.31928219702E+02 -0.28688678412E+02  0.64165338472E+01  0.47787269718E+02  0.19999993951E+02 0.  0.
         12    1    1    2    0    0  0.31928219702E+02  0.28688678412E+02 -0.64165338472E+01  0.43400730282E+02  0.00000000000E+00 0. -1.
         11    1    3    3    0    0 -0.11623157837E+02 -0.10193218840E+02 -0.60347221474E+01  0.16595703664E+02  0.51100000000E-03 0. -1.
        -11    1    3    3    0    0 -0.56679864719E+01 -0.85766319838E+01  0.14885186715E+01  0.10387510526E+02  0.51100000000E-03 0.  1.
         12    1    3    3    0    0 -0.14637075393E+02 -0.99188275887E+01  0.10962737323E+02  0.20804055528E+02  0.00000000000E+00 0. -1.
</event>
<event>
 7    1  0.4937359E-010  0.4778727E+02  0.7816164E-02  0.1312668E+00
        -11   -1    0    0    0    0  0.00000000000E+00  0.00000000000E+00  0.45593999997E+02  0.45594000000E+02  0.51100000000E-03 0.  1.
         11   -1    0    0    0    0 -0.00000000000E+00 -0.00000000000E+00 -0.45593999997E+02  0.45594000000E+02  0.51100000000E-03 0. -1.
    9900012    2    1    2    0    0  0.41268476375E+02 -0.61180733588E+01 -0.11962669197E+02  0.47787269381E+02  0.19999992416E+02 0.  0.
         12    1    1    2    0    0 -0.41268476375E+02  0.61180733588E+01  0.11962669197E+02  0.43400730619E+02  0.00000000000E+00 0. -1.
         11    1    3    3    0    0  0.11035383318E+02 -0.70600903885E+01 -0.48342099708E+01  0.13964030491E+02  0.51100000000E-03 0. -1.
        -11    1    3    3    0    0  0.22477891583E+02  0.11600691609E+01  0.10733742522E+01  0.22533386408E+02  0.51100000000E-03 0.  1.
        -12    1    3    3    0    0  0.77552014742E+01 -0.21805213111E+00 -0.82018334783E+01  0.11289852481E+02  0.00000000000E+00 0.  1.
</event>
<event>
 7    1  0.4937359E-010  0.4778728E+02  0.7816164E-02  0.1312668E+00
        -11   -1    0    0    0    0  0.00000000000E+00  0.00000000000E+00  0.45593999997E+02  0.45594000000E+02  0.51100000000E-03 0.  1.
         11   -1    0    0    0    0 -0.00000000000E+00 -0.00000000000E+00 -0.45593999997E+02  0.45594000000E+02  0.51100000000E-03 0. -1.
    9900012    2    1    2    0    0 -0.31420279583E+02 -0.25895043998E+02 -0.15027811047E+02  0.47787281370E+02  0.20000047079E+02 0.  0.
         12    1    1    2    0    0  0.31420279583E+02  0.25895043998E+02  0.15027811047E+02  0.43400718630E+02  0.00000000000E+00 0. -1.
         11    1    3    3    0    0 -0.32722279122E+01  0.18948123238E+01 -0.44078066917E+01  0.58074563576E+01  0.51100000000E-03 0.  1.
        -11    1    3    3    0    0 -0.21723842227E+02 -0.23313161316E+02 -0.11959101153E+02  0.34035994363E+02  0.51100000000E-03 0. -1.
        -12    1    3    3    0    0 -0.64242094441E+01 -0.44766950061E+01  0.13390967976E+01  0.79438306498E+01  0.00000000000E+00 0.  1.
</event>
<event>
 7    1  0.4937359E-010  0.4778727E+02  0.7816164E-02  0.1312668E+00
        -11   -1    0    0    0    0  0.00000000000E+00  0.00000000000E+00  0.45593999997E+02  0.45594000000E+02  0.51100000000E-03 0.  1.
         11   -1    0    0    0    0 -0.00000000000E+00 -0.00000000000E+00 -0.45593999997E+02  0.45594000000E+02  0.51100000000E-03 0. -1.
    9900012    2    1    2    0    0  0.38093156379E+02 -0.19653088412E+02  0.68037498506E+01  0.47787268911E+02  0.19999990271E+02 0.  0.
         12    1    1    2    0    0 -0.38093156379E+02  0.19653088412E+02 -0.68037498506E+01  0.43400731089E+02  0.00000000000E+00 0. -1.
         11    1    3    3    0    0  0.30358819530E+01  0.19048467788E+00 -0.15167019794E+00  0.30456309289E+01  0.51100000000E-03 0. -1.
        -11    1    3    3    0    0  0.30018923351E+02 -0.19260434855E+02 -0.56467081063E+00  0.35670982091E+02  0.51100000000E-03 0.  1.
        -12    1    3    3    0    0  0.50383510753E+01 -0.58313823500E+00  0.75200908591E+01  0.90706558908E+01  0.00000000000E+00 0.  1.
</event>
<event>
 7    1  0.4937359E-010  0.4778727E+02  0.7816164E-02  0.1312668E+00
        -11   -1    0    0    0    0  0.00000000000E+00  0.00000000000E+00  0.45593999997E+02  0.45594000000E+02  0.51100000000E-03 0. -1.
         11   -1    0    0    0    0 -0.00000000000E+00 -0.00000000000E+00 -0.45593999997E+02  0.45594000000E+02  0.51100000000E-03 0.  1.
    9900012    2    1    2    0    0 -0.18132337468E+02 -0.20143787939E+02 -0.33897924096E+02  0.47787272903E+02  0.20000008473E+02 0.  0.
         12    1    1    2    0    0  0.18132337468E+02  0.20143787939E+02  0.33897924096E+02  0.43400727097E+02  0.00000000000E+00 0. -1.
         11    1    3    3    0    0 -0.61498867773E+01 -0.81823127710E+01 -0.11699870832E+02  0.15545363534E+02  0.51100000000E-03 0. -1.
        -11    1    3    3    0    0 -0.15905320934E+02 -0.10787037138E+02 -0.17302534982E+02  0.25859565373E+02  0.51100000000E-03 0.  1.
        -12    1    3    3    0    0  0.39228702433E+01 -0.11744380295E+01 -0.48955182811E+01  0.63823439951E+01  0.00000000000E+00 0.  1.
</event>
<event>
 7    1  0.4937359E-010  0.4778727E+02  0.7816164E-02  0.1312668E+00
        -11   -1    0    0    0    0  0.00000000000E+00  0.00000000000E+00  0.45593999997E+02  0.45594000000E+02  0.51100000000E-03 0.  1.
         11   -1    0    0    0    0 -0.00000000000E+00 -0.00000000000E+00 -0.45593999997E+02  0.45594000000E+02  0.51100000000E-03 0. -1.
    9900012    2    1    2    0    0 -0.31109501294E+02  0.14376044328E+02  0.26629902708E+02  0.47787269136E+02  0.19999991300E+02 0.  0.
         12    1    1    2    0    0  0.31109501294E+02 -0.14376044328E+02 -0.26629902708E+02  0.43400730864E+02  0.00000000000E+00 0. -1.
         11    1    3    3    0    0 -0.21564286457E+02  0.60935800401E+01  0.11024319849E+02  0.24973702098E+02  0.51100000000E-03 0. -1.
        -11    1    3    3    0    0  0.99614661161E+00  0.17207559478E+01  0.80205895498E+01  0.82633628803E+01  0.51100000000E-03 0.  1.
        -12    1    3    3    0    0 -0.10541361449E+02  0.65617083402E+01  0.75849933092E+01  0.14550204158E+02  0.00000000000E+00 0.  1.
</event>
<event>
 7    1  0.4937359E-010  0.4778728E+02  0.7816164E-02  0.1312668E+00
        -11   -1    0    0    0    0  0.00000000000E+00  0.00000000000E+00  0.45593999997E+02  0.45594000000E+02  0.51100000000E-03 0.  1.
         11   -1    0    0    0    0 -0.00000000000E+00 -0.00000000000E+00 -0.45593999997E+02  0.45594000000E+02  0.51100000000E-03 0. -1.
    9900012    2    1    2    0    0  0.67039375876E+01  0.26832475738E+02  0.33446936505E+02  0.47787284626E+02  0.20000061924E+02 0.  0.
         12    1    1    2    0    0 -0.67039375876E+01 -0.26832475738E+02 -0.33446936505E+02  0.43400715374E+02  0.00000000000E+00 0. -1.
         11    1    3    3    0    0 -0.30425920299E+01  0.13439149741E+02  0.97948033956E+01  0.16905806276E+02  0.51100000000E-03 0.  1.
        -11    1    3    3    0    0  0.81011866857E+01  0.51889008065E+01  0.59779271731E+01  0.11326496848E+02  0.51100000000E-03 0. -1.
         12    1    3    3    0    0  0.16453429317E+01  0.82044251900E+01  0.17674205936E+02  0.19554981502E+02  0.00000000000E+00 0. -1.
</event>
<event>
 7    1  0.4937359E-010  0.4778727E+02  0.7816164E-02  0.1312668E+00
        -11   -1    0    0    0    0  0.00000000000E+00  0.00000000000E+00  0.45593999997E+02  0.45594000000E+02  0.51100000000E-03 0.  1.
         11   -1    0    0    0    0 -0.00000000000E+00 -0.00000000000E+00 -0.45593999997E+02  0.45594000000E+02  0.51100000000E-03 0. -1.
    9900012    2    1    2    0    0  0.16307990950E+02  0.61331774103E+01  0.39749930463E+02  0.47787269525E+02  0.19999993071E+02 0.  0.
         12    1    1    2    0    0 -0.16307990950E+02 -0.61331774103E+01 -0.39749930463E+02  0.43400730475E+02  0.00000000000E+00 0. -1.
         11    1    3    3    0    0  0.65557154465E+01  0.26465699075E+01  0.29681703782E+02  0.30512051339E+02  0.51100000000E-03 0.  1.
        -11    1    3    3    0    0  0.16444897935E+01 -0.84741731155E+00 -0.15822100917E+01  0.24343072559E+01  0.51100000000E-03 0. -1.
        -12    1    3    3    0    0  0.81077857105E+01  0.43340248144E+01  0.11650436773E+02  0.14840910930E+02  0.00000000000E+00 0.  1.
</event>
<event>
 7    1  0.4937359E-010  0.4778726E+02  0.7816164E-02  0.1312668E+00
        -11   -1    0    0    0    0  0.00000000000E+00  0.00000000000E+00  0.45593999997E+02  0.45594000000E+02  0.51100000000E-03 0.  1.
         11   -1    0    0    0    0 -0.00000000000E+00 -0.00000000000E+00 -0.45593999997E+02  0.45594000000E+02  0.51100000000E-03 0. -1.
    9900012    2    1    2    0    0 -0.23352737079E+02  0.32811421786E+02  0.16176654667E+02  0.47787264005E+02  0.19999967906E+02 0.  0.
         12    1    1    2    0    0  0.23352737079E+02 -0.32811421786E+02 -0.16176654667E+02  0.43400735995E+02  0.00000000000E+00 0. -1.
         11    1    3    3    0    0 -0.11406362397E+02  0.23606725621E+02  0.13127844236E+02  0.29321031568E+02  0.51100000000E-03 0. -1.
        -11    1    3    3    0    0 -0.49597931100E+01  0.76534518852E+01  0.57897422580E+01  0.10802591778E+02  0.51100000000E-03 0.  1.
         12    1    3    3    0    0 -0.69865815716E+01  0.15512442800E+01 -0.27409318271E+01  0.76636406592E+01  0.00000000000E+00 0. -1.
</event>
<event>
 7    1  0.4937359E-010  0.4778727E+02  0.7816164E-02  0.1312668E+00
        -11   -1    0    0    0    0  0.00000000000E+00  0.00000000000E+00  0.45593999997E+02  0.45594000000E+02  0.51100000000E-03 0.  1.
         11   -1    0    0    0    0 -0.00000000000E+00 -0.00000000000E+00 -0.45593999997E+02  0.45594000000E+02  0.51100000000E-03 0. -1.
    9900012    2    1    2    0    0 -0.93917304814E+01  0.83083656611E+00  0.42364231630E+02  0.47787274056E+02  0.20000013732E+02 0.  0.
         12    1    1    2    0    0  0.93917304814E+01 -0.83083656611E+00 -0.42364231630E+02  0.43400725944E+02  0.00000000000E+00 0. -1.
         11    1    3    3    0    0 -0.24533216004E+01  0.49148406935E+01  0.38337944646E+01  0.66986883922E+01  0.51100000000E-03 0. -1.
        -11    1    3    3    0    0 -0.10266209515E+02 -0.29926464453E+01  0.30748495227E+02  0.32554891330E+02  0.51100000000E-03 0.  1.
        -12    1    3    3    0    0  0.33278006338E+01 -0.10913576821E+01  0.77819419387E+01  0.85336943340E+01  0.00000000000E+00 0.  1.
</event>
<event>
 7    1  0.4937359E-010  0.4778727E+02  0.7816164E-02  0.1312668E+00
        -11   -1    0    0    0    0  0.00000000000E+00  0.00000000000E+00  0.45593999997E+02  0.45594000000E+02  0.51100000000E-03 0. -1.
         11   -1    0    0    0    0 -0.00000000000E+00 -0.00000000000E+00 -0.45593999997E+02  0.45594000000E+02  0.51100000000E-03 0.  1.
    9900012    2    1    2    0    0  0.17952401332E+02  0.39353000801E+02 -0.35603127856E+01  0.47787271749E+02  0.20000003212E+02 0.  0.
         12    1    1    2    0    0 -0.17952401332E+02 -0.39353000801E+02  0.35603127856E+01  0.43400728251E+02  0.00000000000E+00 0. -1.
         11    1    3    3    0    0  0.93985470613E+01  0.27014259782E+02  0.33274125718E+01  0.28795391873E+02  0.51100000000E-03 0. -1.
        -11    1    3    3    0    0  0.35226942273E+01 -0.80900793890E+00 -0.11933935310E+01  0.38063180168E+01  0.51100000000E-03 0.  1.
        -12    1    3    3    0    0  0.50311600430E+01  0.13147748957E+02 -0.56943318265E+01  0.15185561859E+02  0.00000000000E+00 0.  1.
</event>
<event>
 7    1  0.4937359E-010  0.4778727E+02  0.7816164E-02  0.1312668E+00
        -11   -1    0    0    0    0  0.00000000000E+00  0.00000000000E+00  0.45593999997E+02  0.45594000000E+02  0.51100000000E-03 0.  1.
         11   -1    0    0    0    0 -0.00000000000E+00 -0.00000000000E+00 -0.45593999997E+02  0.45594000000E+02  0.51100000000E-03 0. -1.
    9900012    2    1    2    0    0  0.14454332634E+02 -0.17604010151E+02  0.36943122610E+02  0.47787271741E+02  0.20000003174E+02 0.  0.
         12    1    1    2    0    0 -0.14454332634E+02  0.17604010151E+02 -0.36943122610E+02  0.43400728259E+02  0.00000000000E+00 0. -1.
         11    1    3    3    0    0 -0.22496235575E+01  0.73418570813E+00 -0.16202895474E+00  0.23719376990E+01  0.51100000000E-03 0. -1.
        -11    1    3    3    0    0  0.15688805112E+02 -0.17365150649E+02  0.29371695050E+02  0.37555073336E+02  0.51100000000E-03 0.  1.
         12    1    3    3    0    0  0.10151510791E+01 -0.97304521019E+00  0.77334565146E+01  0.78602607054E+01  0.00000000000E+00 0. -1.
</event>
<event>
 7    1  0.4937359E-010  0.4778727E+02  0.7816164E-02  0.1312668E+00
        -11   -1    0    0    0    0  0.00000000000E+00  0.00000000000E+00  0.45593999997E+02  0.45594000000E+02  0.51100000000E-03 0.  1.
         11   -1    0    0    0    0 -0.00000000000E+00 -0.00000000000E+00 -0.45593999997E+02  0.45594000000E+02  0.51100000000E-03 0. -1.
    9900012    2    1    2    0    0  0.31952288460E+02 -0.27257633665E+02  0.10940562625E+02  0.47787271418E+02  0.20000001705E+02 0.  0.
         12    1    1    2    0    0 -0.31952288460E+02  0.27257633665E+02 -0.10940562625E+02  0.43400728582E+02  0.00000000000E+00 0. -1.
         11    1    3    3    0    0  0.38275162774E+01 -0.20715346073E+01 -0.47927944788E+01  0.64739490004E+01  0.51100000000E-03 0. -1.
        -11    1    3    3    0    0  0.22325748104E+02 -0.22154444182E+02  0.11352420502E+02  0.33438538798E+02  0.51100000000E-03 0.  1.
         12    1    3    3    0    0  0.57990240787E+01 -0.30316548756E+01  0.43809366024E+01  0.78747836202E+01  0.00000000000E+00 0. -1.
</event>
<event>
 7    1  0.4937359E-010  0.4778727E+02  0.7816164E-02  0.1312668E+00
        -11   -1    0    0    0    0  0.00000000000E+00  0.00000000000E+00  0.45593999997E+02  0.45594000000E+02  0.51100000000E-03 0.  1.
         11   -1    0    0    0    0 -0.00000000000E+00 -0.00000000000E+00 -0.45593999997E+02  0.45594000000E+02  0.51100000000E-03 0. -1.
    9900012    2    1    2    0    0 -0.28223623571E+02  0.31270761159E+01  0.32821820045E+02  0.47787269550E+02  0.19999993188E+02 0.  0.
         12    1    1    2    0    0  0.28223623571E+02 -0.31270761159E+01 -0.32821820045E+02  0.43400730450E+02  0.00000000000E+00 0. -1.
         11    1    3    3    0    0  0.12743977790E+01 -0.27258585842E+01  0.63652205143E+01  0.70406269023E+01  0.51100000000E-03 0. -1.
        -11    1    3    3    0    0 -0.23762587538E+02  0.26722184770E+01  0.17437208686E+02  0.29594890862E+02  0.51100000000E-03 0.  1.
         12    1    3    3    0    0 -0.57354338120E+01  0.31807162231E+01  0.90193908438E+01  0.11151751786E+02  0.00000000000E+00 0. -1.
</event>
<event>
 7    1  0.4937359E-010  0.4778727E+02  0.7816164E-02  0.1312668E+00
        -11   -1    0    0    0    0  0.00000000000E+00  0.00000000000E+00  0.45593999997E+02  0.45594000000E+02  0.51100000000E-03 0. -1.
         11   -1    0    0    0    0 -0.00000000000E+00 -0.00000000000E+00 -0.45593999997E+02  0.45594000000E+02  0.51100000000E-03 0.  1.
    9900012    2    1    2    0    0 -0.40333900936E+02  0.52076752132E+01 -0.15155196025E+02  0.47787269449E+02  0.19999992725E+02 0.  0.
         12    1    1    2    0    0  0.40333900936E+02 -0.52076752132E+01  0.15155196025E+02  0.43400730551E+02  0.00000000000E+00 0. -1.
         11    1    3    3    0    0 -0.16175996775E+02  0.58373534910E+00  0.37100524954E+01  0.16606267143E+02  0.51100000000E-03 0. -1.
        -11    1    3    3    0    0 -0.13353966083E+02  0.36360248247E+01 -0.89366937680E+01  0.16474634516E+02  0.51100000000E-03 0.  1.
         12    1    3    3    0    0 -0.10803938077E+02  0.98791503935E+00 -0.99285547523E+01  0.14706367790E+02  0.00000000000E+00 0. -1.
</event>
<event>
 7    1  0.4937359E-010  0.4778727E+02  0.7816164E-02  0.1312668E+00
        -11   -1    0    0    0    0  0.00000000000E+00  0.00000000000E+00  0.45593999997E+02  0.45594000000E+02  0.51100000000E-03 0. -1.
         11   -1    0    0    0    0 -0.00000000000E+00 -0.00000000000E+00 -0.45593999997E+02  0.45594000000E+02  0.51100000000E-03 0.  1.
    9900012    2    1    2    0    0  0.35568440595E+02 -0.17979377122E+02 -0.17182868361E+02  0.47787274969E+02  0.20000017894E+02 0.  0.
         12    1    1    2    0    0 -0.35568440595E+02  0.17979377122E+02  0.17182868361E+02  0.43400725031E+02  0.00000000000E+00 0. -1.
         11    1    3    3    0    0  0.26779280836E+02 -0.10721839301E+02 -0.86778179096E+01  0.30122952113E+02  0.51100000000E-03 0.  1.
        -11    1    3    3    0    0  0.10934244048E+02 -0.52784695501E+01 -0.50723389423E+01  0.13158592489E+02  0.51100000000E-03 0. -1.
         12    1    3    3    0    0 -0.21450842885E+01 -0.19790682711E+01 -0.34327115096E+01  0.45057303664E+01  0.00000000000E+00 0. -1.
</event>
<event>
 7    1  0.4937359E-010  0.4778727E+02  0.7816164E-02  0.1312668E+00
        -11   -1    0    0    0    0  0.00000000000E+00  0.00000000000E+00  0.45593999997E+02  0.45594000000E+02  0.51100000000E-03 0. -1.
         11   -1    0    0    0    0 -0.00000000000E+00 -0.00000000000E+00 -0.45593999997E+02  0.45594000000E+02  0.51100000000E-03 0.  1.
    9900012    2    1    2    0    0 -0.24311652595E+02  0.12126482553E+02 -0.33845460339E+02  0.47787271704E+02  0.20000003009E+02 0.  0.
         12    1    1    2    0    0  0.24311652595E+02 -0.12126482553E+02  0.33845460339E+02  0.43400728296E+02  0.00000000000E+00 0. -1.
         11    1    3    3    0    0 -0.21816861128E-01  0.32825285641E+01  0.16759197428E+01  0.36856718513E+01  0.51100000000E-03 0. -1.
        -11    1    3    3    0    0 -0.13982739849E+02  0.34371609871E+01 -0.17716202208E+02  0.22829693608E+02  0.51100000000E-03 0.  1.
         12    1    3    3    0    0 -0.10307095885E+02  0.54067930022E+01 -0.17805177874E+02  0.21271906245E+02  0.00000000000E+00 0. -1.
</event>
<event>
 7    1  0.4937359E-010  0.4778727E+02  0.7816164E-02  0.1312668E+00
        -11   -1    0    0    0    0  0.00000000000E+00  0.00000000000E+00  0.45593999997E+02  0.45594000000E+02  0.51100000000E-03 0.  1.
         11   -1    0    0    0    0 -0.00000000000E+00 -0.00000000000E+00 -0.45593999997E+02  0.45594000000E+02  0.51100000000E-03 0. -1.
    9900012    2    1    2    0    0  0.62215634276E+01 -0.24674719595E+02  0.35157838263E+02  0.47787271551E+02  0.20000002309E+02 0.  0.
         12    1    1    2    0    0 -0.62215634276E+01  0.24674719595E+02 -0.35157838263E+02  0.43400728449E+02  0.00000000000E+00 0. -1.
         11    1    3    3    0    0  0.76077685405E+01 -0.89541866781E+01  0.75710779285E+01  0.13977725941E+02  0.51100000000E-03 0. -1.
        -11    1    3    3    0    0 -0.77860623169E+00 -0.16466251468E+02  0.28202902546E+02  0.32667221758E+02  0.51100000000E-03 0.  1.
        -12    1    3    3    0    0 -0.60759888121E+00  0.74571855104E+00 -0.61614221160E+00  0.11423238519E+01  0.00000000000E+00 0.  1.
</event>
<event>
 7    1  0.4937359E-010  0.4778727E+02  0.7816164E-02  0.1312668E+00
        -11   -1    0    0    0    0  0.00000000000E+00  0.00000000000E+00  0.45593999997E+02  0.45594000000E+02  0.51100000000E-03 0.  1.
         11   -1    0    0    0    0 -0.00000000000E+00 -0.00000000000E+00 -0.45593999997E+02  0.45594000000E+02  0.51100000000E-03 0. -1.
    9900012    2    1    2    0    0 -0.22089422135E+02  0.12814483290E+02  0.35092300534E+02  0.47787272944E+02  0.20000008660E+02 0.  0.
         12    1    1    2    0    0  0.22089422135E+02 -0.12814483290E+02 -0.35092300534E+02  0.43400727056E+02  0.00000000000E+00 0. -1.
         11    1    3    3    0    0 -0.99311597379E+01  0.87368850895E+00  0.21488992345E+02  0.23688985998E+02  0.51100000000E-03 0. -1.
        -11    1    3    3    0    0 -0.13511814589E+01  0.75279067170E+01  0.26599729675E+01  0.80975630484E+01  0.51100000000E-03 0.  1.
        -12    1    3    3    0    0 -0.10807080938E+02  0.44128880636E+01  0.10943335221E+02  0.16000723897E+02  0.00000000000E+00 0.  1.
</event>
<event>
 7    1  0.4937359E-010  0.4778726E+02  0.7816164E-02  0.1312668E+00
        -11   -1    0    0    0    0  0.00000000000E+00  0.00000000000E+00  0.45593999997E+02  0.45594000000E+02  0.51100000000E-03 0.  1.
         11   -1    0    0    0    0 -0.00000000000E+00 -0.00000000000E+00 -0.45593999997E+02  0.45594000000E+02  0.51100000000E-03 0. -1.
    9900012    2    1    2    0    0 -0.72586825003E+01 -0.28404027192E+01  0.42695053587E+02  0.47787263139E+02  0.19999963958E+02 0.  0.
         12    1    1    2    0    0  0.72586825003E+01  0.28404027192E+01 -0.42695053587E+02  0.43400736861E+02  0.00000000000E+00 0. -1.
         11    1    3    3    0    0 -0.10935974278E+01  0.39774127307E+01  0.80022873471E+01  0.90029089972E+01  0.51100000000E-03 0. -1.
        -11    1    3    3    0    0 -0.15826995104E+01 -0.10765479639E+02  0.26090247655E+02  0.28268383621E+02  0.51100000000E-03 0.  1.
        -12    1    3    3    0    0 -0.45823855621E+01  0.39476641895E+01  0.86025185848E+01  0.10515970521E+02  0.00000000000E+00 0.  1.
</event>
<event>
 7    1  0.4937359E-010  0.4778727E+02  0.7816164E-02  0.1312668E+00
        -11   -1    0    0    0    0  0.00000000000E+00  0.00000000000E+00  0.45593999997E+02  0.45594000000E+02  0.51100000000E-03 0. -1.
         11   -1    0    0    0    0 -0.00000000000E+00 -0.00000000000E+00 -0.45593999997E+02  0.45594000000E+02  0.51100000000E-03 0.  1.
    9900012    2    1    2    0    0 -0.42901655952E+02 -0.64375184693E+01  0.12764855141E+01  0.47787272555E+02  0.20000006886E+02 0.  0.
         12    1    1    2    0    0  0.42901655952E+02  0.64375184693E+01 -0.12764855141E+01  0.43400727445E+02  0.00000000000E+00 0. -1.
         11    1    3    3    0    0 -0.35430579130E+02 -0.11564450906E+02  0.31089082734E+01  0.37399569157E+02  0.51100000000E-03 0. -1.
        -11    1    3    3    0    0 -0.67021748663E+01  0.41010902611E+01  0.34054873394E+00  0.78647354036E+01  0.51100000000E-03 0.  1.
         12    1    3    3    0    0 -0.76890195620E+00  0.10258421757E+01 -0.21729714932E+01  0.25229679938E+01  0.00000000000E+00 0. -1.
</event>
<event>
 7    1  0.4937359E-010  0.4778727E+02  0.7816164E-02  0.1312668E+00
        -11   -1    0    0    0    0  0.00000000000E+00  0.00000000000E+00  0.45593999997E+02  0.45594000000E+02  0.51100000000E-03 0.  1.
         11   -1    0    0    0    0 -0.00000000000E+00 -0.00000000000E+00 -0.45593999997E+02  0.45594000000E+02  0.51100000000E-03 0. -1.
    9900012    2    1    2    0    0  0.42286748072E+02  0.27708429994E+01  0.93689281700E+01  0.47787269033E+02  0.19999990828E+02 0.  0.
         12    1    1    2    0    0 -0.42286748072E+02 -0.27708429994E+01 -0.93689281700E+01  0.43400730967E+02  0.00000000000E+00 0. -1.
         11    1    3    3    0    0  0.17526018788E+02 -0.58859548026E+01  0.81299954000E+01  0.20196599317E+02  0.51100000000E-03 0. -1.
        -11    1    3    3    0    0  0.62714420743E+01  0.63227950686E+01  0.90794719593E+00  0.89517088616E+01  0.51100000000E-03 0.  1.
         12    1    3    3    0    0  0.18489287210E+02  0.23340027334E+01  0.33098557412E+00  0.18638960854E+02  0.00000000000E+00 0. -1.
</event>
<event>
 7    1  0.4937359E-010  0.4778727E+02  0.7816164E-02  0.1312668E+00
        -11   -1    0    0    0    0  0.00000000000E+00  0.00000000000E+00  0.45593999997E+02  0.45594000000E+02  0.51100000000E-03 0.  1.
         11   -1    0    0    0    0 -0.00000000000E+00 -0.00000000000E+00 -0.45593999997E+02  0.45594000000E+02  0.51100000000E-03 0. -1.
    9900012    2    1    2    0    0  0.46055419554E+01  0.17783405184E+02  0.39321276217E+02  0.47787270974E+02  0.19999999680E+02 0.  0.
         12    1    1    2    0    0 -0.46055419554E+01 -0.17783405184E+02 -0.39321276217E+02  0.43400729026E+02  0.00000000000E+00 0. -1.
         11    1    3    3    0    0  0.23377568771E+01 -0.58789000831E+00  0.60339816261E+01  0.64976654580E+01  0.51100000000E-03 0. -1.
        -11    1    3    3    0    0 -0.25144556338E+01  0.74700949707E+00  0.15763146861E+02  0.15979903302E+02  0.51100000000E-03 0.  1.
        -12    1    3    3    0    0  0.47822407120E+01  0.17624285696E+02  0.17524147729E+02  0.25309702214E+02  0.00000000000E+00 0.  1.
</event>
<event>
 7    1  0.4937359E-010  0.4778727E+02  0.7816164E-02  0.1312668E+00
        -11   -1    0    0    0    0  0.00000000000E+00  0.00000000000E+00  0.45593999997E+02  0.45594000000E+02  0.51100000000E-03 0.  1.
         11   -1    0    0    0    0 -0.00000000000E+00 -0.00000000000E+00 -0.45593999997E+02  0.45594000000E+02  0.51100000000E-03 0. -1.
    9900012    2    1    2    0    0 -0.32693757959E+02  0.28225022029E+02 -0.42531956515E+01  0.47787270153E+02  0.19999995934E+02 0.  0.
         12    1    1    2    0    0  0.32693757959E+02 -0.28225022029E+02  0.42531956515E+01  0.43400729847E+02  0.00000000000E+00 0. -1.
         11    1    3    3    0    0 -0.16430792033E+02  0.88888980914E+01  0.50734240448E+01  0.19357765054E+02  0.51100000000E-03 0.  1.
        -11    1    3    3    0    0 -0.45920612549E+01  0.68071545564E+01 -0.76540397172E+01  0.11225359860E+02  0.51100000000E-03 0. -1.
        -12    1    3    3    0    0 -0.11670904672E+02  0.12528969381E+02 -0.16725799791E+01  0.17204145239E+02  0.00000000000E+00 0.  1.
</event>
<event>
 7    1  0.4937359E-010  0.4778726E+02  0.7816164E-02  0.1312668E+00
        -11   -1    0    0    0    0  0.00000000000E+00  0.00000000000E+00  0.45593999997E+02  0.45594000000E+02  0.51100000000E-03 0.  1.
         11   -1    0    0    0    0 -0.00000000000E+00 -0.00000000000E+00 -0.45593999997E+02  0.45594000000E+02  0.51100000000E-03 0. -1.
    9900012    2    1    2    0    0 -0.36811314858E+02 -0.16312752339E+02  0.16200161341E+02  0.47787262473E+02  0.19999960919E+02 0.  0.
         12    1    1    2    0    0  0.36811314858E+02  0.16312752339E+02 -0.16200161341E+02  0.43400737527E+02  0.00000000000E+00 0. -1.
         11    1    3    3    0    0 -0.35696871801E+01 -0.38026118688E+00  0.21051252044E+01  0.41615883412E+01  0.51100000000E-03 0. -1.
        -11    1    3    3    0    0 -0.10102746103E+02 -0.14315748601E+02  0.25174662472E+01  0.17701518957E+02  0.51100000000E-03 0.  1.
        -12    1    3    3    0    0 -0.23138881574E+02 -0.16167425513E+01  0.11577569889E+02  0.25924155175E+02  0.00000000000E+00 0.  1.
</event>
<event>
 7    1  0.5101333E-010  0.4778727E+02  0.7816164E-02  0.1312668E+00
        -11   -1    0    0    0    0  0.00000000000E+00  0.00000000000E+00  0.45593999997E+02  0.45594000000E+02  0.51100000000E-03 0.  1.
         11   -1    0    0    0    0 -0.00000000000E+00 -0.00000000000E+00 -0.45593999997E+02  0.45594000000E+02  0.51100000000E-03 0. -1.
    9900012    2    1    2    0    0 -0.35887813813E+02  0.14831320294E+01  0.24361613679E+02  0.47787273256E+02  0.20000010083E+02 0.  0.
         12    1    1    2    0    0  0.35887813813E+02 -0.14831320294E+01 -0.24361613679E+02  0.43400726744E+02  0.00000000000E+00 0. -1.
         11    1    3    3    0    0 -0.13169382374E+01 -0.58070275062E+00 -0.22390839652E+01  0.26617737075E+01  0.51100000000E-03 0. -1.
        -11    1    3    3    0    0 -0.28778602470E+02 -0.15233185624E+01  0.17356488965E+02  0.33641881175E+02  0.51100000000E-03 0.  1.
         12    1    3    3    0    0 -0.57922731054E+01  0.35871533425E+01  0.92442086791E+01  0.11483618373E+02  0.00000000000E+00 0. -1.
</event>
<event>
 7    1  0.4937359E-010  0.4778727E+02  0.7816164E-02  0.1312668E+00
        -11   -1    0    0    0    0  0.00000000000E+00  0.00000000000E+00  0.45593999997E+02  0.45594000000E+02  0.51100000000E-03 0. -1.
         11   -1    0    0    0    0 -0.00000000000E+00 -0.00000000000E+00 -0.45593999997E+02  0.45594000000E+02  0.51100000000E-03 0.  1.
    9900012    2    1    2    0    0 -0.18904476477E+02 -0.38606273444E+02 -0.59832789063E+01  0.47787271820E+02  0.20000003535E+02 0.  0.
         12    1    1    2    0    0  0.18904476477E+02  0.38606273444E+02  0.59832789063E+01  0.43400728180E+02  0.00000000000E+00 0. -1.
         11    1    3    3    0    0 -0.82301641443E+01 -0.79372121346E+01 -0.60349582163E+01  0.12928869218E+02  0.51100000000E-03 0. -1.
        -11    1    3    3    0    0 -0.74909927015E+00 -0.20805550448E+02  0.91364800980E+00  0.20839069847E+02  0.51100000000E-03 0.  1.
        -12    1    3    3    0    0 -0.99252130623E+01 -0.98635108619E+01 -0.86196869972E+00  0.14019332755E+02  0.00000000000E+00 0.  1.
</event>
<event>
 7    1  0.4937359E-010  0.4778727E+02  0.7816164E-02  0.1312668E+00
        -11   -1    0    0    0    0  0.00000000000E+00  0.00000000000E+00  0.45593999997E+02  0.45594000000E+02  0.51100000000E-03 0.  1.
         11   -1    0    0    0    0 -0.00000000000E+00 -0.00000000000E+00 -0.45593999997E+02  0.45594000000E+02  0.51100000000E-03 0. -1.
    9900012    2    1    2    0    0 -0.15745011658E+01  0.42974924765E+02  0.58566480716E+01  0.47787267988E+02  0.19999986067E+02 0.  0.
         12    1    1    2    0    0  0.15745011658E+01 -0.42974924765E+02 -0.58566480716E+01  0.43400732012E+02  0.00000000000E+00 0. -1.
         11    1    3    3    0    0 -0.31549424120E+01  0.22919319032E+01  0.41294681243E+01  0.56797113239E+01  0.51100000000E-03 0. -1.
        -11    1    3    3    0    0 -0.10462441859E+01  0.37889249617E+02  0.31103230762E+01  0.38031092192E+02  0.51100000000E-03 0.  1.
         12    1    3    3    0    0  0.26266854321E+01  0.27937432448E+01 -0.13831431289E+01  0.40764644721E+01  0.00000000000E+00 0. -1.
</event>
<event>
 7    1  0.4937359E-010  0.4778727E+02  0.7816164E-02  0.1312668E+00
        -11   -1    0    0    0    0  0.00000000000E+00  0.00000000000E+00  0.45593999997E+02  0.45594000000E+02  0.51100000000E-03 0.  1.
         11   -1    0    0    0    0 -0.00000000000E+00 -0.00000000000E+00 -0.45593999997E+02  0.45594000000E+02  0.51100000000E-03 0. -1.
    9900012    2    1    2    0    0  0.11243597702E+02 -0.95439740285E+01  0.40818100731E+02  0.47787271011E+02  0.19999999846E+02 0.  0.
         12    1    1    2    0    0 -0.11243597702E+02  0.95439740285E+01 -0.40818100731E+02  0.43400728989E+02  0.00000000000E+00 0. -1.
         11    1    3    3    0    0  0.43444313273E+01  0.26658272464E+01  0.21640889453E+01  0.55375084370E+01  0.51100000000E-03 0. -1.
        -11    1    3    3    0    0 -0.85375706467E+00 -0.81985519156E+01  0.20872476760E+02  0.22441155073E+02  0.51100000000E-03 0.  1.
         12    1    3    3    0    0  0.77529234389E+01 -0.40112493593E+01  0.17781535025E+02  0.19808607501E+02  0.00000000000E+00 0. -1.
</event>
<event>
 7    1  0.4937359E-010  0.4778728E+02  0.7816164E-02  0.1312668E+00
        -11   -1    0    0    0    0  0.00000000000E+00  0.00000000000E+00  0.45593999997E+02  0.45594000000E+02  0.51100000000E-03 0.  1.
         11   -1    0    0    0    0 -0.00000000000E+00 -0.00000000000E+00 -0.45593999997E+02  0.45594000000E+02  0.51100000000E-03 0. -1.
    9900012    2    1    2    0    0 -0.13084039587E+02  0.18151167935E+02  0.37188248532E+02  0.47787276294E+02  0.20000023934E+02 0.  0.
         12    1    1    2    0    0  0.13084039587E+02 -0.18151167935E+02 -0.37188248532E+02  0.43400723706E+02  0.00000000000E+00 0. -1.
         11    1    3    3    0    0 -0.12005944040E+02  0.10603224049E+02  0.10045814034E+02  0.18907390946E+02  0.51100000000E-03 0. -1.
        -11    1    3    3    0    0 -0.15742588817E+01 -0.40923434762E+00  0.25244541115E+01  0.30031038277E+01  0.51100000000E-03 0.  1.
         12    1    3    3    0    0  0.49616333476E+00  0.79571782333E+01  0.24617980387E+02  0.25876781520E+02  0.00000000000E+00 0. -1.
</event>
<event>
 7    1  0.4937359E-010  0.4778730E+02  0.7816164E-02  0.1312668E+00
        -11   -1    0    0    0    0  0.00000000000E+00  0.00000000000E+00  0.45593999997E+02  0.45594000000E+02  0.51100000000E-03 0. -1.
         11   -1    0    0    0    0 -0.00000000000E+00 -0.00000000000E+00 -0.45593999997E+02  0.45594000000E+02  0.51100000000E-03 0.  1.
    9900012    2    1    2    0    0  0.15342795376E+02 -0.40443685369E+02 -0.35394408290E+01  0.47787300725E+02  0.20000135324E+02 0.  0.
         12    1    1    2    0    0 -0.15342795376E+02  0.40443685369E+02  0.35394408290E+01  0.43400699275E+02  0.00000000000E+00 0. -1.
         11    1    3    3    0    0  0.80577796831E+01 -0.32994610939E+02  0.42192282955E+01  0.34225342250E+02  0.51100000000E-03 0. -1.
        -11    1    3    3    0    0  0.56436445572E+01 -0.47657915013E+01 -0.32634073895E+01  0.80754764920E+01  0.51100000000E-03 0.  1.
         12    1    3    3    0    0  0.16413711358E+01 -0.26832829288E+01 -0.44952617350E+01  0.54864819828E+01  0.00000000000E+00 0. -1.
</event>
<event>
 7    1  0.4937359E-010  0.4778727E+02  0.7816164E-02  0.1312668E+00
        -11   -1    0    0    0    0  0.00000000000E+00  0.00000000000E+00  0.45593999997E+02  0.45594000000E+02  0.51100000000E-03 0.  1.
         11   -1    0    0    0    0 -0.00000000000E+00 -0.00000000000E+00 -0.45593999997E+02  0.45594000000E+02  0.51100000000E-03 0. -1.
    9900012    2    1    2    0    0 -0.21064419643E+02 -0.36662677146E+02 -0.97857823439E+01  0.47787271821E+02  0.20000003540E+02 0.  0.
         12    1    1    2    0    0  0.21064419643E+02  0.36662677146E+02  0.97857823439E+01  0.43400728179E+02  0.00000000000E+00 0. -1.
         11    1    3    3    0    0 -0.86279965382E+01 -0.27367019935E+02 -0.11837237137E+01  0.28719284575E+02  0.51100000000E-03 0. -1.
        -11    1    3    3    0    0 -0.82628299468E+01 -0.95276636439E+01 -0.77485126346E+01  0.14801695226E+02  0.51100000000E-03 0.  1.
         12    1    3    3    0    0 -0.41735931584E+01  0.23200643347E+00 -0.85354599565E+00  0.42662920204E+01  0.00000000000E+00 0. -1.
</event>
<event>
 7    1  0.4937359E-010  0.4778727E+02  0.7816164E-02  0.1312668E+00
        -11   -1    0    0    0    0  0.00000000000E+00  0.00000000000E+00  0.45593999997E+02  0.45594000000E+02  0.51100000000E-03 0.  1.
         11   -1    0    0    0    0 -0.00000000000E+00 -0.00000000000E+00 -0.45593999997E+02  0.45594000000E+02  0.51100000000E-03 0. -1.
    9900012    2    1    2    0    0 -0.32737212470E+02 -0.27311001093E+02  0.81244937551E+01  0.47787271207E+02  0.20000000743E+02 0.  0.
         12    1    1    2    0    0  0.32737212470E+02  0.27311001093E+02 -0.81244937551E+01  0.43400728793E+02  0.00000000000E+00 0. -1.
         11    1    3    3    0    0 -0.10932279806E+02 -0.35780036916E+01 -0.54811279790E+01  0.12742041295E+02  0.51100000000E-03 0. -1.
        -11    1    3    3    0    0 -0.18706654178E+02 -0.21097851984E+02  0.11360010152E+02  0.30399146366E+02  0.51100000000E-03 0.  1.
         12    1    3    3    0    0 -0.30982784854E+01 -0.26351454173E+01  0.22456115826E+01  0.46460835467E+01  0.00000000000E+00 0. -1.
</event>
<event>
 7    1  0.4937359E-010  0.4778728E+02  0.7816164E-02  0.1312668E+00
        -11   -1    0    0    0    0  0.00000000000E+00  0.00000000000E+00  0.45593999997E+02  0.45594000000E+02  0.51100000000E-03 0. -1.
         11   -1    0    0    0    0 -0.00000000000E+00 -0.00000000000E+00 -0.45593999997E+02  0.45594000000E+02  0.51100000000E-03 0.  1.
    9900012    2    1    2    0    0  0.15241285846E+02  0.40037934619E+02  0.69490656838E+01  0.47787279768E+02  0.20000039773E+02 0.  0.
         12    1    1    2    0    0 -0.15241285846E+02 -0.40037934619E+02 -0.69490656838E+01  0.43400720232E+02  0.00000000000E+00 0. -1.
         11    1    3    3    0    0 -0.15998335608E+01  0.12992955236E+01  0.45515653675E+01  0.49964371141E+01  0.51100000000E-03 0. -1.
        -11    1    3    3    0    0  0.17039429096E+02  0.36353160329E+02  0.13314394426E+01  0.40170475987E+02  0.51100000000E-03 0.  1.
        -12    1    3    3    0    0 -0.19830968848E+00  0.23854787666E+01  0.10660608738E+01  0.26203666661E+01  0.00000000000E+00 0.  1.
</event>
<event>
 7    1  0.4937359E-010  0.4778727E+02  0.7816164E-02  0.1312668E+00
        -11   -1    0    0    0    0  0.00000000000E+00  0.00000000000E+00  0.45593999997E+02  0.45594000000E+02  0.51100000000E-03 0. -1.
         11   -1    0    0    0    0 -0.00000000000E+00 -0.00000000000E+00 -0.45593999997E+02  0.45594000000E+02  0.51100000000E-03 0.  1.
    9900012    2    1    2    0    0 -0.10510483137E+02 -0.23323034929E+02 -0.35059796438E+02  0.47787267974E+02  0.19999986002E+02 0.  0.
         12    1    1    2    0    0  0.10510483137E+02  0.23323034929E+02  0.35059796438E+02  0.43400732026E+02  0.00000000000E+00 0. -1.
         11    1    3    3    0    0 -0.48871948697E+01 -0.12554524901E+01  0.94350913919E+00  0.51333268361E+01  0.51100000000E-03 0. -1.
        -11    1    3    3    0    0 -0.42560899442E+01 -0.13095187439E+02 -0.22694111644E+02  0.26544697008E+02  0.51100000000E-03 0.  1.
        -12    1    3    3    0    0 -0.13671983234E+01 -0.89723949997E+01 -0.13309193934E+02  0.16109244130E+02  0.00000000000E+00 0.  1.
</event>
<event>
 7    1  0.4937359E-010  0.4778727E+02  0.7816164E-02  0.1312668E+00
        -11   -1    0    0    0    0  0.00000000000E+00  0.00000000000E+00  0.45593999997E+02  0.45594000000E+02  0.51100000000E-03 0.  1.
         11   -1    0    0    0    0 -0.00000000000E+00 -0.00000000000E+00 -0.45593999997E+02  0.45594000000E+02  0.51100000000E-03 0. -1.
    9900012    2    1    2    0    0  0.34552539858E+02 -0.12493427468E+02  0.23101072623E+02  0.47787270780E+02  0.19999998793E+02 0.  0.
         12    1    1    2    0    0 -0.34552539858E+02  0.12493427468E+02 -0.23101072623E+02  0.43400729220E+02  0.00000000000E+00 0. -1.
         11    1    3    3    0    0  0.33481539013E+01 -0.74081349775E+01  0.58193768776E+01  0.99977870499E+01  0.51100000000E-03 0.  1.
        -11    1    3    3    0    0  0.13453732555E+02  0.32759601157E+01  0.88486424316E+01  0.16432690208E+02  0.51100000000E-03 0. -1.
        -12    1    3    3    0    0  0.17750653402E+02 -0.83612526063E+01  0.84330533136E+01  0.21356793522E+02  0.00000000000E+00 0.  1.
</event>
<event>
 7    1  0.4937359E-010  0.4778727E+02  0.7816164E-02  0.1312668E+00
        -11   -1    0    0    0    0  0.00000000000E+00  0.00000000000E+00  0.45593999997E+02  0.45594000000E+02  0.51100000000E-03 0.  1.
         11   -1    0    0    0    0 -0.00000000000E+00 -0.00000000000E+00 -0.45593999997E+02  0.45594000000E+02  0.51100000000E-03 0. -1.
    9900012    2    1    2    0    0 -0.50258569475E+01 -0.88757861314E+01  0.42185122903E+02  0.47787269455E+02  0.19999992754E+02 0.  0.
         12    1    1    2    0    0  0.50258569475E+01  0.88757861314E+01 -0.42185122903E+02  0.43400730545E+02  0.00000000000E+00 0. -1.
         11    1    3    3    0    0  0.30804937672E+01  0.29252796406E+01  0.75264192881E+01  0.86425511504E+01  0.51100000000E-03 0. -1.
        -11    1    3    3    0    0 -0.68053782159E+01 -0.11025325247E+02  0.16770335624E+02  0.21192336508E+02  0.51100000000E-03 0.  1.
        -12    1    3    3    0    0 -0.13009724989E+01 -0.77574052485E+00  0.17888367991E+02  0.17952381797E+02  0.00000000000E+00 0.  1.
</event>
<event>
 7    1  0.4937359E-010  0.4778729E+02  0.7816164E-02  0.1312668E+00
        -11   -1    0    0    0    0  0.00000000000E+00  0.00000000000E+00  0.45593999997E+02  0.45594000000E+02  0.51100000000E-03 0. -1.
         11   -1    0    0    0    0 -0.00000000000E+00 -0.00000000000E+00 -0.45593999997E+02  0.45594000000E+02  0.51100000000E-03 0.  1.
    9900012    2    1    2    0    0  0.18340788361E+02 -0.72071846615E+01 -0.38669030295E+02  0.47787286499E+02  0.20000070463E+02 0.  0.
         12    1    1    2    0    0 -0.18340788361E+02  0.72071846615E+01  0.38669030295E+02  0.43400713501E+02  0.00000000000E+00 0. -1.
         11    1    3    3    0    0 -0.74127861398E+00  0.11133024469E+01 -0.31759799447E+01  0.34461261138E+01  0.51100000000E-03 0. -1.
        -11    1    3    3    0    0 -0.24758098346E+00 -0.51343795993E+01 -0.15583961497E+02  0.16409844801E+02  0.51100000000E-03 0.  1.
        -12    1    3    3    0    0  0.19329647958E+02 -0.31861075091E+01 -0.19909088854E+02  0.27931315584E+02  0.00000000000E+00 0.  1.
</event>
<event>
 7    1  0.4937359E-010  0.4778727E+02  0.7816164E-02  0.1312668E+00
        -11   -1    0    0    0    0  0.00000000000E+00  0.00000000000E+00  0.45593999997E+02  0.45594000000E+02  0.51100000000E-03 0. -1.
         11   -1    0    0    0    0 -0.00000000000E+00 -0.00000000000E+00 -0.45593999997E+02  0.45594000000E+02  0.51100000000E-03 0.  1.
    9900012    2    1    2    0    0 -0.17889726775E+02  0.35806044951E+02 -0.16778211966E+02  0.47787267565E+02  0.19999984138E+02 0.  0.
         12    1    1    2    0    0  0.17889726775E+02 -0.35806044951E+02  0.16778211966E+02  0.43400732435E+02  0.00000000000E+00 0. -1.
         11    1    3    3    0    0 -0.77091172061E+00  0.27072658582E+01 -0.37383045858E+01  0.46795848903E+01  0.51100000000E-03 0. -1.
        -11    1    3    3    0    0 -0.11507426807E+02  0.87162163367E+01 -0.10719118538E+02  0.17980344865E+02  0.51100000000E-03 0.  1.
        -12    1    3    3    0    0 -0.56113882475E+01  0.24382562756E+02 -0.23207888416E+01  0.25127337810E+02  0.00000000000E+00 0.  1.
</event>
<event>
 7    1  0.4937359E-010  0.4778727E+02  0.7816164E-02  0.1312668E+00
        -11   -1    0    0    0    0  0.00000000000E+00  0.00000000000E+00  0.45593999997E+02  0.45594000000E+02  0.51100000000E-03 0. -1.
         11   -1    0    0    0    0 -0.00000000000E+00 -0.00000000000E+00 -0.45593999997E+02  0.45594000000E+02  0.51100000000E-03 0.  1.
    9900012    2    1    2    0    0  0.33784773693E+02 -0.22666857063E+02  0.15113777376E+02  0.47787267181E+02  0.19999982386E+02 0.  0.
         12    1    1    2    0    0 -0.33784773693E+02  0.22666857063E+02 -0.15113777376E+02  0.43400732819E+02  0.00000000000E+00 0. -1.
         11    1    3    3    0    0  0.67955549637E+01 -0.63730824105E+01  0.91752094476E+00  0.93614951595E+01  0.51100000000E-03 0. -1.
        -11    1    3    3    0    0  0.27314029880E+02 -0.12645267503E+02  0.16271518543E+02  0.34215805331E+02  0.51100000000E-03 0.  1.
        -12    1    3    3    0    0 -0.32481115069E+00 -0.36485071498E+01 -0.20752621110E+01  0.42099666906E+01  0.00000000000E+00 0.  1.
</event>
<event>
 7    1  0.4937359E-010  0.4778727E+02  0.7816164E-02  0.1312668E+00
        -11   -1    0    0    0    0  0.00000000000E+00  0.00000000000E+00  0.45593999997E+02  0.45594000000E+02  0.51100000000E-03 0.  1.
         11   -1    0    0    0    0 -0.00000000000E+00 -0.00000000000E+00 -0.45593999997E+02  0.45594000000E+02  0.51100000000E-03 0. -1.
    9900012    2    1    2    0    0  0.80544848748E+01 -0.19612867113E+02  0.37869304164E+02  0.47787268660E+02  0.19999989130E+02 0.  0.
         12    1    1    2    0    0 -0.80544848748E+01  0.19612867113E+02 -0.37869304164E+02  0.43400731340E+02  0.00000000000E+00 0. -1.
         11    1    3    3    0    0  0.11531704499E+01 -0.87176050340E+01  0.17943155626E+01  0.89747427937E+01  0.51100000000E-03 0. -1.
        -11    1    3    3    0    0  0.28799213375E+01 -0.33712681566E+01  0.21253787675E+02  0.21711353866E+02  0.51100000000E-03 0.  1.
         12    1    3    3    0    0  0.40213930874E+01 -0.75239939224E+01  0.14821200926E+02  0.17101172000E+02  0.00000000000E+00 0. -1.
</event>
<event>
 7    1  0.4937359E-010  0.4778727E+02  0.7816164E-02  0.1312668E+00
        -11   -1    0    0    0    0  0.00000000000E+00  0.00000000000E+00  0.45593999997E+02  0.45594000000E+02  0.51100000000E-03 0.  1.
         11   -1    0    0    0    0 -0.00000000000E+00 -0.00000000000E+00 -0.45593999997E+02  0.45594000000E+02  0.51100000000E-03 0. -1.
    9900012    2    1    2    0    0 -0.36186567054E+02  0.12328131519E+02  0.20546836249E+02  0.47787274871E+02  0.20000017446E+02 0.  0.
         12    1    1    2    0    0  0.36186567054E+02 -0.12328131519E+02 -0.20546836249E+02  0.43400725129E+02  0.00000000000E+00 0. -1.
         11    1    3    3    0    0  0.20084551803E+01  0.83243387188E+00  0.10065824863E+01  0.23958395032E+01  0.51100000000E-03 0. -1.
        -11    1    3    3    0    0 -0.83911461004E+01 -0.10947561193E+01  0.56903140950E+01  0.10197524141E+02  0.51100000000E-03 0.  1.
         12    1    3    3    0    0 -0.29803876134E+02  0.12590453766E+02  0.13849939667E+02  0.35193911227E+02  0.00000000000E+00 0. -1.
</event>
<event>
 7    1  0.4937359E-010  0.4778728E+02  0.7816164E-02  0.1312668E+00
        -11   -1    0    0    0    0  0.00000000000E+00  0.00000000000E+00  0.45593999997E+02  0.45594000000E+02  0.51100000000E-03 0.  1.
         11   -1    0    0    0    0 -0.00000000000E+00 -0.00000000000E+00 -0.45593999997E+02  0.45594000000E+02  0.51100000000E-03 0. -1.
    9900012    2    1    2    0    0 -0.44555057888E+01  0.29275312992E+02  0.31728958998E+02  0.47787282014E+02  0.20000050012E+02 0.  0.
         12    1    1    2    0    0  0.44555057888E+01 -0.29275312992E+02 -0.31728958998E+02  0.43400717986E+02  0.00000000000E+00 0. -1.
         11    1    3    3    0    0 -0.12095527355E+02  0.20369546201E+02  0.20813839045E+02  0.31534680757E+02  0.51100000000E-03 0. -1.
        -11    1    3    3    0    0  0.59486522156E+01  0.66378791498E+01  0.97004994465E+01  0.13173746337E+02  0.51100000000E-03 0.  1.
         12    1    3    3    0    0  0.16913693506E+01  0.22678876415E+01  0.12146205070E+01  0.30788549187E+01  0.00000000000E+00 0. -1.
</event>
<event>
 7    1  0.4937359E-010  0.4778725E+02  0.7816164E-02  0.1312668E+00
        -11   -1    0    0    0    0  0.00000000000E+00  0.00000000000E+00  0.45593999997E+02  0.45594000000E+02  0.51100000000E-03 0.  1.
         11   -1    0    0    0    0 -0.00000000000E+00 -0.00000000000E+00 -0.45593999997E+02  0.45594000000E+02  0.51100000000E-03 0. -1.
    9900012    2    1    2    0    0 -0.14760365912E+02  0.29445835530E+02  0.28261272825E+02  0.47787249159E+02  0.19999900213E+02 0.  0.
         12    1    1    2    0    0  0.14760365912E+02 -0.29445835530E+02 -0.28261272825E+02  0.43400750841E+02  0.00000000000E+00 0. -1.
         11    1    3    3    0    0 -0.74046393916E+01  0.15085833375E+02  0.21972692424E+02  0.27662434198E+02  0.51100000000E-03 0.  1.
        -11    1    3    3    0    0 -0.82543186516E+01  0.73458173666E+01  0.62928028175E+00  0.11067556330E+02  0.51100000000E-03 0. -1.
        -12    1    3    3    0    0  0.89859213117E+00  0.70141847877E+01  0.56593001199E+01  0.90572586306E+01  0.00000000000E+00 0.  1.
</event>
<event>
 7    1  0.4937359E-010  0.4778727E+02  0.7816164E-02  0.1312668E+00
        -11   -1    0    0    0    0  0.00000000000E+00  0.00000000000E+00  0.45593999997E+02  0.45594000000E+02  0.51100000000E-03 0.  1.
         11   -1    0    0    0    0 -0.00000000000E+00 -0.00000000000E+00 -0.45593999997E+02  0.45594000000E+02  0.51100000000E-03 0. -1.
    9900012    2    1    2    0    0  0.21067564708E+02 -0.31772972928E+02  0.20742689637E+02  0.47787271149E+02  0.20000000477E+02 0.  0.
         12    1    1    2    0    0 -0.21067564708E+02  0.31772972928E+02 -0.20742689637E+02  0.43400728851E+02  0.00000000000E+00 0. -1.
         11    1    3    3    0    0  0.58336339722E+00  0.78721313917E+00  0.51274900128E+01  0.52202654600E+01  0.51100000000E-03 0. -1.
        -11    1    3    3    0    0  0.15577465259E+02 -0.19284260696E+02  0.61541668384E+01  0.25542394254E+02  0.51100000000E-03 0.  1.
        -12    1    3    3    0    0  0.49067360517E+01 -0.13275925371E+02  0.94610327854E+01  0.17024611435E+02  0.00000000000E+00 0.  1.
</event>
<event>
 7    1  0.4937359E-010  0.4778727E+02  0.7816164E-02  0.1312668E+00
        -11   -1    0    0    0    0  0.00000000000E+00  0.00000000000E+00  0.45593999997E+02  0.45594000000E+02  0.51100000000E-03 0.  1.
         11   -1    0    0    0    0 -0.00000000000E+00 -0.00000000000E+00 -0.45593999997E+02  0.45594000000E+02  0.51100000000E-03 0. -1.
    9900012    2    1    2    0    0 -0.41035534200E+02  0.83697221578E+01 -0.11386671291E+02  0.47787267297E+02  0.19999982912E+02 0.  0.
         12    1    1    2    0    0  0.41035534200E+02 -0.83697221578E+01  0.11386671291E+02  0.43400732703E+02  0.00000000000E+00 0. -1.
         11    1    3    3    0    0 -0.15593635047E+02 -0.16575813709E+01 -0.82657780745E+01  0.17726593509E+02  0.51100000000E-03 0. -1.
        -11    1    3    3    0    0 -0.17195577513E+02  0.28525024483E+01  0.27610711931E+01  0.17647894226E+02  0.51100000000E-03 0.  1.
        -12    1    3    3    0    0 -0.82463216401E+01  0.71748010804E+01 -0.58819644098E+01  0.12412779562E+02  0.00000000000E+00 0.  1.
</event>
<event>
 7    1  0.4937359E-010  0.4778727E+02  0.7816164E-02  0.1312668E+00
        -11   -1    0    0    0    0  0.00000000000E+00  0.00000000000E+00  0.45593999997E+02  0.45594000000E+02  0.51100000000E-03 0.  1.
         11   -1    0    0    0    0 -0.00000000000E+00 -0.00000000000E+00 -0.45593999997E+02  0.45594000000E+02  0.51100000000E-03 0. -1.
    9900012    2    1    2    0    0  0.40439875341E+02  0.75528870825E+01  0.13827267345E+02  0.47787274855E+02  0.20000017375E+02 0.  0.
         12    1    1    2    0    0 -0.40439875341E+02 -0.75528870825E+01 -0.13827267345E+02  0.43400725145E+02  0.00000000000E+00 0. -1.
         11    1    3    3    0    0  0.10859377633E+02 -0.49615791916E+01  0.14736712787E+00  0.11940061473E+02  0.51100000000E-03 0. -1.
        -11    1    3    3    0    0  0.11572920905E+01  0.21199937919E+01 -0.43354227654E+00  0.24539066460E+01  0.51100000000E-03 0.  1.
         12    1    3    3    0    0  0.28423205617E+02  0.10394472482E+02  0.14113442494E+02  0.33393306736E+02  0.00000000000E+00 0. -1.
</event>
<event>
 7    1  0.4937359E-010  0.4778727E+02  0.7816164E-02  0.1312668E+00
        -11   -1    0    0    0    0  0.00000000000E+00  0.00000000000E+00  0.45593999997E+02  0.45594000000E+02  0.51100000000E-03 0.  1.
         11   -1    0    0    0    0 -0.00000000000E+00 -0.00000000000E+00 -0.45593999997E+02  0.45594000000E+02  0.51100000000E-03 0. -1.
    9900012    2    1    2    0    0  0.24063997399E+01 -0.26375361909E+02  0.34382738320E+02  0.47787272242E+02  0.20000005462E+02 0.  0.
         12    1    1    2    0    0 -0.24063997399E+01  0.26375361909E+02 -0.34382738320E+02  0.43400727758E+02  0.00000000000E+00 0. -1.
         11    1    3    3    0    0  0.22662078156E+01  0.11794926424E+01  0.32134780356E+01  0.41052822197E+01  0.51100000000E-03 0. -1.
        -11    1    3    3    0    0 -0.12745179768E+01 -0.27074696178E+02  0.23515341449E+02  0.35883629317E+02  0.51100000000E-03 0.  1.
        -12    1    3    3    0    0  0.14147099011E+01 -0.48015837320E+00  0.76539188348E+01  0.77983607058E+01  0.00000000000E+00 0.  1.
</event>
<event>
 7    1  0.4937359E-010  0.4778727E+02  0.7816164E-02  0.1312668E+00
        -11   -1    0    0    0    0  0.00000000000E+00  0.00000000000E+00  0.45593999997E+02  0.45594000000E+02  0.51100000000E-03 0.  1.
         11   -1    0    0    0    0 -0.00000000000E+00 -0.00000000000E+00 -0.45593999997E+02  0.45594000000E+02  0.51100000000E-03 0. -1.
    9900012    2    1    2    0    0 -0.35269057998E+01  0.39432393803E+02 -0.17783994813E+02  0.47787271699E+02  0.20000002984E+02 0.  0.
         12    1    1    2    0    0  0.35269057998E+01 -0.39432393803E+02  0.17783994813E+02  0.43400728301E+02  0.00000000000E+00 0. -1.
         11    1    3    3    0    0  0.22424489289E+01  0.10620173463E+02 -0.41818494172E+01  0.11632047386E+02  0.51100000000E-03 0. -1.
        -11    1    3    3    0    0 -0.32179460775E+01  0.27072278560E+02 -0.59516452441E+01  0.27904937283E+02  0.51100000000E-03 0.  1.
        -12    1    3    3    0    0 -0.25514086511E+01  0.17399417798E+01 -0.76505001514E+01  0.82502870295E+01  0.00000000000E+00 0.  1.
</event>
<event>
 7    1  0.4937359E-010  0.4778727E+02  0.7816164E-02  0.1312668E+00
        -11   -1    0    0    0    0  0.00000000000E+00  0.00000000000E+00  0.45593999997E+02  0.45594000000E+02  0.51100000000E-03 0.  1.
         11   -1    0    0    0    0 -0.00000000000E+00 -0.00000000000E+00 -0.45593999997E+02  0.45594000000E+02  0.51100000000E-03 0. -1.
    9900012    2    1    2    0    0 -0.30434044334E+01  0.42860507660E+02  0.61104812770E+01  0.47787269489E+02  0.19999992909E+02 0.  0.
         12    1    1    2    0    0  0.30434044334E+01 -0.42860507660E+02 -0.61104812770E+01  0.43400730511E+02  0.00000000000E+00 0. -1.
         11    1    3    3    0    0 -0.62083751467E+01  0.20907174686E+02  0.33958547674E+01  0.22072283642E+02  0.51100000000E-03 0. -1.
        -11    1    3    3    0    0  0.56734147274E+01  0.79909046351E+01  0.55294910535E+01  0.11252442541E+02  0.51100000000E-03 0.  1.
        -12    1    3    3    0    0 -0.25084440141E+01  0.13962428339E+02 -0.28148645439E+01  0.14462543306E+02  0.00000000000E+00 0.  1.
</event>
<event>
 7    1  0.4937359E-010  0.4778727E+02  0.7816164E-02  0.1312668E+00
        -11   -1    0    0    0    0  0.00000000000E+00  0.00000000000E+00  0.45593999997E+02  0.45594000000E+02  0.51100000000E-03 0.  1.
         11   -1    0    0    0    0 -0.00000000000E+00 -0.00000000000E+00 -0.45593999997E+02  0.45594000000E+02  0.51100000000E-03 0. -1.
    9900012    2    1    2    0    0 -0.35599903132E+02 -0.22773090292E+02 -0.98821306322E+01  0.47787271316E+02  0.20000001239E+02 0.  0.
         12    1    1    2    0    0  0.35599903132E+02  0.22773090292E+02  0.98821306322E+01  0.43400728684E+02  0.00000000000E+00 0. -1.
         11    1    3    3    0    0  0.71309988347E+00  0.10135444074E+01 -0.22898039087E+01  0.26036485767E+01  0.51100000000E-03 0. -1.
        -11    1    3    3    0    0 -0.21008476797E+02 -0.13639218477E+02 -0.93519179396E+01  0.26736543296E+02  0.51100000000E-03 0.  1.
         12    1    3    3    0    0 -0.15304526219E+02 -0.10147416222E+02  0.17595912161E+01  0.18447079444E+02  0.00000000000E+00 0. -1.
</event>
<event>
 7    1  0.4937359E-010  0.4778727E+02  0.7816164E-02  0.1312668E+00
        -11   -1    0    0    0    0  0.00000000000E+00  0.00000000000E+00  0.45593999997E+02  0.45594000000E+02  0.51100000000E-03 0.  1.
         11   -1    0    0    0    0 -0.00000000000E+00 -0.00000000000E+00 -0.45593999997E+02  0.45594000000E+02  0.51100000000E-03 0. -1.
    9900012    2    1    2    0    0  0.20076225022E+02 -0.15782082865E+02  0.35092653762E+02  0.47787270758E+02  0.19999998695E+02 0.  0.
         12    1    1    2    0    0 -0.20076225022E+02  0.15782082865E+02 -0.35092653762E+02  0.43400729242E+02  0.00000000000E+00 0. -1.
         11    1    3    3    0    0 -0.17942443754E+01 -0.87625562116E+01  0.70457212537E+01  0.11386127194E+02  0.51100000000E-03 0. -1.
        -11    1    3    3    0    0  0.10898067146E+02 -0.47946264051E+01  0.16153781668E+02  0.20067410703E+02  0.51100000000E-03 0.  1.
         12    1    3    3    0    0  0.10972402251E+02 -0.22249002484E+01  0.11893150840E+02  0.16333732861E+02  0.00000000000E+00 0. -1.
</event>
<event>
 7    1  0.4937359E-010  0.4778727E+02  0.7816164E-02  0.1312668E+00
        -11   -1    0    0    0    0  0.00000000000E+00  0.00000000000E+00  0.45593999997E+02  0.45594000000E+02  0.51100000000E-03 0.  1.
         11   -1    0    0    0    0 -0.00000000000E+00 -0.00000000000E+00 -0.45593999997E+02  0.45594000000E+02  0.51100000000E-03 0. -1.
    9900012    2    1    2    0    0 -0.35943265369E+02  0.10100618777E+02  0.22128772359E+02  0.47787269693E+02  0.19999993838E+02 0.  0.
         12    1    1    2    0    0  0.35943265369E+02 -0.10100618777E+02 -0.22128772359E+02  0.43400730307E+02  0.00000000000E+00 0. -1.
         11    1    3    3    0    0 -0.13959152514E+02  0.10527648729E+02  0.16722620361E+02  0.24193704939E+02  0.51100000000E-03 0. -1.
        -11    1    3    3    0    0 -0.71793640788E+01  0.84222205806E-01 -0.13606237143E+01  0.73076438822E+01  0.51100000000E-03 0.  1.
         12    1    3    3    0    0 -0.14804748777E+02 -0.51125215814E+00  0.67667757117E+01  0.16285920872E+02  0.00000000000E+00 0. -1.
</event>
<event>
 7    1  0.4937359E-010  0.4778727E+02  0.7816164E-02  0.1312668E+00
        -11   -1    0    0    0    0  0.00000000000E+00  0.00000000000E+00  0.45593999997E+02  0.45594000000E+02  0.51100000000E-03 0. -1.
         11   -1    0    0    0    0 -0.00000000000E+00 -0.00000000000E+00 -0.45593999997E+02  0.45594000000E+02  0.51100000000E-03 0.  1.
    9900012    2    1    2    0    0  0.17603173334E+01 -0.25600855449E+02 -0.35001727848E+02  0.47787268794E+02  0.19999989739E+02 0.  0.
         12    1    1    2    0    0 -0.17603173334E+01  0.25600855449E+02  0.35001727848E+02  0.43400731206E+02  0.00000000000E+00 0. -1.
         11    1    3    3    0    0 -0.12269891391E+01 -0.21710534480E+02 -0.25547230802E+02  0.33548678240E+02  0.51100000000E-03 0. -1.
        -11    1    3    3    0    0  0.33791222210E+00 -0.45352598421E+01 -0.15813636389E+00  0.45505795099E+01  0.51100000000E-03 0.  1.
         12    1    3    3    0    0  0.26493942504E+01  0.64493887290E+00 -0.92963606827E+01  0.96880110439E+01  0.00000000000E+00 0. -1.
</event>
<event>
 7    1  0.4937359E-010  0.4778727E+02  0.7816164E-02  0.1312668E+00
        -11   -1    0    0    0    0  0.00000000000E+00  0.00000000000E+00  0.45593999997E+02  0.45594000000E+02  0.51100000000E-03 0.  1.
         11   -1    0    0    0    0 -0.00000000000E+00 -0.00000000000E+00 -0.45593999997E+02  0.45594000000E+02  0.51100000000E-03 0. -1.
    9900012    2    1    2    0    0 -0.42101743121E+00 -0.12359696263E+01  0.43381083097E+02  0.47787271351E+02  0.20000001399E+02 0.  0.
         12    1    1    2    0    0  0.42101743121E+00  0.12359696263E+01 -0.43381083097E+02  0.43400728649E+02  0.00000000000E+00 0. -1.
         11    1    3    3    0    0  0.13400257294E+01  0.90277197383E+00  0.32250489638E+02  0.32290939106E+02  0.51100000000E-03 0. -1.
        -11    1    3    3    0    0 -0.84738001100E+00 -0.23546234791E+01  0.13088178856E+02  0.13325266625E+02  0.51100000000E-03 0.  1.
         12    1    3    3    0    0 -0.91366314964E+00  0.21588187906E+00 -0.19575853974E+01  0.21710656196E+01  0.00000000000E+00 0. -1.
</event>
<event>
 7    1  0.4937359E-010  0.4778728E+02  0.7816164E-02  0.1312668E+00
        -11   -1    0    0    0    0  0.00000000000E+00  0.00000000000E+00  0.45593999997E+02  0.45594000000E+02  0.51100000000E-03 0. -1.
         11   -1    0    0    0    0 -0.00000000000E+00 -0.00000000000E+00 -0.45593999997E+02  0.45594000000E+02  0.51100000000E-03 0.  1.
    9900012    2    1    2    0    0 -0.15040561602E+02  0.40705359349E+02 -0.69148472325E+00  0.47787275074E+02  0.20000018371E+02 0.  0.
         12    1    1    2    0    0  0.15040561602E+02 -0.40705359349E+02  0.69148472325E+00  0.43400724926E+02  0.00000000000E+00 0. -1.
         11    1    3    3    0    0 -0.12640925405E+02  0.22149846862E+02 -0.87119025894E+01  0.26950064158E+02  0.51100000000E-03 0. -1.
        -11    1    3    3    0    0 -0.36139245041E+01  0.11259189248E+02  0.52626456650E+01  0.12943153885E+02  0.51100000000E-03 0.  1.
         12    1    3    3    0    0  0.12142883069E+01  0.72963232385E+01  0.27577722011E+01  0.78940570309E+01  0.00000000000E+00 0. -1.
</event>
<event>
 7    1  0.4937359E-010  0.4778727E+02  0.7816164E-02  0.1312668E+00
        -11   -1    0    0    0    0  0.00000000000E+00  0.00000000000E+00  0.45593999997E+02  0.45594000000E+02  0.51100000000E-03 0. -1.
         11   -1    0    0    0    0 -0.00000000000E+00 -0.00000000000E+00 -0.45593999997E+02  0.45594000000E+02  0.51100000000E-03 0.  1.
    9900012    2    1    2    0    0  0.39576187208E+02 -0.26869639831E+01 -0.17610483945E+02  0.47787268277E+02  0.19999987381E+02 0.  0.
         12    1    1    2    0    0 -0.39576187208E+02  0.26869639831E+01  0.17610483945E+02  0.43400731723E+02  0.00000000000E+00 0. -1.
         11    1    3    3    0    0  0.43622895226E+01 -0.30569364755E+01 -0.63477847677E+01  0.82866641185E+01  0.51100000000E-03 0. -1.
        -11    1    3    3    0    0  0.27894664465E+02  0.29591349258E+01 -0.30781439178E+01  0.28219563345E+02  0.51100000000E-03 0.  1.
        -12    1    3    3    0    0  0.73192332196E+01 -0.25891624333E+01 -0.81845552598E+01  0.11281040813E+02  0.00000000000E+00 0.  1.
</event>
<event>
 7    1  0.4937359E-010  0.4778727E+02  0.7816164E-02  0.1312668E+00
        -11   -1    0    0    0    0  0.00000000000E+00  0.00000000000E+00  0.45593999997E+02  0.45594000000E+02  0.51100000000E-03 0.  1.
         11   -1    0    0    0    0 -0.00000000000E+00 -0.00000000000E+00 -0.45593999997E+02  0.45594000000E+02  0.51100000000E-03 0. -1.
    9900012    2    1    2    0    0 -0.27490536439E+01  0.18752245600E+02  0.39043810784E+02  0.47787272224E+02  0.20000005376E+02 0.  0.
         12    1    1    2    0    0  0.27490536439E+01 -0.18752245600E+02 -0.39043810784E+02  0.43400727776E+02  0.00000000000E+00 0. -1.
         11    1    3    3    0    0 -0.86852052204E+00  0.25574045916E+01  0.21539206247E+01  0.34545651624E+01  0.51100000000E-03 0. -1.
        -11    1    3    3    0    0 -0.61767325240E+00 -0.19670588126E+01 -0.10033086350E+01  0.22929171588E+01  0.51100000000E-03 0.  1.
        -12    1    3    3    0    0 -0.12628598694E+01  0.18161899821E+02  0.37893198794E+02  0.42039789902E+02  0.00000000000E+00 0.  1.
</event>
<event>
 7    1  0.4937359E-010  0.4778727E+02  0.7816164E-02  0.1312668E+00
        -11   -1    0    0    0    0  0.00000000000E+00  0.00000000000E+00  0.45593999997E+02  0.45594000000E+02  0.51100000000E-03 0.  1.
         11   -1    0    0    0    0 -0.00000000000E+00 -0.00000000000E+00 -0.45593999997E+02  0.45594000000E+02  0.51100000000E-03 0. -1.
    9900012    2    1    2    0    0 -0.72065737989E+00  0.42393145244E+02  0.92695815169E+01  0.47787271293E+02  0.20000001135E+02 0.  0.
         12    1    1    2    0    0  0.72065737989E+00 -0.42393145244E+02 -0.92695815169E+01  0.43400728707E+02  0.00000000000E+00 0. -1.
         11    1    3    3    0    0 -0.10111321606E+01  0.60158478356E+01  0.61286264389E+01  0.86471310685E+01  0.51100000000E-03 0. -1.
        -11    1    3    3    0    0 -0.52373827402E+01  0.61183604374E+01 -0.94952613381E+00  0.81096308516E+01  0.51100000000E-03 0.  1.
        -12    1    3    3    0    0  0.55278575210E+01  0.30258936971E+02  0.40904812118E+01  0.31030509373E+02  0.00000000000E+00 0.  1.
</event>
<event>
 7    1  0.4937359E-010  0.4778726E+02  0.7816164E-02  0.1312668E+00
        -11   -1    0    0    0    0  0.00000000000E+00  0.00000000000E+00  0.45593999997E+02  0.45594000000E+02  0.51100000000E-03 0. -1.
         11   -1    0    0    0    0 -0.00000000000E+00 -0.00000000000E+00 -0.45593999997E+02  0.45594000000E+02  0.51100000000E-03 0.  1.
    9900012    2    1    2    0    0 -0.73352405254E+01 -0.20946320389E+02 -0.37297047607E+02  0.47787264389E+02  0.19999969654E+02 0.  0.
         12    1    1    2    0    0  0.73352405254E+01  0.20946320389E+02  0.37297047607E+02  0.43400735611E+02  0.00000000000E+00 0. -1.
         11    1    3    3    0    0  0.43386205289E+01 -0.23775634041E+01 -0.15209940131E+02  0.15994333837E+02  0.51100000000E-03 0. -1.
        -11    1    3    3    0    0 -0.38502765130E+01 -0.11339122121E+02 -0.13971503938E+02  0.18401175024E+02  0.51100000000E-03 0.  1.
         12    1    3    3    0    0 -0.78235845414E+01 -0.72296348638E+01 -0.81156035375E+01  0.13391755528E+02  0.00000000000E+00 0. -1.
</event>
<event>
 7    1  0.4937359E-010  0.4778727E+02  0.7816164E-02  0.1312668E+00
        -11   -1    0    0    0    0  0.00000000000E+00  0.00000000000E+00  0.45593999997E+02  0.45594000000E+02  0.51100000000E-03 0.  1.
         11   -1    0    0    0    0 -0.00000000000E+00 -0.00000000000E+00 -0.45593999997E+02  0.45594000000E+02  0.51100000000E-03 0. -1.
    9900012    2    1    2    0    0  0.79039699418E+01 -0.38772760418E+02 -0.17827609815E+02  0.47787270018E+02  0.19999995321E+02 0.  0.
         12    1    1    2    0    0 -0.79039699418E+01  0.38772760418E+02  0.17827609815E+02  0.43400729982E+02  0.00000000000E+00 0. -1.
         11    1    3    3    0    0  0.22433742834E+01 -0.20640457735E+02 -0.17855812518E+02  0.27384142576E+02  0.51100000000E-03 0. -1.
        -11    1    3    3    0    0  0.73638419070E+01 -0.16156120326E+02 -0.39803621133E+00  0.17759640331E+02  0.51100000000E-03 0.  1.
         12    1    3    3    0    0 -0.17032462486E+01 -0.19761823570E+01  0.42623891489E+00  0.26434871106E+01  0.00000000000E+00 0. -1.
</event>
<event>
 7    1  0.4937359E-010  0.4778727E+02  0.7816164E-02  0.1312668E+00
        -11   -1    0    0    0    0  0.00000000000E+00  0.00000000000E+00  0.45593999997E+02  0.45594000000E+02  0.51100000000E-03 0.  1.
         11   -1    0    0    0    0 -0.00000000000E+00 -0.00000000000E+00 -0.45593999997E+02  0.45594000000E+02  0.51100000000E-03 0. -1.
    9900012    2    1    2    0    0 -0.95464712112E+01 -0.40566008534E+02 -0.12119702389E+02  0.47787270202E+02  0.19999996160E+02 0.  0.
         12    1    1    2    0    0  0.95464712112E+01  0.40566008534E+02  0.12119702389E+02  0.43400729798E+02  0.00000000000E+00 0. -1.
         11    1    3    3    0    0  0.70216758576E+00 -0.29527626176E+00 -0.14707551015E+01  0.16563055935E+01  0.51100000000E-03 0. -1.
        -11    1    3    3    0    0 -0.47506326761E+01 -0.36560044387E+02 -0.13001974962E+02  0.39092924035E+02  0.51100000000E-03 0.  1.
        -12    1    3    3    0    0 -0.54980061208E+01 -0.37106878853E+01  0.23530276745E+01  0.70380405741E+01  0.00000000000E+00 0.  1.
</event>
<event>
 7    1  0.4937359E-010  0.4778727E+02  0.7816164E-02  0.1312668E+00
        -11   -1    0    0    0    0  0.00000000000E+00  0.00000000000E+00  0.45593999997E+02  0.45594000000E+02  0.51100000000E-03 0.  1.
         11   -1    0    0    0    0 -0.00000000000E+00 -0.00000000000E+00 -0.45593999997E+02  0.45594000000E+02  0.51100000000E-03 0. -1.
    9900012    2    1    2    0    0 -0.15432764511E+02  0.31516272602E+02  0.25537769787E+02  0.47787270226E+02  0.19999996271E+02 0.  0.
         12    1    1    2    0    0  0.15432764511E+02 -0.31516272602E+02 -0.25537769787E+02  0.43400729774E+02  0.00000000000E+00 0. -1.
         11    1    3    3    0    0 -0.64500251396E+01  0.12782173502E+02  0.20451313210E+01  0.14462688067E+02  0.51100000000E-03 0. -1.
        -11    1    3    3    0    0 -0.82850058751E+01  0.58563128337E+01  0.14096416313E+02  0.17367978452E+02  0.51100000000E-03 0.  1.
        -12    1    3    3    0    0 -0.69773349643E+00  0.12877786266E+02  0.93962221531E+01  0.15956603708E+02  0.00000000000E+00 0.  1.
</event>
<event>
 7    1  0.4937359E-010  0.4778726E+02  0.7816164E-02  0.1312668E+00
        -11   -1    0    0    0    0  0.00000000000E+00  0.00000000000E+00  0.45593999997E+02  0.45594000000E+02  0.51100000000E-03 0.  1.
         11   -1    0    0    0    0 -0.00000000000E+00 -0.00000000000E+00 -0.45593999997E+02  0.45594000000E+02  0.51100000000E-03 0. -1.
    9900012    2    1    2    0    0 -0.23886439047E+02  0.24335393578E+02  0.26848666091E+02  0.47787260124E+02  0.19999950208E+02 0.  0.
         12    1    1    2    0    0  0.23886439047E+02 -0.24335393578E+02 -0.26848666091E+02  0.43400739876E+02  0.00000000000E+00 0. -1.
         11    1    3    3    0    0 -0.19543429370E+02  0.18575640986E+02  0.16500553458E+02  0.31611205834E+02  0.51100000000E-03 0. -1.
        -11    1    3    3    0    0 -0.67255355792E+01  0.67471180746E+01  0.95183907744E+01  0.13466855399E+02  0.51100000000E-03 0.  1.
         12    1    3    3    0    0  0.23825259022E+01 -0.98736548223E+00  0.82972185850E+00  0.27091988913E+01  0.00000000000E+00 0. -1.
</event>
<event>
 7    1  0.4937359E-010  0.4778727E+02  0.7816164E-02  0.1312668E+00
        -11   -1    0    0    0    0  0.00000000000E+00  0.00000000000E+00  0.45593999997E+02  0.45594000000E+02  0.51100000000E-03 0.  1.
         11   -1    0    0    0    0 -0.00000000000E+00 -0.00000000000E+00 -0.45593999997E+02  0.45594000000E+02  0.51100000000E-03 0. -1.
    9900012    2    1    2    0    0  0.41355108501E+02 -0.11781261332E+02  0.58804752352E+01  0.47787272970E+02  0.20000008781E+02 0.  0.
         12    1    1    2    0    0 -0.41355108501E+02  0.11781261332E+02 -0.58804752352E+01  0.43400727030E+02  0.00000000000E+00 0. -1.
         11    1    3    3    0    0  0.16281945970E+02 -0.64081963519E+01 -0.72689956268E+01  0.18947428394E+02  0.51100000000E-03 0. -1.
        -11    1    3    3    0    0  0.19446490270E+02 -0.38342769396E+01  0.97642095746E+01  0.22095416999E+02  0.51100000000E-03 0.  1.
         12    1    3    3    0    0  0.56266722611E+01 -0.15387880403E+01  0.33852612875E+01  0.67444275777E+01  0.00000000000E+00 0. -1.
</event>
<event>
 7    1  0.4937359E-010  0.4778726E+02  0.7816164E-02  0.1312668E+00
        -11   -1    0    0    0    0  0.00000000000E+00  0.00000000000E+00  0.45593999997E+02  0.45594000000E+02  0.51100000000E-03 0.  1.
         11   -1    0    0    0    0 -0.00000000000E+00 -0.00000000000E+00 -0.45593999997E+02  0.45594000000E+02  0.51100000000E-03 0. -1.
    9900012    2    1    2    0    0 -0.17780489168E+02 -0.25153024817E+02  0.30574562366E+02  0.47787259034E+02  0.19999945241E+02 0.  0.
         12    1    1    2    0    0  0.17780489168E+02  0.25153024817E+02 -0.30574562366E+02  0.43400740966E+02  0.00000000000E+00 0. -1.
         11    1    3    3    0    0  0.31673358964E+00 -0.49363473487E+01  0.92905734755E+01  0.10525331400E+02  0.51100000000E-03 0. -1.
        -11    1    3    3    0    0 -0.13738936145E+02 -0.48972903846E+01  0.11453227946E+02  0.18545033032E+02  0.51100000000E-03 0.  1.
        -12    1    3    3    0    0 -0.43582866125E+01 -0.15319387084E+02  0.98307609445E+01  0.18716894603E+02  0.00000000000E+00 0.  1.
</event>
<event>
 7    1  0.4937359E-010  0.4778728E+02  0.7816164E-02  0.1312668E+00
        -11   -1    0    0    0    0  0.00000000000E+00  0.00000000000E+00  0.45593999997E+02  0.45594000000E+02  0.51100000000E-03 0.  1.
         11   -1    0    0    0    0 -0.00000000000E+00 -0.00000000000E+00 -0.45593999997E+02  0.45594000000E+02  0.51100000000E-03 0. -1.
    9900012    2    1    2    0    0  0.30298895382E+02 -0.24171621165E+02  0.19527736757E+02  0.47787276113E+02  0.20000023108E+02 0.  0.
         12    1    1    2    0    0 -0.30298895382E+02  0.24171621165E+02 -0.19527736757E+02  0.43400723887E+02  0.00000000000E+00 0. -1.
         11    1    3    3    0    0  0.17891302087E+02 -0.92847079274E+01  0.15513264529E+02  0.25435523746E+02  0.51100000000E-03 0. -1.
        -11    1    3    3    0    0  0.25869800816E+01  0.13805168086E+01  0.10785010938E+01  0.31243331243E+01  0.51100000000E-03 0.  1.
         12    1    3    3    0    0  0.98206132134E+01 -0.16267430046E+02  0.29359711344E+01  0.19227419242E+02  0.00000000000E+00 0. -1.
</event>
<event>
 7    1  0.4937359E-010  0.4778725E+02  0.7816164E-02  0.1312668E+00
        -11   -1    0    0    0    0  0.00000000000E+00  0.00000000000E+00  0.45593999997E+02  0.45594000000E+02  0.51100000000E-03 0.  1.
         11   -1    0    0    0    0 -0.00000000000E+00 -0.00000000000E+00 -0.45593999997E+02  0.45594000000E+02  0.51100000000E-03 0. -1.
    9900012    2    1    2    0    0  0.93834982866E+01 -0.42371941857E+02 -0.44017890472E+00  0.47787248229E+02  0.19999895974E+02 0.  0.
         12    1    1    2    0    0 -0.93834982866E+01  0.42371941857E+02  0.44017890472E+00  0.43400751771E+02  0.00000000000E+00 0. -1.
         11    1    3    3    0    0  0.28226971220E+01 -0.35335932173E+01  0.79699961160E+00  0.45922879603E+01  0.51100000000E-03 0. -1.
        -11    1    3    3    0    0  0.28147485158E+01 -0.16867027070E+02  0.82319364478E+01  0.18978519155E+02  0.51100000000E-03 0.  1.
        -12    1    3    3    0    0  0.37460526487E+01 -0.21971321570E+02 -0.94691149641E+01  0.24216441113E+02  0.00000000000E+00 0.  1.
</event>
<event>
 7    1  0.4937359E-010  0.4778727E+02  0.7816164E-02  0.1312668E+00
        -11   -1    0    0    0    0  0.00000000000E+00  0.00000000000E+00  0.45593999997E+02  0.45594000000E+02  0.51100000000E-03 0.  1.
         11   -1    0    0    0    0 -0.00000000000E+00 -0.00000000000E+00 -0.45593999997E+02  0.45594000000E+02  0.51100000000E-03 0. -1.
    9900012    2    1    2    0    0  0.23119376791E+02  0.26548525659E+02  0.25382936467E+02  0.47787271186E+02  0.20000000646E+02 0.  0.
         12    1    1    2    0    0 -0.23119376791E+02 -0.26548525659E+02 -0.25382936467E+02  0.43400728814E+02  0.00000000000E+00 0. -1.
         11    1    3    3    0    0 -0.37575442659E+00  0.69703542953E+01  0.11317575983E+02  0.13297163487E+02  0.51100000000E-03 0. -1.
        -11    1    3    3    0    0  0.13198543935E+02  0.15481544009E+02  0.10164556941E+02  0.22741987270E+02  0.51100000000E-03 0.  1.
         12    1    3    3    0    0  0.10296587282E+02  0.40966273544E+01  0.39008035430E+01  0.11748120430E+02  0.00000000000E+00 0. -1.
</event>
<event>
 7    1  0.4937359E-010  0.4778726E+02  0.7816164E-02  0.1312668E+00
        -11   -1    0    0    0    0  0.00000000000E+00  0.00000000000E+00  0.45593999997E+02  0.45594000000E+02  0.51100000000E-03 0.  1.
         11   -1    0    0    0    0 -0.00000000000E+00 -0.00000000000E+00 -0.45593999997E+02  0.45594000000E+02  0.51100000000E-03 0. -1.
    9900012    2    1    2    0    0  0.81455478512E+01 -0.30572895774E+02  0.29708114489E+02  0.47787262998E+02  0.19999963313E+02 0.  0.
         12    1    1    2    0    0 -0.81455478512E+01  0.30572895774E+02 -0.29708114489E+02  0.43400737002E+02  0.00000000000E+00 0. -1.
         11    1    3    3    0    0  0.11915857715E+02 -0.22001765387E+02  0.21446514524E+02  0.32954792227E+02  0.51100000000E-03 0. -1.
        -11    1    3    3    0    0 -0.59208100941E+01 -0.82124704533E+01  0.65200706459E+01  0.12042092202E+02  0.51100000000E-03 0.  1.
         12    1    3    3    0    0  0.21505002302E+01 -0.35865993406E+00  0.17415293195E+01  0.27903785691E+01  0.00000000000E+00 0. -1.
</event>
<event>
 7    1  0.4937359E-010  0.4778726E+02  0.7816164E-02  0.1312668E+00
        -11   -1    0    0    0    0  0.00000000000E+00  0.00000000000E+00  0.45593999997E+02  0.45594000000E+02  0.51100000000E-03 0.  1.
         11   -1    0    0    0    0 -0.00000000000E+00 -0.00000000000E+00 -0.45593999997E+02  0.45594000000E+02  0.51100000000E-03 0. -1.
    9900012    2    1    2    0    0  0.31536996155E+02  0.64333553591E+01  0.29114492251E+02  0.47787264445E+02  0.19999969912E+02 0.  0.
         12    1    1    2    0    0 -0.31536996155E+02 -0.64333553591E+01 -0.29114492251E+02  0.43400735555E+02  0.00000000000E+00 0. -1.
         11    1    3    3    0    0  0.63168486229E+01 -0.65765332713E+01  0.85287218470E+01  0.12485690329E+02  0.51100000000E-03 0. -1.
        -11    1    3    3    0    0  0.14749833843E+02  0.82730763094E+01  0.14611719777E+02  0.22349580424E+02  0.51100000000E-03 0.  1.
        -12    1    3    3    0    0  0.10470313689E+02  0.47368123209E+01  0.59740506265E+01  0.12951993692E+02  0.00000000000E+00 0.  1.
</event>
<event>
 7    1  0.4937359E-010  0.4778727E+02  0.7816164E-02  0.1312668E+00
        -11   -1    0    0    0    0  0.00000000000E+00  0.00000000000E+00  0.45593999997E+02  0.45594000000E+02  0.51100000000E-03 0. -1.
         11   -1    0    0    0    0 -0.00000000000E+00 -0.00000000000E+00 -0.45593999997E+02  0.45594000000E+02  0.51100000000E-03 0.  1.
    9900012    2    1    2    0    0  0.21495141310E+02  0.10725870218E+02 -0.36146059513E+02  0.47787274082E+02  0.20000013852E+02 0.  0.
         12    1    1    2    0    0 -0.21495141310E+02 -0.10725870218E+02  0.36146059513E+02  0.43400725918E+02  0.00000000000E+00 0. -1.
         11    1    3    3    0    0  0.20388666054E+01 -0.40796371766E+00  0.18036356961E+01  0.27525467144E+01  0.51100000000E-03 0. -1.
        -11    1    3    3    0    0  0.18727965531E+02  0.12085992523E+02 -0.32202694022E+02  0.39164032105E+02  0.51100000000E-03 0.  1.
         12    1    3    3    0    0  0.72830917337E+00 -0.95215858733E+00 -0.57470011870E+01  0.58706952630E+01  0.00000000000E+00 0. -1.
</event>
<event>
 7    1  0.4937359E-010  0.4778726E+02  0.7816164E-02  0.1312668E+00
        -11   -1    0    0    0    0  0.00000000000E+00  0.00000000000E+00  0.45593999997E+02  0.45594000000E+02  0.51100000000E-03 0.  1.
         11   -1    0    0    0    0 -0.00000000000E+00 -0.00000000000E+00 -0.45593999997E+02  0.45594000000E+02  0.51100000000E-03 0. -1.
    9900012    2    1    2    0    0 -0.31943534996E+02  0.29157510378E+02  0.36158490459E+01  0.47787260332E+02  0.19999951155E+02 0.  0.
         12    1    1    2    0    0  0.31943534996E+02 -0.29157510378E+02 -0.36158490459E+01  0.43400739668E+02  0.00000000000E+00 0. -1.
         11    1    3    3    0    0 -0.49911778850E+01  0.14550332850E+02  0.70521480364E+00  0.15398745758E+02  0.51100000000E-03 0. -1.
        -11    1    3    3    0    0 -0.27580543702E+02  0.14806977274E+02  0.35068382192E+01  0.31499696530E+02  0.51100000000E-03 0.  1.
        -12    1    3    3    0    0  0.62818659157E+00 -0.19979974703E+00 -0.59620397691E+00  0.88881804371E+00  0.00000000000E+00 0.  1.
</event>
<event>
 7    1  0.4937359E-010  0.4778728E+02  0.7816164E-02  0.1312668E+00
        -11   -1    0    0    0    0  0.00000000000E+00  0.00000000000E+00  0.45593999997E+02  0.45594000000E+02  0.51100000000E-03 0.  1.
         11   -1    0    0    0    0 -0.00000000000E+00 -0.00000000000E+00 -0.45593999997E+02  0.45594000000E+02  0.51100000000E-03 0. -1.
    9900012    2    1    2    0    0  0.33179208203E+01  0.23897039562E+02  0.36076938309E+02  0.47787279082E+02  0.20000036648E+02 0.  0.
         12    1    1    2    0    0 -0.33179208203E+01 -0.23897039562E+02 -0.36076938309E+02  0.43400720918E+02  0.00000000000E+00 0. -1.
         11    1    3    3    0    0  0.38545458344E+00  0.52908338036E-02 -0.56785901646E+00  0.68634346541E+00  0.51100000000E-03 0. -1.
        -11    1    3    3    0    0  0.49466838042E+01  0.25128180575E+00  0.25714154853E+01  0.55807706514E+01  0.51100000000E-03 0.  1.
        -12    1    3    3    0    0 -0.20142175673E+01  0.23640466922E+02  0.34073381841E+02  0.41520164966E+02  0.00000000000E+00 0.  1.
</event>
<event>
 7    1  0.4937359E-010  0.4778727E+02  0.7816164E-02  0.1312668E+00
        -11   -1    0    0    0    0  0.00000000000E+00  0.00000000000E+00  0.45593999997E+02  0.45594000000E+02  0.51100000000E-03 0.  1.
         11   -1    0    0    0    0 -0.00000000000E+00 -0.00000000000E+00 -0.45593999997E+02  0.45594000000E+02  0.51100000000E-03 0. -1.
    9900012    2    1    2    0    0 -0.16399326722E+02  0.24856716155E+02  0.31572601277E+02  0.47787269518E+02  0.19999993040E+02 0.  0.
         12    1    1    2    0    0  0.16399326722E+02 -0.24856716155E+02 -0.31572601277E+02  0.43400730482E+02  0.00000000000E+00 0. -1.
         11    1    3    3    0    0 -0.49662051217E+01  0.22606250644E+01  0.10463364132E+02  0.11800661346E+02  0.51100000000E-03 0. -1.
        -11    1    3    3    0    0 -0.16120788343E+01  0.75476458197E+01  0.15239817831E+02  0.17082675534E+02  0.51100000000E-03 0.  1.
        -12    1    3    3    0    0 -0.98210427661E+01  0.15048445271E+02  0.58694193139E+01  0.18903932638E+02  0.00000000000E+00 0.  1.
</event>
<event>
 7    1  0.4937359E-010  0.4778726E+02  0.7816164E-02  0.1312668E+00
        -11   -1    0    0    0    0  0.00000000000E+00  0.00000000000E+00  0.45593999997E+02  0.45594000000E+02  0.51100000000E-03 0.  1.
         11   -1    0    0    0    0 -0.00000000000E+00 -0.00000000000E+00 -0.45593999997E+02  0.45594000000E+02  0.51100000000E-03 0. -1.
    9900012    2    1    2    0    0  0.40087082293E+02  0.21132737185E+00 -0.16631446623E+02  0.47787264490E+02  0.19999970116E+02 0.  0.
         12    1    1    2    0    0 -0.40087082293E+02 -0.21132737185E+00  0.16631446623E+02  0.43400735510E+02  0.00000000000E+00 0. -1.
         11    1    3    3    0    0  0.65783165482E+01 -0.79255402172E+01 -0.41669240615E+01  0.11110881726E+02  0.51100000000E-03 0. -1.
        -11    1    3    3    0    0  0.30554022669E+02  0.76569104391E+01 -0.11463676643E+02  0.33520030746E+02  0.51100000000E-03 0.  1.
         12    1    3    3    0    0  0.29547430754E+01  0.47995715001E+00 -0.10008459187E+01  0.31563520178E+01  0.00000000000E+00 0. -1.
</event>
<event>
 7    1  0.4937359E-010  0.4778726E+02  0.7816164E-02  0.1312668E+00
        -11   -1    0    0    0    0  0.00000000000E+00  0.00000000000E+00  0.45593999997E+02  0.45594000000E+02  0.51100000000E-03 0.  1.
         11   -1    0    0    0    0 -0.00000000000E+00 -0.00000000000E+00 -0.45593999997E+02  0.45594000000E+02  0.51100000000E-03 0. -1.
    9900012    2    1    2    0    0 -0.13667592402E+02  0.30802783077E+02  0.27349761511E+02  0.47787262886E+02  0.19999962800E+02 0.  0.
         12    1    1    2    0    0  0.13667592402E+02 -0.30802783077E+02 -0.27349761511E+02  0.43400737114E+02  0.00000000000E+00 0. -1.
         11    1    3    3    0    0 -0.10823914571E+02  0.10764237175E+02  0.14728513265E+02  0.21212143500E+02  0.51100000000E-03 0. -1.
        -11    1    3    3    0    0 -0.22510192425E+01  0.20445080952E+02  0.14095548889E+02  0.24934973863E+02  0.51100000000E-03 0.  1.
        -12    1    3    3    0    0 -0.59265858863E+00 -0.40653505088E+00 -0.14743006430E+01  0.16401455229E+01  0.00000000000E+00 0.  1.
</event>
<event>
 7    1  0.4937359E-010  0.4778727E+02  0.7816164E-02  0.1312668E+00
        -11   -1    0    0    0    0  0.00000000000E+00  0.00000000000E+00  0.45593999997E+02  0.45594000000E+02  0.51100000000E-03 0. -1.
         11   -1    0    0    0    0 -0.00000000000E+00 -0.00000000000E+00 -0.45593999997E+02  0.45594000000E+02  0.51100000000E-03 0.  1.
    9900012    2    1    2    0    0 -0.10971019704E+02 -0.41528289141E+02 -0.62178375029E+01  0.47787267569E+02  0.19999984156E+02 0.  0.
         12    1    1    2    0    0  0.10971019704E+02  0.41528289141E+02  0.62178375029E+01  0.43400732431E+02  0.00000000000E+00 0. -1.
         11    1    3    3    0    0 -0.72668043300E+01 -0.12826494576E+02  0.37379965486E+01  0.15208485353E+02  0.51100000000E-03 0. -1.
        -11    1    3    3    0    0  0.36670224190E+01 -0.15054686727E+02 -0.44717207885E+01  0.16127210948E+02  0.51100000000E-03 0.  1.
        -12    1    3    3    0    0 -0.73712377933E+01 -0.13647107837E+02 -0.54841132630E+01  0.16451571269E+02  0.00000000000E+00 0.  1.
</event>
<event>
 7    1  0.4937359E-010  0.4778727E+02  0.7816164E-02  0.1312668E+00
        -11   -1    0    0    0    0  0.00000000000E+00  0.00000000000E+00  0.45593999997E+02  0.45594000000E+02  0.51100000000E-03 0.  1.
         11   -1    0    0    0    0 -0.00000000000E+00 -0.00000000000E+00 -0.45593999997E+02  0.45594000000E+02  0.51100000000E-03 0. -1.
    9900012    2    1    2    0    0 -0.24968239392E+02 -0.26015631760E+02  0.24153613652E+02  0.47787272740E+02  0.20000007731E+02 0.  0.
         12    1    1    2    0    0  0.24968239392E+02  0.26015631760E+02 -0.24153613652E+02  0.43400727260E+02  0.00000000000E+00 0. -1.
         11    1    3    3    0    0 -0.22103162083E+01 -0.12982611916E+01 -0.31339627526E+01  0.40487902709E+01  0.51100000000E-03 0. -1.
        -11    1    3    3    0    0 -0.15609332664E+02 -0.20634242952E+02  0.19414477021E+02  0.32347259029E+02  0.51100000000E-03 0.  1.
         12    1    3    3    0    0 -0.71485905206E+01 -0.40831276157E+01  0.78730993840E+01  0.11391223440E+02  0.00000000000E+00 0. -1.
</event>
<event>
 7    1  0.4937359E-010  0.4778727E+02  0.7816164E-02  0.1312668E+00
        -11   -1    0    0    0    0  0.00000000000E+00  0.00000000000E+00  0.45593999997E+02  0.45594000000E+02  0.51100000000E-03 0.  1.
         11   -1    0    0    0    0 -0.00000000000E+00 -0.00000000000E+00 -0.45593999997E+02  0.45594000000E+02  0.51100000000E-03 0. -1.
    9900012    2    1    2    0    0 -0.34817448774E+02 -0.14501305676E+02  0.21472790601E+02  0.47787270263E+02  0.19999996439E+02 0.  0.
         12    1    1    2    0    0  0.34817448774E+02  0.14501305676E+02 -0.21472790601E+02  0.43400729737E+02  0.00000000000E+00 0. -1.
         11    1    3    3    0    0  0.88181147734E+00 -0.23355891447E+01 -0.16679744046E+01  0.30024501678E+01  0.51100000000E-03 0. -1.
        -11    1    3    3    0    0 -0.21518351508E+02 -0.96589768045E+01  0.11363193868E+02  0.26181242516E+02  0.51100000000E-03 0.  1.
         12    1    3    3    0    0 -0.14180908744E+02 -0.25067397267E+01  0.11777571138E+02  0.18603577580E+02  0.00000000000E+00 0. -1.
</event>
<event>
 7    1  0.4937359E-010  0.4778727E+02  0.7816164E-02  0.1312668E+00
        -11   -1    0    0    0    0  0.00000000000E+00  0.00000000000E+00  0.45593999997E+02  0.45594000000E+02  0.51100000000E-03 0.  1.
         11   -1    0    0    0    0 -0.00000000000E+00 -0.00000000000E+00 -0.45593999997E+02  0.45594000000E+02  0.51100000000E-03 0. -1.
    9900012    2    1    2    0    0  0.29392778937E+02  0.19705218455E+02  0.25127516212E+02  0.47787272368E+02  0.20000006034E+02 0.  0.
         12    1    1    2    0    0 -0.29392778937E+02 -0.19705218455E+02 -0.25127516212E+02  0.43400727632E+02  0.00000000000E+00 0. -1.
         11    1    3    3    0    0  0.29665375704E+01  0.19989462321E+01 -0.30565995682E+01  0.47052026924E+01  0.51100000000E-03 0. -1.
        -11    1    3    3    0    0  0.26675947305E+02  0.16579833627E+02  0.27459975557E+02  0.41719867037E+02  0.51100000000E-03 0.  1.
        -12    1    3    3    0    0 -0.24970593816E+00  0.11264385956E+01  0.72414022289E+00  0.13622026382E+01  0.00000000000E+00 0.  1.
</event>
<event>
 7    1  0.4937359E-010  0.4778722E+02  0.7816164E-02  0.1312668E+00
        -11   -1    0    0    0    0  0.00000000000E+00  0.00000000000E+00  0.45593999997E+02  0.45594000000E+02  0.51100000000E-03 0. -1.
         11   -1    0    0    0    0 -0.00000000000E+00 -0.00000000000E+00 -0.45593999997E+02  0.45594000000E+02  0.51100000000E-03 0.  1.
    9900012    2    1    2    0    0  0.73993768868E+01 -0.38826398840E+02  0.17927297687E+02  0.47787216280E+02  0.19999750305E+02 0.  0.
         12    1    1    2    0    0 -0.73993768868E+01  0.38826398840E+02 -0.17927297687E+02  0.43400783720E+02  0.00000000000E+00 0. -1.
         11    1    3    3    0    0  0.77956290821E+00 -0.88285943442E-02 -0.73537130146E+00  0.10717124074E+01  0.51100000000E-03 0. -1.
        -11    1    3    3    0    0  0.90778128859E+01 -0.17367197824E+02  0.25214314845E+01  0.19758134123E+02  0.51100000000E-03 0.  1.
        -12    1    3    3    0    0 -0.24579989073E+01 -0.21450372421E+02  0.16141237504E+02  0.26957369749E+02  0.00000000000E+00 0.  1.
</event>
<event>
 7    1  0.4937359E-010  0.4778727E+02  0.7816164E-02  0.1312668E+00
        -11   -1    0    0    0    0  0.00000000000E+00  0.00000000000E+00  0.45593999997E+02  0.45594000000E+02  0.51100000000E-03 0.  1.
         11   -1    0    0    0    0 -0.00000000000E+00 -0.00000000000E+00 -0.45593999997E+02  0.45594000000E+02  0.51100000000E-03 0. -1.
    9900012    2    1    2    0    0 -0.40664146544E-01 -0.37156802758E+02  0.22427519434E+02  0.47787271058E+02  0.20000000060E+02 0.  0.
         12    1    1    2    0    0  0.40664146544E-01  0.37156802758E+02 -0.22427519434E+02  0.43400728942E+02  0.00000000000E+00 0. -1.
         11    1    3    3    0    0 -0.65117662795E+01 -0.11552214341E+02  0.23770038953E+01  0.13472449816E+02  0.51100000000E-03 0. -1.
        -11    1    3    3    0    0 -0.15493906491E+01 -0.82604751390E+01  0.37714546061E+01  0.92119450179E+01  0.51100000000E-03 0.  1.
         12    1    3    3    0    0  0.80204927821E+01 -0.17344113278E+02  0.16279060932E+02  0.25102876224E+02  0.00000000000E+00 0. -1.
</event>
<event>
 7    1  0.4937359E-010  0.4778732E+02  0.7816164E-02  0.1312668E+00
        -11   -1    0    0    0    0  0.00000000000E+00  0.00000000000E+00  0.45593999997E+02  0.45594000000E+02  0.51100000000E-03 0.  1.
         11   -1    0    0    0    0 -0.00000000000E+00 -0.00000000000E+00 -0.45593999997E+02  0.45594000000E+02  0.51100000000E-03 0. -1.
    9900012    2    1    2    0    0  0.18529049975E+02 -0.39242622710E+02  0.55668940468E+00  0.47787319899E+02  0.20000222748E+02 0.  0.
         12    1    1    2    0    0 -0.18529049975E+02  0.39242622710E+02 -0.55668940468E+00  0.43400680101E+02  0.00000000000E+00 0. -1.
         11    1    3    3    0    0  0.59528240435E+01 -0.26864730674E+01 -0.18953350957E+01  0.68004078570E+01  0.51100000000E-03 0. -1.
        -11    1    3    3    0    0  0.11798944079E+02 -0.33211250665E+02  0.63280687802E+01  0.35808472557E+02  0.51100000000E-03 0.  1.
        -12    1    3    3    0    0  0.77728185218E+00 -0.33448989770E+01 -0.38760442798E+01  0.51784394853E+01  0.00000000000E+00 0.  1.
</event>
<event>
 7    1  0.4937359E-010  0.4778727E+02  0.7816164E-02  0.1312668E+00
        -11   -1    0    0    0    0  0.00000000000E+00  0.00000000000E+00  0.45593999997E+02  0.45594000000E+02  0.51100000000E-03 0.  1.
         11   -1    0    0    0    0 -0.00000000000E+00 -0.00000000000E+00 -0.45593999997E+02  0.45594000000E+02  0.51100000000E-03 0. -1.
    9900012    2    1    2    0    0  0.21841756981E+02 -0.14927689267E+02  0.34405305857E+02  0.47787270444E+02  0.19999997263E+02 0.  0.
         12    1    1    2    0    0 -0.21841756981E+02  0.14927689267E+02 -0.34405305857E+02  0.43400729556E+02  0.00000000000E+00 0. -1.
         11    1    3    3    0    0 -0.15625532636E+00  0.28108150657E+01  0.13654622689E+01  0.31288311763E+01  0.51100000000E-03 0. -1.
        -11    1    3    3    0    0  0.19480239740E+02 -0.15986984270E+02  0.33086966576E+02  0.41590993783E+02  0.51100000000E-03 0.  1.
        -12    1    3    3    0    0  0.25177725664E+01 -0.17515200631E+01 -0.47122987511E-01  0.30674454850E+01  0.00000000000E+00 0.  1.
</event>
<event>
 7    1  0.4937359E-010  0.4778726E+02  0.7816164E-02  0.1312668E+00
        -11   -1    0    0    0    0  0.00000000000E+00  0.00000000000E+00  0.45593999997E+02  0.45594000000E+02  0.51100000000E-03 0. -1.
         11   -1    0    0    0    0 -0.00000000000E+00 -0.00000000000E+00 -0.45593999997E+02  0.45594000000E+02  0.51100000000E-03 0.  1.
    9900012    2    1    2    0    0  0.29817140315E+02  0.16329973527E+02 -0.26979512093E+02  0.47787263086E+02  0.19999963712E+02 0.  0.
         12    1    1    2    0    0 -0.29817140315E+02 -0.16329973527E+02  0.26979512093E+02  0.43400736914E+02  0.00000000000E+00 0. -1.
         11    1    3    3    0    0  0.24234395486E+01  0.98490032325E+01 -0.55267298045E+01  0.11550786402E+02  0.51100000000E-03 0. -1.
        -11    1    3    3    0    0  0.24137358575E+02  0.30315843772E+01 -0.16604434385E+02  0.29453519727E+02  0.51100000000E-03 0.  1.
        -12    1    3    3    0    0  0.32563421913E+01  0.34493859173E+01 -0.48483479034E+01  0.67829569559E+01  0.00000000000E+00 0.  1.
</event>
<event>
 7    1  0.4937359E-010  0.4778727E+02  0.7816164E-02  0.1312668E+00
        -11   -1    0    0    0    0  0.00000000000E+00  0.00000000000E+00  0.45593999997E+02  0.45594000000E+02  0.51100000000E-03 0.  1.
         11   -1    0    0    0    0 -0.00000000000E+00 -0.00000000000E+00 -0.45593999997E+02  0.45594000000E+02  0.51100000000E-03 0. -1.
    9900012    2    1    2    0    0 -0.23889829987E+02  0.35637492487E+02  0.65474229287E+01  0.47787267350E+02  0.19999983154E+02 0.  0.
         12    1    1    2    0    0  0.23889829987E+02 -0.35637492487E+02 -0.65474229287E+01  0.43400732650E+02  0.00000000000E+00 0. -1.
         11    1    3    3    0    0 -0.15370454865E+01  0.11677445368E+02  0.61831582000E+01  0.13302506709E+02  0.51100000000E-03 0. -1.
        -11    1    3    3    0    0 -0.15490855317E+02  0.13903346079E+02 -0.46327763142E+01  0.21324451864E+02  0.51100000000E-03 0.  1.
        -12    1    3    3    0    0 -0.68619291833E+01  0.10056701040E+02  0.49970410429E+01  0.13160308777E+02  0.00000000000E+00 0.  1.
</event>
<event>
 7    1  0.4937359E-010  0.4778727E+02  0.7816164E-02  0.1312668E+00
        -11   -1    0    0    0    0  0.00000000000E+00  0.00000000000E+00  0.45593999997E+02  0.45594000000E+02  0.51100000000E-03 0. -1.
         11   -1    0    0    0    0 -0.00000000000E+00 -0.00000000000E+00 -0.45593999997E+02  0.45594000000E+02  0.51100000000E-03 0.  1.
    9900012    2    1    2    0    0  0.10964236675E+02 -0.40680060963E+02 -0.10418340866E+02  0.47787266456E+02  0.19999979078E+02 0.  0.
         12    1    1    2    0    0 -0.10964236675E+02  0.40680060963E+02  0.10418340866E+02  0.43400733544E+02  0.00000000000E+00 0. -1.
         11    1    3    3    0    0 -0.11078194776E+01 -0.20026916708E+02  0.19425546634E+00  0.20058474325E+02  0.51100000000E-03 0. -1.
        -11    1    3    3    0    0  0.65992054417E+01 -0.11753286844E+02 -0.10810802053E+02  0.17278967139E+02  0.51100000000E-03 0.  1.
        -12    1    3    3    0    0  0.54728507111E+01 -0.88998574113E+01  0.19820572077E+00  0.10449824992E+02  0.00000000000E+00 0.  1.
</event>
<event>
 7    1  0.4937359E-010  0.4778727E+02  0.7816164E-02  0.1312668E+00
        -11   -1    0    0    0    0  0.00000000000E+00  0.00000000000E+00  0.45593999997E+02  0.45594000000E+02  0.51100000000E-03 0. -1.
         11   -1    0    0    0    0 -0.00000000000E+00 -0.00000000000E+00 -0.45593999997E+02  0.45594000000E+02  0.51100000000E-03 0.  1.
    9900012    2    1    2    0    0  0.15776138124E+02 -0.22195054879E+01 -0.40370911625E+02  0.47787271387E+02  0.20000001561E+02 0.  0.
         12    1    1    2    0    0 -0.15776138124E+02  0.22195054879E+01  0.40370911625E+02  0.43400728613E+02  0.00000000000E+00 0. -1.
         11    1    3    3    0    0  0.17576126721E+01  0.23955394351E+00 -0.20280532084E+01  0.26943623502E+01  0.51100000000E-03 0. -1.
        -11    1    3    3    0    0  0.11210319887E+02 -0.70297818053E+01 -0.10937214698E+02  0.17167171282E+02  0.51100000000E-03 0.  1.
        -12    1    3    3    0    0  0.28082055645E+01  0.45707223739E+01 -0.27405643719E+02  0.27925737755E+02  0.00000000000E+00 0.  1.
</event>
<event>
 7    1  0.4937359E-010  0.4778727E+02  0.7816164E-02  0.1312668E+00
        -11   -1    0    0    0    0  0.00000000000E+00  0.00000000000E+00  0.45593999997E+02  0.45594000000E+02  0.51100000000E-03 0. -1.
         11   -1    0    0    0    0 -0.00000000000E+00 -0.00000000000E+00 -0.45593999997E+02  0.45594000000E+02  0.51100000000E-03 0.  1.
    9900012    2    1    2    0    0 -0.41148990701E+02  0.13502220027E+02  0.28414181757E+01  0.47787273755E+02  0.20000012358E+02 0.  0.
         12    1    1    2    0    0  0.41148990701E+02 -0.13502220027E+02 -0.28414181757E+01  0.43400726245E+02  0.00000000000E+00 0. -1.
         11    1    3    3    0    0 -0.57855623609E+01 -0.32542010575E+01 -0.27933521926E+01  0.72017618044E+01  0.51100000000E-03 0. -1.
        -11    1    3    3    0    0 -0.11352841847E+02  0.10215855585E+01  0.40432993653E+00  0.11405881729E+02  0.51100000000E-03 0.  1.
         12    1    3    3    0    0 -0.24010586493E+02  0.15734835526E+02  0.52304404318E+01  0.29179630221E+02  0.00000000000E+00 0. -1.
</event>
<event>
 7    1  0.4937359E-010  0.4778729E+02  0.7816164E-02  0.1312668E+00
        -11   -1    0    0    0    0  0.00000000000E+00  0.00000000000E+00  0.45593999997E+02  0.45594000000E+02  0.51100000000E-03 0. -1.
         11   -1    0    0    0    0 -0.00000000000E+00 -0.00000000000E+00 -0.45593999997E+02  0.45594000000E+02  0.51100000000E-03 0.  1.
    9900012    2    1    2    0    0  0.35640637431E+02 -0.24719990691E+02  0.15127309325E+01  0.47787293426E+02  0.20000102045E+02 0.  0.
         12    1    1    2    0    0 -0.35640637431E+02  0.24719990691E+02 -0.15127309325E+01  0.43400706574E+02  0.00000000000E+00 0. -1.
         11    1    3    3    0    0  0.11905570841E+02 -0.11043785343E+02 -0.51498819288E+01  0.17036111525E+02  0.51100000000E-03 0.  1.
        -11    1    3    3    0    0  0.16842355110E+02 -0.27890367647E+01  0.47835941756E+01  0.17729253375E+02  0.51100000000E-03 0. -1.
         12    1    3    3    0    0  0.68927114804E+01 -0.10887168583E+02  0.18790186857E+01  0.13021928526E+02  0.00000000000E+00 0. -1.
</event>
<event>
 7    1  0.4937359E-010  0.4778727E+02  0.7816164E-02  0.1312668E+00
        -11   -1    0    0    0    0  0.00000000000E+00  0.00000000000E+00  0.45593999997E+02  0.45594000000E+02  0.51100000000E-03 0. -1.
         11   -1    0    0    0    0 -0.00000000000E+00 -0.00000000000E+00 -0.45593999997E+02  0.45594000000E+02  0.51100000000E-03 0.  1.
    9900012    2    1    2    0    0  0.40070097840E+02  0.19951662776E+01 -0.16553839411E+02  0.47787273870E+02  0.20000012883E+02 0.  0.
         12    1    1    2    0    0 -0.40070097840E+02 -0.19951662776E+01  0.16553839411E+02  0.43400726130E+02  0.00000000000E+00 0. -1.
         11    1    3    3    0    0  0.10468885719E+02 -0.10718456445E+01 -0.13781222369E+01  0.10613465148E+02  0.51100000000E-03 0. -1.
        -11    1    3    3    0    0  0.29576678110E+02  0.72920058546E+00 -0.95616595348E+01  0.31092393842E+02  0.51100000000E-03 0.  1.
         12    1    3    3    0    0  0.24534010904E-01  0.23378113366E+01 -0.56140576396E+01  0.60814148801E+01  0.00000000000E+00 0. -1.
</event>
<event>
 7    1  0.4937359E-010  0.4778726E+02  0.7816164E-02  0.1312668E+00
        -11   -1    0    0    0    0  0.00000000000E+00  0.00000000000E+00  0.45593999997E+02  0.45594000000E+02  0.51100000000E-03 0. -1.
         11   -1    0    0    0    0 -0.00000000000E+00 -0.00000000000E+00 -0.45593999997E+02  0.45594000000E+02  0.51100000000E-03 0.  1.
    9900012    2    1    2    0    0  0.29709817916E+02 -0.27926001629E+02 -0.14869061799E+02  0.47787264449E+02  0.19999969929E+02 0.  0.
         12    1    1    2    0    0 -0.29709817916E+02  0.27926001629E+02  0.14869061799E+02  0.43400735551E+02  0.00000000000E+00 0. -1.
         11    1    3    3    0    0  0.87649241544E+01  0.22394905149E+00 -0.10698765201E+01  0.88328186124E+01  0.51100000000E-03 0. -1.
        -11    1    3    3    0    0  0.20652660330E+02 -0.28853336672E+02 -0.14033727218E+02  0.38157475227E+02  0.51100000000E-03 0.  1.
         12    1    3    3    0    0  0.29223343131E+00  0.70338599153E+00  0.23454193873E+00  0.79697060955E+00  0.00000000000E+00 0. -1.
</event>
<event>
 7    1  0.4937359E-010  0.4778727E+02  0.7816164E-02  0.1312668E+00
        -11   -1    0    0    0    0  0.00000000000E+00  0.00000000000E+00  0.45593999997E+02  0.45594000000E+02  0.51100000000E-03 0.  1.
         11   -1    0    0    0    0 -0.00000000000E+00 -0.00000000000E+00 -0.45593999997E+02  0.45594000000E+02  0.51100000000E-03 0. -1.
    9900012    2    1    2    0    0  0.14220384576E+02 -0.32691053186E+02  0.24752765462E+02  0.47787266205E+02  0.19999977936E+02 0.  0.
         12    1    1    2    0    0 -0.14220384576E+02  0.32691053186E+02 -0.24752765462E+02  0.43400733795E+02  0.00000000000E+00 0. -1.
         11    1    3    3    0    0  0.36388623551E+01 -0.55880041719E+01 -0.22706938919E+01  0.70443708645E+01  0.51100000000E-03 0. -1.
        -11    1    3    3    0    0  0.14191345370E+01 -0.12655129449E+02  0.15750852169E+02  0.20254767057E+02  0.51100000000E-03 0.  1.
         12    1    3    3    0    0  0.91623876838E+01 -0.14447919565E+02  0.11272607185E+02  0.20488128284E+02  0.00000000000E+00 0. -1.
</event>
<event>
 7    1  0.4937359E-010  0.4778728E+02  0.7816164E-02  0.1312668E+00
        -11   -1    0    0    0    0  0.00000000000E+00  0.00000000000E+00  0.45593999997E+02  0.45594000000E+02  0.51100000000E-03 0. -1.
         11   -1    0    0    0    0 -0.00000000000E+00 -0.00000000000E+00 -0.45593999997E+02  0.45594000000E+02  0.51100000000E-03 0.  1.
    9900012    2    1    2    0    0  0.36618638928E+02 -0.46416872778E+01 -0.22828762450E+02  0.47787281426E+02  0.20000047333E+02 0.  0.
         12    1    1    2    0    0 -0.36618638928E+02  0.46416872778E+01  0.22828762450E+02  0.43400718574E+02  0.00000000000E+00 0. -1.
         11    1    3    3    0    0  0.16168431822E+02 -0.39705318261E+01 -0.14459920036E+02  0.22051589472E+02  0.51100000000E-03 0. -1.
        -11    1    3    3    0    0  0.17156500196E+02 -0.10809455133E+01 -0.50258083820E+00  0.17197864109E+02  0.51100000000E-03 0.  1.
        -12    1    3    3    0    0  0.32937069113E+01  0.40979006162E+00 -0.78662615760E+01  0.85378278441E+01  0.00000000000E+00 0.  1.
</event>
<event>
 7    1  0.4937359E-010  0.4778727E+02  0.7816164E-02  0.1312668E+00
        -11   -1    0    0    0    0  0.00000000000E+00  0.00000000000E+00  0.45593999997E+02  0.45594000000E+02  0.51100000000E-03 0.  1.
         11   -1    0    0    0    0 -0.00000000000E+00 -0.00000000000E+00 -0.45593999997E+02  0.45594000000E+02  0.51100000000E-03 0. -1.
    9900012    2    1    2    0    0  0.17177701915E+01 -0.21668887846E+02  0.37565034389E+02  0.47787271394E+02  0.20000001595E+02 0.  0.
         12    1    1    2    0    0 -0.17177701915E+01  0.21668887846E+02 -0.37565034389E+02  0.43400728606E+02  0.00000000000E+00 0. -1.
         11    1    3    3    0    0 -0.51281334371E+01 -0.72650473996E+01  0.22428682486E+02  0.24127255637E+02  0.51100000000E-03 0. -1.
        -11    1    3    3    0    0 -0.73837608569E+00 -0.82487421645E+01  0.55179611010E+01  0.99516250690E+01  0.51100000000E-03 0.  1.
         12    1    3    3    0    0  0.75842797143E+01 -0.61550982815E+01  0.96183908015E+01  0.13708390688E+02  0.00000000000E+00 0. -1.
</event>
<event>
 7    1  0.4937359E-010  0.4778728E+02  0.7816164E-02  0.1312668E+00
        -11   -1    0    0    0    0  0.00000000000E+00  0.00000000000E+00  0.45593999997E+02  0.45594000000E+02  0.51100000000E-03 0. -1.
         11   -1    0    0    0    0 -0.00000000000E+00 -0.00000000000E+00 -0.45593999997E+02  0.45594000000E+02  0.51100000000E-03 0.  1.
    9900012    2    1    2    0    0 -0.15975508679E+02  0.32130836833E+02 -0.24413424618E+02  0.47787275873E+02  0.20000022015E+02 0.  0.
         12    1    1    2    0    0  0.15975508679E+02 -0.32130836833E+02  0.24413424618E+02  0.43400724127E+02  0.00000000000E+00 0. -1.
         11    1    3    3    0    0 -0.19823822042E+01  0.22895476499E+02 -0.10225125287E+02  0.25153247717E+02  0.51100000000E-03 0. -1.
        -11    1    3    3    0    0 -0.98931080045E+01  0.54370298423E+01 -0.61840370772E+01  0.12871565341E+02  0.51100000000E-03 0.  1.
         12    1    3    3    0    0 -0.41000184702E+01  0.37983304925E+01 -0.80042622542E+01  0.97624628153E+01  0.00000000000E+00 0. -1.
</event>
<event>
 7    1  0.5404551E-010  0.4778727E+02  0.7816164E-02  0.1312668E+00
        -11   -1    0    0    0    0  0.00000000000E+00  0.00000000000E+00  0.45593999997E+02  0.45594000000E+02  0.51100000000E-03 0. -1.
         11   -1    0    0    0    0 -0.00000000000E+00 -0.00000000000E+00 -0.45593999997E+02  0.45594000000E+02  0.51100000000E-03 0.  1.
    9900012    2    1    2    0    0 -0.83954418362E+01  0.30714238248E+02 -0.29491956749E+02  0.47787269734E+02  0.19999994023E+02 0.  0.
         12    1    1    2    0    0  0.83954418362E+01 -0.30714238248E+02  0.29491956749E+02  0.43400730266E+02  0.00000000000E+00 0. -1.
         11    1    3    3    0    0  0.10507449879E+00  0.10744690925E+02 -0.40325051696E+00  0.10752768711E+02  0.51100000000E-03 0. -1.
        -11    1    3    3    0    0 -0.12702232014E+01  0.12356531295E+02 -0.15907909108E+02  0.20183134174E+02  0.51100000000E-03 0.  1.
         12    1    3    3    0    0 -0.72302931337E+01  0.76130160282E+01 -0.13180797124E+02  0.16851366849E+02  0.00000000000E+00 0. -1.
</event>
<event>
 7    1  0.4937359E-010  0.4778726E+02  0.7816164E-02  0.1312668E+00
        -11   -1    0    0    0    0  0.00000000000E+00  0.00000000000E+00  0.45593999997E+02  0.45594000000E+02  0.51100000000E-03 0. -1.
         11   -1    0    0    0    0 -0.00000000000E+00 -0.00000000000E+00 -0.45593999997E+02  0.45594000000E+02  0.51100000000E-03 0.  1.
    9900012    2    1    2    0    0  0.34387053459E+02  0.15268777963E+02 -0.21633743148E+02  0.47787264192E+02  0.19999968756E+02 0.  0.
         12    1    1    2    0    0 -0.34387053459E+02 -0.15268777963E+02  0.21633743148E+02  0.43400735808E+02  0.00000000000E+00 0. -1.
         11    1    3    3    0    0 -0.26369132950E+00  0.75490317073E+00 -0.50326536486E+01  0.50957840341E+01  0.51100000000E-03 0. -1.
        -11    1    3    3    0    0  0.34719175316E+02  0.14664954540E+02 -0.17658625669E+02  0.41621017372E+02  0.51100000000E-03 0.  1.
        -12    1    3    3    0    0 -0.68430527092E-01 -0.15107974799E+00  0.10575361691E+01  0.10704627860E+01  0.00000000000E+00 0.  1.
</event>
<event>
 7    1  0.4937359E-010  0.4778727E+02  0.7816164E-02  0.1312668E+00
        -11   -1    0    0    0    0  0.00000000000E+00  0.00000000000E+00  0.45593999997E+02  0.45594000000E+02  0.51100000000E-03 0.  1.
         11   -1    0    0    0    0 -0.00000000000E+00 -0.00000000000E+00 -0.45593999997E+02  0.45594000000E+02  0.51100000000E-03 0. -1.
    9900012    2    1    2    0    0  0.22401518374E+00 -0.38521579151E+02  0.19991527671E+02  0.47787269342E+02  0.19999992237E+02 0.  0.
         12    1    1    2    0    0 -0.22401518374E+00  0.38521579151E+02 -0.19991527671E+02  0.43400730658E+02  0.00000000000E+00 0. -1.
         11    1    3    3    0    0  0.98212697168E+01 -0.21062311077E+02  0.93434879241E+01  0.25047535879E+02  0.51100000000E-03 0. -1.
        -11    1    3    3    0    0 -0.86948790394E+01 -0.15610768803E+02  0.10380983157E+02  0.20665474485E+02  0.51100000000E-03 0.  1.
         12    1    3    3    0    0 -0.90237549367E+00 -0.18484992702E+01  0.26705658971E+00  0.20742589775E+01  0.00000000000E+00 0. -1.
</event>
<event>
 7    1  0.4937359E-010  0.4778728E+02  0.7816164E-02  0.1312668E+00
        -11   -1    0    0    0    0  0.00000000000E+00  0.00000000000E+00  0.45593999997E+02  0.45594000000E+02  0.51100000000E-03 0.  1.
         11   -1    0    0    0    0 -0.00000000000E+00 -0.00000000000E+00 -0.45593999997E+02  0.45594000000E+02  0.51100000000E-03 0. -1.
    9900012    2    1    2    0    0  0.33808044018E+02  0.20290060580E+02  0.18137046589E+02  0.47787275839E+02  0.20000021862E+02 0.  0.
         12    1    1    2    0    0 -0.33808044018E+02 -0.20290060580E+02 -0.18137046589E+02  0.43400724161E+02  0.00000000000E+00 0. -1.
         11    1    3    3    0    0  0.99399498253E+01  0.14955050505E+02  0.79137861504E+01  0.19623561085E+02  0.51100000000E-03 0. -1.
        -11    1    3    3    0    0  0.12976778084E+02 -0.16494540943E+01  0.69713447212E+01  0.14822857880E+02  0.51100000000E-03 0.  1.
        -12    1    3    3    0    0  0.10891316109E+02  0.69844641687E+01  0.32519157175E+01  0.13340856875E+02  0.00000000000E+00 0.  1.
</event>
<event>
 7    1  0.4937359E-010  0.4778727E+02  0.7816164E-02  0.1312668E+00
        -11   -1    0    0    0    0  0.00000000000E+00  0.00000000000E+00  0.45593999997E+02  0.45594000000E+02  0.51100000000E-03 0.  1.
         11   -1    0    0    0    0 -0.00000000000E+00 -0.00000000000E+00 -0.45593999997E+02  0.45594000000E+02  0.51100000000E-03 0. -1.
    9900012    2    1    2    0    0  0.87259467377E+01  0.39904860820E+02  0.14665723144E+02  0.47787268452E+02  0.19999988181E+02 0.  0.
         12    1    1    2    0    0 -0.87259467377E+01 -0.39904860820E+02 -0.14665723144E+02  0.43400731548E+02  0.00000000000E+00 0. -1.
         11    1    3    3    0    0 -0.32094067899E+01  0.44582042034E+01  0.45892545850E-02  0.54932593225E+01  0.51100000000E-03 0. -1.
        -11    1    3    3    0    0  0.90489186920E+01  0.30656659572E+02  0.68545230577E+01  0.32690949699E+02  0.51100000000E-03 0.  1.
        -12    1    3    3    0    0  0.28864348357E+01  0.47899970445E+01  0.78066108315E+01  0.96030594303E+01  0.00000000000E+00 0.  1.
</event>
<event>
 7    1  0.4937359E-010  0.4778727E+02  0.7816164E-02  0.1312668E+00
        -11   -1    0    0    0    0  0.00000000000E+00  0.00000000000E+00  0.45593999997E+02  0.45594000000E+02  0.51100000000E-03 0.  1.
         11   -1    0    0    0    0 -0.00000000000E+00 -0.00000000000E+00 -0.45593999997E+02  0.45594000000E+02  0.51100000000E-03 0. -1.
    9900012    2    1    2    0    0  0.56551233008E+01 -0.25581799860E+01  0.42954609344E+02  0.47787272261E+02  0.20000005546E+02 0.  0.
         12    1    1    2    0    0 -0.56551233008E+01  0.25581799860E+01 -0.42954609344E+02  0.43400727739E+02  0.00000000000E+00 0. -1.
         11    1    3    3    0    0  0.10887830918E+02 -0.29564841455E+01  0.25111774757E+02  0.27529745591E+02  0.51100000000E-03 0. -1.
        -11    1    3    3    0    0 -0.37665290380E+01 -0.35608289458E+01  0.78203891391E+01  0.93821495577E+01  0.51100000000E-03 0.  1.
        -12    1    3    3    0    0 -0.14661785789E+01  0.39591331053E+01  0.10022445448E+02  0.10875377112E+02  0.00000000000E+00 0.  1.
</event>
<event>
 7    1  0.4937359E-010  0.4778728E+02  0.7816164E-02  0.1312668E+00
        -11   -1    0    0    0    0  0.00000000000E+00  0.00000000000E+00  0.45593999997E+02  0.45594000000E+02  0.51100000000E-03 0.  1.
         11   -1    0    0    0    0 -0.00000000000E+00 -0.00000000000E+00 -0.45593999997E+02  0.45594000000E+02  0.51100000000E-03 0. -1.
    9900012    2    1    2    0    0  0.21072843380E+02  0.37802370047E+02  0.32463296857E+01  0.47787279203E+02  0.20000037199E+02 0.  0.
         12    1    1    2    0    0 -0.21072843380E+02 -0.37802370047E+02 -0.32463296857E+01  0.43400720797E+02  0.00000000000E+00 0. -1.
         11    1    3    3    0    0  0.12438572441E+02  0.33343432523E+02  0.48813167282E+01  0.35921161312E+02  0.51100000000E-03 0. -1.
        -11    1    3    3    0    0  0.41451156375E+01  0.48165935707E+01 -0.31789223939E+01  0.71054278634E+01  0.51100000000E-03 0.  1.
         12    1    3    3    0    0  0.44891553018E+01 -0.35765604673E+00  0.15439353515E+01  0.47606900278E+01  0.00000000000E+00 0. -1.
</event>
<event>
 7    1  0.4937359E-010  0.4778726E+02  0.7816164E-02  0.1312668E+00
        -11   -1    0    0    0    0  0.00000000000E+00  0.00000000000E+00  0.45593999997E+02  0.45594000000E+02  0.51100000000E-03 0. -1.
         11   -1    0    0    0    0 -0.00000000000E+00 -0.00000000000E+00 -0.45593999997E+02  0.45594000000E+02  0.51100000000E-03 0.  1.
    9900012    2    1    2    0    0  0.79651023468E+00 -0.43271631096E+02 -0.32489630932E+01  0.47787259829E+02  0.19999948863E+02 0.  0.
         12    1    1    2    0    0 -0.79651023468E+00  0.43271631096E+02  0.32489630932E+01  0.43400740171E+02  0.00000000000E+00 0. -1.
         11    1    3    3    0    0  0.13552312260E+01 -0.11250019981E+02  0.73539785488E+01  0.13508538115E+02  0.51100000000E-03 0. -1.
        -11    1    3    3    0    0  0.11166694123E+01 -0.25077310708E+02 -0.10286891376E+02  0.27128188243E+02  0.51100000000E-03 0.  1.
        -12    1    3    3    0    0 -0.16753904037E+01 -0.69443004067E+01 -0.31605026611E+00  0.71505334706E+01  0.00000000000E+00 0.  1.
</event>
<event>
 7    1  0.4937359E-010  0.4778727E+02  0.7816164E-02  0.1312668E+00
        -11   -1    0    0    0    0  0.00000000000E+00  0.00000000000E+00  0.45593999997E+02  0.45594000000E+02  0.51100000000E-03 0.  1.
         11   -1    0    0    0    0 -0.00000000000E+00 -0.00000000000E+00 -0.45593999997E+02  0.45594000000E+02  0.51100000000E-03 0. -1.
    9900012    2    1    2    0    0  0.14698875812E+02 -0.42139870984E+01  0.40617837276E+02  0.47787270255E+02  0.19999996399E+02 0.  0.
         12    1    1    2    0    0 -0.14698875812E+02  0.42139870984E+01 -0.40617837276E+02  0.43400729745E+02  0.00000000000E+00 0. -1.
         11    1    3    3    0    0  0.60707177730E+01 -0.60095870704E+01  0.64386234829E+01  0.10696944594E+02  0.51100000000E-03 0. -1.
        -11    1    3    3    0    0  0.10531238839E+00 -0.40303778924E+01  0.11015702193E+02  0.11730333828E+02  0.51100000000E-03 0.  1.
         12    1    3    3    0    0  0.85228456508E+01  0.58259778644E+01  0.23163511600E+02  0.25359991832E+02  0.00000000000E+00 0. -1.
</event>
<event>
 7    1  0.4937359E-010  0.4778727E+02  0.7816164E-02  0.1312668E+00
        -11   -1    0    0    0    0  0.00000000000E+00  0.00000000000E+00  0.45593999997E+02  0.45594000000E+02  0.51100000000E-03 0. -1.
         11   -1    0    0    0    0 -0.00000000000E+00 -0.00000000000E+00 -0.45593999997E+02  0.45594000000E+02  0.51100000000E-03 0.  1.
    9900012    2    1    2    0    0 -0.18673228083E+02  0.38989628135E+02 -0.38396523323E+01  0.47787268679E+02  0.19999989215E+02 0.  0.
         12    1    1    2    0    0  0.18673228083E+02 -0.38989628135E+02  0.38396523323E+01  0.43400731321E+02  0.00000000000E+00 0. -1.
         11    1    3    3    0    0 -0.17953906345E+02  0.25667433327E+02 -0.22039548873E+01  0.31400912471E+02  0.51100000000E-03 0.  1.
        -11    1    3    3    0    0  0.23087536623E+01  0.12902424004E+02 -0.21616400762E+01  0.13284411042E+02  0.51100000000E-03 0. -1.
        -12    1    3    3    0    0 -0.30280754005E+01  0.41977080456E+00  0.52594263108E+00  0.31019451656E+01  0.00000000000E+00 0.  1.
</event>
<event>
 7    1  0.4937359E-010  0.4778728E+02  0.7816164E-02  0.1312668E+00
        -11   -1    0    0    0    0  0.00000000000E+00  0.00000000000E+00  0.45593999997E+02  0.45594000000E+02  0.51100000000E-03 0. -1.
         11   -1    0    0    0    0 -0.00000000000E+00 -0.00000000000E+00 -0.45593999997E+02  0.45594000000E+02  0.51100000000E-03 0.  1.
    9900012    2    1    2    0    0 -0.37245864292E+02  0.21910089330E+02 -0.40392899568E+01  0.47787282440E+02  0.20000051959E+02 0.  0.
         12    1    1    2    0    0  0.37245864292E+02 -0.21910089330E+02  0.40392899568E+01  0.43400717560E+02  0.00000000000E+00 0. -1.
         11    1    3    3    0    0 -0.69912459387E+01 -0.12475104469E+01  0.27669100032E+01  0.76216529255E+01  0.51100000000E-03 0. -1.
        -11    1    3    3    0    0 -0.23541640331E+02  0.19358227432E+02 -0.97201094494E+00  0.30494173285E+02  0.51100000000E-03 0.  1.
        -12    1    3    3    0    0 -0.67129780229E+01  0.37993723446E+01 -0.58341890150E+01  0.96714562301E+01  0.00000000000E+00 0.  1.
</event>
<event>
 7    1  0.4937359E-010  0.4778727E+02  0.7816164E-02  0.1312668E+00
        -11   -1    0    0    0    0  0.00000000000E+00  0.00000000000E+00  0.45593999997E+02  0.45594000000E+02  0.51100000000E-03 0.  1.
         11   -1    0    0    0    0 -0.00000000000E+00 -0.00000000000E+00 -0.45593999997E+02  0.45594000000E+02  0.51100000000E-03 0. -1.
    9900012    2    1    2    0    0  0.12749023160E-01  0.42427118528E+02  0.91412641902E+01  0.47787271203E+02  0.20000000722E+02 0.  0.
         12    1    1    2    0    0 -0.12749023160E-01 -0.42427118528E+02 -0.91412641902E+01  0.43400728797E+02  0.00000000000E+00 0. -1.
         11    1    3    3    0    0 -0.65643828160E+01  0.90677689944E+01  0.19019678429E+01  0.11354868481E+02  0.51100000000E-03 0. -1.
        -11    1    3    3    0    0 -0.21827970480E+01  0.57541259584E+01  0.38829164488E+01  0.72767856164E+01  0.51100000000E-03 0.  1.
         12    1    3    3    0    0  0.87599288872E+01  0.27605223575E+02  0.33563798985E+01  0.29155617105E+02  0.00000000000E+00 0. -1.
</event>
<event>
 7    1  0.4937359E-010  0.4778726E+02  0.7816164E-02  0.1312668E+00
        -11   -1    0    0    0    0  0.00000000000E+00  0.00000000000E+00  0.45593999997E+02  0.45594000000E+02  0.51100000000E-03 0. -1.
         11   -1    0    0    0    0 -0.00000000000E+00 -0.00000000000E+00 -0.45593999997E+02  0.45594000000E+02  0.51100000000E-03 0.  1.
    9900012    2    1    2    0    0 -0.28442102269E+02 -0.24028891082E+02 -0.22299859962E+02  0.47787256430E+02  0.19999933365E+02 0.  0.
         12    1    1    2    0    0  0.28442102269E+02  0.24028891082E+02  0.22299859962E+02  0.43400743570E+02  0.00000000000E+00 0. -1.
         11    1    3    3    0    0 -0.16876434833E+02 -0.10139384014E+02 -0.21996297122E+01  0.19810591410E+02  0.51100000000E-03 0. -1.
        -11    1    3    3    0    0 -0.46932872632E+01 -0.57659690791E+01 -0.13623143877E+02  0.15519774293E+02  0.51100000000E-03 0.  1.
         12    1    3    3    0    0 -0.68723801728E+01 -0.81235379887E+01 -0.64770863734E+01  0.12456890727E+02  0.00000000000E+00 0. -1.
</event>
<event>
 7    1  0.4937359E-010  0.4778727E+02  0.7816164E-02  0.1312668E+00
        -11   -1    0    0    0    0  0.00000000000E+00  0.00000000000E+00  0.45593999997E+02  0.45594000000E+02  0.51100000000E-03 0. -1.
         11   -1    0    0    0    0 -0.00000000000E+00 -0.00000000000E+00 -0.45593999997E+02  0.45594000000E+02  0.51100000000E-03 0.  1.
    9900012    2    1    2    0    0 -0.22428838795E+02 -0.34168551277E+02 -0.14597289742E+02  0.47787267589E+02  0.19999984244E+02 0.  0.
         12    1    1    2    0    0  0.22428838795E+02  0.34168551277E+02  0.14597289742E+02  0.43400732411E+02  0.00000000000E+00 0. -1.
         11    1    3    3    0    0 -0.58643423031E+01 -0.16584159591E+01  0.25974578632E+01  0.66247748455E+01  0.51100000000E-03 0. -1.
        -11    1    3    3    0    0 -0.12329713592E+02 -0.29766961501E+02 -0.16017690385E+02  0.35981387408E+02  0.51100000000E-03 0.  1.
        -12    1    3    3    0    0 -0.42347828998E+01 -0.27431738167E+01 -0.11770572196E+01  0.51811053353E+01  0.00000000000E+00 0.  1.
</event>
<event>
 7    1  0.4937359E-010  0.4778727E+02  0.7816164E-02  0.1312668E+00
        -11   -1    0    0    0    0  0.00000000000E+00  0.00000000000E+00  0.45593999997E+02  0.45594000000E+02  0.51100000000E-03 0.  1.
         11   -1    0    0    0    0 -0.00000000000E+00 -0.00000000000E+00 -0.45593999997E+02  0.45594000000E+02  0.51100000000E-03 0. -1.
    9900012    2    1    2    0    0  0.17361637901E+02  0.39776826664E+02 -0.31375146540E-01  0.47787269655E+02  0.19999993666E+02 0.  0.
         12    1    1    2    0    0 -0.17361637901E+02 -0.39776826664E+02  0.31375146540E-01  0.43400730345E+02  0.00000000000E+00 0. -1.
         11    1    3    3    0    0  0.27520452052E+01  0.13781007909E+01 -0.16683602895E+00  0.30823285229E+01  0.51100000000E-03 0.  1.
        -11    1    3    3    0    0  0.18536064697E+02  0.28506092312E+02 -0.87302769126E+00  0.34013896733E+02  0.51100000000E-03 0. -1.
        -12    1    3    3    0    0 -0.39264720013E+01  0.98926335608E+01  0.10084885737E+01  0.10691044399E+02  0.00000000000E+00 0.  1.
</event>
<event>
 7    1  0.4937359E-010  0.4778727E+02  0.7816164E-02  0.1312668E+00
        -11   -1    0    0    0    0  0.00000000000E+00  0.00000000000E+00  0.45593999997E+02  0.45594000000E+02  0.51100000000E-03 0.  1.
         11   -1    0    0    0    0 -0.00000000000E+00 -0.00000000000E+00 -0.45593999997E+02  0.45594000000E+02  0.51100000000E-03 0. -1.
    9900012    2    1    2    0    0  0.51963791485E+01  0.18561092017E+00  0.43088128181E+02  0.47787267312E+02  0.19999982984E+02 0.  0.
         12    1    1    2    0    0 -0.51963791485E+01 -0.18561092017E+00 -0.43088128181E+02  0.43400732688E+02  0.00000000000E+00 0. -1.
         11    1    3    3    0    0  0.95864939252E+00 -0.22753562243E+01  0.25849509489E+01  0.35746644981E+01  0.51100000000E-03 0. -1.
        -11    1    3    3    0    0 -0.26533121679E+01 -0.56761799922E+01  0.21808481968E+02  0.22690724333E+02  0.51100000000E-03 0.  1.
        -12    1    3    3    0    0  0.68910419239E+01  0.81371471366E+01  0.18694695264E+02  0.21521878481E+02  0.00000000000E+00 0.  1.
</event>
<event>
 7    1  0.4937359E-010  0.4778728E+02  0.7816164E-02  0.1312668E+00
        -11   -1    0    0    0    0  0.00000000000E+00  0.00000000000E+00  0.45593999997E+02  0.45594000000E+02  0.51100000000E-03 0. -1.
         11   -1    0    0    0    0 -0.00000000000E+00 -0.00000000000E+00 -0.45593999997E+02  0.45594000000E+02  0.51100000000E-03 0.  1.
    9900012    2    1    2    0    0  0.29865885744E+02  0.28327084490E+02 -0.13755990626E+02  0.47787284279E+02  0.20000060343E+02 0.  0.
         12    1    1    2    0    0 -0.29865885744E+02 -0.28327084490E+02  0.13755990626E+02  0.43400715721E+02  0.00000000000E+00 0. -1.
         11    1    3    3    0    0  0.49218717142E+01  0.19207121828E+01  0.17458881340E+00  0.52862498971E+01  0.51100000000E-03 0. -1.
        -11    1    3    3    0    0  0.74649042792E+01  0.90632722643E+01  0.35927059555E+01  0.12279056820E+02  0.51100000000E-03 0.  1.
        -12    1    3    3    0    0  0.17479109750E+02  0.17343100043E+02 -0.17523285395E+02  0.30221977563E+02  0.00000000000E+00 0.  1.
</event>
<event>
 7    1  0.4937359E-010  0.4778727E+02  0.7816164E-02  0.1312668E+00
        -11   -1    0    0    0    0  0.00000000000E+00  0.00000000000E+00  0.45593999997E+02  0.45594000000E+02  0.51100000000E-03 0. -1.
         11   -1    0    0    0    0 -0.00000000000E+00 -0.00000000000E+00 -0.45593999997E+02  0.45594000000E+02  0.51100000000E-03 0.  1.
    9900012    2    1    2    0    0  0.30262226204E+02 -0.30765663776E+02  0.46146298300E+01  0.47787271770E+02  0.20000003309E+02 0.  0.
         12    1    1    2    0    0 -0.30262226204E+02  0.30765663776E+02 -0.46146298300E+01  0.43400728230E+02  0.00000000000E+00 0. -1.
         11    1    3    3    0    0  0.57779949457E+01 -0.23450742415E+00 -0.18837710196E+01  0.60818428819E+01  0.51100000000E-03 0. -1.
        -11    1    3    3    0    0  0.15079081551E+02 -0.23357968362E+02 -0.78675060084E+00  0.27813528420E+02  0.51100000000E-03 0.  1.
        -12    1    3    3    0    0  0.94051497075E+01 -0.71731879897E+01  0.72851514505E+01  0.13891900468E+02  0.00000000000E+00 0.  1.
</event>
<event>
 7    1  0.4937359E-010  0.4778727E+02  0.7816164E-02  0.1312668E+00
        -11   -1    0    0    0    0  0.00000000000E+00  0.00000000000E+00  0.45593999997E+02  0.45594000000E+02  0.51100000000E-03 0. -1.
         11   -1    0    0    0    0 -0.00000000000E+00 -0.00000000000E+00 -0.45593999997E+02  0.45594000000E+02  0.51100000000E-03 0.  1.
    9900012    2    1    2    0    0 -0.20588940921E+02 -0.36538043786E+02 -0.11166476364E+02  0.47787270440E+02  0.19999997246E+02 0.  0.
         12    1    1    2    0    0  0.20588940921E+02  0.36538043786E+02  0.11166476364E+02  0.43400729560E+02  0.00000000000E+00 0. -1.
         11    1    3    3    0    0 -0.62376750455E+00  0.93317760752E+00  0.27543671694E+01  0.29742974148E+01  0.51100000000E-03 0. -1.
        -11    1    3    3    0    0 -0.12299242844E+02 -0.19659041083E+02 -0.69936253225E+01  0.24221066580E+02  0.51100000000E-03 0.  1.
         12    1    3    3    0    0 -0.76659305722E+01 -0.17812180310E+02 -0.69272182111E+01  0.20591906446E+02  0.00000000000E+00 0. -1.
</event>
<event>
 7    1  0.4937359E-010  0.4778729E+02  0.7816164E-02  0.1312668E+00
        -11   -1    0    0    0    0  0.00000000000E+00  0.00000000000E+00  0.45593999997E+02  0.45594000000E+02  0.51100000000E-03 0.  1.
         11   -1    0    0    0    0 -0.00000000000E+00 -0.00000000000E+00 -0.45593999997E+02  0.45594000000E+02  0.51100000000E-03 0. -1.
    9900012    2    1    2    0    0  0.40303288786E+02 -0.15450526614E+02  0.45329863300E+01  0.47787287740E+02  0.20000076122E+02 0.  0.
         12    1    1    2    0    0 -0.40303288786E+02  0.15450526614E+02 -0.45329863300E+01  0.43400712260E+02  0.00000000000E+00 0. -1.
         11    1    3    3    0    0 -0.68118765821E+00 -0.19840390431E+01 -0.78828031386E+00  0.22409403527E+01  0.51100000000E-03 0. -1.
        -11    1    3    3    0    0  0.36356199945E+02 -0.12234153676E+02  0.91253361650E+01  0.39429932170E+02  0.51100000000E-03 0.  1.
        -12    1    3    3    0    0  0.46282764995E+01 -0.12323338949E+01 -0.38040695212E+01  0.61164152169E+01  0.00000000000E+00 0.  1.
</event>
<event>
 7    1  0.4937359E-010  0.4778727E+02  0.7816164E-02  0.1312668E+00
        -11   -1    0    0    0    0  0.00000000000E+00  0.00000000000E+00  0.45593999997E+02  0.45594000000E+02  0.51100000000E-03 0. -1.
         11   -1    0    0    0    0 -0.00000000000E+00 -0.00000000000E+00 -0.45593999997E+02  0.45594000000E+02  0.51100000000E-03 0.  1.
    9900012    2    1    2    0    0 -0.12636851708E+01 -0.17383291547E+02 -0.39747295794E+02  0.47787271341E+02  0.20000001350E+02 0.  0.
         12    1    1    2    0    0  0.12636851708E+01  0.17383291547E+02  0.39747295794E+02  0.43400728659E+02  0.00000000000E+00 0. -1.
         11    1    3    3    0    0  0.19004401514E+01 -0.10527763460E+02 -0.56321388995E+01  0.12089932386E+02  0.51100000000E-03 0. -1.
        -11    1    3    3    0    0 -0.44528309137E+01 -0.65412654457E+01 -0.19826903452E+02  0.21347645246E+02  0.51100000000E-03 0.  1.
         12    1    3    3    0    0  0.12887055915E+01 -0.31426264063E+00 -0.14288253442E+02  0.14349693709E+02  0.00000000000E+00 0. -1.
</event>
<event>
 7    1  0.4937359E-010  0.4778727E+02  0.7816164E-02  0.1312668E+00
        -11   -1    0    0    0    0  0.00000000000E+00  0.00000000000E+00  0.45593999997E+02  0.45594000000E+02  0.51100000000E-03 0.  1.
         11   -1    0    0    0    0 -0.00000000000E+00 -0.00000000000E+00 -0.45593999997E+02  0.45594000000E+02  0.51100000000E-03 0. -1.
    9900012    2    1    2    0    0 -0.72765630535E+01 -0.12816267155E+02  0.40821786844E+02  0.47787270112E+02  0.19999995749E+02 0.  0.
         12    1    1    2    0    0  0.72765630535E+01  0.12816267155E+02 -0.40821786844E+02  0.43400729888E+02  0.00000000000E+00 0. -1.
         11    1    3    3    0    0  0.15134297831E+00 -0.11277144500E+01 -0.10475495549E+01  0.15466107813E+01  0.51100000000E-03 0. -1.
        -11    1    3    3    0    0 -0.10768952115E+02 -0.11992342693E+02  0.36629914662E+02  0.40019211153E+02  0.51100000000E-03 0.  1.
        -12    1    3    3    0    0  0.33410460837E+01  0.30378998759E+00  0.52394217367E+01  0.62214481775E+01  0.00000000000E+00 0.  1.
</event>
<event>
 7    1  0.4937359E-010  0.4778727E+02  0.7816164E-02  0.1312668E+00
        -11   -1    0    0    0    0  0.00000000000E+00  0.00000000000E+00  0.45593999997E+02  0.45594000000E+02  0.51100000000E-03 0.  1.
         11   -1    0    0    0    0 -0.00000000000E+00 -0.00000000000E+00 -0.45593999997E+02  0.45594000000E+02  0.51100000000E-03 0. -1.
    9900012    2    1    2    0    0 -0.30995366489E+02 -0.25735580628E+02  0.16142822243E+02  0.47787267702E+02  0.19999984760E+02 0.  0.
         12    1    1    2    0    0  0.30995366489E+02  0.25735580628E+02 -0.16142822243E+02  0.43400732298E+02  0.00000000000E+00 0. -1.
         11    1    3    3    0    0 -0.16505303105E+01 -0.87604963315E+01 -0.87609318427E+00  0.89575714236E+01  0.51100000000E-03 0. -1.
        -11    1    3    3    0    0 -0.18638643875E+02 -0.13491407164E+02  0.78549047515E+01  0.24312890442E+02  0.51100000000E-03 0.  1.
         12    1    3    3    0    0 -0.10706192304E+02 -0.34836771324E+01  0.91640106757E+01  0.14516805836E+02  0.00000000000E+00 0. -1.
</event>
<event>
 7    1  0.4937359E-010  0.4778727E+02  0.7816164E-02  0.1312668E+00
        -11   -1    0    0    0    0  0.00000000000E+00  0.00000000000E+00  0.45593999997E+02  0.45594000000E+02  0.51100000000E-03 0.  1.
         11   -1    0    0    0    0 -0.00000000000E+00 -0.00000000000E+00 -0.45593999997E+02  0.45594000000E+02  0.51100000000E-03 0. -1.
    9900012    2    1    2    0    0  0.73376542588E+00  0.17486014837E+02  0.39715538680E+02  0.47787272596E+02  0.20000007073E+02 0.  0.
         12    1    1    2    0    0 -0.73376542588E+00 -0.17486014837E+02 -0.39715538680E+02  0.43400727404E+02  0.00000000000E+00 0. -1.
         11    1    3    3    0    0 -0.72947930953E+00 -0.73860273348E+00 -0.12882041864E+01  0.16544317296E+01  0.51100000000E-03 0. -1.
        -11    1    3    3    0    0  0.45658355123E+01  0.92511336473E+01  0.29293625197E+02  0.31057153848E+02  0.51100000000E-03 0.  1.
        -12    1    3    3    0    0 -0.31025907769E+01  0.89734839228E+01  0.11710117670E+02  0.15075687019E+02  0.00000000000E+00 0.  1.
</event>
<event>
 7    1  0.4937359E-010  0.4778727E+02  0.7816164E-02  0.1312668E+00
        -11   -1    0    0    0    0  0.00000000000E+00  0.00000000000E+00  0.45593999997E+02  0.45594000000E+02  0.51100000000E-03 0.  1.
         11   -1    0    0    0    0 -0.00000000000E+00 -0.00000000000E+00 -0.45593999997E+02  0.45594000000E+02  0.51100000000E-03 0. -1.
    9900012    2    1    2    0    0 -0.34901994620E+02  0.11507406338E+02  0.23087953360E+02  0.47787271671E+02  0.20000002858E+02 0.  0.
         12    1    1    2    0    0  0.34901994620E+02 -0.11507406338E+02 -0.23087953360E+02  0.43400728329E+02  0.00000000000E+00 0. -1.
         11    1    3    3    0    0 -0.34886545587E+00 -0.60863533034E-01  0.30272521297E+01  0.30478955352E+01  0.51100000000E-03 0. -1.
        -11    1    3    3    0    0 -0.15181412499E-01  0.46147322951E+01  0.11585247825E+01  0.47579580246E+01  0.51100000000E-03 0.  1.
        -12    1    3    3    0    0 -0.34537947752E+02  0.69535375763E+01  0.18902176448E+02  0.39981418111E+02  0.00000000000E+00 0.  1.
</event>
<event>
 7    1  0.4937359E-010  0.4778727E+02  0.7816164E-02  0.1312668E+00
        -11   -1    0    0    0    0  0.00000000000E+00  0.00000000000E+00  0.45593999997E+02  0.45594000000E+02  0.51100000000E-03 0.  1.
         11   -1    0    0    0    0 -0.00000000000E+00 -0.00000000000E+00 -0.45593999997E+02  0.45594000000E+02  0.51100000000E-03 0. -1.
    9900012    2    1    2    0    0 -0.11303216332E+02 -0.40944338858E+02  0.89118875943E+01  0.47787270462E+02  0.19999997345E+02 0.  0.
         12    1    1    2    0    0  0.11303216332E+02  0.40944338858E+02 -0.89118875943E+01  0.43400729538E+02  0.00000000000E+00 0. -1.
         11    1    3    3    0    0  0.32633227533E+00 -0.94117137371E+00  0.40898449887E+01  0.42094095312E+01  0.51100000000E-03 0. -1.
        -11    1    3    3    0    0 -0.34879817058E+01 -0.29138790220E+02  0.59878649537E+01  0.29951454703E+02  0.51100000000E-03 0.  1.
        -12    1    3    3    0    0 -0.81415669013E+01 -0.10864377264E+02 -0.11658223481E+01  0.13626406228E+02  0.00000000000E+00 0.  1.
</event>
<event>
 7    1  0.4937359E-010  0.4778727E+02  0.7816164E-02  0.1312668E+00
        -11   -1    0    0    0    0  0.00000000000E+00  0.00000000000E+00  0.45593999997E+02  0.45594000000E+02  0.51100000000E-03 0. -1.
         11   -1    0    0    0    0 -0.00000000000E+00 -0.00000000000E+00 -0.45593999997E+02  0.45594000000E+02  0.51100000000E-03 0.  1.
    9900012    2    1    2    0    0  0.86268181984E+01  0.13201761717E+02 -0.40434079072E+02  0.47787271261E+02  0.20000000988E+02 0.  0.
         12    1    1    2    0    0 -0.86268181984E+01 -0.13201761717E+02  0.40434079072E+02  0.43400728739E+02  0.00000000000E+00 0. -1.
         11    1    3    3    0    0 -0.63760995979E+00 -0.36934008633E+01 -0.51246950603E+01  0.63490358418E+01  0.51100000000E-03 0. -1.
        -11    1    3    3    0    0  0.70822745242E+01  0.90087827940E+01 -0.28754499061E+02  0.30953804231E+02  0.51100000000E-03 0.  1.
         12    1    3    3    0    0  0.21821536339E+01  0.78863797868E+01 -0.65548849509E+01  0.10484431188E+02  0.00000000000E+00 0. -1.
</event>
<event>
 7    1  0.4937359E-010  0.4778728E+02  0.7816164E-02  0.1312668E+00
        -11   -1    0    0    0    0  0.00000000000E+00  0.00000000000E+00  0.45593999997E+02  0.45594000000E+02  0.51100000000E-03 0.  1.
         11   -1    0    0    0    0 -0.00000000000E+00 -0.00000000000E+00 -0.45593999997E+02  0.45594000000E+02  0.51100000000E-03 0. -1.
    9900012    2    1    2    0    0  0.40419385240E+02 -0.14549495813E+02  0.61812826954E+01  0.47787276649E+02  0.20000025555E+02 0.  0.
         12    1    1    2    0    0 -0.40419385240E+02  0.14549495813E+02 -0.61812826954E+01  0.43400723351E+02  0.00000000000E+00 0. -1.
         11    1    3    3    0    0  0.98063445962E+01 -0.37441256538E+01 -0.29442726653E+01  0.10901908688E+02  0.51100000000E-03 0. -1.
        -11    1    3    3    0    0  0.24943868752E+02 -0.78251018954E+01  0.50680824418E+00  0.26147383480E+02  0.51100000000E-03 0.  1.
         12    1    3    3    0    0  0.56691718922E+01 -0.29802682632E+01  0.86187471165E+01  0.10737984481E+02  0.00000000000E+00 0. -1.
</event>
<event>
 7    1  0.4937359E-010  0.4778727E+02  0.7816164E-02  0.1312668E+00
        -11   -1    0    0    0    0  0.00000000000E+00  0.00000000000E+00  0.45593999997E+02  0.45594000000E+02  0.51100000000E-03 0. -1.
         11   -1    0    0    0    0 -0.00000000000E+00 -0.00000000000E+00 -0.45593999997E+02  0.45594000000E+02  0.51100000000E-03 0.  1.
    9900012    2    1    2    0    0  0.11214353568E+02  0.13636890290E+02 -0.39647155270E+02  0.47787269318E+02  0.19999992130E+02 0.  0.
         12    1    1    2    0    0 -0.11214353568E+02 -0.13636890290E+02  0.39647155270E+02  0.43400730682E+02  0.00000000000E+00 0. -1.
         11    1    3    3    0    0  0.64773090259E+01  0.13765459321E+02 -0.14247033203E+02  0.20842777115E+02  0.51100000000E-03 0. -1.
        -11    1    3    3    0    0  0.67214438998E+01 -0.34764582475E+00 -0.16434281503E+02  0.17759061757E+02  0.51100000000E-03 0.  1.
         12    1    3    3    0    0 -0.19843993581E+01  0.21907679311E+00 -0.89658405639E+01  0.91854304456E+01  0.00000000000E+00 0. -1.
</event>
<event>
 7    1  0.4937359E-010  0.4778727E+02  0.7816164E-02  0.1312668E+00
        -11   -1    0    0    0    0  0.00000000000E+00  0.00000000000E+00  0.45593999997E+02  0.45594000000E+02  0.51100000000E-03 0.  1.
         11   -1    0    0    0    0 -0.00000000000E+00 -0.00000000000E+00 -0.45593999997E+02  0.45594000000E+02  0.51100000000E-03 0. -1.
    9900012    2    1    2    0    0 -0.27996608448E+02  0.16397982554E+02  0.28825666884E+02  0.47787274341E+02  0.20000015030E+02 0.  0.
         12    1    1    2    0    0  0.27996608448E+02 -0.16397982554E+02 -0.28825666884E+02  0.43400725659E+02  0.00000000000E+00 0. -1.
         11    1    3    3    0    0 -0.73846041518E+01 -0.17153057611E+01  0.78215354641E+01  0.10892707176E+02  0.51100000000E-03 0. -1.
        -11    1    3    3    0    0 -0.30126943205E+01  0.68895710698E+01  0.34696622456E+00  0.75274764973E+01  0.51100000000E-03 0.  1.
        -12    1    3    3    0    0 -0.17599309976E+02  0.11223717245E+02  0.20657165195E+02  0.29367090668E+02  0.00000000000E+00 0.  1.
</event>
<event>
 7    1  0.4937359E-010  0.4778729E+02  0.7816164E-02  0.1312668E+00
        -11   -1    0    0    0    0  0.00000000000E+00  0.00000000000E+00  0.45593999997E+02  0.45594000000E+02  0.51100000000E-03 0.  1.
         11   -1    0    0    0    0 -0.00000000000E+00 -0.00000000000E+00 -0.45593999997E+02  0.45594000000E+02  0.51100000000E-03 0. -1.
    9900012    2    1    2    0    0  0.37767400986E+02 -0.98477739040E+01  0.18980683702E+02  0.47787290537E+02  0.20000088873E+02 0.  0.
         12    1    1    2    0    0 -0.37767400986E+02  0.98477739040E+01 -0.18980683702E+02  0.43400709463E+02  0.00000000000E+00 0. -1.
         11    1    3    3    0    0  0.22682554418E+01  0.55143059680E+00  0.73592577257E+01  0.77206044443E+01  0.51100000000E-03 0. -1.
        -11    1    3    3    0    0  0.17648562743E+02 -0.72787653271E+01  0.11222395459E+01  0.19123587881E+02  0.51100000000E-03 0.  1.
        -12    1    3    3    0    0  0.17850582802E+02 -0.31204391737E+01  0.10499186431E+02  0.20943098212E+02  0.00000000000E+00 0.  1.
</event>
<event>
 7    1  0.4937359E-010  0.4778725E+02  0.7816164E-02  0.1312668E+00
        -11   -1    0    0    0    0  0.00000000000E+00  0.00000000000E+00  0.45593999997E+02  0.45594000000E+02  0.51100000000E-03 0.  1.
         11   -1    0    0    0    0 -0.00000000000E+00 -0.00000000000E+00 -0.45593999997E+02  0.45594000000E+02  0.51100000000E-03 0. -1.
    9900012    2    1    2    0    0  0.23719188009E+01 -0.38853583465E+02  0.19193705800E+02  0.47787247827E+02  0.19999894141E+02 0.  0.
         12    1    1    2    0    0 -0.23719188009E+01  0.38853583465E+02 -0.19193705800E+02  0.43400752173E+02  0.00000000000E+00 0. -1.
         11    1    3    3    0    0 -0.15853158331E+01 -0.66357342692E+01  0.10262323675E+02  0.12323209121E+02  0.51100000000E-03 0. -1.
        -11    1    3    3    0    0  0.32294632819E+01 -0.29940002420E+02  0.11237335737E+02  0.32142042448E+02  0.51100000000E-03 0.  1.
        -12    1    3    3    0    0  0.72777135211E+00 -0.22778467759E+01 -0.23059536119E+01  0.33219962576E+01  0.00000000000E+00 0.  1.
</event>
<event>
 7    1  0.4937359E-010  0.4778727E+02  0.7816164E-02  0.1312668E+00
        -11   -1    0    0    0    0  0.00000000000E+00  0.00000000000E+00  0.45593999997E+02  0.45594000000E+02  0.51100000000E-03 0. -1.
         11   -1    0    0    0    0 -0.00000000000E+00 -0.00000000000E+00 -0.45593999997E+02  0.45594000000E+02  0.51100000000E-03 0.  1.
    9900012    2    1    2    0    0 -0.31128890644E+02  0.21396473187E+02 -0.21373038226E+02  0.47787266589E+02  0.19999979686E+02 0.  0.
         12    1    1    2    0    0  0.31128890644E+02 -0.21396473187E+02  0.21373038226E+02  0.43400733411E+02  0.00000000000E+00 0. -1.
         11    1    3    3    0    0  0.26525688786E+00  0.95179190782E+00 -0.28731717877E+01  0.30383195084E+01  0.51100000000E-03 0. -1.
        -11    1    3    3    0    0 -0.96060303085E+01 -0.52285486779E+00 -0.66594161443E+00  0.96432709179E+01  0.51100000000E-03 0.  1.
        -12    1    3    3    0    0 -0.21788117224E+02  0.20967536147E+02 -0.17833924824E+02  0.35105676163E+02  0.00000000000E+00 0.  1.
</event>
<event>
 7    1  0.4937359E-010  0.4778727E+02  0.7816164E-02  0.1312668E+00
        -11   -1    0    0    0    0  0.00000000000E+00  0.00000000000E+00  0.45593999997E+02  0.45594000000E+02  0.51100000000E-03 0.  1.
         11   -1    0    0    0    0 -0.00000000000E+00 -0.00000000000E+00 -0.45593999997E+02  0.45594000000E+02  0.51100000000E-03 0. -1.
    9900012    2    1    2    0    0  0.23318067168E+02 -0.21030842757E+02  0.29959881183E+02  0.47787273232E+02  0.20000009972E+02 0.  0.
         12    1    1    2    0    0 -0.23318067168E+02  0.21030842757E+02 -0.29959881183E+02  0.43400726768E+02  0.00000000000E+00 0. -1.
         11    1    3    3    0    0  0.15630106814E+02 -0.89874186699E+01  0.22096148410E+02  0.28518655441E+02  0.51100000000E-03 0.  1.
        -11    1    3    3    0    0 -0.23779977466E+01 -0.12871207853E+01  0.33508095035E+00  0.27246711184E+01  0.51100000000E-03 0. -1.
        -12    1    3    3    0    0  0.10065958101E+02 -0.10756303302E+02  0.75286518226E+01  0.16543946672E+02  0.00000000000E+00 0.  1.
</event>
<event>
 7    1  0.4937359E-010  0.4778727E+02  0.7816164E-02  0.1312668E+00
        -11   -1    0    0    0    0  0.00000000000E+00  0.00000000000E+00  0.45593999997E+02  0.45594000000E+02  0.51100000000E-03 0.  1.
         11   -1    0    0    0    0 -0.00000000000E+00 -0.00000000000E+00 -0.45593999997E+02  0.45594000000E+02  0.51100000000E-03 0. -1.
    9900012    2    1    2    0    0  0.11287863016E+02 -0.53863003224E+01  0.41559535197E+02  0.47787273641E+02  0.20000011841E+02 0.  0.
         12    1    1    2    0    0 -0.11287863016E+02  0.53863003224E+01 -0.41559535197E+02  0.43400726359E+02  0.00000000000E+00 0. -1.
         11    1    3    3    0    0  0.71158442916E+01 -0.41277592211E+00  0.31845646908E+02  0.32633584713E+02  0.51100000000E-03 0. -1.
        -11    1    3    3    0    0 -0.15299375806E+01  0.20392208277E+01  0.16162651758E+01  0.30185168484E+01  0.51100000000E-03 0.  1.
         12    1    3    3    0    0  0.57019563045E+01 -0.70127452280E+01  0.80976231137E+01  0.12135172081E+02  0.00000000000E+00 0. -1.
</event>
<event>
 7    1  0.4937359E-010  0.4778727E+02  0.7816164E-02  0.1312668E+00
        -11   -1    0    0    0    0  0.00000000000E+00  0.00000000000E+00  0.45593999997E+02  0.45594000000E+02  0.51100000000E-03 0. -1.
         11   -1    0    0    0    0 -0.00000000000E+00 -0.00000000000E+00 -0.45593999997E+02  0.45594000000E+02  0.51100000000E-03 0.  1.
    9900012    2    1    2    0    0  0.38443898484E+02 -0.19491803824E+02  0.50753862443E+01  0.47787270830E+02  0.19999999023E+02 0.  0.
         12    1    1    2    0    0 -0.38443898484E+02  0.19491803824E+02 -0.50753862443E+01  0.43400729170E+02  0.00000000000E+00 0. -1.
         11    1    3    3    0    0  0.20208756092E+01 -0.62003417109E+01  0.13578489144E+01  0.66612258252E+01  0.51100000000E-03 0.  1.
        -11    1    3    3    0    0  0.36806130372E+02 -0.12016581266E+02  0.17591035809E+01  0.38758017286E+02  0.51100000000E-03 0. -1.
         12    1    3    3    0    0 -0.38310749703E+00 -0.12748808471E+01  0.19584337491E+01  0.23680277190E+01  0.00000000000E+00 0. -1.
</event>
<event>
 7    1  0.4937359E-010  0.4778728E+02  0.7816164E-02  0.1312668E+00
        -11   -1    0    0    0    0  0.00000000000E+00  0.00000000000E+00  0.45593999997E+02  0.45594000000E+02  0.51100000000E-03 0. -1.
         11   -1    0    0    0    0 -0.00000000000E+00 -0.00000000000E+00 -0.45593999997E+02  0.45594000000E+02  0.51100000000E-03 0.  1.
    9900012    2    1    2    0    0 -0.42289923956E+02 -0.37502191658E+01 -0.90067143408E+01  0.47787277480E+02  0.20000029343E+02 0.  0.
         12    1    1    2    0    0  0.42289923956E+02  0.37502191658E+01  0.90067143408E+01  0.43400722520E+02  0.00000000000E+00 0. -1.
         11    1    3    3    0    0 -0.17252206401E+01 -0.44586254282E+01 -0.33349551974E+01  0.58290353743E+01  0.51100000000E-03 0.  1.
        -11    1    3    3    0    0 -0.24720667335E+02 -0.34594750789E+01 -0.12685043222E+01  0.24993768519E+02  0.51100000000E-03 0. -1.
         12    1    3    3    0    0 -0.15844035981E+02  0.41678813412E+01 -0.44032548212E+01  0.16964473587E+02  0.00000000000E+00 0. -1.
</event>
<event>
 7    1  0.4937359E-010  0.4778728E+02  0.7816164E-02  0.1312668E+00
        -11   -1    0    0    0    0  0.00000000000E+00  0.00000000000E+00  0.45593999997E+02  0.45594000000E+02  0.51100000000E-03 0.  1.
         11   -1    0    0    0    0 -0.00000000000E+00 -0.00000000000E+00 -0.45593999997E+02  0.45594000000E+02  0.51100000000E-03 0. -1.
    9900012    2    1    2    0    0 -0.39165993705E+02  0.16426058517E+02  0.89348931774E+01  0.47787276764E+02  0.20000026080E+02 0.  0.
         12    1    1    2    0    0  0.39165993705E+02 -0.16426058517E+02 -0.89348931774E+01  0.43400723236E+02  0.00000000000E+00 0. -1.
         11    1    3    3    0    0 -0.19141693770E+02  0.60294036695E+01  0.12245774768E+02  0.23509937238E+02  0.51100000000E-03 0. -1.
        -11    1    3    3    0    0 -0.83528406204E+01  0.26886591093E+01  0.25109644553E+01  0.91270902807E+01  0.51100000000E-03 0.  1.
         12    1    3    3    0    0 -0.11671459315E+02  0.77079957378E+01 -0.58218460462E+01  0.15150249246E+02  0.00000000000E+00 0. -1.
</event>
<event>
 7    1  0.4937359E-010  0.4778727E+02  0.7816164E-02  0.1312668E+00
        -11   -1    0    0    0    0  0.00000000000E+00  0.00000000000E+00  0.45593999997E+02  0.45594000000E+02  0.51100000000E-03 0. -1.
         11   -1    0    0    0    0 -0.00000000000E+00 -0.00000000000E+00 -0.45593999997E+02  0.45594000000E+02  0.51100000000E-03 0.  1.
    9900012    2    1    2    0    0 -0.11222821313E+02 -0.41914116273E+02  0.93725164630E+00  0.47787270723E+02  0.19999998532E+02 0.  0.
         12    1    1    2    0    0  0.11222821313E+02  0.41914116273E+02 -0.93725164630E+00  0.43400729277E+02  0.00000000000E+00 0. -1.
         11    1    3    3    0    0  0.21984676040E+01 -0.79044358910E+01  0.57800598517E+01  0.10036057927E+02  0.51100000000E-03 0. -1.
        -11    1    3    3    0    0 -0.13948663166E+02 -0.33823064647E+02 -0.40914443428E+01  0.36814464865E+02  0.51100000000E-03 0.  1.
        -12    1    3    3    0    0  0.52737424934E+00 -0.18661573517E+00 -0.75136386262E+00  0.93674793062E+00  0.00000000000E+00 0.  1.
</event>
<event>
 7    1  0.4937359E-010  0.4778728E+02  0.7816164E-02  0.1312668E+00
        -11   -1    0    0    0    0  0.00000000000E+00  0.00000000000E+00  0.45593999997E+02  0.45594000000E+02  0.51100000000E-03 0.  1.
         11   -1    0    0    0    0 -0.00000000000E+00 -0.00000000000E+00 -0.45593999997E+02  0.45594000000E+02  0.51100000000E-03 0. -1.
    9900012    2    1    2    0    0 -0.14794149430E+02  0.40333474064E+02 -0.61616636782E+01  0.47787284722E+02  0.20000062360E+02 0.  0.
         12    1    1    2    0    0  0.14794149430E+02 -0.40333474064E+02  0.61616636782E+01  0.43400715278E+02  0.00000000000E+00 0. -1.
         11    1    3    3    0    0  0.10136699368E-01  0.23283439002E+02 -0.45029551946E+00  0.23287795104E+02  0.51100000000E-03 0. -1.
        -11    1    3    3    0    0 -0.12956957185E+02  0.17346645232E+02 -0.41130191073E+01  0.22038733329E+02  0.51100000000E-03 0.  1.
         12    1    3    3    0    0 -0.18473289440E+01 -0.29661017031E+00 -0.15983490514E+01  0.24607562884E+01  0.00000000000E+00 0. -1.
</event>
<event>
 7    1  0.4937359E-010  0.4778727E+02  0.7816164E-02  0.1312668E+00
        -11   -1    0    0    0    0  0.00000000000E+00  0.00000000000E+00  0.45593999997E+02  0.45594000000E+02  0.51100000000E-03 0.  1.
         11   -1    0    0    0    0 -0.00000000000E+00 -0.00000000000E+00 -0.45593999997E+02  0.45594000000E+02  0.51100000000E-03 0. -1.
    9900012    2    1    2    0    0  0.46265656043E+01 -0.16158272619E+02  0.40014100479E+02  0.47787272812E+02  0.20000008060E+02 0.  0.
         12    1    1    2    0    0 -0.46265656043E+01  0.16158272619E+02 -0.40014100479E+02  0.43400727188E+02  0.00000000000E+00 0. -1.
         11    1    3    3    0    0  0.25459276533E+01 -0.91787444911E+01  0.10062182169E+02  0.13855634533E+02  0.51100000000E-03 0.  1.
        -11    1    3    3    0    0 -0.94803150414E+00  0.40418438392E+01  0.11499968243E+02  0.12226386842E+02  0.51100000000E-03 0. -1.
         12    1    3    3    0    0  0.30286694551E+01 -0.11021371967E+02  0.18451950067E+02  0.21705251438E+02  0.00000000000E+00 0. -1.
</event>
<event>
 7    1  0.4937359E-010  0.4778728E+02  0.7816164E-02  0.1312668E+00
        -11   -1    0    0    0    0  0.00000000000E+00  0.00000000000E+00  0.45593999997E+02  0.45594000000E+02  0.51100000000E-03 0.  1.
         11   -1    0    0    0    0 -0.00000000000E+00 -0.00000000000E+00 -0.45593999997E+02  0.45594000000E+02  0.51100000000E-03 0. -1.
    9900012    2    1    2    0    0  0.16325123968E+02 -0.31786382722E+02  0.24632072639E+02  0.47787276485E+02  0.20000024806E+02 0.  0.
         12    1    1    2    0    0 -0.16325123968E+02  0.31786382722E+02 -0.24632072639E+02  0.43400723515E+02  0.00000000000E+00 0. -1.
         11    1    3    3    0    0  0.61738772155E+00 -0.32856401830E+00  0.81507231916E+01  0.81806729992E+01  0.51100000000E-03 0. -1.
        -11    1    3    3    0    0  0.81174607180E+01 -0.14336720521E+02  0.35657613960E+01  0.16856730953E+02  0.51100000000E-03 0.  1.
         12    1    3    3    0    0  0.75902755284E+01 -0.17121098182E+02  0.12915588052E+02  0.22749872533E+02  0.00000000000E+00 0. -1.
</event>
<event>
 7    1  0.4937359E-010  0.4778727E+02  0.7816164E-02  0.1312668E+00
        -11   -1    0    0    0    0  0.00000000000E+00  0.00000000000E+00  0.45593999997E+02  0.45594000000E+02  0.51100000000E-03 0. -1.
         11   -1    0    0    0    0 -0.00000000000E+00 -0.00000000000E+00 -0.45593999997E+02  0.45594000000E+02  0.51100000000E-03 0.  1.
    9900012    2    1    2    0    0 -0.42570470619E+02  0.53512281315E+01 -0.65377886863E+01  0.47787270834E+02  0.19999999039E+02 0.  0.
         12    1    1    2    0    0  0.42570470619E+02 -0.53512281315E+01  0.65377886863E+01  0.43400729166E+02  0.00000000000E+00 0. -1.
         11    1    3    3    0    0 -0.26941497479E+02  0.23964837977E+01 -0.90598896747E+01  0.28524884263E+02  0.51100000000E-03 0. -1.
        -11    1    3    3    0    0 -0.10746858177E+02  0.69363445626E+01  0.14668324784E+01  0.12874759584E+02  0.51100000000E-03 0.  1.
         12    1    3    3    0    0 -0.48821149634E+01 -0.39816002288E+01  0.10552685100E+01  0.63876269871E+01  0.00000000000E+00 0. -1.
</event>
<event>
 7    1  0.4937359E-010  0.4778727E+02  0.7816164E-02  0.1312668E+00
        -11   -1    0    0    0    0  0.00000000000E+00  0.00000000000E+00  0.45593999997E+02  0.45594000000E+02  0.51100000000E-03 0.  1.
         11   -1    0    0    0    0 -0.00000000000E+00 -0.00000000000E+00 -0.45593999997E+02  0.45594000000E+02  0.51100000000E-03 0. -1.
    9900012    2    1    2    0    0  0.24683940483E+02 -0.35693255928E+02  0.56374749110E+00  0.47787271346E+02  0.20000001375E+02 0.  0.
         12    1    1    2    0    0 -0.24683940483E+02  0.35693255928E+02 -0.56374749110E+00  0.43400728654E+02  0.00000000000E+00 0. -1.
         11    1    3    3    0    0  0.30177211296E+01 -0.16263422998E+02 -0.28446377152E+01  0.16783847367E+02  0.51100000000E-03 0. -1.
        -11    1    3    3    0    0  0.13048128765E+02 -0.12017808277E+02 -0.29438731233E+01  0.17981873353E+02  0.51100000000E-03 0.  1.
         12    1    3    3    0    0  0.86180905876E+01 -0.74120246523E+01  0.63522583295E+01  0.13021550626E+02  0.00000000000E+00 0. -1.
</event>
<event>
 7    1  0.4937359E-010  0.4778727E+02  0.7816164E-02  0.1312668E+00
        -11   -1    0    0    0    0  0.00000000000E+00  0.00000000000E+00  0.45593999997E+02  0.45594000000E+02  0.51100000000E-03 0.  1.
         11   -1    0    0    0    0 -0.00000000000E+00 -0.00000000000E+00 -0.45593999997E+02  0.45594000000E+02  0.51100000000E-03 0. -1.
    9900012    2    1    2    0    0  0.35342863603E+02  0.16880442037E+02 -0.18696416245E+02  0.47787270612E+02  0.19999998027E+02 0.  0.
         12    1    1    2    0    0 -0.35342863603E+02 -0.16880442037E+02  0.18696416245E+02  0.43400729388E+02  0.00000000000E+00 0. -1.
         11    1    3    3    0    0  0.13944896364E+01  0.50399366418E+01 -0.14641984168E+01  0.54304180285E+01  0.51100000000E-03 0. -1.
        -11    1    3    3    0    0  0.31972065748E+02  0.92896943942E+01 -0.19338812361E+02  0.38503260562E+02  0.51100000000E-03 0.  1.
        -12    1    3    3    0    0  0.19763082184E+01  0.25508110012E+01  0.21065945329E+01  0.38535920210E+01  0.00000000000E+00 0.  1.
</event>
<event>
 7    1  0.4937359E-010  0.4778727E+02  0.7816164E-02  0.1312668E+00
        -11   -1    0    0    0    0  0.00000000000E+00  0.00000000000E+00  0.45593999997E+02  0.45594000000E+02  0.51100000000E-03 0. -1.
         11   -1    0    0    0    0 -0.00000000000E+00 -0.00000000000E+00 -0.45593999997E+02  0.45594000000E+02  0.51100000000E-03 0.  1.
    9900012    2    1    2    0    0 -0.10079695858E+02  0.28691577559E+02 -0.30964763762E+02  0.47787268598E+02  0.19999988846E+02 0.  0.
         12    1    1    2    0    0  0.10079695858E+02 -0.28691577559E+02  0.30964763762E+02  0.43400731402E+02  0.00000000000E+00 0. -1.
         11    1    3    3    0    0 -0.15400359026E+01  0.18600653417E+02 -0.20440841283E+02  0.27680029096E+02  0.51100000000E-03 0. -1.
        -11    1    3    3    0    0 -0.92236018126E+01  0.11329028068E+02 -0.67810817187E+01  0.16106047836E+02  0.51100000000E-03 0.  1.
        -12    1    3    3    0    0  0.68394185740E+00 -0.12381039258E+01 -0.37428407600E+01  0.40011916662E+01  0.00000000000E+00 0.  1.
</event>
<event>
 7    1  0.4937359E-010  0.4778726E+02  0.7816164E-02  0.1312668E+00
        -11   -1    0    0    0    0  0.00000000000E+00  0.00000000000E+00  0.45593999997E+02  0.45594000000E+02  0.51100000000E-03 0. -1.
         11   -1    0    0    0    0 -0.00000000000E+00 -0.00000000000E+00 -0.45593999997E+02  0.45594000000E+02  0.51100000000E-03 0.  1.
    9900012    2    1    2    0    0 -0.15988842248E+01 -0.42166657501E+02  0.10150888877E+02  0.47787262903E+02  0.19999962880E+02 0.  0.
         12    1    1    2    0    0  0.15988842248E+01  0.42166657501E+02 -0.10150888877E+02  0.43400737097E+02  0.00000000000E+00 0. -1.
         11    1    3    3    0    0 -0.31472243399E+00 -0.20363919318E+01  0.18972852227E+01  0.28010058529E+01  0.51100000000E-03 0. -1.
        -11    1    3    3    0    0  0.81293287997E+00  0.19184290316E+01 -0.17381079274E-02  0.20835625977E+01  0.51100000000E-03 0.  1.
        -12    1    3    3    0    0 -0.20970946708E+01 -0.42048694601E+02  0.82553417627E+01  0.42902694453E+02  0.00000000000E+00 0.  1.
</event>
<event>
 7    1  0.4937359E-010  0.4778727E+02  0.7816164E-02  0.1312668E+00
        -11   -1    0    0    0    0  0.00000000000E+00  0.00000000000E+00  0.45593999997E+02  0.45594000000E+02  0.51100000000E-03 0. -1.
         11   -1    0    0    0    0 -0.00000000000E+00 -0.00000000000E+00 -0.45593999997E+02  0.45594000000E+02  0.51100000000E-03 0.  1.
    9900012    2    1    2    0    0  0.38548035843E+02 -0.12012565169E+02 -0.15917612441E+02  0.47787272182E+02  0.20000005187E+02 0.  0.
         12    1    1    2    0    0 -0.38548035843E+02  0.12012565169E+02  0.15917612441E+02  0.43400727818E+02  0.00000000000E+00 0. -1.
         11    1    3    3    0    0  0.11118527880E+02 -0.21301608958E+01 -0.10682841052E+02  0.15565421320E+02  0.51100000000E-03 0. -1.
        -11    1    3    3    0    0  0.50457344814E+01 -0.22527668589E+01  0.40133839557E+01  0.68294689409E+01  0.51100000000E-03 0.  1.
        -12    1    3    3    0    0  0.22383773482E+02 -0.76296374146E+01 -0.92481553444E+01  0.25392381921E+02  0.00000000000E+00 0.  1.
</event>
<event>
 7    1  0.4937359E-010  0.4778727E+02  0.7816164E-02  0.1312668E+00
        -11   -1    0    0    0    0  0.00000000000E+00  0.00000000000E+00  0.45593999997E+02  0.45594000000E+02  0.51100000000E-03 0.  1.
         11   -1    0    0    0    0 -0.00000000000E+00 -0.00000000000E+00 -0.45593999997E+02  0.45594000000E+02  0.51100000000E-03 0. -1.
    9900012    2    1    2    0    0  0.19134771131E+02 -0.56576830865E+01  0.38541853016E+02  0.47787270996E+02  0.19999999781E+02 0.  0.
         12    1    1    2    0    0 -0.19134771131E+02  0.56576830865E+01 -0.38541853016E+02  0.43400729004E+02  0.00000000000E+00 0. -1.
         11    1    3    3    0    0  0.48312090515E+01  0.99876834688E+00  0.30871926003E+01  0.58196973738E+01  0.51100000000E-03 0. -1.
        -11    1    3    3    0    0  0.17691126088E+02 -0.39708393716E+01  0.28793374876E+02  0.34026488867E+02  0.51100000000E-03 0.  1.
        -12    1    3    3    0    0 -0.33875640086E+01 -0.26856120617E+01  0.66612855397E+01  0.79410847559E+01  0.00000000000E+00 0.  1.
</event>
<event>
 7    1  0.4937359E-010  0.4778726E+02  0.7816164E-02  0.1312668E+00
        -11   -1    0    0    0    0  0.00000000000E+00  0.00000000000E+00  0.45593999997E+02  0.45594000000E+02  0.51100000000E-03 0.  1.
         11   -1    0    0    0    0 -0.00000000000E+00 -0.00000000000E+00 -0.45593999997E+02  0.45594000000E+02  0.51100000000E-03 0. -1.
    9900012    2    1    2    0    0  0.44318120983E+01  0.28903536047E+02  0.32071306176E+02  0.47787262283E+02  0.19999960055E+02 0.  0.
         12    1    1    2    0    0 -0.44318120983E+01 -0.28903536047E+02 -0.32071306176E+02  0.43400737717E+02  0.00000000000E+00 0. -1.
         11    1    3    3    0    0  0.49826914178E+00  0.23028292938E+02  0.16700039714E+02  0.28450691986E+02  0.51100000000E-03 0. -1.
        -11    1    3    3    0    0  0.36923832190E+01  0.75141013611E+01  0.15559908802E+02  0.17669356958E+02  0.51100000000E-03 0.  1.
         12    1    3    3    0    0  0.24115973747E+00 -0.16388582519E+01 -0.18864233989E+00  0.16672133401E+01  0.00000000000E+00 0. -1.
</event>
<event>
 7    1  0.4937359E-010  0.4778727E+02  0.7816164E-02  0.1312668E+00
        -11   -1    0    0    0    0  0.00000000000E+00  0.00000000000E+00  0.45593999997E+02  0.45594000000E+02  0.51100000000E-03 0. -1.
         11   -1    0    0    0    0 -0.00000000000E+00 -0.00000000000E+00 -0.45593999997E+02  0.45594000000E+02  0.51100000000E-03 0.  1.
    9900012    2    1    2    0    0  0.39484591339E+02 -0.33681119106E+01  0.17698762119E+02  0.47787270610E+02  0.19999998018E+02 0.  0.
         12    1    1    2    0    0 -0.39484591339E+02  0.33681119106E+01 -0.17698762119E+02  0.43400729390E+02  0.00000000000E+00 0. -1.
         11    1    3    3    0    0  0.22250068354E+02 -0.58450305081E+01  0.10777056534E+02  0.25404229396E+02  0.51100000000E-03 0. -1.
        -11    1    3    3    0    0  0.74589955898E+01  0.64088346933E+01  0.10700903199E+00  0.98346951416E+01  0.51100000000E-03 0.  1.
         12    1    3    3    0    0  0.97755273952E+01 -0.39319160957E+01  0.68146965534E+01  0.12548346072E+02  0.00000000000E+00 0. -1.
</event>
<event>
 7    1  0.4937359E-010  0.4778727E+02  0.7816164E-02  0.1312668E+00
        -11   -1    0    0    0    0  0.00000000000E+00  0.00000000000E+00  0.45593999997E+02  0.45594000000E+02  0.51100000000E-03 0.  1.
         11   -1    0    0    0    0 -0.00000000000E+00 -0.00000000000E+00 -0.45593999997E+02  0.45594000000E+02  0.51100000000E-03 0. -1.
    9900012    2    1    2    0    0  0.10196914347E+02  0.39484963321E+02 -0.14852059850E+02  0.47787273365E+02  0.20000010578E+02 0.  0.
         12    1    1    2    0    0 -0.10196914347E+02 -0.39484963321E+02  0.14852059850E+02  0.43400726635E+02  0.00000000000E+00 0. -1.
         11    1    3    3    0    0  0.19734557334E+01  0.37481099093E+01  0.25414999080E+01  0.49398458951E+01  0.51100000000E-03 0. -1.
        -11    1    3    3    0    0  0.38796628072E+00  0.13795857691E+02 -0.13349028544E+02  0.19200853381E+02  0.51100000000E-03 0.  1.
        -12    1    3    3    0    0  0.78354923332E+01  0.21940995722E+02 -0.40445312138E+01  0.23646574088E+02  0.00000000000E+00 0.  1.
</event>
<event>
 7    1  0.4937359E-010  0.4778727E+02  0.7816164E-02  0.1312668E+00
        -11   -1    0    0    0    0  0.00000000000E+00  0.00000000000E+00  0.45593999997E+02  0.45594000000E+02  0.51100000000E-03 0.  1.
         11   -1    0    0    0    0 -0.00000000000E+00 -0.00000000000E+00 -0.45593999997E+02  0.45594000000E+02  0.51100000000E-03 0. -1.
    9900012    2    1    2    0    0 -0.58501645791E+01  0.62503184254E+01  0.42547996906E+02  0.47787274813E+02  0.20000017182E+02 0.  0.
         12    1    1    2    0    0  0.58501645791E+01 -0.62503184254E+01 -0.42547996906E+02  0.43400725187E+02  0.00000000000E+00 0. -1.
         11    1    3    3    0    0  0.32359815399E+01 -0.30353806335E+01  0.62682436185E+01  0.76795826995E+01  0.51100000000E-03 0. -1.
        -11    1    3    3    0    0  0.20296710423E+01  0.95550492958E-01  0.92512247294E+01  0.94717397394E+01  0.51100000000E-03 0.  1.
         12    1    3    3    0    0 -0.11115817161E+02  0.91901485659E+01  0.27028528559E+02  0.30635952374E+02  0.00000000000E+00 0. -1.
</event>
<event>
 7    1  0.4937359E-010  0.4778727E+02  0.7816164E-02  0.1312668E+00
        -11   -1    0    0    0    0  0.00000000000E+00  0.00000000000E+00  0.45593999997E+02  0.45594000000E+02  0.51100000000E-03 0.  1.
         11   -1    0    0    0    0 -0.00000000000E+00 -0.00000000000E+00 -0.45593999997E+02  0.45594000000E+02  0.51100000000E-03 0. -1.
    9900012    2    1    2    0    0 -0.11381898586E+02  0.32248722245E+01  0.41757346798E+02  0.47787269271E+02  0.19999991912E+02 0.  0.
         12    1    1    2    0    0  0.11381898586E+02 -0.32248722245E+01 -0.41757346798E+02  0.43400730729E+02  0.00000000000E+00 0. -1.
         11    1    3    3    0    0  0.45169794974E+01  0.31205400718E-01  0.10931361933E+02  0.11827880264E+02  0.51100000000E-03 0. -1.
        -11    1    3    3    0    0 -0.13592231560E+02  0.18069719164E+01  0.30242099686E+02  0.33205398657E+02  0.51100000000E-03 0.  1.
        -12    1    3    3    0    0 -0.23066465226E+01  0.13866949074E+01  0.58388517865E+00  0.27539903501E+01  0.00000000000E+00 0.  1.
</event>
<event>
 7    1  0.4937359E-010  0.4778727E+02  0.7816164E-02  0.1312668E+00
        -11   -1    0    0    0    0  0.00000000000E+00  0.00000000000E+00  0.45593999997E+02  0.45594000000E+02  0.51100000000E-03 0. -1.
         11   -1    0    0    0    0 -0.00000000000E+00 -0.00000000000E+00 -0.45593999997E+02  0.45594000000E+02  0.51100000000E-03 0.  1.
    9900012    2    1    2    0    0  0.63581241652E+01 -0.42930848631E+02 -0.37416744346E+00  0.47787268343E+02  0.19999987684E+02 0.  0.
         12    1    1    2    0    0 -0.63581241652E+01  0.42930848631E+02  0.37416744346E+00  0.43400731657E+02  0.00000000000E+00 0. -1.
         11    1    3    3    0    0  0.62329244953E+00 -0.14218532520E+02 -0.77496430033E+01  0.16205311704E+02  0.51100000000E-03 0. -1.
        -11    1    3    3    0    0  0.38654886711E+01 -0.28438349409E+02  0.75734534186E+01  0.29682299721E+02  0.51100000000E-03 0.  1.
        -12    1    3    3    0    0  0.18693430446E+01 -0.27396670148E+00 -0.19797785877E+00  0.18996569176E+01  0.00000000000E+00 0.  1.
</event>
<event>
 7    1  0.4937359E-010  0.4778727E+02  0.7816164E-02  0.1312668E+00
        -11   -1    0    0    0    0  0.00000000000E+00  0.00000000000E+00  0.45593999997E+02  0.45594000000E+02  0.51100000000E-03 0.  1.
         11   -1    0    0    0    0 -0.00000000000E+00 -0.00000000000E+00 -0.45593999997E+02  0.45594000000E+02  0.51100000000E-03 0. -1.
    9900012    2    1    2    0    0 -0.24132744633E+02  0.30456811381E+02  0.19329171970E+02  0.47787267149E+02  0.19999982238E+02 0.  0.
         12    1    1    2    0    0  0.24132744633E+02 -0.30456811381E+02 -0.19329171970E+02  0.43400732851E+02  0.00000000000E+00 0. -1.
         11    1    3    3    0    0 -0.57812618040E+01  0.22394625855E+01  0.74740107679E+01  0.97107681436E+01  0.51100000000E-03 0. -1.
        -11    1    3    3    0    0 -0.10798722493E+01  0.90305187577E+01 -0.11549920399E+01  0.91679005220E+01  0.51100000000E-03 0.  1.
        -12    1    3    3    0    0 -0.17271610579E+02  0.19186830037E+02  0.13010153242E+02  0.28908598483E+02  0.00000000000E+00 0.  1.
</event>
<event>
 7    1  0.4937359E-010  0.4778727E+02  0.7816164E-02  0.1312668E+00
        -11   -1    0    0    0    0  0.00000000000E+00  0.00000000000E+00  0.45593999997E+02  0.45594000000E+02  0.51100000000E-03 0.  1.
         11   -1    0    0    0    0 -0.00000000000E+00 -0.00000000000E+00 -0.45593999997E+02  0.45594000000E+02  0.51100000000E-03 0. -1.
    9900012    2    1    2    0    0 -0.12605343962E+02 -0.64304383685E+01  0.41028989710E+02  0.47787271543E+02  0.20000002272E+02 0.  0.
         12    1    1    2    0    0  0.12605343962E+02  0.64304383685E+01 -0.41028989710E+02  0.43400728457E+02  0.00000000000E+00 0. -1.
         11    1    3    3    0    0  0.24074958913E+01  0.35910892955E+01  0.62246409916E+01  0.75787937385E+01  0.51100000000E-03 0. -1.
        -11    1    3    3    0    0 -0.12635814179E+02 -0.54543909731E+01  0.30630959425E+02  0.33580795947E+02  0.51100000000E-03 0.  1.
         12    1    3    3    0    0 -0.23770256745E+01 -0.45671366909E+01  0.41733892930E+01  0.66276818573E+01  0.00000000000E+00 0. -1.
</event>
<event>
 7    1  0.4937359E-010  0.4778727E+02  0.7816164E-02  0.1312668E+00
        -11   -1    0    0    0    0  0.00000000000E+00  0.00000000000E+00  0.45593999997E+02  0.45594000000E+02  0.51100000000E-03 0.  1.
         11   -1    0    0    0    0 -0.00000000000E+00 -0.00000000000E+00 -0.45593999997E+02  0.45594000000E+02  0.51100000000E-03 0. -1.
    9900012    2    1    2    0    0 -0.38078644763E+02  0.45001160130E+01  0.20331970667E+02  0.47787271177E+02  0.20000000605E+02 0.  0.
         12    1    1    2    0    0  0.38078644763E+02 -0.45001160130E+01 -0.20331970667E+02  0.43400728823E+02  0.00000000000E+00 0. -1.
         11    1    3    3    0    0 -0.12767717152E+02  0.28577390231E+01  0.18595989448E+01  0.13215119450E+02  0.51100000000E-03 0. -1.
        -11    1    3    3    0    0 -0.19328218488E+02 -0.43223493007E+00  0.20248198168E+02  0.27995649416E+02  0.51100000000E-03 0.  1.
        -12    1    3    3    0    0 -0.59827091241E+01  0.20746119199E+01 -0.17758264449E+01  0.65765023108E+01  0.00000000000E+00 0.  1.
</event>
<event>
 7    1  0.4937359E-010  0.4778727E+02  0.7816164E-02  0.1312668E+00
        -11   -1    0    0    0    0  0.00000000000E+00  0.00000000000E+00  0.45593999997E+02  0.45594000000E+02  0.51100000000E-03 0.  1.
         11   -1    0    0    0    0 -0.00000000000E+00 -0.00000000000E+00 -0.45593999997E+02  0.45594000000E+02  0.51100000000E-03 0. -1.
    9900012    2    1    2    0    0  0.13438242462E+02 -0.34396204191E+02  0.22802147182E+02  0.47787272595E+02  0.20000007068E+02 0.  0.
         12    1    1    2    0    0 -0.13438242462E+02  0.34396204191E+02 -0.22802147182E+02  0.43400727405E+02  0.00000000000E+00 0. -1.
         11    1    3    3    0    0  0.51659359313E+01 -0.45301912997E+01 -0.25750114970E+01  0.73375889588E+01  0.51100000000E-03 0. -1.
        -11    1    3    3    0    0  0.87748170321E+01 -0.24499056218E+02  0.19853445611E+02  0.32731643289E+02  0.51100000000E-03 0.  1.
        -12    1    3    3    0    0 -0.50251050190E+00 -0.53669566735E+01  0.55237130675E+01  0.77180403466E+01  0.00000000000E+00 0.  1.
</event>
<event>
 7    1  0.4937359E-010  0.4778727E+02  0.7816164E-02  0.1312668E+00
        -11   -1    0    0    0    0  0.00000000000E+00  0.00000000000E+00  0.45593999997E+02  0.45594000000E+02  0.51100000000E-03 0.  1.
         11   -1    0    0    0    0 -0.00000000000E+00 -0.00000000000E+00 -0.45593999997E+02  0.45594000000E+02  0.51100000000E-03 0. -1.
    9900012    2    1    2    0    0  0.17169365922E+01 -0.34207527710E+02  0.26655588074E+02  0.47787271909E+02  0.20000003940E+02 0.  0.
         12    1    1    2    0    0 -0.17169365922E+01  0.34207527710E+02 -0.26655588074E+02  0.43400728091E+02  0.00000000000E+00 0. -1.
         11    1    3    3    0    0 -0.21962510337E+00 -0.26140003057E+01 -0.12851610312E+01  0.29211079955E+01  0.51100000000E-03 0. -1.
        -11    1    3    3    0    0  0.72984907805E+01 -0.20706475062E+02  0.22902162169E+02  0.31725937487E+02  0.51100000000E-03 0.  1.
        -12    1    3    3    0    0 -0.53619290850E+01 -0.10887052342E+02  0.50385869362E+01  0.13140226426E+02  0.00000000000E+00 0.  1.
</event>
<event>
 7    1  0.4937359E-010  0.4778722E+02  0.7816164E-02  0.1312668E+00
        -11   -1    0    0    0    0  0.00000000000E+00  0.00000000000E+00  0.45593999997E+02  0.45594000000E+02  0.51100000000E-03 0. -1.
         11   -1    0    0    0    0 -0.00000000000E+00 -0.00000000000E+00 -0.45593999997E+02  0.45594000000E+02  0.51100000000E-03 0.  1.
    9900012    2    1    2    0    0 -0.39576502215E+01  0.42391565351E+02 -0.84213743867E+01  0.47787224031E+02  0.19999785645E+02 0.  0.
         12    1    1    2    0    0  0.39576502215E+01 -0.42391565351E+02  0.84213743867E+01  0.43400775969E+02  0.00000000000E+00 0. -1.
         11    1    3    3    0    0  0.51554646398E+01  0.23110084601E+01  0.60397054298E+00  0.56819324558E+01  0.51100000000E-03 0. -1.
        -11    1    3    3    0    0 -0.73527903993E+01  0.30414411353E+02 -0.64535984855E+01  0.31949160838E+02  0.51100000000E-03 0.  1.
         12    1    3    3    0    0 -0.17603244620E+01  0.96661455377E+01 -0.25717464442E+01  0.10156130737E+02  0.00000000000E+00 0. -1.
</event>
<event>
 7    1  0.4937359E-010  0.4778727E+02  0.7816164E-02  0.1312668E+00
        -11   -1    0    0    0    0  0.00000000000E+00  0.00000000000E+00  0.45593999997E+02  0.45594000000E+02  0.51100000000E-03 0.  1.
         11   -1    0    0    0    0 -0.00000000000E+00 -0.00000000000E+00 -0.45593999997E+02  0.45594000000E+02  0.51100000000E-03 0. -1.
    9900012    2    1    2    0    0 -0.36067775222E+02  0.13529954445E+02  0.19991973821E+02  0.47787273116E+02  0.20000009447E+02 0.  0.
         12    1    1    2    0    0  0.36067775222E+02 -0.13529954445E+02 -0.19991973821E+02  0.43400726884E+02  0.00000000000E+00 0. -1.
         11    1    3    3    0    0 -0.17258814612E+02  0.16192494484E+02  0.94311037883E+01  0.25475660509E+02  0.51100000000E-03 0.  1.
        -11    1    3    3    0    0 -0.13412935038E+02 -0.76911399510E+00  0.96012005156E+01  0.16513067985E+02  0.51100000000E-03 0. -1.
        -12    1    3    3    0    0 -0.53960255724E+01 -0.18934260440E+01  0.95966951731E+00  0.57985446230E+01  0.00000000000E+00 0.  1.
</event>
<event>
 7    1  0.6651812E-010  0.4778727E+02  0.7816164E-02  0.1312668E+00
        -11   -1    0    0    0    0  0.00000000000E+00  0.00000000000E+00  0.45593999997E+02  0.45594000000E+02  0.51100000000E-03 0. -1.
         11   -1    0    0    0    0 -0.00000000000E+00 -0.00000000000E+00 -0.45593999997E+02  0.45594000000E+02  0.51100000000E-03 0.  1.
    9900012    2    1    2    0    0 -0.37819484953E+02  0.27464679926E+01 -0.21113182686E+02  0.47787274065E+02  0.20000013773E+02 0.  0.
         12    1    1    2    0    0  0.37819484953E+02 -0.27464679926E+01  0.21113182686E+02  0.43400725935E+02  0.00000000000E+00 0. -1.
         11    1    3    3    0    0  0.15773790605E+01 -0.17196679102E+01 -0.58426558397E+00  0.24055662443E+01  0.51100000000E-03 0. -1.
        -11    1    3    3    0    0 -0.23904105164E+02  0.66682620803E+01 -0.12156928107E+02  0.27634450675E+02  0.51100000000E-03 0.  1.
        -12    1    3    3    0    0 -0.15492758850E+02 -0.22021261774E+01 -0.83719889947E+01  0.17747257146E+02  0.00000000000E+00 0.  1.
</event>
<event>
 7    1  0.4937359E-010  0.4778727E+02  0.7816164E-02  0.1312668E+00
        -11   -1    0    0    0    0  0.00000000000E+00  0.00000000000E+00  0.45593999997E+02  0.45594000000E+02  0.51100000000E-03 0. -1.
         11   -1    0    0    0    0 -0.00000000000E+00 -0.00000000000E+00 -0.45593999997E+02  0.45594000000E+02  0.51100000000E-03 0.  1.
    9900012    2    1    2    0    0 -0.16722538874E+01 -0.30429160288E+02 -0.30901342637E+02  0.47787271830E+02  0.20000003584E+02 0.  0.
         12    1    1    2    0    0  0.16722538874E+01  0.30429160288E+02  0.30901342637E+02  0.43400728170E+02  0.00000000000E+00 0. -1.
         11    1    3    3    0    0 -0.81784086489E+01 -0.18951183680E+02 -0.20339162440E+02  0.28977840843E+02  0.51100000000E-03 0. -1.
        -11    1    3    3    0    0  0.76666534266E+01 -0.89664204331E+01 -0.10849734840E+02  0.16027820080E+02  0.51100000000E-03 0.  1.
         12    1    3    3    0    0 -0.11604986651E+01 -0.25115561752E+01  0.28755464278E+00  0.27816109083E+01  0.00000000000E+00 0. -1.
</event>
<event>
 7    1  0.4937359E-010  0.4778728E+02  0.7816164E-02  0.1312668E+00
        -11   -1    0    0    0    0  0.00000000000E+00  0.00000000000E+00  0.45593999997E+02  0.45594000000E+02  0.51100000000E-03 0.  1.
         11   -1    0    0    0    0 -0.00000000000E+00 -0.00000000000E+00 -0.45593999997E+02  0.45594000000E+02  0.51100000000E-03 0. -1.
    9900012    2    1    2    0    0 -0.36749933000E+02 -0.18737909550E+02  0.13489098621E+02  0.47787278677E+02  0.20000034798E+02 0.  0.
         12    1    1    2    0    0  0.36749933000E+02  0.18737909550E+02 -0.13489098621E+02  0.43400721323E+02  0.00000000000E+00 0. -1.
         11    1    3    3    0    0 -0.20505127776E+02 -0.73121786263E+01  0.15214124701E+02  0.26559326273E+02  0.51100000000E-03 0. -1.
        -11    1    3    3    0    0 -0.10291316451E+02 -0.60524445048E+01 -0.44743735088E+01  0.12750031268E+02  0.51100000000E-03 0.  1.
         12    1    3    3    0    0 -0.59534887717E+01 -0.53732864190E+01  0.27493474290E+01  0.84779211356E+01  0.00000000000E+00 0. -1.
</event>
<event>
 7    1  0.4937359E-010  0.4778727E+02  0.7816164E-02  0.1312668E+00
        -11   -1    0    0    0    0  0.00000000000E+00  0.00000000000E+00  0.45593999997E+02  0.45594000000E+02  0.51100000000E-03 0.  1.
         11   -1    0    0    0    0 -0.00000000000E+00 -0.00000000000E+00 -0.45593999997E+02  0.45594000000E+02  0.51100000000E-03 0. -1.
    9900012    2    1    2    0    0 -0.13685687535E+02 -0.31667879327E+02  0.26333833742E+02  0.47787269316E+02  0.19999992118E+02 0.  0.
         12    1    1    2    0    0  0.13685687535E+02  0.31667879327E+02 -0.26333833742E+02  0.43400730684E+02  0.00000000000E+00 0. -1.
         11    1    3    3    0    0 -0.26323026293E+01  0.78597950427E+00 -0.11538794520E+01  0.29796340320E+01  0.51100000000E-03 0. -1.
        -11    1    3    3    0    0 -0.86937645428E+01 -0.22135620532E+02  0.23675721996E+02  0.33557518540E+02  0.51100000000E-03 0.  1.
         12    1    3    3    0    0 -0.23596203629E+01 -0.10318238299E+02  0.38119911985E+01  0.11250116744E+02  0.00000000000E+00 0. -1.
</event>
<event>
 7    1  0.4937359E-010  0.4778727E+02  0.7816164E-02  0.1312668E+00
        -11   -1    0    0    0    0  0.00000000000E+00  0.00000000000E+00  0.45593999997E+02  0.45594000000E+02  0.51100000000E-03 0.  1.
         11   -1    0    0    0    0 -0.00000000000E+00 -0.00000000000E+00 -0.45593999997E+02  0.45594000000E+02  0.51100000000E-03 0. -1.
    9900012    2    1    2    0    0  0.28760504262E+01 -0.34366018250E+01  0.43168754608E+02  0.47787271060E+02  0.20000000069E+02 0.  0.
         12    1    1    2    0    0 -0.28760504262E+01  0.34366018250E+01 -0.43168754608E+02  0.43400728940E+02  0.00000000000E+00 0. -1.
         11    1    3    3    0    0 -0.28245242004E+01  0.40249820053E+01  0.66041167592E+01  0.82336368351E+01  0.51100000000E-03 0. -1.
        -11    1    3    3    0    0  0.11760687378E+01 -0.95877088239E+01  0.28205093087E+02  0.29813328806E+02  0.51100000000E-03 0.  1.
        -12    1    3    3    0    0  0.45245058888E+01  0.21261249937E+01  0.83595447613E+01  0.97403054184E+01  0.00000000000E+00 0.  1.
</event>
<event>
 7    1  0.4937359E-010  0.4778727E+02  0.7816164E-02  0.1312668E+00
        -11   -1    0    0    0    0  0.00000000000E+00  0.00000000000E+00  0.45593999997E+02  0.45594000000E+02  0.51100000000E-03 0.  1.
         11   -1    0    0    0    0 -0.00000000000E+00 -0.00000000000E+00 -0.45593999997E+02  0.45594000000E+02  0.51100000000E-03 0. -1.
    9900012    2    1    2    0    0 -0.37247679967E+02 -0.82833676547E+01  0.20678967985E+02  0.47787267753E+02  0.19999984995E+02 0.  0.
         12    1    1    2    0    0  0.37247679967E+02  0.82833676547E+01 -0.20678967985E+02  0.43400732247E+02  0.00000000000E+00 0. -1.
         11    1    3    3    0    0 -0.20375112787E+02 -0.85413597344E+01  0.43765649474E+01  0.22522308234E+02  0.51100000000E-03 0. -1.
        -11    1    3    3    0    0 -0.18389060012E+01 -0.33568779263E+01  0.28878950282E+01  0.47948037132E+01  0.51100000000E-03 0.  1.
         12    1    3    3    0    0 -0.15033661179E+02  0.36148700061E+01  0.13414508009E+02  0.20470155806E+02  0.00000000000E+00 0. -1.
</event>
<event>
 7    1  0.4937359E-010  0.4778727E+02  0.7816164E-02  0.1312668E+00
        -11   -1    0    0    0    0  0.00000000000E+00  0.00000000000E+00  0.45593999997E+02  0.45594000000E+02  0.51100000000E-03 0. -1.
         11   -1    0    0    0    0 -0.00000000000E+00 -0.00000000000E+00 -0.45593999997E+02  0.45594000000E+02  0.51100000000E-03 0.  1.
    9900012    2    1    2    0    0 -0.25414976662E+02  0.64680691263E+01 -0.34581296981E+02  0.47787273533E+02  0.20000011345E+02 0.  0.
         12    1    1    2    0    0  0.25414976662E+02 -0.64680691263E+01  0.34581296981E+02  0.43400726467E+02  0.00000000000E+00 0. -1.
         11    1    3    3    0    0 -0.46483806309E+01 -0.36962799074E+01 -0.75941976335E+01  0.96406309753E+01  0.51100000000E-03 0. -1.
        -11    1    3    3    0    0 -0.18476886346E+02  0.83971605134E+01 -0.28416799592E+02  0.34920225272E+02  0.51100000000E-03 0.  1.
        -12    1    3    3    0    0 -0.22897096857E+01  0.17671885203E+01  0.14297002444E+01  0.32264172855E+01  0.00000000000E+00 0.  1.
</event>
<event>
 7    1  0.4937359E-010  0.4778727E+02  0.7816164E-02  0.1312668E+00
        -11   -1    0    0    0    0  0.00000000000E+00  0.00000000000E+00  0.45593999997E+02  0.45594000000E+02  0.51100000000E-03 0.  1.
         11   -1    0    0    0    0 -0.00000000000E+00 -0.00000000000E+00 -0.45593999997E+02  0.45594000000E+02  0.51100000000E-03 0. -1.
    9900012    2    1    2    0    0  0.34480535614E+02  0.78122798219E+01  0.25173082449E+02  0.47787272676E+02  0.20000007440E+02 0.  0.
         12    1    1    2    0    0 -0.34480535614E+02 -0.78122798219E+01 -0.25173082449E+02  0.43400727324E+02  0.00000000000E+00 0. -1.
         11    1    3    3    0    0  0.17438465569E+02 -0.19529487419E+01  0.54266578350E+01  0.18367436013E+02  0.51100000000E-03 0. -1.
        -11    1    3    3    0    0  0.32242299816E+01  0.57927671701E+01  0.28014798011E+01  0.71972286193E+01  0.51100000000E-03 0.  1.
         12    1    3    3    0    0  0.13817840064E+02  0.39724613937E+01  0.16944944813E+02  0.22222608044E+02  0.00000000000E+00 0. -1.
</event>
<event>
 7    1  0.6746338E-010  0.4778730E+02  0.7816164E-02  0.1312668E+00
        -11   -1    0    0    0    0  0.00000000000E+00  0.00000000000E+00  0.45593999997E+02  0.45594000000E+02  0.51100000000E-03 0. -1.
         11   -1    0    0    0    0 -0.00000000000E+00 -0.00000000000E+00 -0.45593999997E+02  0.45594000000E+02  0.51100000000E-03 0.  1.
    9900012    2    1    2    0    0  0.41438228148E+02 -0.36186635419E+01 -0.12385429142E+02  0.47787304926E+02  0.20000154480E+02 0.  0.
         12    1    1    2    0    0 -0.41438228148E+02  0.36186635419E+01  0.12385429142E+02  0.43400695074E+02  0.00000000000E+00 0. -1.
         11    1    3    3    0    0  0.16362212453E+02  0.27607669975E+01 -0.45503542497E+01  0.17206090632E+02  0.51100000000E-03 0. -1.
        -11    1    3    3    0    0  0.15236250551E+02 -0.58095265019E+01 -0.11620283597E+02  0.20023109653E+02  0.51100000000E-03 0.  1.
        -12    1    3    3    0    0  0.98397651433E+01 -0.56990403751E+00  0.37852087040E+01  0.10558104641E+02  0.00000000000E+00 0.  1.
</event>
<event>
 7    1  0.4937359E-010  0.4778727E+02  0.7816164E-02  0.1312668E+00
        -11   -1    0    0    0    0  0.00000000000E+00  0.00000000000E+00  0.45593999997E+02  0.45594000000E+02  0.51100000000E-03 0. -1.
         11   -1    0    0    0    0 -0.00000000000E+00 -0.00000000000E+00 -0.45593999997E+02  0.45594000000E+02  0.51100000000E-03 0.  1.
    9900012    2    1    2    0    0 -0.21550304725E+02 -0.35952821352E+02 -0.11251752736E+02  0.47787274931E+02  0.20000017720E+02 0.  0.
         12    1    1    2    0    0  0.21550304725E+02  0.35952821352E+02  0.11251752736E+02  0.43400725069E+02  0.00000000000E+00 0. -1.
         11    1    3    3    0    0 -0.50743243925E+01 -0.58638555070E+01  0.19161531812E+01  0.79878165178E+01  0.51100000000E-03 0. -1.
        -11    1    3    3    0    0 -0.19475316578E+02 -0.26236256312E+02 -0.11545510824E+02  0.34654406957E+02  0.51100000000E-03 0.  1.
        -12    1    3    3    0    0  0.29993362449E+01 -0.38527095329E+01 -0.16223950924E+01  0.51450514566E+01  0.00000000000E+00 0.  1.
</event>
<event>
 7    1  0.4937359E-010  0.4778727E+02  0.7816164E-02  0.1312668E+00
        -11   -1    0    0    0    0  0.00000000000E+00  0.00000000000E+00  0.45593999997E+02  0.45594000000E+02  0.51100000000E-03 0.  1.
         11   -1    0    0    0    0 -0.00000000000E+00 -0.00000000000E+00 -0.45593999997E+02  0.45594000000E+02  0.51100000000E-03 0. -1.
    9900012    2    1    2    0    0 -0.57018078078E+01  0.14191092361E+02  0.40616815137E+02  0.47787269746E+02  0.19999994080E+02 0.  0.
         12    1    1    2    0    0  0.57018078078E+01 -0.14191092361E+02 -0.40616815137E+02  0.43400730254E+02  0.00000000000E+00 0. -1.
         11    1    3    3    0    0 -0.71379457833E+01  0.44908153086E+00  0.16491752495E+02  0.17975812773E+02  0.51100000000E-03 0.  1.
        -11    1    3    3    0    0  0.55951987938E+01  0.72309619961E+01  0.90106404095E+01  0.12836849371E+02  0.51100000000E-03 0. -1.
        -12    1    3    3    0    0 -0.41590608183E+01  0.65110488340E+01  0.15114422233E+02  0.16974607602E+02  0.00000000000E+00 0.  1.
</event>
<event>
 7    1  0.4937359E-010  0.4778727E+02  0.7816164E-02  0.1312668E+00
        -11   -1    0    0    0    0  0.00000000000E+00  0.00000000000E+00  0.45593999997E+02  0.45594000000E+02  0.51100000000E-03 0. -1.
         11   -1    0    0    0    0 -0.00000000000E+00 -0.00000000000E+00 -0.45593999997E+02  0.45594000000E+02  0.51100000000E-03 0.  1.
    9900012    2    1    2    0    0 -0.59800371505E+01  0.59711339611E+01 -0.42570038797E+02  0.47787268574E+02  0.19999988737E+02 0.  0.
         12    1    1    2    0    0  0.59800371505E+01 -0.59711339611E+01  0.42570038797E+02  0.43400731426E+02  0.00000000000E+00 0. -1.
         11    1    3    3    0    0  0.19882796497E+01  0.91759025423E+01 -0.11948090144E+02  0.15195634300E+02  0.51100000000E-03 0. -1.
        -11    1    3    3    0    0 -0.80399031146E+01 -0.13438221311E+01 -0.17116493091E+02  0.18958381682E+02  0.51100000000E-03 0.  1.
         12    1    3    3    0    0  0.71586314432E-01 -0.18609464501E+01 -0.13505455562E+02  0.13633252592E+02  0.00000000000E+00 0. -1.
</event>
<event>
 7    1  0.4937359E-010  0.4778727E+02  0.7816164E-02  0.1312668E+00
        -11   -1    0    0    0    0  0.00000000000E+00  0.00000000000E+00  0.45593999997E+02  0.45594000000E+02  0.51100000000E-03 0. -1.
         11   -1    0    0    0    0 -0.00000000000E+00 -0.00000000000E+00 -0.45593999997E+02  0.45594000000E+02  0.51100000000E-03 0.  1.
    9900012    2    1    2    0    0 -0.34093632748E+02 -0.23986356097E+02 -0.12078995810E+02  0.47787271751E+02  0.20000003219E+02 0.  0.
         12    1    1    2    0    0  0.34093632748E+02  0.23986356097E+02  0.12078995810E+02  0.43400728249E+02  0.00000000000E+00 0. -1.
         11    1    3    3    0    0 -0.22368910171E+02 -0.14426458361E+02 -0.13249004723E+02  0.29732591032E+02  0.51100000000E-03 0.  1.
        -11    1    3    3    0    0 -0.82305143944E+01 -0.12592370246E+01 -0.18988109918E+01  0.85400543631E+01  0.51100000000E-03 0. -1.
         12    1    3    3    0    0 -0.34942081826E+01 -0.83006607114E+01  0.30688199043E+01  0.95146263550E+01  0.00000000000E+00 0. -1.
</event>
<event>
 7    1  0.4937359E-010  0.4778727E+02  0.7816164E-02  0.1312668E+00
        -11   -1    0    0    0    0  0.00000000000E+00  0.00000000000E+00  0.45593999997E+02  0.45594000000E+02  0.51100000000E-03 0.  1.
         11   -1    0    0    0    0 -0.00000000000E+00 -0.00000000000E+00 -0.45593999997E+02  0.45594000000E+02  0.51100000000E-03 0. -1.
    9900012    2    1    2    0    0  0.22082564160E+02 -0.27651434316E+02  0.25127309754E+02  0.47787272413E+02  0.20000006239E+02 0.  0.
         12    1    1    2    0    0 -0.22082564160E+02  0.27651434316E+02 -0.25127309754E+02  0.43400727587E+02  0.00000000000E+00 0. -1.
         11    1    3    3    0    0  0.12005857403E+02 -0.47807291452E+01  0.10559610265E+02  0.16688359786E+02  0.51100000000E-03 0. -1.
        -11    1    3    3    0    0 -0.14626711756E+01 -0.91647504621E+01  0.71136324521E+01  0.11693409465E+02  0.51100000000E-03 0.  1.
        -12    1    3    3    0    0  0.11539377932E+02 -0.13705954709E+02  0.74540670377E+01  0.19405503161E+02  0.00000000000E+00 0.  1.
</event>
<event>
 7    1  0.4937359E-010  0.4778727E+02  0.7816164E-02  0.1312668E+00
        -11   -1    0    0    0    0  0.00000000000E+00  0.00000000000E+00  0.45593999997E+02  0.45594000000E+02  0.51100000000E-03 0.  1.
         11   -1    0    0    0    0 -0.00000000000E+00 -0.00000000000E+00 -0.45593999997E+02  0.45594000000E+02  0.51100000000E-03 0. -1.
    9900012    2    1    2    0    0  0.43255602547E+01  0.11090673750E+02  0.41736190097E+02  0.47787273283E+02  0.20000010207E+02 0.  0.
         12    1    1    2    0    0 -0.43255602547E+01 -0.11090673750E+02 -0.41736190097E+02  0.43400726717E+02  0.00000000000E+00 0. -1.
         11    1    3    3    0    0  0.85306511405E+01  0.23492623263E+01  0.16037325638E+02  0.18316300288E+02  0.51100000000E-03 0. -1.
        -11    1    3    3    0    0 -0.28157943792E+01  0.10675269805E+02  0.24345972020E+02  0.26732310735E+02  0.51100000000E-03 0.  1.
         12    1    3    3    0    0 -0.13892965066E+01 -0.19338583812E+01  0.13528924389E+01  0.27386622597E+01  0.00000000000E+00 0. -1.
</event>
<event>
 7    1  0.4937359E-010  0.4778723E+02  0.7816164E-02  0.1312668E+00
        -11   -1    0    0    0    0  0.00000000000E+00  0.00000000000E+00  0.45593999997E+02  0.45594000000E+02  0.51100000000E-03 0.  1.
         11   -1    0    0    0    0 -0.00000000000E+00 -0.00000000000E+00 -0.45593999997E+02  0.45594000000E+02  0.51100000000E-03 0. -1.
    9900012    2    1    2    0    0 -0.37341616905E+02  0.14813447389E+02  0.16425362279E+02  0.47787226935E+02  0.19999798887E+02 0.  0.
         12    1    1    2    0    0  0.37341616905E+02 -0.14813447389E+02 -0.16425362279E+02  0.43400773065E+02  0.00000000000E+00 0. -1.
         11    1    3    3    0    0 -0.11937959440E+02 -0.15400382349E+00  0.22301904303E+01  0.12145465918E+02  0.51100000000E-03 0. -1.
        -11    1    3    3    0    0 -0.14676028889E+02  0.15568635409E+02  0.12456665889E+02  0.24757559609E+02  0.51100000000E-03 0.  1.
        -12    1    3    3    0    0 -0.10727628576E+02 -0.60118419616E+00  0.17385059592E+01  0.10884201408E+02  0.00000000000E+00 0.  1.
</event>
<event>
 7    1  0.4937359E-010  0.4778727E+02  0.7816164E-02  0.1312668E+00
        -11   -1    0    0    0    0  0.00000000000E+00  0.00000000000E+00  0.45593999997E+02  0.45594000000E+02  0.51100000000E-03 0.  1.
         11   -1    0    0    0    0 -0.00000000000E+00 -0.00000000000E+00 -0.45593999997E+02  0.45594000000E+02  0.51100000000E-03 0. -1.
    9900012    2    1    2    0    0 -0.29920564348E+02  0.39129906504E+01  0.31194094782E+02  0.47787271711E+02  0.20000003038E+02 0.  0.
         12    1    1    2    0    0  0.29920564348E+02 -0.39129906504E+01 -0.31194094782E+02  0.43400728289E+02  0.00000000000E+00 0. -1.
         11    1    3    3    0    0 -0.17635566401E+02  0.22930700212E+01  0.10892013493E+02  0.20854431918E+02  0.51100000000E-03 0. -1.
        -11    1    3    3    0    0 -0.73756967698E+01 -0.42393858772E+01  0.16101096868E+02  0.18210398570E+02  0.51100000000E-03 0.  1.
        -12    1    3    3    0    0 -0.49093011769E+01  0.58593065063E+01  0.42009844209E+01  0.87224412228E+01  0.00000000000E+00 0.  1.
</event>
<event>
 7    1  0.4937359E-010  0.4778727E+02  0.7816164E-02  0.1312668E+00
        -11   -1    0    0    0    0  0.00000000000E+00  0.00000000000E+00  0.45593999997E+02  0.45594000000E+02  0.51100000000E-03 0.  1.
         11   -1    0    0    0    0 -0.00000000000E+00 -0.00000000000E+00 -0.45593999997E+02  0.45594000000E+02  0.51100000000E-03 0. -1.
    9900012    2    1    2    0    0 -0.37638571610E+02 -0.13738634983E+02  0.16679657449E+02  0.47787272626E+02  0.20000007209E+02 0.  0.
         12    1    1    2    0    0  0.37638571610E+02  0.13738634983E+02 -0.16679657449E+02  0.43400727374E+02  0.00000000000E+00 0. -1.
         11    1    3    3    0    0 -0.26897402860E+02 -0.16627014605E+02  0.13515467536E+02  0.34388890041E+02  0.51100000000E-03 0. -1.
        -11    1    3    3    0    0 -0.12612365581E+01  0.29127613200E+01  0.22160003116E+01  0.38711179012E+01  0.51100000000E-03 0.  1.
         12    1    3    3    0    0 -0.94799321916E+01 -0.24381697776E-01  0.94818960229E+00  0.95272646834E+01  0.00000000000E+00 0. -1.
</event>
<event>
 7    1  0.4937359E-010  0.4778727E+02  0.7816164E-02  0.1312668E+00
        -11   -1    0    0    0    0  0.00000000000E+00  0.00000000000E+00  0.45593999997E+02  0.45594000000E+02  0.51100000000E-03 0.  1.
         11   -1    0    0    0    0 -0.00000000000E+00 -0.00000000000E+00 -0.45593999997E+02  0.45594000000E+02  0.51100000000E-03 0. -1.
    9900012    2    1    2    0    0  0.22504242381E+02  0.87350151237E+01  0.36067746337E+02  0.47787265672E+02  0.19999975505E+02 0.  0.
         12    1    1    2    0    0 -0.22504242381E+02 -0.87350151237E+01 -0.36067746337E+02  0.43400734328E+02  0.00000000000E+00 0. -1.
         11    1    3    3    0    0  0.15987459057E+02  0.40266240730E+01  0.18835363051E+02  0.25031648967E+02  0.51100000000E-03 0. -1.
        -11    1    3    3    0    0 -0.91180964239E+00  0.52660026187E+01  0.18346504742E+01  0.56504975912E+01  0.51100000000E-03 0.  1.
         12    1    3    3    0    0  0.74285929666E+01 -0.55761156806E+00  0.15397732812E+02  0.17105119114E+02  0.00000000000E+00 0. -1.
</event>
<event>
 7    1  0.4937359E-010  0.4778727E+02  0.7816164E-02  0.1312668E+00
        -11   -1    0    0    0    0  0.00000000000E+00  0.00000000000E+00  0.45593999997E+02  0.45594000000E+02  0.51100000000E-03 0.  1.
         11   -1    0    0    0    0 -0.00000000000E+00 -0.00000000000E+00 -0.45593999997E+02  0.45594000000E+02  0.51100000000E-03 0. -1.
    9900012    2    1    2    0    0  0.23518969106E+02  0.23224465463E+02  0.28126598745E+02  0.47787271194E+02  0.20000000683E+02 0.  0.
         12    1    1    2    0    0 -0.23518969106E+02 -0.23224465463E+02 -0.28126598745E+02  0.43400728806E+02  0.00000000000E+00 0. -1.
         11    1    3    3    0    0  0.54655333293E+01  0.78843273625E+01  0.20522242521E+00  0.95956651171E+01  0.51100000000E-03 0. -1.
        -11    1    3    3    0    0  0.29238811211E+01 -0.96229187677E+00  0.92659620361E+00  0.32146021919E+01  0.51100000000E-03 0.  1.
         12    1    3    3    0    0  0.15129554656E+02  0.16302429978E+02  0.26994780116E+02  0.34977003885E+02  0.00000000000E+00 0. -1.
</event>
<event>
 7    1  0.4937359E-010  0.4778728E+02  0.7816164E-02  0.1312668E+00
        -11   -1    0    0    0    0  0.00000000000E+00  0.00000000000E+00  0.45593999997E+02  0.45594000000E+02  0.51100000000E-03 0.  1.
         11   -1    0    0    0    0 -0.00000000000E+00 -0.00000000000E+00 -0.45593999997E+02  0.45594000000E+02  0.51100000000E-03 0. -1.
    9900012    2    1    2    0    0 -0.14223375130E+02  0.64705009644E-01  0.41003829073E+02  0.47787278975E+02  0.20000036161E+02 0.  0.
         12    1    1    2    0    0  0.14223375130E+02 -0.64705009644E-01 -0.41003829073E+02  0.43400721025E+02  0.00000000000E+00 0. -1.
         11    1    3    3    0    0 -0.95946316541E+01  0.32612992848E+01  0.10817894449E+02  0.14822950792E+02  0.51100000000E-03 0. -1.
        -11    1    3    3    0    0 -0.13642262906E+01 -0.76219968797E+01  0.18031052742E+02  0.19623323191E+02  0.51100000000E-03 0.  1.
        -12    1    3    3    0    0 -0.32645171853E+01  0.44254026046E+01  0.12154881882E+02  0.13341004993E+02  0.00000000000E+00 0.  1.
</event>
<event>
 7    1  0.4937359E-010  0.4778722E+02  0.7816164E-02  0.1312668E+00
        -11   -1    0    0    0    0  0.00000000000E+00  0.00000000000E+00  0.45593999997E+02  0.45594000000E+02  0.51100000000E-03 0.  1.
         11   -1    0    0    0    0 -0.00000000000E+00 -0.00000000000E+00 -0.45593999997E+02  0.45594000000E+02  0.51100000000E-03 0. -1.
    9900012    2    1    2    0    0  0.24870494975E+02 -0.12289878586E+02  0.33377308359E+02  0.47787224094E+02  0.19999785934E+02 0.  0.
         12    1    1    2    0    0 -0.24870494975E+02  0.12289878586E+02 -0.33377308359E+02  0.43400775906E+02  0.00000000000E+00 0. -1.
         11    1    3    3    0    0  0.11229132668E+02 -0.19666679559E+01  0.14026506553E+02  0.18074957529E+02  0.51100000000E-03 0. -1.
        -11    1    3    3    0    0  0.94429795611E+01 -0.17493618754E+01  0.17537709860E+02  0.19995034318E+02  0.51100000000E-03 0.  1.
         12    1    3    3    0    0  0.41983827452E+01 -0.85738487551E+01  0.18130919457E+01  0.97172322476E+01  0.00000000000E+00 0. -1.
</event>
<event>
 7    1  0.4937359E-010  0.4778728E+02  0.7816164E-02  0.1312668E+00
        -11   -1    0    0    0    0  0.00000000000E+00  0.00000000000E+00  0.45593999997E+02  0.45594000000E+02  0.51100000000E-03 0.  1.
         11   -1    0    0    0    0 -0.00000000000E+00 -0.00000000000E+00 -0.45593999997E+02  0.45594000000E+02  0.51100000000E-03 0. -1.
    9900012    2    1    2    0    0  0.16329851845E+02 -0.15148748569E+02  0.37248813993E+02  0.47787276638E+02  0.20000025503E+02 0.  0.
         12    1    1    2    0    0 -0.16329851845E+02  0.15148748569E+02 -0.37248813993E+02  0.43400723362E+02  0.00000000000E+00 0. -1.
         11    1    3    3    0    0  0.57463599683E+01 -0.24688195312E+01 -0.36000249032E+00  0.62646089117E+01  0.51100000000E-03 0. -1.
        -11    1    3    3    0    0  0.79133586475E+01 -0.69008364568E+01  0.17274600039E+02  0.20215207040E+02  0.51100000000E-03 0.  1.
         12    1    3    3    0    0  0.26701332295E+01 -0.57790925807E+01  0.20334216444E+02  0.21307460686E+02  0.00000000000E+00 0. -1.
</event>
<event>
 7    1  0.4937359E-010  0.4778727E+02  0.7816164E-02  0.1312668E+00
        -11   -1    0    0    0    0  0.00000000000E+00  0.00000000000E+00  0.45593999997E+02  0.45594000000E+02  0.51100000000E-03 0.  1.
         11   -1    0    0    0    0 -0.00000000000E+00 -0.00000000000E+00 -0.45593999997E+02  0.45594000000E+02  0.51100000000E-03 0. -1.
    9900012    2    1    2    0    0  0.42963867534E+02 -0.19173591292E+01  0.58355047150E+01  0.47787270804E+02  0.19999998903E+02 0.  0.
         12    1    1    2    0    0 -0.42963867534E+02  0.19173591292E+01 -0.58355047150E+01  0.43400729196E+02  0.00000000000E+00 0. -1.
         11    1    3    3    0    0  0.15271232416E+02  0.19392504440E+01 -0.59578309840E+01  0.16506573905E+02  0.51100000000E-03 0. -1.
        -11    1    3    3    0    0  0.17982150108E+02  0.11569348304E+01  0.79646194607E+01  0.19701050331E+02  0.51100000000E-03 0.  1.
         12    1    3    3    0    0  0.97104850090E+01 -0.50135444036E+01  0.38287162382E+01  0.11579646568E+02  0.00000000000E+00 0. -1.
</event>
<event>
 7    1  0.4937359E-010  0.4778727E+02  0.7816164E-02  0.1312668E+00
        -11   -1    0    0    0    0  0.00000000000E+00  0.00000000000E+00  0.45593999997E+02  0.45594000000E+02  0.51100000000E-03 0.  1.
         11   -1    0    0    0    0 -0.00000000000E+00 -0.00000000000E+00 -0.45593999997E+02  0.45594000000E+02  0.51100000000E-03 0. -1.
    9900012    2    1    2    0    0  0.67975176911E+01 -0.18649843685E+02  0.38595342277E+02  0.47787270032E+02  0.19999995383E+02 0.  0.
         12    1    1    2    0    0 -0.67975176911E+01  0.18649843685E+02 -0.38595342277E+02  0.43400729968E+02  0.00000000000E+00 0. -1.
         11    1    3    3    0    0  0.69516511445E+01 -0.33941588186E+01  0.20650693398E+02  0.22052140617E+02  0.51100000000E-03 0. -1.
        -11    1    3    3    0    0  0.44640071610E+01 -0.10582921875E+02  0.87721675855E+01  0.14452561010E+02  0.51100000000E-03 0.  1.
         12    1    3    3    0    0 -0.46181406144E+01 -0.46727629918E+01  0.91724812941E+01  0.11282568404E+02  0.00000000000E+00 0. -1.
</event>
<event>
 7    1  0.4937359E-010  0.4778727E+02  0.7816164E-02  0.1312668E+00
        -11   -1    0    0    0    0  0.00000000000E+00  0.00000000000E+00  0.45593999997E+02  0.45594000000E+02  0.51100000000E-03 0.  1.
         11   -1    0    0    0    0 -0.00000000000E+00 -0.00000000000E+00 -0.45593999997E+02  0.45594000000E+02  0.51100000000E-03 0. -1.
    9900012    2    1    2    0    0  0.42298286462E+01 -0.20483726915E+02  0.38028265504E+02  0.47787268486E+02  0.19999988334E+02 0.  0.
         12    1    1    2    0    0 -0.42298286462E+01  0.20483726915E+02 -0.38028265504E+02  0.43400731514E+02  0.00000000000E+00 0. -1.
         11    1    3    3    0    0  0.61716809205E+01 -0.60038768177E+01  0.25398457941E+02  0.26818237232E+02  0.51100000000E-03 0. -1.
        -11    1    3    3    0    0 -0.59645842047E+00 -0.82518128465E+00  0.53316812862E+01  0.54280302504E+01  0.51100000000E-03 0.  1.
         12    1    3    3    0    0 -0.13453938538E+01 -0.13654668813E+02  0.72981262772E+01  0.15541001003E+02  0.00000000000E+00 0. -1.
</event>
<event>
 7    1  0.4937359E-010  0.4778727E+02  0.7816164E-02  0.1312668E+00
        -11   -1    0    0    0    0  0.00000000000E+00  0.00000000000E+00  0.45593999997E+02  0.45594000000E+02  0.51100000000E-03 0.  1.
         11   -1    0    0    0    0 -0.00000000000E+00 -0.00000000000E+00 -0.45593999997E+02  0.45594000000E+02  0.51100000000E-03 0. -1.
    9900012    2    1    2    0    0  0.27405619920E+02 -0.27742935748E+02  0.19049535682E+02  0.47787270780E+02  0.19999998794E+02 0.  0.
         12    1    1    2    0    0 -0.27405619920E+02  0.27742935748E+02 -0.19049535682E+02  0.43400729220E+02  0.00000000000E+00 0. -1.
         11    1    3    3    0    0 -0.79486772321E-01 -0.82698281895E+01 -0.25454905750E-01  0.82702493702E+01  0.51100000000E-03 0. -1.
        -11    1    3    3    0    0  0.19074982514E+02 -0.10782700057E+02  0.86741391406E+01  0.23566125446E+02  0.51100000000E-03 0.  1.
         12    1    3    3    0    0  0.84101241786E+01 -0.86904075012E+01  0.10400851447E+02  0.15950895964E+02  0.00000000000E+00 0. -1.
</event>
<event>
 7    1  0.4937359E-010  0.4778727E+02  0.7816164E-02  0.1312668E+00
        -11   -1    0    0    0    0  0.00000000000E+00  0.00000000000E+00  0.45593999997E+02  0.45594000000E+02  0.51100000000E-03 0.  1.
         11   -1    0    0    0    0 -0.00000000000E+00 -0.00000000000E+00 -0.45593999997E+02  0.45594000000E+02  0.51100000000E-03 0. -1.
    9900012    2    1    2    0    0  0.84345072373E+01  0.15748419331E+02  0.39553378706E+02  0.47787269697E+02  0.19999993856E+02 0.  0.
         12    1    1    2    0    0 -0.84345072373E+01 -0.15748419331E+02 -0.39553378706E+02  0.43400730303E+02  0.00000000000E+00 0. -1.
         11    1    3    3    0    0  0.86524948538E+00 -0.30634690831E+01  0.14369481403E+02  0.14717863144E+02  0.51100000000E-03 0. -1.
        -11    1    3    3    0    0  0.29016162936E+00  0.31508248613E+01  0.84458997751E+01  0.90191526404E+01  0.51100000000E-03 0.  1.
         12    1    3    3    0    0  0.72790961226E+01  0.15661063553E+02  0.16737997528E+02  0.24050253912E+02  0.00000000000E+00 0. -1.
</event>
<event>
 7    1  0.4937359E-010  0.4778728E+02  0.7816164E-02  0.1312668E+00
        -11   -1    0    0    0    0  0.00000000000E+00  0.00000000000E+00  0.45593999997E+02  0.45594000000E+02  0.51100000000E-03 0.  1.
         11   -1    0    0    0    0 -0.00000000000E+00 -0.00000000000E+00 -0.45593999997E+02  0.45594000000E+02  0.51100000000E-03 0. -1.
    9900012    2    1    2    0    0  0.41094968770E+02 -0.10746886335E+02  0.89067670165E+01  0.47787279697E+02  0.20000039451E+02 0.  0.
         12    1    1    2    0    0 -0.41094968770E+02  0.10746886335E+02 -0.89067670165E+01  0.43400720303E+02  0.00000000000E+00 0. -1.
         11    1    3    3    0    0  0.40924641299E+01 -0.28376957323E+01 -0.22561271995E+01  0.54672561606E+01  0.51100000000E-03 0. -1.
        -11    1    3    3    0    0  0.33176719744E+01 -0.30648236973E+01  0.65806155515E+01  0.79815157034E+01  0.51100000000E-03 0.  1.
        -12    1    3    3    0    0  0.33684832666E+02 -0.48443669053E+01  0.45822786644E+01  0.34338507833E+02  0.00000000000E+00 0.  1.
</event>
<event>
 7    1  0.4937359E-010  0.4778727E+02  0.7816164E-02  0.1312668E+00
        -11   -1    0    0    0    0  0.00000000000E+00  0.00000000000E+00  0.45593999997E+02  0.45594000000E+02  0.51100000000E-03 0. -1.
         11   -1    0    0    0    0 -0.00000000000E+00 -0.00000000000E+00 -0.45593999997E+02  0.45594000000E+02  0.51100000000E-03 0.  1.
    9900012    2    1    2    0    0 -0.27113454167E+02 -0.88531677770E+01 -0.32712469541E+02  0.47787266826E+02  0.19999980769E+02 0.  0.
         12    1    1    2    0    0  0.27113454167E+02  0.88531677770E+01  0.32712469541E+02  0.43400733174E+02  0.00000000000E+00 0. -1.
         11    1    3    3    0    0 -0.25472309664E+01 -0.49101996902E+01 -0.68629648892E+01  0.88146885325E+01  0.51100000000E-03 0. -1.
        -11    1    3    3    0    0 -0.24668665251E+02 -0.14097697567E+01 -0.17584047491E+02  0.30327037812E+02  0.51100000000E-03 0.  1.
        -12    1    3    3    0    0  0.10244205044E+00 -0.25331983301E+01 -0.82654571602E+01  0.86455404817E+01  0.00000000000E+00 0.  1.
</event>
<event>
 7    1  0.4937359E-010  0.4778727E+02  0.7816164E-02  0.1312668E+00
        -11   -1    0    0    0    0  0.00000000000E+00  0.00000000000E+00  0.45593999997E+02  0.45594000000E+02  0.51100000000E-03 0.  1.
         11   -1    0    0    0    0 -0.00000000000E+00 -0.00000000000E+00 -0.45593999997E+02  0.45594000000E+02  0.51100000000E-03 0. -1.
    9900012    2    1    2    0    0 -0.34864589712E+02 -0.25401238708E+02 -0.47812564225E+01  0.47787274699E+02  0.20000016663E+02 0.  0.
         12    1    1    2    0    0  0.34864589712E+02  0.25401238708E+02  0.47812564225E+01  0.43400725301E+02  0.00000000000E+00 0. -1.
         11    1    3    3    0    0 -0.87349018136E+01 -0.74790907937E+01 -0.92088752773E+01  0.14732233128E+02  0.51100000000E-03 0. -1.
        -11    1    3    3    0    0 -0.12159058109E+02 -0.10667261052E+02  0.59609374007E+01  0.17238501310E+02  0.51100000000E-03 0.  1.
         12    1    3    3    0    0 -0.13970629789E+02 -0.72548868623E+01 -0.15333185459E+01  0.15816540262E+02  0.00000000000E+00 0. -1.
</event>
<event>
 7    1  0.4937359E-010  0.4778727E+02  0.7816164E-02  0.1312668E+00
        -11   -1    0    0    0    0  0.00000000000E+00  0.00000000000E+00  0.45593999997E+02  0.45594000000E+02  0.51100000000E-03 0.  1.
         11   -1    0    0    0    0 -0.00000000000E+00 -0.00000000000E+00 -0.45593999997E+02  0.45594000000E+02  0.51100000000E-03 0. -1.
    9900012    2    1    2    0    0 -0.29154491994E+02 -0.14615076843E+02  0.28636313054E+02  0.47787270745E+02  0.19999998635E+02 0.  0.
         12    1    1    2    0    0  0.29154491994E+02  0.14615076843E+02 -0.28636313054E+02  0.43400729255E+02  0.00000000000E+00 0. -1.
         11    1    3    3    0    0  0.21544285525E+01 -0.64616806475E-01  0.60337487448E+00  0.22382580771E+01  0.51100000000E-03 0. -1.
        -11    1    3    3    0    0 -0.27339257887E+02 -0.15873452192E+02  0.25807716364E+02  0.40809799442E+02  0.51100000000E-03 0.  1.
        -12    1    3    3    0    0 -0.39696626598E+01  0.13229921555E+01  0.22252218155E+01  0.47392132263E+01  0.00000000000E+00 0.  1.
</event>
<event>
 7    1  0.4937359E-010  0.4778728E+02  0.7816164E-02  0.1312668E+00
        -11   -1    0    0    0    0  0.00000000000E+00  0.00000000000E+00  0.45593999997E+02  0.45594000000E+02  0.51100000000E-03 0.  1.
         11   -1    0    0    0    0 -0.00000000000E+00 -0.00000000000E+00 -0.45593999997E+02  0.45594000000E+02  0.51100000000E-03 0. -1.
    9900012    2    1    2    0    0 -0.20760327385E+02 -0.34507699867E+02  0.16181766132E+02  0.47787284587E+02  0.20000061746E+02 0.  0.
         12    1    1    2    0    0  0.20760327385E+02  0.34507699867E+02 -0.16181766132E+02  0.43400715413E+02  0.00000000000E+00 0. -1.
         11    1    3    3    0    0 -0.32427558538E+01 -0.29091267492E+01  0.13620296188E+01  0.45643848341E+01  0.51100000000E-03 0. -1.
        -11    1    3    3    0    0 -0.19709251061E+02 -0.29593581009E+02  0.17122812359E+02  0.39464228330E+02  0.51100000000E-03 0.  1.
        -12    1    3    3    0    0  0.21916795297E+01 -0.20049921086E+01 -0.23030758458E+01  0.37586714233E+01  0.00000000000E+00 0.  1.
</event>
<event>
 7    1  0.4937359E-010  0.4778726E+02  0.7816164E-02  0.1312668E+00
        -11   -1    0    0    0    0  0.00000000000E+00  0.00000000000E+00  0.45593999997E+02  0.45594000000E+02  0.51100000000E-03 0.  1.
         11   -1    0    0    0    0 -0.00000000000E+00 -0.00000000000E+00 -0.45593999997E+02  0.45594000000E+02  0.51100000000E-03 0. -1.
    9900012    2    1    2    0    0  0.88839869618E+00 -0.40839752063E+02 -0.14661148029E+02  0.47787264265E+02  0.19999969089E+02 0.  0.
         12    1    1    2    0    0 -0.88839869618E+00  0.40839752063E+02  0.14661148029E+02  0.43400735735E+02  0.00000000000E+00 0. -1.
         11    1    3    3    0    0  0.28151129075E+01 -0.27944450677E+01 -0.24936643243E+01  0.46853117229E+01  0.51100000000E-03 0. -1.
        -11    1    3    3    0    0 -0.57603929362E+01 -0.80048333770E+01 -0.76532158771E+01  0.12483236667E+02  0.51100000000E-03 0.  1.
        -12    1    3    3    0    0  0.38336787249E+01 -0.30040473618E+02 -0.45142678279E+01  0.30618715874E+02  0.00000000000E+00 0.  1.
</event>
<event>
 7    1  0.4937359E-010  0.4778727E+02  0.7816164E-02  0.1312668E+00
        -11   -1    0    0    0    0  0.00000000000E+00  0.00000000000E+00  0.45593999997E+02  0.45594000000E+02  0.51100000000E-03 0. -1.
         11   -1    0    0    0    0 -0.00000000000E+00 -0.00000000000E+00 -0.45593999997E+02  0.45594000000E+02  0.51100000000E-03 0.  1.
    9900012    2    1    2    0    0 -0.41819276207E+02  0.71715755022E+01 -0.91290682656E+01  0.47787271377E+02  0.20000001515E+02 0.  0.
         12    1    1    2    0    0  0.41819276207E+02 -0.71715755022E+01  0.91290682656E+01  0.43400728623E+02  0.00000000000E+00 0. -1.
         11    1    3    3    0    0 -0.16586303869E+01  0.30415668070E+01 -0.51033475288E+01  0.61681715007E+01  0.51100000000E-03 0. -1.
        -11    1    3    3    0    0 -0.27159902088E+02 -0.12744877318E+01 -0.94252891133E+00  0.27206119925E+02  0.51100000000E-03 0.  1.
        -12    1    3    3    0    0 -0.13000743732E+02  0.54044964270E+01 -0.30831918255E+01  0.14412979951E+02  0.00000000000E+00 0.  1.
</event>
<event>
 7    1  0.4937359E-010  0.4778728E+02  0.7816164E-02  0.1312668E+00
        -11   -1    0    0    0    0  0.00000000000E+00  0.00000000000E+00  0.45593999997E+02  0.45594000000E+02  0.51100000000E-03 0.  1.
         11   -1    0    0    0    0 -0.00000000000E+00 -0.00000000000E+00 -0.45593999997E+02  0.45594000000E+02  0.51100000000E-03 0. -1.
    9900012    2    1    2    0    0  0.24965124523E+01  0.23262091437E+02  0.36554955847E+02  0.47787282616E+02  0.20000052761E+02 0.  0.
         12    1    1    2    0    0 -0.24965124523E+01 -0.23262091437E+02 -0.36554955847E+02  0.43400717384E+02  0.00000000000E+00 0. -1.
         11    1    3    3    0    0 -0.18934561588E+01  0.58586924538E+01  0.28310060654E+01  0.67767284952E+01  0.51100000000E-03 0. -1.
        -11    1    3    3    0    0  0.84641991917E+01  0.14422361547E+02  0.18339778553E+02  0.24819239678E+02  0.51100000000E-03 0.  1.
        -12    1    3    3    0    0 -0.40742305806E+01  0.29810374363E+01  0.15384171228E+02  0.16191314443E+02  0.00000000000E+00 0.  1.
</event>
<event>
 7    1  0.4937359E-010  0.4778727E+02  0.7816164E-02  0.1312668E+00
        -11   -1    0    0    0    0  0.00000000000E+00  0.00000000000E+00  0.45593999997E+02  0.45594000000E+02  0.51100000000E-03 0.  1.
         11   -1    0    0    0    0 -0.00000000000E+00 -0.00000000000E+00 -0.45593999997E+02  0.45594000000E+02  0.51100000000E-03 0. -1.
    9900012    2    1    2    0    0 -0.34667439989E+02  0.12388726398E+02  0.22985019573E+02  0.47787273486E+02  0.20000011134E+02 0.  0.
         12    1    1    2    0    0  0.34667439989E+02 -0.12388726398E+02 -0.22985019573E+02  0.43400726514E+02  0.00000000000E+00 0. -1.
         11    1    3    3    0    0 -0.29943180811E+01 -0.43917237771E+01  0.43281685578E+01  0.68546496505E+01  0.51100000000E-03 0. -1.
        -11    1    3    3    0    0 -0.24145502108E+02  0.12464803888E+02  0.17131343987E+02  0.32122570805E+02  0.51100000000E-03 0.  1.
        -12    1    3    3    0    0 -0.75276197994E+01  0.43156462872E+01  0.15255070277E+01  0.88100530311E+01  0.00000000000E+00 0.  1.
</event>
<event>
 7    1  0.4937359E-010  0.4778727E+02  0.7816164E-02  0.1312668E+00
        -11   -1    0    0    0    0  0.00000000000E+00  0.00000000000E+00  0.45593999997E+02  0.45594000000E+02  0.51100000000E-03 0.  1.
         11   -1    0    0    0    0 -0.00000000000E+00 -0.00000000000E+00 -0.45593999997E+02  0.45594000000E+02  0.51100000000E-03 0. -1.
    9900012    2    1    2    0    0 -0.25291114812E+01 -0.30215704421E+02  0.31052181131E+02  0.47787272454E+02  0.20000006428E+02 0.  0.
         12    1    1    2    0    0  0.25291114812E+01  0.30215704421E+02 -0.31052181131E+02  0.43400727546E+02  0.00000000000E+00 0. -1.
         11    1    3    3    0    0  0.29383003373E+00 -0.46892528621E+01 -0.25503768813E+01  0.53460126254E+01  0.51100000000E-03 0. -1.
        -11    1    3    3    0    0  0.14726957179E+00 -0.14478129311E+02  0.19221462263E+02  0.24064549206E+02  0.51100000000E-03 0.  1.
         12    1    3    3    0    0 -0.29702110867E+01 -0.11048322248E+02  0.14381095749E+02  0.18376710623E+02  0.00000000000E+00 0. -1.
</event>
<event>
 7    1  0.4937359E-010  0.4778727E+02  0.7816164E-02  0.1312668E+00
        -11   -1    0    0    0    0  0.00000000000E+00  0.00000000000E+00  0.45593999997E+02  0.45594000000E+02  0.51100000000E-03 0.  1.
         11   -1    0    0    0    0 -0.00000000000E+00 -0.00000000000E+00 -0.45593999997E+02  0.45594000000E+02  0.51100000000E-03 0. -1.
    9900012    2    1    2    0    0 -0.41594024706E+02 -0.47800402659E+01  0.11432903410E+02  0.47787274700E+02  0.20000016666E+02 0.  0.
         12    1    1    2    0    0  0.41594024706E+02  0.47800402659E+01 -0.11432903410E+02  0.43400725300E+02  0.00000000000E+00 0. -1.
         11    1    3    3    0    0 -0.22365174047E+02 -0.78395240666E+01  0.18628160383E+01  0.23772446899E+02  0.51100000000E-03 0. -1.
        -11    1    3    3    0    0 -0.63707586535E+01  0.30802634723E+00 -0.18045121721E+01  0.66285526695E+01  0.51100000000E-03 0.  1.
         12    1    3    3    0    0 -0.12858092006E+02  0.27514574535E+01  0.11374599544E+02  0.17386275131E+02  0.00000000000E+00 0. -1.
</event>
<event>
 7    1  0.4937359E-010  0.4778725E+02  0.7816164E-02  0.1312668E+00
        -11   -1    0    0    0    0  0.00000000000E+00  0.00000000000E+00  0.45593999997E+02  0.45594000000E+02  0.51100000000E-03 0.  1.
         11   -1    0    0    0    0 -0.00000000000E+00 -0.00000000000E+00 -0.45593999997E+02  0.45594000000E+02  0.51100000000E-03 0. -1.
    9900012    2    1    2    0    0  0.31876918004E+02  0.15869510263E+02  0.24812207333E+02  0.47787252424E+02  0.19999915103E+02 0.  0.
         12    1    1    2    0    0 -0.31876918004E+02 -0.15869510263E+02 -0.24812207333E+02  0.43400747576E+02  0.00000000000E+00 0. -1.
         11    1    3    3    0    0  0.10631131422E+02 -0.67827357954E+00  0.15794099955E+02  0.19050842606E+02  0.51100000000E-03 0. -1.
        -11    1    3    3    0    0  0.68181149547E+01  0.49044084533E+01  0.73670450545E+00  0.84310525797E+01  0.51100000000E-03 0.  1.
         12    1    3    3    0    0  0.14427671628E+02  0.11643375389E+02  0.82814028723E+01  0.20305357238E+02  0.00000000000E+00 0. -1.
</event>
<event>
 7    1  0.4937359E-010  0.4778727E+02  0.7816164E-02  0.1312668E+00
        -11   -1    0    0    0    0  0.00000000000E+00  0.00000000000E+00  0.45593999997E+02  0.45594000000E+02  0.51100000000E-03 0. -1.
         11   -1    0    0    0    0 -0.00000000000E+00 -0.00000000000E+00 -0.45593999997E+02  0.45594000000E+02  0.51100000000E-03 0.  1.
    9900012    2    1    2    0    0 -0.18077614437E+02  0.18912772204E+02 -0.34628456610E+02  0.47787273009E+02  0.20000008957E+02 0.  0.
         12    1    1    2    0    0  0.18077614437E+02 -0.18912772204E+02  0.34628456610E+02  0.43400726991E+02  0.00000000000E+00 0. -1.
         11    1    3    3    0    0 -0.43996416657E+01  0.25370267869E+01 -0.19423608495E+02  0.20076601280E+02  0.51100000000E-03 0.  1.
        -11    1    3    3    0    0 -0.11904082892E+02  0.14938807683E+02 -0.90323858325E+01  0.21129580180E+02  0.51100000000E-03 0. -1.
         12    1    3    3    0    0 -0.17738898791E+01  0.14369377339E+01 -0.61724622822E+01  0.65810915492E+01  0.00000000000E+00 0. -1.
</event>
<event>
 7    1  0.4937359E-010  0.4778726E+02  0.7816164E-02  0.1312668E+00
        -11   -1    0    0    0    0  0.00000000000E+00  0.00000000000E+00  0.45593999997E+02  0.45594000000E+02  0.51100000000E-03 0. -1.
         11   -1    0    0    0    0 -0.00000000000E+00 -0.00000000000E+00 -0.45593999997E+02  0.45594000000E+02  0.51100000000E-03 0.  1.
    9900012    2    1    2    0    0  0.20659171408E+02 -0.33784066944E+02 -0.17761177000E+02  0.47787263244E+02  0.19999964436E+02 0.  0.
         12    1    1    2    0    0 -0.20659171408E+02  0.33784066944E+02  0.17761177000E+02  0.43400736756E+02  0.00000000000E+00 0. -1.
         11    1    3    3    0    0  0.51449494982E+01 -0.14815312622E+02 -0.15294911718E+02  0.21906581617E+02  0.51100000000E-03 0. -1.
        -11    1    3    3    0    0  0.70646032087E+01 -0.30802753418E+01  0.70251997593E-01  0.77072466083E+01  0.51100000000E-03 0.  1.
        -12    1    3    3    0    0  0.84496187010E+01 -0.15888478980E+02 -0.25365172803E+01  0.18173435019E+02  0.00000000000E+00 0.  1.
</event>
<event>
 7    1  0.4937359E-010  0.4778727E+02  0.7816164E-02  0.1312668E+00
        -11   -1    0    0    0    0  0.00000000000E+00  0.00000000000E+00  0.45593999997E+02  0.45594000000E+02  0.51100000000E-03 0.  1.
         11   -1    0    0    0    0 -0.00000000000E+00 -0.00000000000E+00 -0.45593999997E+02  0.45594000000E+02  0.51100000000E-03 0. -1.
    9900012    2    1    2    0    0  0.33807415054E+02 -0.22992702147E+02  0.14560828477E+02  0.47787269700E+02  0.19999993869E+02 0.  0.
         12    1    1    2    0    0 -0.33807415054E+02  0.22992702147E+02 -0.14560828477E+02  0.43400730300E+02  0.00000000000E+00 0. -1.
         11    1    3    3    0    0  0.32819759351E+00  0.36627280951E+00  0.26233244476E+01  0.26690261988E+01  0.51100000000E-03 0. -1.
        -11    1    3    3    0    0  0.31611756324E+02 -0.23829467826E+02  0.14281545605E+02  0.42084548469E+02  0.51100000000E-03 0.  1.
        -12    1    3    3    0    0  0.18674611364E+01  0.47049286905E+00 -0.23440415755E+01  0.30336950314E+01  0.00000000000E+00 0.  1.
</event>
<event>
 7    1  0.4937359E-010  0.4778728E+02  0.7816164E-02  0.1312668E+00
        -11   -1    0    0    0    0  0.00000000000E+00  0.00000000000E+00  0.45593999997E+02  0.45594000000E+02  0.51100000000E-03 0.  1.
         11   -1    0    0    0    0 -0.00000000000E+00 -0.00000000000E+00 -0.45593999997E+02  0.45594000000E+02  0.51100000000E-03 0. -1.
    9900012    2    1    2    0    0  0.73983990149E+01  0.40739605095E+02  0.13006572360E+02  0.47787278164E+02  0.20000032462E+02 0.  0.
         12    1    1    2    0    0 -0.73983990149E+01 -0.40739605095E+02 -0.13006572360E+02  0.43400721836E+02  0.00000000000E+00 0. -1.
         11    1    3    3    0    0 -0.16605748191E+01  0.76674631763E+00 -0.22319742783E+01  0.28856746326E+01  0.51100000000E-03 0. -1.
        -11    1    3    3    0    0  0.27595584401E+01  0.31706083967E+02  0.12039270621E+02  0.34026974016E+02  0.51100000000E-03 0.  1.
         12    1    3    3    0    0  0.62994153939E+01  0.82667748105E+01  0.31992760176E+01  0.10874629516E+02  0.00000000000E+00 0. -1.
</event>
<event>
 7    1  0.5054690E-010  0.4778727E+02  0.7816164E-02  0.1312668E+00
        -11   -1    0    0    0    0  0.00000000000E+00  0.00000000000E+00  0.45593999997E+02  0.45594000000E+02  0.51100000000E-03 0. -1.
         11   -1    0    0    0    0 -0.00000000000E+00 -0.00000000000E+00 -0.45593999997E+02  0.45594000000E+02  0.51100000000E-03 0.  1.
    9900012    2    1    2    0    0 -0.41700847179E+02  0.31571087680E+01 -0.11605828465E+02  0.47787271371E+02  0.20000001489E+02 0.  0.
         12    1    1    2    0    0  0.41700847179E+02 -0.31571087680E+01  0.11605828465E+02  0.43400728629E+02  0.00000000000E+00 0. -1.
         11    1    3    3    0    0 -0.30018260669E+01  0.51195071707E+01 -0.26983288329E+01  0.65193015084E+01  0.51100000000E-03 0. -1.
        -11    1    3    3    0    0 -0.28599119571E+02  0.17707511045E+01 -0.25586961112E+01  0.28767900962E+02  0.51100000000E-03 0.  1.
        -12    1    3    3    0    0 -0.10099901541E+02 -0.37331495071E+01 -0.63488035206E+01  0.12500068901E+02  0.00000000000E+00 0.  1.
</event>
<event>
 7    1  0.4937359E-010  0.4778727E+02  0.7816164E-02  0.1312668E+00
        -11   -1    0    0    0    0  0.00000000000E+00  0.00000000000E+00  0.45593999997E+02  0.45594000000E+02  0.51100000000E-03 0.  1.
         11   -1    0    0    0    0 -0.00000000000E+00 -0.00000000000E+00 -0.45593999997E+02  0.45594000000E+02  0.51100000000E-03 0. -1.
    9900012    2    1    2    0    0 -0.30399063270E+02 -0.10612753986E+01  0.30957939560E+02  0.47787269880E+02  0.19999994692E+02 0.  0.
         12    1    1    2    0    0  0.30399063270E+02  0.10612753986E+01 -0.30957939560E+02  0.43400730120E+02  0.00000000000E+00 0. -1.
         11    1    3    3    0    0 -0.51389784686E+01 -0.44676254311E+00  0.16504869708E+02  0.17292178024E+02  0.51100000000E-03 0. -1.
        -11    1    3    3    0    0 -0.63046563356E+01  0.25885351579E+01  0.72903976608E+01  0.99799350743E+01  0.51100000000E-03 0.  1.
         12    1    3    3    0    0 -0.18955428466E+02 -0.32030480134E+01  0.71626721911E+01  0.20515156782E+02  0.00000000000E+00 0. -1.
</event>
<event>
 7    1  0.4937359E-010  0.4778727E+02  0.7816164E-02  0.1312668E+00
        -11   -1    0    0    0    0  0.00000000000E+00  0.00000000000E+00  0.45593999997E+02  0.45594000000E+02  0.51100000000E-03 0.  1.
         11   -1    0    0    0    0 -0.00000000000E+00 -0.00000000000E+00 -0.45593999997E+02  0.45594000000E+02  0.51100000000E-03 0. -1.
    9900012    2    1    2    0    0  0.43154830903E+02  0.41847485817E+00  0.45944191476E+01  0.47787271449E+02  0.20000001845E+02 0.  0.
         12    1    1    2    0    0 -0.43154830903E+02 -0.41847485817E+00 -0.45944191476E+01  0.43400728551E+02  0.00000000000E+00 0. -1.
         11    1    3    3    0    0  0.19442268367E+02 -0.35754356360E+01  0.45128098001E+01  0.20276858528E+02  0.51100000000E-03 0. -1.
        -11    1    3    3    0    0  0.19985422500E+00  0.39211649677E+01 -0.68272952653E+00  0.39851720518E+01  0.51100000000E-03 0.  1.
        -12    1    3    3    0    0  0.23512708311E+02  0.72745526449E-01  0.76433887402E+00  0.23525240869E+02  0.00000000000E+00 0.  1.
</event>
<event>
 7    1  0.4937359E-010  0.4778727E+02  0.7816164E-02  0.1312668E+00
        -11   -1    0    0    0    0  0.00000000000E+00  0.00000000000E+00  0.45593999997E+02  0.45594000000E+02  0.51100000000E-03 0.  1.
         11   -1    0    0    0    0 -0.00000000000E+00 -0.00000000000E+00 -0.45593999997E+02  0.45594000000E+02  0.51100000000E-03 0. -1.
    9900012    2    1    2    0    0  0.33273905826E+02  0.23338124723E+02  0.15225073439E+02  0.47787265723E+02  0.19999975737E+02 0.  0.
         12    1    1    2    0    0 -0.33273905826E+02 -0.23338124723E+02 -0.15225073439E+02  0.43400734277E+02  0.00000000000E+00 0. -1.
         11    1    3    3    0    0  0.10491763312E+02 -0.73989753652E+00  0.87719581234E+01  0.13695685282E+02  0.51100000000E-03 0. -1.
        -11    1    3    3    0    0  0.16248447135E+02  0.13925154306E+02  0.39201353906E+01  0.21755215891E+02  0.51100000000E-03 0.  1.
         12    1    3    3    0    0  0.65336953796E+01  0.10152867954E+02  0.25329799255E+01  0.12336364550E+02  0.00000000000E+00 0. -1.
</event>
<event>
 7    1  0.4937359E-010  0.4778727E+02  0.7816164E-02  0.1312668E+00
        -11   -1    0    0    0    0  0.00000000000E+00  0.00000000000E+00  0.45593999997E+02  0.45594000000E+02  0.51100000000E-03 0.  1.
         11   -1    0    0    0    0 -0.00000000000E+00 -0.00000000000E+00 -0.45593999997E+02  0.45594000000E+02  0.51100000000E-03 0. -1.
    9900012    2    1    2    0    0 -0.25611543002E+02  0.62332931311E+01  0.34479244183E+02  0.47787270079E+02  0.19999995600E+02 0.  0.
         12    1    1    2    0    0  0.25611543002E+02 -0.62332931311E+01 -0.34479244183E+02  0.43400729921E+02  0.00000000000E+00 0. -1.
         11    1    3    3    0    0 -0.12196577801E+02 -0.41776332117E+01  0.99389402067E+01  0.16278564495E+02  0.51100000000E-03 0. -1.
        -11    1    3    3    0    0 -0.36883144207E+01  0.91188748307E+01  0.10593584458E+02  0.14456194983E+02  0.51100000000E-03 0.  1.
        -12    1    3    3    0    0 -0.97266507800E+01  0.12920515121E+01  0.13946719519E+02  0.17052510602E+02  0.00000000000E+00 0.  1.
</event>
<event>
 7    1  0.5881515E-010  0.4778727E+02  0.7816164E-02  0.1312668E+00
        -11   -1    0    0    0    0  0.00000000000E+00  0.00000000000E+00  0.45593999997E+02  0.45594000000E+02  0.51100000000E-03 0. -1.
         11   -1    0    0    0    0 -0.00000000000E+00 -0.00000000000E+00 -0.45593999997E+02  0.45594000000E+02  0.51100000000E-03 0.  1.
    9900012    2    1    2    0    0 -0.20131900830E+02  0.34902795461E+02 -0.16128387608E+02  0.47787269029E+02  0.19999990810E+02 0.  0.
         12    1    1    2    0    0  0.20131900830E+02 -0.34902795461E+02  0.16128387608E+02  0.43400730971E+02  0.00000000000E+00 0. -1.
         11    1    3    3    0    0 -0.16821463041E+02  0.26847598735E+02 -0.66926325914E+01  0.32381267856E+02  0.51100000000E-03 0. -1.
        -11    1    3    3    0    0 -0.24668638816E+01  0.84707758047E+01 -0.10675854579E+02  0.13849669000E+02  0.51100000000E-03 0.  1.
         12    1    3    3    0    0 -0.84357390757E+00 -0.41557907920E+00  0.12400995626E+01  0.15563321734E+01  0.00000000000E+00 0. -1.
</event>
<event>
 7    1  0.4937359E-010  0.4778727E+02  0.7816164E-02  0.1312668E+00
        -11   -1    0    0    0    0  0.00000000000E+00  0.00000000000E+00  0.45593999997E+02  0.45594000000E+02  0.51100000000E-03 0.  1.
         11   -1    0    0    0    0 -0.00000000000E+00 -0.00000000000E+00 -0.45593999997E+02  0.45594000000E+02  0.51100000000E-03 0. -1.
    9900012    2    1    2    0    0 -0.34737267270E+02  0.25770372961E+02  0.35823955755E+01  0.47787269384E+02  0.19999992428E+02 0.  0.
         12    1    1    2    0    0  0.34737267270E+02 -0.25770372961E+02 -0.35823955755E+01  0.43400730616E+02  0.00000000000E+00 0. -1.
         11    1    3    3    0    0 -0.30354663100E+01 -0.15213387807E+01 -0.13293489329E+01  0.36463264049E+01  0.51100000000E-03 0. -1.
        -11    1    3    3    0    0 -0.27066460981E+02  0.24440862875E+02  0.87229972098E+01  0.37497196812E+02  0.51100000000E-03 0.  1.
        -12    1    3    3    0    0 -0.46353399792E+01  0.28508488662E+01 -0.38112527014E+01  0.66437461672E+01  0.00000000000E+00 0.  1.
</event>
<event>
 7    1  0.4937359E-010  0.4778727E+02  0.7816164E-02  0.1312668E+00
        -11   -1    0    0    0    0  0.00000000000E+00  0.00000000000E+00  0.45593999997E+02  0.45594000000E+02  0.51100000000E-03 0.  1.
         11   -1    0    0    0    0 -0.00000000000E+00 -0.00000000000E+00 -0.45593999997E+02  0.45594000000E+02  0.51100000000E-03 0. -1.
    9900012    2    1    2    0    0 -0.18863882409E+02  0.32047647881E+02  0.22376892966E+02  0.47787272667E+02  0.20000007396E+02 0.  0.
         12    1    1    2    0    0  0.18863882409E+02 -0.32047647881E+02 -0.22376892966E+02  0.43400727333E+02  0.00000000000E+00 0. -1.
         11    1    3    3    0    0 -0.14231791359E+02  0.81025884129E+01  0.10308976043E+02  0.19351248321E+02  0.51100000000E-03 0. -1.
        -11    1    3    3    0    0 -0.16775287816E+01  0.13337038742E+02  0.11006190978E+02  0.17373167395E+02  0.51100000000E-03 0.  1.
         12    1    3    3    0    0 -0.29545622682E+01  0.10608020726E+02  0.10617259450E+01  0.11062856950E+02  0.00000000000E+00 0. -1.
</event>
<event>
 7    1  0.4937359E-010  0.4778727E+02  0.7816164E-02  0.1312668E+00
        -11   -1    0    0    0    0  0.00000000000E+00  0.00000000000E+00  0.45593999997E+02  0.45594000000E+02  0.51100000000E-03 0. -1.
         11   -1    0    0    0    0 -0.00000000000E+00 -0.00000000000E+00 -0.45593999997E+02  0.45594000000E+02  0.51100000000E-03 0.  1.
    9900012    2    1    2    0    0  0.29181536152E+02 -0.26005244948E+02 -0.18862353254E+02  0.47787272042E+02  0.20000004549E+02 0.  0.
         12    1    1    2    0    0 -0.29181536152E+02  0.26005244948E+02  0.18862353254E+02  0.43400727958E+02  0.00000000000E+00 0. -1.
         11    1    3    3    0    0  0.12035381515E+02 -0.19341661206E+02 -0.88213268259E+01  0.24428795993E+02  0.51100000000E-03 0. -1.
        -11    1    3    3    0    0  0.45145008392E+01 -0.70574433577E+01 -0.30490550808E+01  0.89154339054E+01  0.51100000000E-03 0.  1.
         12    1    3    3    0    0  0.12631653798E+02  0.39385961551E+00 -0.69919713468E+01  0.14443042144E+02  0.00000000000E+00 0. -1.
</event>
<event>
 7    1  0.4937359E-010  0.4778727E+02  0.7816164E-02  0.1312668E+00
        -11   -1    0    0    0    0  0.00000000000E+00  0.00000000000E+00  0.45593999997E+02  0.45594000000E+02  0.51100000000E-03 0.  1.
         11   -1    0    0    0    0 -0.00000000000E+00 -0.00000000000E+00 -0.45593999997E+02  0.45594000000E+02  0.51100000000E-03 0. -1.
    9900012    2    1    2    0    0 -0.15773785981E+02  0.24154032682E+02  0.32425201483E+02  0.47787270626E+02  0.19999998092E+02 0.  0.
         12    1    1    2    0    0  0.15773785981E+02 -0.24154032682E+02 -0.32425201483E+02  0.43400729374E+02  0.00000000000E+00 0. -1.
         11    1    3    3    0    0 -0.59030577534E+01  0.80268898353E+01  0.16297411193E+01  0.10096192730E+02  0.51100000000E-03 0. -1.
        -11    1    3    3    0    0 -0.66147086679E+01  0.17097998425E+02  0.25856678246E+02  0.31696430889E+02  0.51100000000E-03 0.  1.
        -12    1    3    3    0    0 -0.32560195601E+01 -0.97085557886E+00  0.49387821174E+01  0.59946470066E+01  0.00000000000E+00 0.  1.
</event>
<event>
 7    1  0.4937359E-010  0.4778728E+02  0.7816164E-02  0.1312668E+00
        -11   -1    0    0    0    0  0.00000000000E+00  0.00000000000E+00  0.45593999997E+02  0.45594000000E+02  0.51100000000E-03 0. -1.
         11   -1    0    0    0    0 -0.00000000000E+00 -0.00000000000E+00 -0.45593999997E+02  0.45594000000E+02  0.51100000000E-03 0.  1.
    9900012    2    1    2    0    0 -0.17156254802E+02 -0.24534246243E+02 -0.31422220844E+02  0.47787282491E+02  0.20000052190E+02 0.  0.
         12    1    1    2    0    0  0.17156254802E+02  0.24534246243E+02  0.31422220844E+02  0.43400717509E+02  0.00000000000E+00 0. -1.
         11    1    3    3    0    0 -0.88853052444E+01 -0.10541220859E+02 -0.20988718511E+02  0.25111596753E+02  0.51100000000E-03 0. -1.
        -11    1    3    3    0    0 -0.45728799436E+01 -0.11691858276E+02 -0.12620958318E+02  0.17801667620E+02  0.51100000000E-03 0.  1.
         12    1    3    3    0    0 -0.36980696142E+01 -0.23011671081E+01  0.21874559854E+01  0.48740181184E+01  0.00000000000E+00 0. -1.
</event>
<event>
 7    1  0.4937359E-010  0.4778727E+02  0.7816164E-02  0.1312668E+00
        -11   -1    0    0    0    0  0.00000000000E+00  0.00000000000E+00  0.45593999997E+02  0.45594000000E+02  0.51100000000E-03 0.  1.
         11   -1    0    0    0    0 -0.00000000000E+00 -0.00000000000E+00 -0.45593999997E+02  0.45594000000E+02  0.51100000000E-03 0. -1.
    9900012    2    1    2    0    0 -0.27657955439E+02 -0.50102553928E+00  0.33442635561E+02  0.47787269604E+02  0.19999993432E+02 0.  0.
         12    1    1    2    0    0  0.27657955439E+02  0.50102553928E+00 -0.33442635561E+02  0.43400730396E+02  0.00000000000E+00 0. -1.
         11    1    3    3    0    0 -0.40380630003E+01  0.55175093928E+01  0.43022451776E+01  0.80782533089E+01  0.51100000000E-03 0. -1.
        -11    1    3    3    0    0 -0.14524762487E+02  0.17170203460E+01  0.12571348113E+02  0.19286152489E+02  0.51100000000E-03 0.  1.
         12    1    3    3    0    0 -0.90951299516E+01 -0.77355552780E+01  0.16569042270E+02  0.20422863806E+02  0.00000000000E+00 0. -1.
</event>
<event>
 7    1  0.4937359E-010  0.4778727E+02  0.7816164E-02  0.1312668E+00
        -11   -1    0    0    0    0  0.00000000000E+00  0.00000000000E+00  0.45593999997E+02  0.45594000000E+02  0.51100000000E-03 0.  1.
         11   -1    0    0    0    0 -0.00000000000E+00 -0.00000000000E+00 -0.45593999997E+02  0.45594000000E+02  0.51100000000E-03 0. -1.
    9900012    2    1    2    0    0 -0.12246560603E+02 -0.32999205636E+00  0.41635753004E+02  0.47787273398E+02  0.20000010733E+02 0.  0.
         12    1    1    2    0    0  0.12246560603E+02  0.32999205636E+00 -0.41635753004E+02  0.43400726602E+02  0.00000000000E+00 0. -1.
         11    1    3    3    0    0 -0.20309928393E+01  0.56324736857E+00 -0.13519107461E+01  0.25039653428E+01  0.51100000000E-03 0. -1.
        -11    1    3    3    0    0 -0.11833923447E+02 -0.18657109649E+00  0.31298576435E+02  0.33461581553E+02  0.51100000000E-03 0.  1.
        -12    1    3    3    0    0  0.16183556836E+01 -0.70666832844E+00  0.11689087315E+02  0.11821726502E+02  0.00000000000E+00 0.  1.
</event>
<event>
 7    1  0.4937359E-010  0.4778727E+02  0.7816164E-02  0.1312668E+00
        -11   -1    0    0    0    0  0.00000000000E+00  0.00000000000E+00  0.45593999997E+02  0.45594000000E+02  0.51100000000E-03 0. -1.
         11   -1    0    0    0    0 -0.00000000000E+00 -0.00000000000E+00 -0.45593999997E+02  0.45594000000E+02  0.51100000000E-03 0.  1.
    9900012    2    1    2    0    0 -0.19427855402E+02  0.31873874542E+02 -0.22141317056E+02  0.47787269996E+02  0.19999995221E+02 0.  0.
         12    1    1    2    0    0  0.19427855402E+02 -0.31873874542E+02  0.22141317056E+02  0.43400730004E+02  0.00000000000E+00 0. -1.
         11    1    3    3    0    0  0.10940663084E+01  0.10203762406E+01 -0.42608433512E+00  0.15555374895E+01  0.51100000000E-03 0. -1.
        -11    1    3    3    0    0  0.19852931112E+01  0.86499871405E+01 -0.24435411061E+01  0.92051376778E+01  0.51100000000E-03 0.  1.
        -12    1    3    3    0    0 -0.22507214822E+02  0.22203511161E+02 -0.19271691615E+02  0.37026594829E+02  0.00000000000E+00 0.  1.
</event>
<event>
 7    1  0.4937359E-010  0.4778727E+02  0.7816164E-02  0.1312668E+00
        -11   -1    0    0    0    0  0.00000000000E+00  0.00000000000E+00  0.45593999997E+02  0.45594000000E+02  0.51100000000E-03 0. -1.
         11   -1    0    0    0    0 -0.00000000000E+00 -0.00000000000E+00 -0.45593999997E+02  0.45594000000E+02  0.51100000000E-03 0.  1.
    9900012    2    1    2    0    0 -0.43213983726E+01  0.41369131067E+02  0.12391274360E+02  0.47787272248E+02  0.20000005489E+02 0.  0.
         12    1    1    2    0    0  0.43213983726E+01 -0.41369131067E+02 -0.12391274360E+02  0.43400727752E+02  0.00000000000E+00 0. -1.
         11    1    3    3    0    0  0.17541730706E+01  0.33904358332E+01 -0.14023023103E+01  0.40667714874E+01  0.51100000000E-03 0. -1.
        -11    1    3    3    0    0  0.39338060222E+00  0.33148560306E+02  0.90798218218E+01  0.34371862959E+02  0.51100000000E-03 0.  1.
        -12    1    3    3    0    0 -0.64689520454E+01  0.48301349272E+01  0.47137548490E+01  0.93486378022E+01  0.00000000000E+00 0.  1.
</event>
<event>
 7    1  0.4937359E-010  0.4778727E+02  0.7816164E-02  0.1312668E+00
        -11   -1    0    0    0    0  0.00000000000E+00  0.00000000000E+00  0.45593999997E+02  0.45594000000E+02  0.51100000000E-03 0. -1.
         11   -1    0    0    0    0 -0.00000000000E+00 -0.00000000000E+00 -0.45593999997E+02  0.45594000000E+02  0.51100000000E-03 0.  1.
    9900012    2    1    2    0    0  0.41645731222E+02  0.93596604446E+01 -0.78519330897E+01  0.47787273902E+02  0.20000013027E+02 0.  0.
         12    1    1    2    0    0 -0.41645731222E+02 -0.93596604446E+01  0.78519330897E+01  0.43400726098E+02  0.00000000000E+00 0. -1.
         11    1    3    3    0    0  0.11795202829E+02  0.70009535675E+01 -0.64402707076E+01  0.15153126664E+02  0.51100000000E-03 0. -1.
        -11    1    3    3    0    0  0.32828963672E+01 -0.90180134292E+00  0.40756548359E+01  0.53105194494E+01  0.51100000000E-03 0.  1.
        -12    1    3    3    0    0  0.26567632025E+02  0.32605082200E+01 -0.54873172180E+01  0.27323627789E+02  0.00000000000E+00 0.  1.
</event>
<event>
 7    1  0.4937359E-010  0.4778727E+02  0.7816164E-02  0.1312668E+00
        -11   -1    0    0    0    0  0.00000000000E+00  0.00000000000E+00  0.45593999997E+02  0.45594000000E+02  0.51100000000E-03 0.  1.
         11   -1    0    0    0    0 -0.00000000000E+00 -0.00000000000E+00 -0.45593999997E+02  0.45594000000E+02  0.51100000000E-03 0. -1.
    9900012    2    1    2    0    0  0.38761618239E+02 -0.16620503123E+02  0.10243003668E+02  0.47787270781E+02  0.19999998799E+02 0.  0.
         12    1    1    2    0    0 -0.38761618239E+02  0.16620503123E+02 -0.10243003668E+02  0.43400729219E+02  0.00000000000E+00 0. -1.
         11    1    3    3    0    0  0.17891238837E+02 -0.15063584776E+02  0.16606238988E+01  0.23447082664E+02  0.51100000000E-03 0. -1.
        -11    1    3    3    0    0  0.21007710027E+02 -0.25542154201E+01  0.66865425502E+01  0.22193642075E+02  0.51100000000E-03 0.  1.
         12    1    3    3    0    0 -0.13733062543E+00  0.99729707330E+00  0.18958372186E+01  0.21465460425E+01  0.00000000000E+00 0. -1.
</event>
<event>
 7    1  0.7528697E-010  0.4778728E+02  0.7816164E-02  0.1312668E+00
        -11   -1    0    0    0    0  0.00000000000E+00  0.00000000000E+00  0.45593999997E+02  0.45594000000E+02  0.51100000000E-03 0. -1.
         11   -1    0    0    0    0 -0.00000000000E+00 -0.00000000000E+00 -0.45593999997E+02  0.45594000000E+02  0.51100000000E-03 0.  1.
    9900012    2    1    2    0    0 -0.22395917460E+02  0.58678972016E+00 -0.37171242193E+02  0.47787277803E+02  0.20000030815E+02 0.  0.
         12    1    1    2    0    0  0.22395917460E+02 -0.58678972016E+00  0.37171242193E+02  0.43400722197E+02  0.00000000000E+00 0. -1.
         11    1    3    3    0    0  0.92336128592E+00 -0.23272384692E+01 -0.42623943786E+00  0.25397470891E+01  0.51100000000E-03 0. -1.
        -11    1    3    3    0    0 -0.22039228717E+02  0.52492520865E+01 -0.27520503766E+02  0.35646323481E+02  0.51100000000E-03 0.  1.
        -12    1    3    3    0    0 -0.12800500288E+01 -0.23352238971E+01 -0.92244989896E+01  0.96012072332E+01  0.00000000000E+00 0.  1.
</event>
<event>
 7    1  0.4937359E-010  0.4778727E+02  0.7816164E-02  0.1312668E+00
        -11   -1    0    0    0    0  0.00000000000E+00  0.00000000000E+00  0.45593999997E+02  0.45594000000E+02  0.51100000000E-03 0.  1.
         11   -1    0    0    0    0 -0.00000000000E+00 -0.00000000000E+00 -0.45593999997E+02  0.45594000000E+02  0.51100000000E-03 0. -1.
    9900012    2    1    2    0    0 -0.27286670620E+02 -0.12887508564E+02  0.31192516383E+02  0.47787270181E+02  0.19999996064E+02 0.  0.
         12    1    1    2    0    0  0.27286670620E+02  0.12887508564E+02 -0.31192516383E+02  0.43400729819E+02  0.00000000000E+00 0. -1.
         11    1    3    3    0    0  0.77208798525E+00 -0.13114750825E+01 -0.72406295745E+00  0.16853350339E+01  0.51100000000E-03 0. -1.
        -11    1    3    3    0    0 -0.22201921924E+02 -0.23758888585E+01  0.20475210868E+02  0.30295287511E+02  0.51100000000E-03 0.  1.
        -12    1    3    3    0    0 -0.58568366806E+01 -0.92001446232E+01  0.11441368472E+02  0.15806647637E+02  0.00000000000E+00 0.  1.
</event>
<event>
 7    1  0.4937359E-010  0.4778728E+02  0.7816164E-02  0.1312668E+00
        -11   -1    0    0    0    0  0.00000000000E+00  0.00000000000E+00  0.45593999997E+02  0.45594000000E+02  0.51100000000E-03 0. -1.
         11   -1    0    0    0    0 -0.00000000000E+00 -0.00000000000E+00 -0.45593999997E+02  0.45594000000E+02  0.51100000000E-03 0.  1.
    9900012    2    1    2    0    0 -0.29472926363E+02 -0.15217772682E+02 -0.27989071686E+02  0.47787284250E+02  0.20000060208E+02 0.  0.
         12    1    1    2    0    0  0.29472926363E+02  0.15217772682E+02  0.27989071686E+02  0.43400715750E+02  0.00000000000E+00 0. -1.
         11    1    3    3    0    0 -0.10977184973E+01 -0.30112457861E+00  0.98050969283E+00  0.15023519661E+01  0.51100000000E-03 0. -1.
        -11    1    3    3    0    0 -0.28035223934E+02 -0.17530328540E+02 -0.28402643523E+02  0.43588947672E+02  0.51100000000E-03 0.  1.
        -12    1    3    3    0    0 -0.33998393123E+00  0.26136804362E+01 -0.56693785546E+00  0.26959846120E+01  0.00000000000E+00 0.  1.
</event>
<event>
 7    1  0.4937359E-010  0.4778727E+02  0.7816164E-02  0.1312668E+00
        -11   -1    0    0    0    0  0.00000000000E+00  0.00000000000E+00  0.45593999997E+02  0.45594000000E+02  0.51100000000E-03 0.  1.
         11   -1    0    0    0    0 -0.00000000000E+00 -0.00000000000E+00 -0.45593999997E+02  0.45594000000E+02  0.51100000000E-03 0. -1.
    9900012    2    1    2    0    0  0.73174687257E+01 -0.71237740201E+01  0.42182102798E+02  0.47787270728E+02  0.19999998559E+02 0.  0.
         12    1    1    2    0    0 -0.73174687257E+01  0.71237740201E+01 -0.42182102798E+02  0.43400729272E+02  0.00000000000E+00 0. -1.
         11    1    3    3    0    0 -0.92878493374E+00  0.15929082288E+01  0.32614404525E+01  0.37465974116E+01  0.51100000000E-03 0. -1.
        -11    1    3    3    0    0 -0.33825589729E+01  0.24504648047E+01  0.52482820702E+01  0.67075291958E+01  0.51100000000E-03 0.  1.
        -12    1    3    3    0    0  0.11628812632E+02 -0.11167147054E+02  0.33672380275E+02  0.37333144121E+02  0.00000000000E+00 0.  1.
</event>
<event>
 7    1  0.4937359E-010  0.4778727E+02  0.7816164E-02  0.1312668E+00
        -11   -1    0    0    0    0  0.00000000000E+00  0.00000000000E+00  0.45593999997E+02  0.45594000000E+02  0.51100000000E-03 0. -1.
         11   -1    0    0    0    0 -0.00000000000E+00 -0.00000000000E+00 -0.45593999997E+02  0.45594000000E+02  0.51100000000E-03 0.  1.
    9900012    2    1    2    0    0 -0.30313251529E+02 -0.23012405254E+02 -0.20860470595E+02  0.47787271351E+02  0.20000001399E+02 0.  0.
         12    1    1    2    0    0  0.30313251529E+02  0.23012405254E+02  0.20860470595E+02  0.43400728649E+02  0.00000000000E+00 0. -1.
         11    1    3    3    0    0  0.24898887314E+01 -0.34992190076E+01 -0.27452115409E+01  0.50970840903E+01  0.51100000000E-03 0. -1.
        -11    1    3    3    0    0 -0.20868351351E+02 -0.13852235914E+02 -0.88896335242E+01  0.26578151034E+02  0.51100000000E-03 0.  1.
         12    1    3    3    0    0 -0.11934788908E+02 -0.56609503321E+01 -0.92256255299E+01  0.16112036227E+02  0.00000000000E+00 0. -1.
</event>
<event>
 7    1  0.4937359E-010  0.4778727E+02  0.7816164E-02  0.1312668E+00
        -11   -1    0    0    0    0  0.00000000000E+00  0.00000000000E+00  0.45593999997E+02  0.45594000000E+02  0.51100000000E-03 0. -1.
         11   -1    0    0    0    0 -0.00000000000E+00 -0.00000000000E+00 -0.45593999997E+02  0.45594000000E+02  0.51100000000E-03 0.  1.
    9900012    2    1    2    0    0  0.21044403413E+02  0.37891079277E+02 -0.22411009598E+01  0.47787270314E+02  0.19999996669E+02 0.  0.
         12    1    1    2    0    0 -0.21044403413E+02 -0.37891079277E+02  0.22411009598E+01  0.43400729686E+02  0.00000000000E+00 0. -1.
         11    1    3    3    0    0 -0.32802971177E+00  0.43263453363E+01  0.38291477423E+01  0.57868160636E+01  0.51100000000E-03 0. -1.
        -11    1    3    3    0    0  0.21794432117E+02  0.32625439257E+02 -0.77849876915E+01  0.40000282394E+02  0.51100000000E-03 0.  1.
        -12    1    3    3    0    0 -0.42199899205E+00  0.93929468403E+00  0.17147389895E+01  0.20001718563E+01  0.00000000000E+00 0.  1.
</event>
<event>
 7    1  0.4937359E-010  0.4778728E+02  0.7816164E-02  0.1312668E+00
        -11   -1    0    0    0    0  0.00000000000E+00  0.00000000000E+00  0.45593999997E+02  0.45594000000E+02  0.51100000000E-03 0.  1.
         11   -1    0    0    0    0 -0.00000000000E+00 -0.00000000000E+00 -0.45593999997E+02  0.45594000000E+02  0.51100000000E-03 0. -1.
    9900012    2    1    2    0    0  0.14464417360E+02  0.35588565641E+01  0.40764421801E+02  0.47787275186E+02  0.20000018884E+02 0.  0.
         12    1    1    2    0    0 -0.14464417360E+02 -0.35588565641E+01 -0.40764421801E+02  0.43400724814E+02  0.00000000000E+00 0. -1.
         11    1    3    3    0    0  0.89251157792E+01  0.48525472802E+00  0.14993321712E+02  0.17455453590E+02  0.51100000000E-03 0. -1.
        -11    1    3    3    0    0 -0.84065180250E+00 -0.23862582798E+01  0.19960528477E+02  0.20120229158E+02  0.51100000000E-03 0.  1.
        -12    1    3    3    0    0  0.63799533836E+01  0.54598601159E+01  0.58105716118E+01  0.10211592438E+02  0.00000000000E+00 0.  1.
</event>
<event>
 7    1  0.4937359E-010  0.4778726E+02  0.7816164E-02  0.1312668E+00
        -11   -1    0    0    0    0  0.00000000000E+00  0.00000000000E+00  0.45593999997E+02  0.45594000000E+02  0.51100000000E-03 0. -1.
         11   -1    0    0    0    0 -0.00000000000E+00 -0.00000000000E+00 -0.45593999997E+02  0.45594000000E+02  0.51100000000E-03 0.  1.
    9900012    2    1    2    0    0 -0.77227887054E+00 -0.43238227611E+02 -0.36719894298E+01  0.47787259822E+02  0.19999948832E+02 0.  0.
         12    1    1    2    0    0  0.77227887054E+00  0.43238227611E+02  0.36719894298E+01  0.43400740178E+02  0.00000000000E+00 0. -1.
         11    1    3    3    0    0 -0.43775861553E+01 -0.16037143395E+02 -0.63074973627E+01  0.17780262992E+02  0.51100000000E-03 0. -1.
        -11    1    3    3    0    0  0.43158427348E+01 -0.31785763766E+01  0.26379210413E+01  0.59739830913E+01  0.51100000000E-03 0.  1.
        -12    1    3    3    0    0 -0.71053545005E+00 -0.24022507840E+02 -0.24131084187E-02  0.24033013739E+02  0.00000000000E+00 0.  1.
</event>
<event>
 7    1  0.4937359E-010  0.4778727E+02  0.7816164E-02  0.1312668E+00
        -11   -1    0    0    0    0  0.00000000000E+00  0.00000000000E+00  0.45593999997E+02  0.45594000000E+02  0.51100000000E-03 0. -1.
         11   -1    0    0    0    0 -0.00000000000E+00 -0.00000000000E+00 -0.45593999997E+02  0.45594000000E+02  0.51100000000E-03 0.  1.
    9900012    2    1    2    0    0  0.10664903999E+01  0.22200582555E+02 -0.37277607809E+02  0.47787270611E+02  0.19999998022E+02 0.  0.
         12    1    1    2    0    0 -0.10664903999E+01 -0.22200582555E+02  0.37277607809E+02  0.43400729389E+02  0.00000000000E+00 0. -1.
         11    1    3    3    0    0 -0.56486340883E+01  0.52405870547E+01 -0.10527464233E+02  0.13046007940E+02  0.51100000000E-03 0. -1.
        -11    1    3    3    0    0  0.82902139401E+01  0.41692417612E+01 -0.11112089797E+02  0.14477180801E+02  0.51100000000E-03 0.  1.
        -12    1    3    3    0    0 -0.15750894518E+01  0.12790753739E+02 -0.15638053779E+02  0.20264081869E+02  0.00000000000E+00 0.  1.
</event>
<event>
 7    1  0.4937359E-010  0.4778727E+02  0.7816164E-02  0.1312668E+00
        -11   -1    0    0    0    0  0.00000000000E+00  0.00000000000E+00  0.45593999997E+02  0.45594000000E+02  0.51100000000E-03 0.  1.
         11   -1    0    0    0    0 -0.00000000000E+00 -0.00000000000E+00 -0.45593999997E+02  0.45594000000E+02  0.51100000000E-03 0. -1.
    9900012    2    1    2    0    0  0.58489768675E+00 -0.42900111136E+02  0.65469120970E+01  0.47787266149E+02  0.19999977680E+02 0.  0.
         12    1    1    2    0    0 -0.58489768675E+00  0.42900111136E+02 -0.65469120970E+01  0.43400733851E+02  0.00000000000E+00 0. -1.
         11    1    3    3    0    0 -0.23277418079E+01 -0.17832373582E+01  0.46655213098E+01  0.55104815355E+01  0.51100000000E-03 0. -1.
        -11    1    3    3    0    0  0.60511589883E+01 -0.30884648498E+02  0.41946107735E+00  0.31474656246E+02  0.51100000000E-03 0.  1.
        -12    1    3    3    0    0 -0.31385194937E+01 -0.10232225280E+02  0.14619297098E+01  0.10802128367E+02  0.00000000000E+00 0.  1.
</event>
<event>
 7    1  0.4937359E-010  0.4778727E+02  0.7816164E-02  0.1312668E+00
        -11   -1    0    0    0    0  0.00000000000E+00  0.00000000000E+00  0.45593999997E+02  0.45594000000E+02  0.51100000000E-03 0.  1.
         11   -1    0    0    0    0 -0.00000000000E+00 -0.00000000000E+00 -0.45593999997E+02  0.45594000000E+02  0.51100000000E-03 0. -1.
    9900012    2    1    2    0    0  0.28390916208E+02 -0.16136975465E+02  0.28586308421E+02  0.47787272709E+02  0.20000007588E+02 0.  0.
         12    1    1    2    0    0 -0.28390916208E+02  0.16136975465E+02 -0.28586308421E+02  0.43400727291E+02  0.00000000000E+00 0. -1.
         11    1    3    3    0    0  0.31981666687E+01 -0.10766818604E+02  0.77587100819E+01  0.13651015907E+02  0.51100000000E-03 0. -1.
        -11    1    3    3    0    0  0.19557337550E+02 -0.62148895348E+01  0.19449492854E+02  0.28273610956E+02  0.51100000000E-03 0.  1.
        -12    1    3    3    0    0  0.56354119898E+01  0.84473267356E+00  0.13781054843E+01  0.58626458455E+01  0.00000000000E+00 0.  1.
</event>
<event>
 7    1  0.4937359E-010  0.4778727E+02  0.7816164E-02  0.1312668E+00
        -11   -1    0    0    0    0  0.00000000000E+00  0.00000000000E+00  0.45593999997E+02  0.45594000000E+02  0.51100000000E-03 0.  1.
         11   -1    0    0    0    0 -0.00000000000E+00 -0.00000000000E+00 -0.45593999997E+02  0.45594000000E+02  0.51100000000E-03 0. -1.
    9900012    2    1    2    0    0  0.80970369866E+01 -0.32032639217E+02  0.28141985063E+02  0.47787270669E+02  0.19999998288E+02 0.  0.
         12    1    1    2    0    0 -0.80970369866E+01  0.32032639217E+02 -0.28141985063E+02  0.43400729331E+02  0.00000000000E+00 0. -1.
         11    1    3    3    0    0  0.70827532598E+01 -0.19432210518E+01  0.88692890504E+01  0.11515458754E+02  0.51100000000E-03 0. -1.
        -11    1    3    3    0    0 -0.17178013060E+01 -0.22862470207E+02  0.13291783183E+02  0.26501224231E+02  0.51100000000E-03 0.  1.
        -12    1    3    3    0    0  0.27320850329E+01 -0.72269479590E+01  0.59809128292E+01  0.97705876845E+01  0.00000000000E+00 0.  1.
</event>
<event>
 7    1  0.4937359E-010  0.4778727E+02  0.7816164E-02  0.1312668E+00
        -11   -1    0    0    0    0  0.00000000000E+00  0.00000000000E+00  0.45593999997E+02  0.45594000000E+02  0.51100000000E-03 0.  1.
         11   -1    0    0    0    0 -0.00000000000E+00 -0.00000000000E+00 -0.45593999997E+02  0.45594000000E+02  0.51100000000E-03 0. -1.
    9900012    2    1    2    0    0 -0.74477502340E+01  0.14198693623E+02  0.40330528334E+02  0.47787269593E+02  0.19999993382E+02 0.  0.
         12    1    1    2    0    0  0.74477502340E+01 -0.14198693623E+02 -0.40330528334E+02  0.43400730407E+02  0.00000000000E+00 0. -1.
         11    1    3    3    0    0 -0.85804379591E+01  0.12773202768E+01  0.71196919344E+01  0.11222543213E+02  0.51100000000E-03 0. -1.
        -11    1    3    3    0    0 -0.33640954194E+01  0.77003528173E+01  0.17831470257E+02  0.19712277983E+02  0.51100000000E-03 0.  1.
         12    1    3    3    0    0  0.44967831445E+01  0.52210205292E+01  0.15379366143E+02  0.16852448397E+02  0.00000000000E+00 0. -1.
</event>
<event>
 7    1  0.4937359E-010  0.4778727E+02  0.7816164E-02  0.1312668E+00
        -11   -1    0    0    0    0  0.00000000000E+00  0.00000000000E+00  0.45593999997E+02  0.45594000000E+02  0.51100000000E-03 0. -1.
         11   -1    0    0    0    0 -0.00000000000E+00 -0.00000000000E+00 -0.45593999997E+02  0.45594000000E+02  0.51100000000E-03 0.  1.
    9900012    2    1    2    0    0 -0.14378379601E+02 -0.35517730473E+02 -0.20380784333E+02  0.47787270192E+02  0.19999996112E+02 0.  0.
         12    1    1    2    0    0  0.14378379601E+02  0.35517730473E+02  0.20380784333E+02  0.43400729808E+02  0.00000000000E+00 0. -1.
         11    1    3    3    0    0 -0.30363289064E+01 -0.40222195091E+01 -0.96523726858E+01  0.10888794320E+02  0.51100000000E-03 0. -1.
        -11    1    3    3    0    0 -0.44510315959E+01 -0.25704826505E+02 -0.97276641107E+01  0.27842004907E+02  0.51100000000E-03 0.  1.
        -12    1    3    3    0    0 -0.68910190985E+01 -0.57906844583E+01 -0.10007475362E+01  0.90564709651E+01  0.00000000000E+00 0.  1.
</event>
<event>
 7    1  0.4937359E-010  0.4778727E+02  0.7816164E-02  0.1312668E+00
        -11   -1    0    0    0    0  0.00000000000E+00  0.00000000000E+00  0.45593999997E+02  0.45594000000E+02  0.51100000000E-03 0. -1.
         11   -1    0    0    0    0 -0.00000000000E+00 -0.00000000000E+00 -0.45593999997E+02  0.45594000000E+02  0.51100000000E-03 0.  1.
    9900012    2    1    2    0    0  0.16542770588E+02 -0.40121043798E+02  0.51209536651E+00  0.47787266644E+02  0.19999979939E+02 0.  0.
         12    1    1    2    0    0 -0.16542770588E+02  0.40121043798E+02 -0.51209536651E+00  0.43400733356E+02  0.00000000000E+00 0. -1.
         11    1    3    3    0    0 -0.92557653666E+00 -0.24300524809E+01 -0.36148667566E+01  0.44529887620E+01  0.51100000000E-03 0. -1.
        -11    1    3    3    0    0  0.17934599779E+02 -0.27049955646E+02  0.24003658628E+01  0.32543996777E+02  0.51100000000E-03 0.  1.
         12    1    3    3    0    0 -0.46625265477E+00 -0.10641035671E+02  0.17265962603E+01  0.10790281106E+02  0.00000000000E+00 0. -1.
</event>
<event>
 7    1  0.4937359E-010  0.4778727E+02  0.7816164E-02  0.1312668E+00
        -11   -1    0    0    0    0  0.00000000000E+00  0.00000000000E+00  0.45593999997E+02  0.45594000000E+02  0.51100000000E-03 0. -1.
         11   -1    0    0    0    0 -0.00000000000E+00 -0.00000000000E+00 -0.45593999997E+02  0.45594000000E+02  0.51100000000E-03 0.  1.
    9900012    2    1    2    0    0 -0.18738030672E+01  0.43668603475E+01 -0.43139801785E+02  0.47787272987E+02  0.20000008855E+02 0.  0.
         12    1    1    2    0    0  0.18738030672E+01 -0.43668603475E+01  0.43139801785E+02  0.43400727013E+02  0.00000000000E+00 0. -1.
         11    1    3    3    0    0  0.50385463777E+01  0.30218363474E+01 -0.46472177484E+01  0.74909997713E+01  0.51100000000E-03 0. -1.
        -11    1    3    3    0    0 -0.49517882531E+01 -0.31388839501E+01 -0.29314226303E+02  0.29894759798E+02  0.51100000000E-03 0.  1.
         12    1    3    3    0    0 -0.19605611917E+01  0.44839079502E+01 -0.91783577333E+01  0.10401513417E+02  0.00000000000E+00 0. -1.
</event>
<event>
 7    1  0.4937359E-010  0.4778727E+02  0.7816164E-02  0.1312668E+00
        -11   -1    0    0    0    0  0.00000000000E+00  0.00000000000E+00  0.45593999997E+02  0.45594000000E+02  0.51100000000E-03 0.  1.
         11   -1    0    0    0    0 -0.00000000000E+00 -0.00000000000E+00 -0.45593999997E+02  0.45594000000E+02  0.51100000000E-03 0. -1.
    9900012    2    1    2    0    0 -0.39765814953E+02 -0.10702611374E+02  0.13702453861E+02  0.47787272231E+02  0.20000005410E+02 0.  0.
         12    1    1    2    0    0  0.39765814953E+02  0.10702611374E+02 -0.13702453861E+02  0.43400727769E+02  0.00000000000E+00 0. -1.
         11    1    3    3    0    0 -0.39451050490E+01 -0.85117740315E+01  0.39503949883E+01  0.10179379737E+02  0.51100000000E-03 0. -1.
        -11    1    3    3    0    0 -0.25950363142E+02 -0.40852487728E+01  0.71805809584E+01  0.27233643676E+02  0.51100000000E-03 0.  1.
         12    1    3    3    0    0 -0.98703467617E+01  0.18944114300E+01  0.25714779139E+01  0.10374248817E+02  0.00000000000E+00 0. -1.
</event>
<event>
 7    1  0.4937359E-010  0.4778728E+02  0.7816164E-02  0.1312668E+00
        -11   -1    0    0    0    0  0.00000000000E+00  0.00000000000E+00  0.45593999997E+02  0.45594000000E+02  0.51100000000E-03 0. -1.
         11   -1    0    0    0    0 -0.00000000000E+00 -0.00000000000E+00 -0.45593999997E+02  0.45594000000E+02  0.51100000000E-03 0.  1.
    9900012    2    1    2    0    0  0.34485889751E+01 -0.33689992656E+02  0.27142481165E+02  0.47787278176E+02  0.20000032513E+02 0.  0.
         12    1    1    2    0    0 -0.34485889751E+01  0.33689992656E+02 -0.27142481165E+02  0.43400721824E+02  0.00000000000E+00 0. -1.
         11    1    3    3    0    0  0.19993583164E+01 -0.18695114149E+01 -0.22706076920E+01  0.35564260375E+01  0.51100000000E-03 0. -1.
        -11    1    3    3    0    0 -0.10591590431E+01 -0.22782577954E+02  0.25077897162E+02  0.33897914426E+02  0.51100000000E-03 0.  1.
         12    1    3    3    0    0  0.25083897018E+01 -0.90379032874E+01  0.43351916949E+01  0.10332937712E+02  0.00000000000E+00 0. -1.
</event>
<event>
 7    1  0.6232447E-010  0.4778727E+02  0.7816164E-02  0.1312668E+00
        -11   -1    0    0    0    0  0.00000000000E+00  0.00000000000E+00  0.45593999997E+02  0.45594000000E+02  0.51100000000E-03 0. -1.
         11   -1    0    0    0    0 -0.00000000000E+00 -0.00000000000E+00 -0.45593999997E+02  0.45594000000E+02  0.51100000000E-03 0.  1.
    9900012    2    1    2    0    0  0.43357518290E+02 -0.89163022531E+00  0.17187150834E+01  0.47787269842E+02  0.19999994516E+02 0.  0.
         12    1    1    2    0    0 -0.43357518290E+02  0.89163022531E+00 -0.17187150834E+01  0.43400730158E+02  0.00000000000E+00 0. -1.
         11    1    3    3    0    0  0.42980026032E+01  0.32695705794E+01  0.53356802512E+01  0.75916007637E+01  0.51100000000E-03 0.  1.
        -11    1    3    3    0    0  0.20553653079E+02 -0.10312910985E+01 -0.55855397065E+01  0.21324035038E+02  0.51100000000E-03 0. -1.
         12    1    3    3    0    0  0.18505862608E+02 -0.31299097062E+01  0.19685745387E+01  0.18871634040E+02  0.00000000000E+00 0. -1.
</event>
<event>
 7    1  0.4937359E-010  0.4778727E+02  0.7816164E-02  0.1312668E+00
        -11   -1    0    0    0    0  0.00000000000E+00  0.00000000000E+00  0.45593999997E+02  0.45594000000E+02  0.51100000000E-03 0.  1.
         11   -1    0    0    0    0 -0.00000000000E+00 -0.00000000000E+00 -0.45593999997E+02  0.45594000000E+02  0.51100000000E-03 0. -1.
    9900012    2    1    2    0    0 -0.22815279871E+02  0.11276246552E+02  0.35155834453E+02  0.47787269269E+02  0.19999991907E+02 0.  0.
         12    1    1    2    0    0  0.22815279871E+02 -0.11276246552E+02 -0.35155834453E+02  0.43400730731E+02  0.00000000000E+00 0. -1.
         11    1    3    3    0    0 -0.53410250268E+01  0.17575622959E+01  0.51463735749E+00  0.56462753591E+01  0.51100000000E-03 0. -1.
        -11    1    3    3    0    0 -0.15743496984E+02  0.11318670188E+02  0.34577514879E+02  0.39643089279E+02  0.51100000000E-03 0.  1.
        -12    1    3    3    0    0 -0.17307578594E+01 -0.17999859320E+01  0.63682216849E-01  0.24979046315E+01  0.00000000000E+00 0.  1.
</event>
<event>
 7    1  0.4937359E-010  0.4778727E+02  0.7816164E-02  0.1312668E+00
        -11   -1    0    0    0    0  0.00000000000E+00  0.00000000000E+00  0.45593999997E+02  0.45594000000E+02  0.51100000000E-03 0.  1.
         11   -1    0    0    0    0 -0.00000000000E+00 -0.00000000000E+00 -0.45593999997E+02  0.45594000000E+02  0.51100000000E-03 0. -1.
    9900012    2    1    2    0    0 -0.16550957015E+02  0.26434148336E+02  0.30181531596E+02  0.47787271598E+02  0.20000002523E+02 0.  0.
         12    1    1    2    0    0  0.16550957015E+02 -0.26434148336E+02 -0.30181531596E+02  0.43400728402E+02  0.00000000000E+00 0. -1.
         11    1    3    3    0    0 -0.19835808183E+01  0.11696399008E+02  0.19425472884E+02  0.22761575948E+02  0.51100000000E-03 0. -1.
        -11    1    3    3    0    0 -0.15566609212E+02  0.13919286245E+02  0.87533542968E+01  0.22642594013E+02  0.51100000000E-03 0.  1.
        -12    1    3    3    0    0  0.99923301526E+00  0.81846308288E+00  0.20027044153E+01  0.23831016369E+01  0.00000000000E+00 0.  1.
</event>
<event>
 7    1  0.4937359E-010  0.4778727E+02  0.7816164E-02  0.1312668E+00
        -11   -1    0    0    0    0  0.00000000000E+00  0.00000000000E+00  0.45593999997E+02  0.45594000000E+02  0.51100000000E-03 0. -1.
         11   -1    0    0    0    0 -0.00000000000E+00 -0.00000000000E+00 -0.45593999997E+02  0.45594000000E+02  0.51100000000E-03 0.  1.
    9900012    2    1    2    0    0 -0.20851182728E+02 -0.30014125571E+02 -0.23409482141E+02  0.47787269487E+02  0.19999992897E+02 0.  0.
         12    1    1    2    0    0  0.20851182728E+02  0.30014125571E+02  0.23409482141E+02  0.43400730513E+02  0.00000000000E+00 0. -1.
         11    1    3    3    0    0  0.89866864501E+00  0.27179363780E+00  0.10545917683E+01  0.14119635881E+01  0.51100000000E-03 0. -1.
        -11    1    3    3    0    0 -0.21619041054E+02 -0.23393030398E+02 -0.23100025860E+02  0.39347528541E+02  0.51100000000E-03 0.  1.
        -12    1    3    3    0    0 -0.13081031946E+00 -0.68928888114E+01 -0.13640480493E+01  0.70277773575E+01  0.00000000000E+00 0.  1.
</event>
<event>
 7    1  0.4937359E-010  0.4778727E+02  0.7816164E-02  0.1312668E+00
        -11   -1    0    0    0    0  0.00000000000E+00  0.00000000000E+00  0.45593999997E+02  0.45594000000E+02  0.51100000000E-03 0.  1.
         11   -1    0    0    0    0 -0.00000000000E+00 -0.00000000000E+00 -0.45593999997E+02  0.45594000000E+02  0.51100000000E-03 0. -1.
    9900012    2    1    2    0    0 -0.21619523076E+02  0.27531655301E+02  0.25655942096E+02  0.47787272051E+02  0.20000004589E+02 0.  0.
         12    1    1    2    0    0  0.21619523076E+02 -0.27531655301E+02 -0.25655942096E+02  0.43400727949E+02  0.00000000000E+00 0. -1.
         11    1    3    3    0    0 -0.17641517179E+02  0.29475743707E+02  0.19634364098E+02  0.39567042463E+02  0.51100000000E-03 0. -1.
        -11    1    3    3    0    0 -0.12797911473E-01  0.42529788138E+00  0.21542116582E+01  0.21958301856E+01  0.51100000000E-03 0.  1.
         12    1    3    3    0    0 -0.39652079856E+01 -0.23693862878E+01  0.38673663404E+01  0.60243994025E+01  0.00000000000E+00 0. -1.
</event>
<event>
 7    1  0.4937359E-010  0.4778727E+02  0.7816164E-02  0.1312668E+00
        -11   -1    0    0    0    0  0.00000000000E+00  0.00000000000E+00  0.45593999997E+02  0.45594000000E+02  0.51100000000E-03 0.  1.
         11   -1    0    0    0    0 -0.00000000000E+00 -0.00000000000E+00 -0.45593999997E+02  0.45594000000E+02  0.51100000000E-03 0. -1.
    9900012    2    1    2    0    0  0.35232181556E+02 -0.42729167839E+01  0.24981171133E+02  0.47787270211E+02  0.19999996199E+02 0.  0.
         12    1    1    2    0    0 -0.35232181556E+02  0.42729167839E+01 -0.24981171133E+02  0.43400729789E+02  0.00000000000E+00 0. -1.
         11    1    3    3    0    0  0.68328612954E+01 -0.83262480652E+01  0.10946064841E+02  0.15356781436E+02  0.51100000000E-03 0. -1.
        -11    1    3    3    0    0  0.55348464368E+01 -0.13246985606E+01  0.35535665020E+01  0.67094848164E+01  0.51100000000E-03 0.  1.
         12    1    3    3    0    0  0.22864473824E+02  0.53780298420E+01  0.10481539791E+02  0.25721003958E+02  0.00000000000E+00 0. -1.
</event>
<event>
 7    1  0.4937359E-010  0.4778727E+02  0.7816164E-02  0.1312668E+00
        -11   -1    0    0    0    0  0.00000000000E+00  0.00000000000E+00  0.45593999997E+02  0.45594000000E+02  0.51100000000E-03 0.  1.
         11   -1    0    0    0    0 -0.00000000000E+00 -0.00000000000E+00 -0.45593999997E+02  0.45594000000E+02  0.51100000000E-03 0. -1.
    9900012    2    1    2    0    0 -0.34041437807E+02 -0.20906403052E+02  0.16962487981E+02  0.47787272183E+02  0.20000005191E+02 0.  0.
         12    1    1    2    0    0  0.34041437807E+02  0.20906403052E+02 -0.16962487981E+02  0.43400727817E+02  0.00000000000E+00 0. -1.
         11    1    3    3    0    0 -0.11093912891E+01 -0.67506958841E+01 -0.61277968631E-01  0.68415202406E+01  0.51100000000E-03 0. -1.
        -11    1    3    3    0    0 -0.13350089275E+02 -0.10558862539E+02  0.52353060205E+01  0.17807944608E+02  0.51100000000E-03 0.  1.
         12    1    3    3    0    0 -0.19581957243E+02 -0.35968446296E+01  0.11788459930E+02  0.23137807335E+02  0.00000000000E+00 0. -1.
</event>
<event>
 7    1  0.4937359E-010  0.4778727E+02  0.7816164E-02  0.1312668E+00
        -11   -1    0    0    0    0  0.00000000000E+00  0.00000000000E+00  0.45593999997E+02  0.45594000000E+02  0.51100000000E-03 0.  1.
         11   -1    0    0    0    0 -0.00000000000E+00 -0.00000000000E+00 -0.45593999997E+02  0.45594000000E+02  0.51100000000E-03 0. -1.
    9900012    2    1    2    0    0 -0.84637278215E+01  0.32305586970E+02  0.27718904516E+02  0.47787270678E+02  0.19999998331E+02 0.  0.
         12    1    1    2    0    0  0.84637278215E+01 -0.32305586970E+02 -0.27718904516E+02  0.43400729322E+02  0.00000000000E+00 0. -1.
         11    1    3    3    0    0 -0.12608636067E+01  0.61913728845E+01  0.12932431226E+00  0.63197784983E+01  0.51100000000E-03 0. -1.
        -11    1    3    3    0    0 -0.48548466536E+01  0.24222672609E+02  0.29035929520E+02  0.38123386624E+02  0.51100000000E-03 0.  1.
        -12    1    3    3    0    0 -0.23480175612E+01  0.18915414767E+01 -0.14463493163E+01  0.33441055561E+01  0.00000000000E+00 0.  1.
</event>
<event>
 7    1  0.4937359E-010  0.4778727E+02  0.7816164E-02  0.1312668E+00
        -11   -1    0    0    0    0  0.00000000000E+00  0.00000000000E+00  0.45593999997E+02  0.45594000000E+02  0.51100000000E-03 0. -1.
         11   -1    0    0    0    0 -0.00000000000E+00 -0.00000000000E+00 -0.45593999997E+02  0.45594000000E+02  0.51100000000E-03 0.  1.
    9900012    2    1    2    0    0  0.43044557751E+02 -0.51651996833E+01 -0.20272885708E+01  0.47787272602E+02  0.20000007101E+02 0.  0.
         12    1    1    2    0    0 -0.43044557751E+02  0.51651996833E+01  0.20272885708E+01  0.43400727398E+02  0.00000000000E+00 0. -1.
         11    1    3    3    0    0  0.65457633850E+01  0.39836381406E+01 -0.10794006508E+01  0.77383135859E+01  0.51100000000E-03 0. -1.
        -11    1    3    3    0    0  0.36105309800E+02 -0.98100157537E+01  0.15388297487E+01  0.37445931716E+02  0.51100000000E-03 0.  1.
        -12    1    3    3    0    0  0.39348456593E+00  0.66117792981E+00 -0.24867176687E+01  0.26030272995E+01  0.00000000000E+00 0.  1.
</event>
<event>
 7    1  0.4937359E-010  0.4778726E+02  0.7816164E-02  0.1312668E+00
        -11   -1    0    0    0    0  0.00000000000E+00  0.00000000000E+00  0.45593999997E+02  0.45594000000E+02  0.51100000000E-03 0.  1.
         11   -1    0    0    0    0 -0.00000000000E+00 -0.00000000000E+00 -0.45593999997E+02  0.45594000000E+02  0.51100000000E-03 0. -1.
    9900012    2    1    2    0    0 -0.26000339742E+02  0.15588918129E+02  0.31057881014E+02  0.47787262584E+02  0.19999961427E+02 0.  0.
         12    1    1    2    0    0  0.26000339742E+02 -0.15588918129E+02 -0.31057881014E+02  0.43400737416E+02  0.00000000000E+00 0. -1.
         11    1    3    3    0    0 -0.11452408426E+01  0.57914061937E+01  0.68728401391E+01  0.90602369796E+01  0.51100000000E-03 0. -1.
        -11    1    3    3    0    0 -0.20952516219E+02  0.14600623649E+01  0.15911918096E+02  0.26350120602E+02  0.51100000000E-03 0.  1.
        -12    1    3    3    0    0 -0.39025826807E+01  0.83374495707E+01  0.82731227790E+01  0.12376905002E+02  0.00000000000E+00 0.  1.
</event>
<event>
 7    1  0.4937359E-010  0.4778727E+02  0.7816164E-02  0.1312668E+00
        -11   -1    0    0    0    0  0.00000000000E+00  0.00000000000E+00  0.45593999997E+02  0.45594000000E+02  0.51100000000E-03 0.  1.
         11   -1    0    0    0    0 -0.00000000000E+00 -0.00000000000E+00 -0.45593999997E+02  0.45594000000E+02  0.51100000000E-03 0. -1.
    9900012    2    1    2    0    0  0.10950674292E+02 -0.78135224202E+01  0.41263236987E+02  0.47787272740E+02  0.20000007731E+02 0.  0.
         12    1    1    2    0    0 -0.10950674292E+02  0.78135224202E+01 -0.41263236987E+02  0.43400727260E+02  0.00000000000E+00 0. -1.
         11    1    3    3    0    0  0.88898033833E+01 -0.34462890984E+01  0.54532110197E+01  0.10983761807E+02  0.51100000000E-03 0. -1.
        -11    1    3    3    0    0 -0.24856744719E+01 -0.24284478714E+01  0.17255518414E+02  0.17601955932E+02  0.51100000000E-03 0.  1.
        -12    1    3    3    0    0  0.45465453805E+01 -0.19387854504E+01  0.18554507553E+02  0.19201555001E+02  0.00000000000E+00 0.  1.
</event>
<event>
 7    1  0.4937359E-010  0.4778727E+02  0.7816164E-02  0.1312668E+00
        -11   -1    0    0    0    0  0.00000000000E+00  0.00000000000E+00  0.45593999997E+02  0.45594000000E+02  0.51100000000E-03 0.  1.
         11   -1    0    0    0    0 -0.00000000000E+00 -0.00000000000E+00 -0.45593999997E+02  0.45594000000E+02  0.51100000000E-03 0. -1.
    9900012    2    1    2    0    0  0.31050391347E+02  0.30288536205E+02  0.14495016362E+01  0.47787270937E+02  0.19999999508E+02 0.  0.
         12    1    1    2    0    0 -0.31050391347E+02 -0.30288536205E+02 -0.14495016362E+01  0.43400729063E+02  0.00000000000E+00 0. -1.
         11    1    3    3    0    0  0.23837748164E+02  0.24097346080E+02 -0.22513658919E+00  0.33896474925E+02  0.51100000000E-03 0.  1.
        -11    1    3    3    0    0  0.67557729429E+01 -0.62446423967E+00  0.19342669499E+01  0.70549140701E+01  0.51100000000E-03 0. -1.
        -12    1    3    3    0    0  0.45687024024E+00  0.68156543652E+01 -0.25962872449E+00  0.68358819414E+01  0.00000000000E+00 0.  1.
</event>
<event>
 7    1  0.4937359E-010  0.4778728E+02  0.7816164E-02  0.1312668E+00
        -11   -1    0    0    0    0  0.00000000000E+00  0.00000000000E+00  0.45593999997E+02  0.45594000000E+02  0.51100000000E-03 0.  1.
         11   -1    0    0    0    0 -0.00000000000E+00 -0.00000000000E+00 -0.45593999997E+02  0.45594000000E+02  0.51100000000E-03 0. -1.
    9900012    2    1    2    0    0  0.19041641314E+02  0.19833681291E+02  0.33580700249E+02  0.47787280573E+02  0.20000043447E+02 0.  0.
         12    1    1    2    0    0 -0.19041641314E+02 -0.19833681291E+02 -0.33580700249E+02  0.43400719427E+02  0.00000000000E+00 0. -1.
         11    1    3    3    0    0  0.88231487634E+01  0.49325760150E+01  0.23115497265E+01  0.10369258539E+02  0.51100000000E-03 0. -1.
        -11    1    3    3    0    0  0.98341135466E+01  0.88151320133E+01  0.14694381517E+02  0.19757054185E+02  0.51100000000E-03 0.  1.
         12    1    3    3    0    0  0.38437900414E+00  0.60859732632E+01  0.16574769006E+02  0.17660967849E+02  0.00000000000E+00 0. -1.
</event>
<event>
 7    1  0.4937359E-010  0.4778727E+02  0.7816164E-02  0.1312668E+00
        -11   -1    0    0    0    0  0.00000000000E+00  0.00000000000E+00  0.45593999997E+02  0.45594000000E+02  0.51100000000E-03 0.  1.
         11   -1    0    0    0    0 -0.00000000000E+00 -0.00000000000E+00 -0.45593999997E+02  0.45594000000E+02  0.51100000000E-03 0. -1.
    9900012    2    1    2    0    0 -0.20475745196E+02  0.14126516960E+02  0.35564154981E+02  0.47787265648E+02  0.19999975397E+02 0.  0.
         12    1    1    2    0    0  0.20475745196E+02 -0.14126516960E+02 -0.35564154981E+02  0.43400734352E+02  0.00000000000E+00 0. -1.
         11    1    3    3    0    0 -0.41093759777E+01 -0.43071823269E+01  0.11564760742E+02  0.13007016637E+02  0.51100000000E-03 0. -1.
        -11    1    3    3    0    0 -0.10333844523E+02  0.79722374064E+01  0.11419365615E+02  0.17342053604E+02  0.51100000000E-03 0.  1.
         12    1    3    3    0    0 -0.60325246953E+01  0.10461461881E+02  0.12580028624E+02  0.17438195407E+02  0.00000000000E+00 0. -1.
</event>
<event>
 7    1  0.4937359E-010  0.4778727E+02  0.7816164E-02  0.1312668E+00
        -11   -1    0    0    0    0  0.00000000000E+00  0.00000000000E+00  0.45593999997E+02  0.45594000000E+02  0.51100000000E-03 0. -1.
         11   -1    0    0    0    0 -0.00000000000E+00 -0.00000000000E+00 -0.45593999997E+02  0.45594000000E+02  0.51100000000E-03 0.  1.
    9900012    2    1    2    0    0  0.29486875983E+02  0.22008635740E+02 -0.23016681567E+02  0.47787268062E+02  0.19999986403E+02 0.  0.
         12    1    1    2    0    0 -0.29486875983E+02 -0.22008635740E+02  0.23016681567E+02  0.43400731938E+02  0.00000000000E+00 0. -1.
         11    1    3    3    0    0  0.66328857504E+01  0.46515649418E+01 -0.22953867690E+01  0.84202749638E+01  0.51100000000E-03 0. -1.
        -11    1    3    3    0    0  0.83482439079E+00 -0.27931929479E+01  0.19252078393E+00  0.29216302164E+01  0.51100000000E-03 0.  1.
        -12    1    3    3    0    0  0.22019165842E+02  0.20150263746E+02 -0.20913815582E+02  0.36445362882E+02  0.00000000000E+00 0.  1.
</event>
<event>
 7    1  0.4937359E-010  0.4778727E+02  0.7816164E-02  0.1312668E+00
        -11   -1    0    0    0    0  0.00000000000E+00  0.00000000000E+00  0.45593999997E+02  0.45594000000E+02  0.51100000000E-03 0.  1.
         11   -1    0    0    0    0 -0.00000000000E+00 -0.00000000000E+00 -0.45593999997E+02  0.45594000000E+02  0.51100000000E-03 0. -1.
    9900012    2    1    2    0    0 -0.10952948958E+02 -0.35041448556E+01  0.41849458894E+02  0.47787270378E+02  0.19999996961E+02 0.  0.
         12    1    1    2    0    0  0.10952948958E+02  0.35041448556E+01 -0.41849458894E+02  0.43400729622E+02  0.00000000000E+00 0. -1.
         11    1    3    3    0    0  0.37358681974E+01 -0.20047924515E+01  0.28007171355E+01  0.50813306029E+01  0.51100000000E-03 0. -1.
        -11    1    3    3    0    0 -0.12687261574E+00  0.19650046157E+01  0.23124945445E+01  0.30372637488E+01  0.51100000000E-03 0.  1.
         12    1    3    3    0    0 -0.14561944540E+02 -0.34643570197E+01  0.36736247214E+02  0.39668676026E+02  0.00000000000E+00 0. -1.
</event>
<event>
 7    1  0.4937359E-010  0.4778728E+02  0.7816164E-02  0.1312668E+00
        -11   -1    0    0    0    0  0.00000000000E+00  0.00000000000E+00  0.45593999997E+02  0.45594000000E+02  0.51100000000E-03 0. -1.
         11   -1    0    0    0    0 -0.00000000000E+00 -0.00000000000E+00 -0.45593999997E+02  0.45594000000E+02  0.51100000000E-03 0.  1.
    9900012    2    1    2    0    0 -0.12883435302E+02  0.12972673448E+02 -0.39361780339E+02  0.47787275201E+02  0.20000018953E+02 0.  0.
         12    1    1    2    0    0  0.12883435302E+02 -0.12972673448E+02  0.39361780339E+02  0.43400724799E+02  0.00000000000E+00 0. -1.
         11    1    3    3    0    0 -0.15317238550E+02  0.14258832458E+02 -0.24698527939E+02  0.32372046313E+02  0.51100000000E-03 0. -1.
        -11    1    3    3    0    0  0.11075236615E+01 -0.21532679378E+01 -0.43288668965E+01  0.49600665662E+01  0.51100000000E-03 0.  1.
         12    1    3    3    0    0  0.13262795868E+01  0.86710892768E+00 -0.10334385504E+02  0.10455162322E+02  0.00000000000E+00 0. -1.
</event>
<event>
 7    1  0.4937359E-010  0.4778727E+02  0.7816164E-02  0.1312668E+00
        -11   -1    0    0    0    0  0.00000000000E+00  0.00000000000E+00  0.45593999997E+02  0.45594000000E+02  0.51100000000E-03 0.  1.
         11   -1    0    0    0    0 -0.00000000000E+00 -0.00000000000E+00 -0.45593999997E+02  0.45594000000E+02  0.51100000000E-03 0. -1.
    9900012    2    1    2    0    0  0.58393965502E+01  0.10378260021E+02  0.41735075560E+02  0.47787269993E+02  0.19999995206E+02 0.  0.
         12    1    1    2    0    0 -0.58393965502E+01 -0.10378260021E+02 -0.41735075560E+02  0.43400730007E+02  0.00000000000E+00 0. -1.
         11    1    3    3    0    0  0.17243129534E+01  0.87079646242E+01  0.35122645127E+02  0.36227090748E+02  0.51100000000E-03 0.  1.
        -11    1    3    3    0    0  0.22879539288E+01  0.86956909389E+00 -0.17204787295E+01  0.29918106406E+01  0.51100000000E-03 0. -1.
        -12    1    3    3    0    0  0.18271296680E+01  0.80072630272E+00  0.83329091627E+01  0.85683686049E+01  0.00000000000E+00 0.  1.
</event>
<event>
 7    1  0.5085065E-010  0.4778727E+02  0.7816164E-02  0.1312668E+00
        -11   -1    0    0    0    0  0.00000000000E+00  0.00000000000E+00  0.45593999997E+02  0.45594000000E+02  0.51100000000E-03 0.  1.
         11   -1    0    0    0    0 -0.00000000000E+00 -0.00000000000E+00 -0.45593999997E+02  0.45594000000E+02  0.51100000000E-03 0. -1.
    9900012    2    1    2    0    0  0.14938166858E+02  0.27779169773E+02  0.29812615647E+02  0.47787272425E+02  0.20000006294E+02 0.  0.
         12    1    1    2    0    0 -0.14938166858E+02 -0.27779169773E+02 -0.29812615647E+02  0.43400727575E+02  0.00000000000E+00 0. -1.
         11    1    3    3    0    0 -0.13651759765E+01  0.24981100699E+01 -0.12292933832E+01  0.31008743688E+01  0.51100000000E-03 0. -1.
        -11    1    3    3    0    0  0.11934354514E+02  0.88698684869E+01  0.17509346748E+02  0.22971299668E+02  0.51100000000E-03 0.  1.
        -12    1    3    3    0    0  0.43689883206E+01  0.16411191216E+02  0.13532562281E+02  0.21715098388E+02  0.00000000000E+00 0.  1.
</event>
<event>
 7    1  0.4937359E-010  0.4778723E+02  0.7816164E-02  0.1312668E+00
        -11   -1    0    0    0    0  0.00000000000E+00  0.00000000000E+00  0.45593999997E+02  0.45594000000E+02  0.51100000000E-03 0.  1.
         11   -1    0    0    0    0 -0.00000000000E+00 -0.00000000000E+00 -0.45593999997E+02  0.45594000000E+02  0.51100000000E-03 0. -1.
    9900012    2    1    2    0    0  0.36005957311E+02  0.23156304485E+02  0.71402842156E+01  0.47787227450E+02  0.19999801234E+02 0.  0.
         12    1    1    2    0    0 -0.36005957311E+02 -0.23156304485E+02 -0.71402842156E+01  0.43400772550E+02  0.00000000000E+00 0. -1.
         11    1    3    3    0    0  0.54534697873E+01 -0.35453622819E+01  0.13808308979E+01  0.66495579298E+01  0.51100000000E-03 0. -1.
        -11    1    3    3    0    0  0.14212842780E+02  0.13231679671E+02  0.44451597267E+01  0.19920885825E+02  0.51100000000E-03 0.  1.
         12    1    3    3    0    0  0.16339644744E+02  0.13469987096E+02  0.13142935910E+01  0.21216783695E+02  0.00000000000E+00 0. -1.
</event>
<event>
 7    1  0.4937359E-010  0.4778727E+02  0.7816164E-02  0.1312668E+00
        -11   -1    0    0    0    0  0.00000000000E+00  0.00000000000E+00  0.45593999997E+02  0.45594000000E+02  0.51100000000E-03 0.  1.
         11   -1    0    0    0    0 -0.00000000000E+00 -0.00000000000E+00 -0.45593999997E+02  0.45594000000E+02  0.51100000000E-03 0. -1.
    9900012    2    1    2    0    0  0.77335519804E+00  0.57530672481E+01  0.43010781053E+02  0.47787272497E+02  0.20000006622E+02 0.  0.
         12    1    1    2    0    0 -0.77335519804E+00 -0.57530672481E+01 -0.43010781053E+02  0.43400727503E+02  0.00000000000E+00 0. -1.
         11    1    3    3    0    0 -0.19609031654E+01 -0.50003329109E+01  0.24116250127E+02  0.24707124295E+02  0.51100000000E-03 0. -1.
        -11    1    3    3    0    0 -0.14330233701E+01  0.72096628015E+01  0.13642195334E+02  0.15496525013E+02  0.51100000000E-03 0.  1.
         12    1    3    3    0    0  0.41672817336E+01  0.35437373575E+01  0.52523355921E+01  0.75836231893E+01  0.00000000000E+00 0. -1.
</event>
<event>
 7    1  0.4937359E-010  0.4778728E+02  0.7816164E-02  0.1312668E+00
        -11   -1    0    0    0    0  0.00000000000E+00  0.00000000000E+00  0.45593999997E+02  0.45594000000E+02  0.51100000000E-03 0. -1.
         11   -1    0    0    0    0 -0.00000000000E+00 -0.00000000000E+00 -0.45593999997E+02  0.45594000000E+02  0.51100000000E-03 0.  1.
    9900012    2    1    2    0    0 -0.18407429939E+02 -0.32018198233E+02 -0.22795271076E+02  0.47787275600E+02  0.20000020769E+02 0.  0.
         12    1    1    2    0    0  0.18407429939E+02  0.32018198233E+02  0.22795271076E+02  0.43400724400E+02  0.00000000000E+00 0. -1.
         11    1    3    3    0    0 -0.65356910631E+01 -0.10643318305E+01 -0.68848625180E+01  0.95524547667E+01  0.51100000000E-03 0. -1.
        -11    1    3    3    0    0 -0.10457188166E+02 -0.30884164860E+02 -0.16677578701E+02  0.36624118488E+02  0.51100000000E-03 0.  1.
        -12    1    3    3    0    0 -0.14145507098E+01 -0.69701542859E-01  0.76717014298E+00  0.16107023450E+01  0.00000000000E+00 0.  1.
</event>
<event>
 7    1  0.4937359E-010  0.4778727E+02  0.7816164E-02  0.1312668E+00
        -11   -1    0    0    0    0  0.00000000000E+00  0.00000000000E+00  0.45593999997E+02  0.45594000000E+02  0.51100000000E-03 0.  1.
         11   -1    0    0    0    0 -0.00000000000E+00 -0.00000000000E+00 -0.45593999997E+02  0.45594000000E+02  0.51100000000E-03 0. -1.
    9900012    2    1    2    0    0 -0.16839827840E+02 -0.24626571686E+02  0.31521038088E+02  0.47787266402E+02  0.19999978832E+02 0.  0.
         12    1    1    2    0    0  0.16839827840E+02  0.24626571686E+02 -0.31521038088E+02  0.43400733598E+02  0.00000000000E+00 0. -1.
         11    1    3    3    0    0  0.38664052357E+01 -0.22074738523E+01  0.48413933100E+01  0.65773185796E+01  0.51100000000E-03 0.  1.
        -11    1    3    3    0    0 -0.15860929985E+02 -0.17995646974E+02  0.16556497573E+02  0.29146698306E+02  0.51100000000E-03 0. -1.
        -12    1    3    3    0    0 -0.48453030915E+01 -0.44234508603E+01  0.10123147205E+02  0.12063249516E+02  0.00000000000E+00 0.  1.
</event>
<event>
 7    1  0.4937359E-010  0.4778727E+02  0.7816164E-02  0.1312668E+00
        -11   -1    0    0    0    0  0.00000000000E+00  0.00000000000E+00  0.45593999997E+02  0.45594000000E+02  0.51100000000E-03 0.  1.
         11   -1    0    0    0    0 -0.00000000000E+00 -0.00000000000E+00 -0.45593999997E+02  0.45594000000E+02  0.51100000000E-03 0. -1.
    9900012    2    1    2    0    0  0.12933855506E+02 -0.39757708856E+02  0.11647461809E+02  0.47787269611E+02  0.19999993463E+02 0.  0.
         12    1    1    2    0    0 -0.12933855506E+02  0.39757708856E+02 -0.11647461809E+02  0.43400730389E+02  0.00000000000E+00 0. -1.
         11    1    3    3    0    0  0.97895150704E+01 -0.29134447267E+02  0.12516416289E+02  0.33186010605E+02  0.51100000000E-03 0. -1.
        -11    1    3    3    0    0 -0.11850901667E+01 -0.71804678910E+00  0.28503137466E+01  0.31692773009E+01  0.51100000000E-03 0.  1.
         12    1    3    3    0    0  0.43294306025E+01 -0.99052147997E+01 -0.37192682259E+01  0.11431981705E+02  0.00000000000E+00 0. -1.
</event>
<event>
 7    1  0.4937359E-010  0.4778727E+02  0.7816164E-02  0.1312668E+00
        -11   -1    0    0    0    0  0.00000000000E+00  0.00000000000E+00  0.45593999997E+02  0.45594000000E+02  0.51100000000E-03 0. -1.
         11   -1    0    0    0    0 -0.00000000000E+00 -0.00000000000E+00 -0.45593999997E+02  0.45594000000E+02  0.51100000000E-03 0.  1.
    9900012    2    1    2    0    0  0.19598932762E+02  0.38601966639E+02  0.30648364182E+01  0.47787271710E+02  0.20000003036E+02 0.  0.
         12    1    1    2    0    0 -0.19598932762E+02 -0.38601966639E+02 -0.30648364182E+01  0.43400728290E+02  0.00000000000E+00 0. -1.
         11    1    3    3    0    0  0.14404401783E+01  0.14327232556E+02  0.15994176710E+01  0.14488015660E+02  0.51100000000E-03 0. -1.
        -11    1    3    3    0    0  0.94012954323E+01  0.92110570771E+01 -0.58481652932E+01  0.14402394448E+02  0.51100000000E-03 0.  1.
        -12    1    3    3    0    0  0.87571971517E+01  0.15063677006E+02  0.73135840404E+01  0.18896861602E+02  0.00000000000E+00 0.  1.
</event>
<event>
 7    1  0.4937359E-010  0.4778727E+02  0.7816164E-02  0.1312668E+00
        -11   -1    0    0    0    0  0.00000000000E+00  0.00000000000E+00  0.45593999997E+02  0.45594000000E+02  0.51100000000E-03 0.  1.
         11   -1    0    0    0    0 -0.00000000000E+00 -0.00000000000E+00 -0.45593999997E+02  0.45594000000E+02  0.51100000000E-03 0. -1.
    9900012    2    1    2    0    0 -0.23809927317E+02 -0.13618253085E+01  0.36260939553E+02  0.47787274841E+02  0.20000017312E+02 0.  0.
         12    1    1    2    0    0  0.23809927317E+02  0.13618253085E+01 -0.36260939553E+02  0.43400725159E+02  0.00000000000E+00 0. -1.
         11    1    3    3    0    0  0.27924273552E+00  0.27857554182E+01 -0.10094616895E+01  0.29761422881E+01  0.51100000000E-03 0. -1.
        -11    1    3    3    0    0 -0.18185915785E+02 -0.11465168744E+01  0.28355087660E+02  0.33705385777E+02  0.51100000000E-03 0.  1.
         12    1    3    3    0    0 -0.59032542676E+01 -0.30010638523E+01  0.89153135826E+01  0.11105746777E+02  0.00000000000E+00 0. -1.
</event>
<event>
 7    1  0.4937359E-010  0.4778727E+02  0.7816164E-02  0.1312668E+00
        -11   -1    0    0    0    0  0.00000000000E+00  0.00000000000E+00  0.45593999997E+02  0.45594000000E+02  0.51100000000E-03 0.  1.
         11   -1    0    0    0    0 -0.00000000000E+00 -0.00000000000E+00 -0.45593999997E+02  0.45594000000E+02  0.51100000000E-03 0. -1.
    9900012    2    1    2    0    0 -0.13667570469E+02 -0.31628936623E+02  0.26389983148E+02  0.47787270456E+02  0.19999997315E+02 0.  0.
         12    1    1    2    0    0  0.13667570469E+02  0.31628936623E+02 -0.26389983148E+02  0.43400729544E+02  0.00000000000E+00 0. -1.
         11    1    3    3    0    0  0.33158879562E+01 -0.61336169696E+01  0.10799189634E+02  0.12854527104E+02  0.51100000000E-03 0. -1.
        -11    1    3    3    0    0 -0.29295946171E+01 -0.71106832565E+01  0.65024138740E+01  0.10071034080E+02  0.51100000000E-03 0.  1.
         12    1    3    3    0    0 -0.14053863808E+02 -0.18384636397E+02  0.90883796396E+01  0.24861709271E+02  0.00000000000E+00 0. -1.
</event>
<event>
 7    1  0.4937359E-010  0.4778727E+02  0.7816164E-02  0.1312668E+00
        -11   -1    0    0    0    0  0.00000000000E+00  0.00000000000E+00  0.45593999997E+02  0.45594000000E+02  0.51100000000E-03 0.  1.
         11   -1    0    0    0    0 -0.00000000000E+00 -0.00000000000E+00 -0.45593999997E+02  0.45594000000E+02  0.51100000000E-03 0. -1.
    9900012    2    1    2    0    0  0.34391222667E+01  0.16564372136E+02  0.39967703363E+02  0.47787270763E+02  0.19999998715E+02 0.  0.
         12    1    1    2    0    0 -0.34391222667E+01 -0.16564372136E+02 -0.39967703363E+02  0.43400729237E+02  0.00000000000E+00 0. -1.
         11    1    3    3    0    0  0.35380361198E+01  0.12870840222E+02  0.14557998826E+02  0.19751241928E+02  0.51100000000E-03 0.  1.
        -11    1    3    3    0    0  0.34177612321E+01 -0.38529054528E+00  0.20376281068E+02  0.20664519619E+02  0.51100000000E-03 0. -1.
         12    1    3    3    0    0 -0.35166750852E+01  0.40788224590E+01  0.50334234691E+01  0.73715092163E+01  0.00000000000E+00 0. -1.
</event>
<event>
 7    1  0.4937359E-010  0.4778727E+02  0.7816164E-02  0.1312668E+00
        -11   -1    0    0    0    0  0.00000000000E+00  0.00000000000E+00  0.45593999997E+02  0.45594000000E+02  0.51100000000E-03 0.  1.
         11   -1    0    0    0    0 -0.00000000000E+00 -0.00000000000E+00 -0.45593999997E+02  0.45594000000E+02  0.51100000000E-03 0. -1.
    9900012    2    1    2    0    0  0.26422658223E+02  0.90477833735E+01  0.33220539950E+02  0.47787268138E+02  0.19999986750E+02 0.  0.
         12    1    1    2    0    0 -0.26422658223E+02 -0.90477833735E+01 -0.33220539950E+02  0.43400731862E+02  0.00000000000E+00 0. -1.
         11    1    3    3    0    0 -0.10324573056E+01  0.59156011905E+01  0.41708254445E+01  0.73113672239E+01  0.51100000000E-03 0. -1.
        -11    1    3    3    0    0  0.13755326929E+02  0.42514666604E+01  0.13749243054E+02  0.19907929890E+02  0.51100000000E-03 0.  1.
         12    1    3    3    0    0  0.13699788599E+02 -0.11192844773E+01  0.15300471452E+02  0.20567971025E+02  0.00000000000E+00 0. -1.
</event>
<event>
 7    1  0.4937359E-010  0.4778727E+02  0.7816164E-02  0.1312668E+00
        -11   -1    0    0    0    0  0.00000000000E+00  0.00000000000E+00  0.45593999997E+02  0.45594000000E+02  0.51100000000E-03 0.  1.
         11   -1    0    0    0    0 -0.00000000000E+00 -0.00000000000E+00 -0.45593999997E+02  0.45594000000E+02  0.51100000000E-03 0. -1.
    9900012    2    1    2    0    0  0.34369753475E+02 -0.24802079018E+02  0.93380985272E+01  0.47787272337E+02  0.20000005894E+02 0.  0.
         12    1    1    2    0    0 -0.34369753475E+02  0.24802079018E+02 -0.93380985272E+01  0.43400727663E+02  0.00000000000E+00 0. -1.
         11    1    3    3    0    0  0.13907984745E+02 -0.19497683130E+02  0.46222166246E+01  0.24391731671E+02  0.51100000000E-03 0. -1.
        -11    1    3    3    0    0  0.19417512146E+02 -0.72071020288E+01  0.38942673981E+01  0.21074805252E+02  0.51100000000E-03 0.  1.
         12    1    3    3    0    0  0.10442565836E+01  0.19027061403E+01  0.82161450453E+00  0.23207354142E+01  0.00000000000E+00 0. -1.
</event>
<event>
 7    1  0.4937359E-010  0.4778728E+02  0.7816164E-02  0.1312668E+00
        -11   -1    0    0    0    0  0.00000000000E+00  0.00000000000E+00  0.45593999997E+02  0.45594000000E+02  0.51100000000E-03 0.  1.
         11   -1    0    0    0    0 -0.00000000000E+00 -0.00000000000E+00 -0.45593999997E+02  0.45594000000E+02  0.51100000000E-03 0. -1.
    9900012    2    1    2    0    0  0.14496944863E+02  0.40866095166E+02  0.18502530603E+01  0.47787279028E+02  0.20000036401E+02 0.  0.
         12    1    1    2    0    0 -0.14496944863E+02 -0.40866095166E+02 -0.18502530603E+01  0.43400720972E+02  0.00000000000E+00 0. -1.
         11    1    3    3    0    0  0.36970510951E+01  0.57232764508E+01 -0.39238349977E+01  0.78626052605E+01  0.51100000000E-03 0. -1.
        -11    1    3    3    0    0 -0.20743277072E+01  0.17721746626E+02  0.26805151150E+01  0.18042957087E+02  0.51100000000E-03 0.  1.
        -12    1    3    3    0    0  0.12874221475E+02  0.17421072089E+02  0.30935729430E+01  0.21881716680E+02  0.00000000000E+00 0.  1.
</event>
<event>
 7    1  0.4937359E-010  0.4778727E+02  0.7816164E-02  0.1312668E+00
        -11   -1    0    0    0    0  0.00000000000E+00  0.00000000000E+00  0.45593999997E+02  0.45594000000E+02  0.51100000000E-03 0. -1.
         11   -1    0    0    0    0 -0.00000000000E+00 -0.00000000000E+00 -0.45593999997E+02  0.45594000000E+02  0.51100000000E-03 0.  1.
    9900012    2    1    2    0    0 -0.92800483410E+01  0.30987567367E+02 -0.28935700727E+02  0.47787269532E+02  0.19999993106E+02 0.  0.
         12    1    1    2    0    0  0.92800483410E+01 -0.30987567367E+02  0.28935700727E+02  0.43400730468E+02  0.00000000000E+00 0. -1.
         11    1    3    3    0    0 -0.29965183401E+01  0.21134543000E+02 -0.11172689396E+02  0.24093090681E+02  0.51100000000E-03 0.  1.
        -11    1    3    3    0    0 -0.13955938236E+01  0.33721436592E+01 -0.14488567111E+02  0.14941138249E+02  0.51100000000E-03 0. -1.
         12    1    3    3    0    0 -0.48879361773E+01  0.64808807085E+01 -0.32744442194E+01  0.87530406018E+01  0.00000000000E+00 0. -1.
</event>
<event>
 7    1  0.4937359E-010  0.4778726E+02  0.7816164E-02  0.1312668E+00
        -11   -1    0    0    0    0  0.00000000000E+00  0.00000000000E+00  0.45593999997E+02  0.45594000000E+02  0.51100000000E-03 0.  1.
         11   -1    0    0    0    0 -0.00000000000E+00 -0.00000000000E+00 -0.45593999997E+02  0.45594000000E+02  0.51100000000E-03 0. -1.
    9900012    2    1    2    0    0  0.32546765152E+02  0.18074851490E+02  0.22307669895E+02  0.47787259057E+02  0.19999945344E+02 0.  0.
         12    1    1    2    0    0 -0.32546765152E+02 -0.18074851490E+02 -0.22307669895E+02  0.43400740943E+02  0.00000000000E+00 0. -1.
         11    1    3    3    0    0  0.16865071264E+02  0.19144329795E+02  0.15892278773E+02  0.30058285329E+02  0.51100000000E-03 0. -1.
        -11    1    3    3    0    0  0.72760780176E+01 -0.20860611376E+01  0.51811111499E+01  0.91726155156E+01  0.51100000000E-03 0.  1.
         12    1    3    3    0    0  0.84056158700E+01  0.10165828331E+01  0.12342799719E+01  0.85563582124E+01  0.00000000000E+00 0. -1.
</event>
<event>
 7    1  0.4937359E-010  0.4778728E+02  0.7816164E-02  0.1312668E+00
        -11   -1    0    0    0    0  0.00000000000E+00  0.00000000000E+00  0.45593999997E+02  0.45594000000E+02  0.51100000000E-03 0.  1.
         11   -1    0    0    0    0 -0.00000000000E+00 -0.00000000000E+00 -0.45593999997E+02  0.45594000000E+02  0.51100000000E-03 0. -1.
    9900012    2    1    2    0    0  0.18550548122E+01 -0.25379955497E+02  0.35157342065E+02  0.47787284909E+02  0.20000063212E+02 0.  0.
         12    1    1    2    0    0 -0.18550548122E+01  0.25379955497E+02 -0.35157342065E+02  0.43400715091E+02  0.00000000000E+00 0. -1.
         11    1    3    3    0    0 -0.27767712715E+01 -0.63970842164E+01  0.10024119737E+02  0.12211311229E+02  0.51100000000E-03 0. -1.
        -11    1    3    3    0    0  0.32462571247E+01 -0.12785069934E+02  0.26011295722E+02  0.29164768196E+02  0.51100000000E-03 0.  1.
        -12    1    3    3    0    0  0.13855689590E+01 -0.61978013463E+01 -0.87807339409E+00  0.64112054836E+01  0.00000000000E+00 0.  1.
</event>
<event>
 7    1  0.4937359E-010  0.4778727E+02  0.7816164E-02  0.1312668E+00
        -11   -1    0    0    0    0  0.00000000000E+00  0.00000000000E+00  0.45593999997E+02  0.45594000000E+02  0.51100000000E-03 0.  1.
         11   -1    0    0    0    0 -0.00000000000E+00 -0.00000000000E+00 -0.45593999997E+02  0.45594000000E+02  0.51100000000E-03 0. -1.
    9900012    2    1    2    0    0 -0.14924427765E+02 -0.40176791290E+02  0.68344874998E+01  0.47787270492E+02  0.19999997481E+02 0.  0.
         12    1    1    2    0    0  0.14924427765E+02  0.40176791290E+02 -0.68344874998E+01  0.43400729508E+02  0.00000000000E+00 0. -1.
         11    1    3    3    0    0 -0.74059517203E+01 -0.56835204229E+01 -0.40274479291E+01  0.10167146225E+02  0.51100000000E-03 0. -1.
        -11    1    3    3    0    0 -0.58459148364E+01 -0.32716257830E+02  0.86864451468E+01  0.34350874461E+02  0.51100000000E-03 0.  1.
         12    1    3    3    0    0 -0.16725612079E+01 -0.17770130368E+01  0.21754902821E+01  0.32692498061E+01  0.00000000000E+00 0. -1.
</event>
<event>
 7    1  0.4937359E-010  0.4778727E+02  0.7816164E-02  0.1312668E+00
        -11   -1    0    0    0    0  0.00000000000E+00  0.00000000000E+00  0.45593999997E+02  0.45594000000E+02  0.51100000000E-03 0.  1.
         11   -1    0    0    0    0 -0.00000000000E+00 -0.00000000000E+00 -0.45593999997E+02  0.45594000000E+02  0.51100000000E-03 0. -1.
    9900012    2    1    2    0    0 -0.95881608056E+01  0.10017347312E+02  0.41125940183E+02  0.47787273846E+02  0.20000012773E+02 0.  0.
         12    1    1    2    0    0  0.95881608056E+01 -0.10017347312E+02 -0.41125940183E+02  0.43400726154E+02  0.00000000000E+00 0. -1.
         11    1    3    3    0    0  0.74366883781E+00  0.20720632096E+01  0.23687940299E+02  0.23790019024E+02  0.51100000000E-03 0.  1.
        -11    1    3    3    0    0 -0.38566769831E+00 -0.21054889571E+01  0.37457650334E+01  0.43142298581E+01  0.51100000000E-03 0. -1.
         12    1    3    3    0    0 -0.99461619451E+01  0.10050773060E+02  0.13692234850E+02  0.19683024964E+02  0.00000000000E+00 0. -1.
</event>
<event>
 7    1  0.4937359E-010  0.4778727E+02  0.7816164E-02  0.1312668E+00
        -11   -1    0    0    0    0  0.00000000000E+00  0.00000000000E+00  0.45593999997E+02  0.45594000000E+02  0.51100000000E-03 0.  1.
         11   -1    0    0    0    0 -0.00000000000E+00 -0.00000000000E+00 -0.45593999997E+02  0.45594000000E+02  0.51100000000E-03 0. -1.
    9900012    2    1    2    0    0 -0.29705668808E+02 -0.27684584605E+02  0.15321881547E+02  0.47787273759E+02  0.20000012377E+02 0.  0.
         12    1    1    2    0    0  0.29705668808E+02  0.27684584605E+02 -0.15321881547E+02  0.43400726241E+02  0.00000000000E+00 0. -1.
         11    1    3    3    0    0  0.16420655447E+01 -0.25334640351E+01  0.29399868508E+00  0.30333570113E+01  0.51100000000E-03 0. -1.
        -11    1    3    3    0    0 -0.17253064479E+02 -0.64019200384E+01  0.92505124514E+01  0.20596718063E+02  0.51100000000E-03 0.  1.
        -12    1    3    3    0    0 -0.14094669874E+02 -0.18749200532E+02  0.57773704106E+01  0.24157198685E+02  0.00000000000E+00 0.  1.
</event>
<event>
 7    1  0.4937359E-010  0.4778727E+02  0.7816164E-02  0.1312668E+00
        -11   -1    0    0    0    0  0.00000000000E+00  0.00000000000E+00  0.45593999997E+02  0.45594000000E+02  0.51100000000E-03 0.  1.
         11   -1    0    0    0    0 -0.00000000000E+00 -0.00000000000E+00 -0.45593999997E+02  0.45594000000E+02  0.51100000000E-03 0. -1.
    9900012    2    1    2    0    0 -0.27648381306E+02  0.37400477382E+01  0.33244579686E+02  0.47787273919E+02  0.20000013105E+02 0.  0.
         12    1    1    2    0    0  0.27648381306E+02 -0.37400477382E+01 -0.33244579686E+02  0.43400726081E+02  0.00000000000E+00 0. -1.
         11    1    3    3    0    0 -0.20381494649E+02 -0.26063078399E+01  0.24283343098E+02  0.31810044278E+02  0.51100000000E-03 0. -1.
        -11    1    3    3    0    0 -0.61986454790E+01 -0.55620572919E+00  0.46534767094E+01  0.77709340708E+01  0.51100000000E-03 0.  1.
         12    1    3    3    0    0 -0.10682411775E+01  0.69025613073E+01  0.43077598785E+01  0.82062955702E+01  0.00000000000E+00 0. -1.
</event>
<event>
 7    1  0.4937359E-010  0.4778727E+02  0.7816164E-02  0.1312668E+00
        -11   -1    0    0    0    0  0.00000000000E+00  0.00000000000E+00  0.45593999997E+02  0.45594000000E+02  0.51100000000E-03 0.  1.
         11   -1    0    0    0    0 -0.00000000000E+00 -0.00000000000E+00 -0.45593999997E+02  0.45594000000E+02  0.51100000000E-03 0. -1.
    9900012    2    1    2    0    0  0.95913317852E+01 -0.37003729985E+02  0.20551241920E+02  0.47787271634E+02  0.20000002689E+02 0.  0.
         12    1    1    2    0    0 -0.95913317852E+01  0.37003729985E+02 -0.20551241920E+02  0.43400728366E+02  0.00000000000E+00 0. -1.
         11    1    3    3    0    0 -0.25138723507E+01 -0.44220004287E+01  0.39661167606E+00  0.51020528289E+01  0.51100000000E-03 0. -1.
        -11    1    3    3    0    0  0.68797344195E+01 -0.51213033177E+01  0.65272428563E+00  0.86014267775E+01  0.51100000000E-03 0.  1.
        -12    1    3    3    0    0  0.52254697164E+01 -0.27460426239E+02  0.19501905958E+02  0.34083792028E+02  0.00000000000E+00 0.  1.
</event>
<event>
 7    1  0.4937359E-010  0.4778727E+02  0.7816164E-02  0.1312668E+00
        -11   -1    0    0    0    0  0.00000000000E+00  0.00000000000E+00  0.45593999997E+02  0.45594000000E+02  0.51100000000E-03 0.  1.
         11   -1    0    0    0    0 -0.00000000000E+00 -0.00000000000E+00 -0.45593999997E+02  0.45594000000E+02  0.51100000000E-03 0. -1.
    9900012    2    1    2    0    0 -0.32904970667E+01 -0.32337055749E+02 -0.28759539501E+02  0.47787266622E+02  0.19999979838E+02 0.  0.
         12    1    1    2    0    0  0.32904970667E+01  0.32337055749E+02  0.28759539501E+02  0.43400733378E+02  0.00000000000E+00 0. -1.
         11    1    3    3    0    0  0.17603121665E+01 -0.14643339024E+02 -0.18774596531E+01  0.14867781668E+02  0.51100000000E-03 0. -1.
        -11    1    3    3    0    0 -0.47866628357E+01 -0.85573152263E+01 -0.12649010022E+02  0.16004288169E+02  0.51100000000E-03 0.  1.
         12    1    3    3    0    0 -0.26414639746E+00 -0.91364014979E+01 -0.14233069825E+02  0.16915196786E+02  0.00000000000E+00 0. -1.
</event>
<event>
 7    1  0.4937359E-010  0.4778727E+02  0.7816164E-02  0.1312668E+00
        -11   -1    0    0    0    0  0.00000000000E+00  0.00000000000E+00  0.45593999997E+02  0.45594000000E+02  0.51100000000E-03 0.  1.
         11   -1    0    0    0    0 -0.00000000000E+00 -0.00000000000E+00 -0.45593999997E+02  0.45594000000E+02  0.51100000000E-03 0. -1.
    9900012    2    1    2    0    0  0.67646123380E+01  0.27297787776E+02  0.33055924148E+02  0.47787270527E+02  0.19999997639E+02 0.  0.
         12    1    1    2    0    0 -0.67646123380E+01 -0.27297787776E+02 -0.33055924148E+02  0.43400729473E+02  0.00000000000E+00 0. -1.
         11    1    3    3    0    0  0.69623891267E+01  0.15750512833E+02  0.13374936831E+02  0.21804642908E+02  0.51100000000E-03 0. -1.
        -11    1    3    3    0    0 -0.16459712326E+00 -0.27040862701E+01  0.33210729454E+01  0.42858722028E+01  0.51100000000E-03 0.  1.
        -12    1    3    3    0    0 -0.33179665367E-01  0.14251361214E+02  0.16359914372E+02  0.21696755416E+02  0.00000000000E+00 0.  1.
</event>
<event>
 7    1  0.4937359E-010  0.4778727E+02  0.7816164E-02  0.1312668E+00
        -11   -1    0    0    0    0  0.00000000000E+00  0.00000000000E+00  0.45593999997E+02  0.45594000000E+02  0.51100000000E-03 0.  1.
         11   -1    0    0    0    0 -0.00000000000E+00 -0.00000000000E+00 -0.45593999997E+02  0.45594000000E+02  0.51100000000E-03 0. -1.
    9900012    2    1    2    0    0 -0.32070499627E+02 -0.57374056590E+01  0.28673830882E+02  0.47787270197E+02  0.19999996135E+02 0.  0.
         12    1    1    2    0    0  0.32070499627E+02  0.57374056590E+01 -0.28673830882E+02  0.43400729803E+02  0.00000000000E+00 0. -1.
         11    1    3    3    0    0 -0.15353160057E+02 -0.26687321908E+01  0.29586350697E+01  0.15861752015E+02  0.51100000000E-03 0. -1.
        -11    1    3    3    0    0 -0.15414729391E+02 -0.53018246473E+01  0.21505779250E+02  0.26985584452E+02  0.51100000000E-03 0.  1.
        -12    1    3    3    0    0 -0.13026101794E+01  0.22331511792E+01  0.42094165616E+01  0.49399337301E+01  0.00000000000E+00 0.  1.
</event>
<event>
 7    1  0.4937359E-010  0.4778727E+02  0.7816164E-02  0.1312668E+00
        -11   -1    0    0    0    0  0.00000000000E+00  0.00000000000E+00  0.45593999997E+02  0.45594000000E+02  0.51100000000E-03 0. -1.
         11   -1    0    0    0    0 -0.00000000000E+00 -0.00000000000E+00 -0.45593999997E+02  0.45594000000E+02  0.51100000000E-03 0.  1.
    9900012    2    1    2    0    0  0.38949411678E+02 -0.18788346116E+02  0.36830198756E+01  0.47787271259E+02  0.20000000979E+02 0.  0.
         12    1    1    2    0    0 -0.38949411678E+02  0.18788346116E+02 -0.36830198756E+01  0.43400728741E+02  0.00000000000E+00 0. -1.
         11    1    3    3    0    0  0.41461670061E+01 -0.47387375669E+01  0.88459625574E+00  0.63583681371E+01  0.51100000000E-03 0. -1.
        -11    1    3    3    0    0  0.18118712633E+02 -0.11800985295E+02  0.90905695647E+01  0.23456117681E+02  0.51100000000E-03 0.  1.
        -12    1    3    3    0    0  0.16684532039E+02 -0.22486232537E+01 -0.62921459449E+01  0.17972785441E+02  0.00000000000E+00 0.  1.
</event>
<event>
 7    1  0.4937359E-010  0.4778727E+02  0.7816164E-02  0.1312668E+00
        -11   -1    0    0    0    0  0.00000000000E+00  0.00000000000E+00  0.45593999997E+02  0.45594000000E+02  0.51100000000E-03 0.  1.
         11   -1    0    0    0    0 -0.00000000000E+00 -0.00000000000E+00 -0.45593999997E+02  0.45594000000E+02  0.51100000000E-03 0. -1.
    9900012    2    1    2    0    0 -0.38766220260E+02  0.19512304346E+02  0.27089180000E+00  0.47787271475E+02  0.20000001961E+02 0.  0.
         12    1    1    2    0    0  0.38766220260E+02 -0.19512304346E+02 -0.27089180000E+00  0.43400728525E+02  0.00000000000E+00 0. -1.
         11    1    3    3    0    0 -0.12904476835E+02  0.16351432461E+01  0.32999975266E+01  0.13419731732E+02  0.51100000000E-03 0. -1.
        -11    1    3    3    0    0 -0.23140758097E+02  0.19245662350E+02 -0.37094302756E-01  0.30098032841E+02  0.51100000000E-03 0.  1.
        -12    1    3    3    0    0 -0.27209853280E+01 -0.13685012502E+01 -0.29920114238E+01  0.42695069021E+01  0.00000000000E+00 0.  1.
</event>
<event>
 7    1  0.4937359E-010  0.4778727E+02  0.7816164E-02  0.1312668E+00
        -11   -1    0    0    0    0  0.00000000000E+00  0.00000000000E+00  0.45593999997E+02  0.45594000000E+02  0.51100000000E-03 0.  1.
         11   -1    0    0    0    0 -0.00000000000E+00 -0.00000000000E+00 -0.45593999997E+02  0.45594000000E+02  0.51100000000E-03 0. -1.
    9900012    2    1    2    0    0  0.46249443133E+01 -0.15444836369E+01  0.43125950972E+02  0.47787272047E+02  0.20000004570E+02 0.  0.
         12    1    1    2    0    0 -0.46249443133E+01  0.15444836369E+01 -0.43125950972E+02  0.43400727953E+02  0.00000000000E+00 0. -1.
         11    1    3    3    0    0  0.21910350583E+01 -0.45343761016E+00  0.12874573593E+01  0.25814311934E+01  0.51100000000E-03 0. -1.
        -11    1    3    3    0    0 -0.22451163538E+01  0.27664458898E+01  0.71024315361E+00  0.36329348881E+01  0.51100000000E-03 0.  1.
        -12    1    3    3    0    0  0.46790256088E+01 -0.38574919165E+01  0.41128250459E+02  0.41572905965E+02  0.00000000000E+00 0.  1.
</event>
<event>
 7    1  0.4937359E-010  0.4778725E+02  0.7816164E-02  0.1312668E+00
        -11   -1    0    0    0    0  0.00000000000E+00  0.00000000000E+00  0.45593999997E+02  0.45594000000E+02  0.51100000000E-03 0. -1.
         11   -1    0    0    0    0 -0.00000000000E+00 -0.00000000000E+00 -0.45593999997E+02  0.45594000000E+02  0.51100000000E-03 0.  1.
    9900012    2    1    2    0    0 -0.31592394778E+01  0.34379611125E+02 -0.26299939795E+02  0.47787247836E+02  0.19999894183E+02 0.  0.
         12    1    1    2    0    0  0.31592394778E+01 -0.34379611125E+02  0.26299939795E+02  0.43400752164E+02  0.00000000000E+00 0. -1.
         11    1    3    3    0    0  0.20075062024E+01  0.83056625228E+01 -0.38309284059E+01  0.93643004975E+01  0.51100000000E-03 0.  1.
        -11    1    3    3    0    0  0.53828386373E+01  0.40248432511E+01 -0.51084027851E+01  0.84421617058E+01  0.51100000000E-03 0. -1.
        -12    1    3    3    0    0 -0.10549584317E+02  0.22049105351E+02 -0.17360608604E+02  0.29980785633E+02  0.00000000000E+00 0.  1.
</event>
<event>
 7    1  0.7547962E-010  0.4778728E+02  0.7816164E-02  0.1312668E+00
        -11   -1    0    0    0    0  0.00000000000E+00  0.00000000000E+00  0.45593999997E+02  0.45594000000E+02  0.51100000000E-03 0.  1.
         11   -1    0    0    0    0 -0.00000000000E+00 -0.00000000000E+00 -0.45593999997E+02  0.45594000000E+02  0.51100000000E-03 0. -1.
    9900012    2    1    2    0    0  0.10334153714E+02 -0.37196569763E+02  0.19830361241E+02  0.47787276940E+02  0.20000026881E+02 0.  0.
         12    1    1    2    0    0 -0.10334153714E+02  0.37196569763E+02 -0.19830361241E+02  0.43400723060E+02  0.00000000000E+00 0. -1.
         11    1    3    3    0    0 -0.19688757108E+01 -0.18276219040E+02  0.35710928407E+01  0.18725633722E+02  0.51100000000E-03 0. -1.
        -11    1    3    3    0    0  0.37280141399E+01 -0.11551163974E+02  0.11736660809E+02  0.16884214100E+02  0.51100000000E-03 0.  1.
         12    1    3    3    0    0  0.85750152852E+01 -0.73691867499E+01  0.45226075920E+01  0.12177429118E+02  0.00000000000E+00 0. -1.
</event>
<event>
 7    1  0.4937359E-010  0.4778730E+02  0.7816164E-02  0.1312668E+00
        -11   -1    0    0    0    0  0.00000000000E+00  0.00000000000E+00  0.45593999997E+02  0.45594000000E+02  0.51100000000E-03 0.  1.
         11   -1    0    0    0    0 -0.00000000000E+00 -0.00000000000E+00 -0.45593999997E+02  0.45594000000E+02  0.51100000000E-03 0. -1.
    9900012    2    1    2    0    0  0.18911174782E+02  0.21573521737E+02  0.32566421066E+02  0.47787295480E+02  0.20000111410E+02 0.  0.
         12    1    1    2    0    0 -0.18911174782E+02 -0.21573521737E+02 -0.32566421066E+02  0.43400704520E+02  0.00000000000E+00 0. -1.
         11    1    3    3    0    0  0.13154107258E+02  0.19906634191E+01  0.87747863126E+01  0.15937068541E+02  0.51100000000E-03 0. -1.
        -11    1    3    3    0    0  0.43765829999E+01  0.17396038840E+02  0.17556018695E+02  0.25099610331E+02  0.51100000000E-03 0.  1.
         12    1    3    3    0    0  0.13804845239E+01  0.21868194785E+01  0.62356160583E+01  0.67506166073E+01  0.00000000000E+00 0. -1.
</event>
<event>
 7    1  0.4937359E-010  0.4778727E+02  0.7816164E-02  0.1312668E+00
        -11   -1    0    0    0    0  0.00000000000E+00  0.00000000000E+00  0.45593999997E+02  0.45594000000E+02  0.51100000000E-03 0. -1.
         11   -1    0    0    0    0 -0.00000000000E+00 -0.00000000000E+00 -0.45593999997E+02  0.45594000000E+02  0.51100000000E-03 0.  1.
    9900012    2    1    2    0    0  0.25020508638E+02  0.24393635732E+02  0.25740003066E+02  0.47787273341E+02  0.20000010471E+02 0.  0.
         12    1    1    2    0    0 -0.25020508638E+02 -0.24393635732E+02 -0.25740003066E+02  0.43400726659E+02  0.00000000000E+00 0. -1.
         11    1    3    3    0    0  0.14004681416E+01  0.11795361095E+02  0.79161464788E+01  0.14274355667E+02  0.51100000000E-03 0. -1.
        -11    1    3    3    0    0  0.12910506436E+02  0.21624850284E+01  0.57670456819E+01  0.14304416594E+02  0.51100000000E-03 0.  1.
         12    1    3    3    0    0  0.10709534060E+02  0.10435789608E+02  0.12056810905E+02  0.19208501080E+02  0.00000000000E+00 0. -1.
</event>
<event>
 7    1  0.4937359E-010  0.4778727E+02  0.7816164E-02  0.1312668E+00
        -11   -1    0    0    0    0  0.00000000000E+00  0.00000000000E+00  0.45593999997E+02  0.45594000000E+02  0.51100000000E-03 0.  1.
         11   -1    0    0    0    0 -0.00000000000E+00 -0.00000000000E+00 -0.45593999997E+02  0.45594000000E+02  0.51100000000E-03 0. -1.
    9900012    2    1    2    0    0  0.27631679934E+02  0.25298158016E+01  0.33372347159E+02  0.47787271218E+02  0.20000000789E+02 0.  0.
         12    1    1    2    0    0 -0.27631679934E+02 -0.25298158016E+01 -0.33372347159E+02  0.43400728782E+02  0.00000000000E+00 0. -1.
         11    1    3    3    0    0  0.22109831435E+02  0.99021085559E+01  0.27658750080E+02  0.36768231616E+02  0.51100000000E-03 0. -1.
        -11    1    3    3    0    0  0.45133576850E+01 -0.61708535079E+01  0.37784183752E+01  0.85279702326E+01  0.51100000000E-03 0.  1.
         12    1    3    3    0    0  0.10084908137E+01 -0.12014392464E+01  0.19351787035E+01  0.24910693685E+01  0.00000000000E+00 0. -1.
</event>
<event>
 7    1  0.4937359E-010  0.4778727E+02  0.7816164E-02  0.1312668E+00
        -11   -1    0    0    0    0  0.00000000000E+00  0.00000000000E+00  0.45593999997E+02  0.45594000000E+02  0.51100000000E-03 0. -1.
         11   -1    0    0    0    0 -0.00000000000E+00 -0.00000000000E+00 -0.45593999997E+02  0.45594000000E+02  0.51100000000E-03 0.  1.
    9900012    2    1    2    0    0 -0.23700135924E+02  0.14295205871E+01 -0.36330198692E+02  0.47787270640E+02  0.19999998158E+02 0.  0.
         12    1    1    2    0    0  0.23700135924E+02 -0.14295205871E+01  0.36330198692E+02  0.43400729360E+02  0.00000000000E+00 0. -1.
         11    1    3    3    0    0  0.14163427647E+01 -0.34657263467E+01 -0.17147240104E+01  0.41179563658E+01  0.51100000000E-03 0. -1.
        -11    1    3    3    0    0 -0.19154266364E+02  0.67248127659E+01 -0.24934012524E+02  0.32152978206E+02  0.51100000000E-03 0.  1.
         12    1    3    3    0    0 -0.59622123245E+01 -0.18295658320E+01 -0.96814621579E+01  0.11516336069E+02  0.00000000000E+00 0. -1.
</event>
<event>
 7    1  0.4937359E-010  0.4778727E+02  0.7816164E-02  0.1312668E+00
        -11   -1    0    0    0    0  0.00000000000E+00  0.00000000000E+00  0.45593999997E+02  0.45594000000E+02  0.51100000000E-03 0.  1.
         11   -1    0    0    0    0 -0.00000000000E+00 -0.00000000000E+00 -0.45593999997E+02  0.45594000000E+02  0.51100000000E-03 0. -1.
    9900012    2    1    2    0    0  0.10090332974E+02 -0.42074681102E+02 -0.33956042485E+01  0.47787265703E+02  0.19999975645E+02 0.  0.
         12    1    1    2    0    0 -0.10090332974E+02  0.42074681102E+02  0.33956042485E+01  0.43400734297E+02  0.00000000000E+00 0. -1.
         11    1    3    3    0    0  0.14799353614E+01 -0.22524126032E+01  0.44209469647E+01  0.51776774266E+01  0.51100000000E-03 0. -1.
        -11    1    3    3    0    0  0.36092536586E+01 -0.29573463504E+02 -0.21365044746E+01  0.29869400851E+02  0.51100000000E-03 0.  1.
        -12    1    3    3    0    0  0.50011439544E+01 -0.10248804995E+02 -0.56800467386E+01  0.12740187425E+02  0.00000000000E+00 0.  1.
</event>
<event>
 7    1  0.4937359E-010  0.4778727E+02  0.7816164E-02  0.1312668E+00
        -11   -1    0    0    0    0  0.00000000000E+00  0.00000000000E+00  0.45593999997E+02  0.45594000000E+02  0.51100000000E-03 0.  1.
         11   -1    0    0    0    0 -0.00000000000E+00 -0.00000000000E+00 -0.45593999997E+02  0.45594000000E+02  0.51100000000E-03 0. -1.
    9900012    2    1    2    0    0  0.24030734528E+02 -0.55552512354E+01  0.35711151392E+02  0.47787270145E+02  0.19999995898E+02 0.  0.
         12    1    1    2    0    0 -0.24030734528E+02  0.55552512354E+01 -0.35711151392E+02  0.43400729855E+02  0.00000000000E+00 0. -1.
         11    1    3    3    0    0 -0.17512425294E+01 -0.17718796450E+01  0.10833772751E+02  0.11116521046E+02  0.51100000000E-03 0. -1.
        -11    1    3    3    0    0  0.99731112893E+01 -0.20713402520E+01  0.54066511988E+01  0.11531924240E+02  0.51100000000E-03 0.  1.
         12    1    3    3    0    0  0.15808865769E+02 -0.17120313384E+01  0.19470727441E+02  0.25138824859E+02  0.00000000000E+00 0. -1.
</event>
<event>
 7    1  0.4937359E-010  0.4778727E+02  0.7816164E-02  0.1312668E+00
        -11   -1    0    0    0    0  0.00000000000E+00  0.00000000000E+00  0.45593999997E+02  0.45594000000E+02  0.51100000000E-03 0.  1.
         11   -1    0    0    0    0 -0.00000000000E+00 -0.00000000000E+00 -0.45593999997E+02  0.45594000000E+02  0.51100000000E-03 0. -1.
    9900012    2    1    2    0    0 -0.80578137366E+01  0.41361531185E+02  0.10388395589E+02  0.47787269740E+02  0.19999994054E+02 0.  0.
         12    1    1    2    0    0  0.80578137366E+01 -0.41361531185E+02 -0.10388395589E+02  0.43400730260E+02  0.00000000000E+00 0. -1.
         11    1    3    3    0    0  0.52251232763E+01  0.69468991371E+01  0.48036677082E+01  0.99315932551E+01  0.51100000000E-03 0. -1.
        -11    1    3    3    0    0 -0.28632624192E+01  0.76094567333E+01  0.39789823586E+01  0.90517624984E+01  0.51100000000E-03 0.  1.
         12    1    3    3    0    0 -0.10419674594E+02  0.26805175314E+02  0.16057455226E+01  0.28803913987E+02  0.00000000000E+00 0. -1.
</event>
<event>
 7    1  0.4937359E-010  0.4778727E+02  0.7816164E-02  0.1312668E+00
        -11   -1    0    0    0    0  0.00000000000E+00  0.00000000000E+00  0.45593999997E+02  0.45594000000E+02  0.51100000000E-03 0.  1.
         11   -1    0    0    0    0 -0.00000000000E+00 -0.00000000000E+00 -0.45593999997E+02  0.45594000000E+02  0.51100000000E-03 0. -1.
    9900012    2    1    2    0    0  0.38668132973E+02  0.15371127660E+02  0.12334001946E+02  0.47787266398E+02  0.19999978817E+02 0.  0.
         12    1    1    2    0    0 -0.38668132973E+02 -0.15371127660E+02 -0.12334001946E+02  0.43400733602E+02  0.00000000000E+00 0. -1.
         11    1    3    3    0    0  0.10668966733E+02  0.12084728670E+02  0.67876126488E+01  0.17491117858E+02  0.51100000000E-03 0. -1.
        -11    1    3    3    0    0  0.15390426377E+02 -0.24590797268E+01  0.64591287005E+00  0.15599022433E+02  0.51100000000E-03 0.  1.
         12    1    3    3    0    0  0.12608739863E+02  0.57454787166E+01  0.49004764270E+01  0.14697126108E+02  0.00000000000E+00 0. -1.
</event>
<event>
 7    1  0.4937359E-010  0.4778727E+02  0.7816164E-02  0.1312668E+00
        -11   -1    0    0    0    0  0.00000000000E+00  0.00000000000E+00  0.45593999997E+02  0.45594000000E+02  0.51100000000E-03 0.  1.
         11   -1    0    0    0    0 -0.00000000000E+00 -0.00000000000E+00 -0.45593999997E+02  0.45594000000E+02  0.51100000000E-03 0. -1.
    9900012    2    1    2    0    0  0.54538200080E+00 -0.25777169224E+02  0.34912230585E+02  0.47787265684E+02  0.19999975559E+02 0.  0.
         12    1    1    2    0    0 -0.54538200080E+00  0.25777169224E+02 -0.34912230585E+02  0.43400734316E+02  0.00000000000E+00 0. -1.
         11    1    3    3    0    0 -0.96895648218E+00  0.19408013075E+01  0.35092319359E+00  0.21974379919E+01  0.51100000000E-03 0. -1.
        -11    1    3    3    0    0 -0.32199531052E+01 -0.25358848692E+01  0.51689472788E+01  0.65967284544E+01  0.51100000000E-03 0.  1.
         12    1    3    3    0    0  0.47342915882E+01 -0.25182085662E+02  0.29392360113E+02  0.38993099238E+02  0.00000000000E+00 0. -1.
</event>
<event>
 7    1  0.4937359E-010  0.4778727E+02  0.7816164E-02  0.1312668E+00
        -11   -1    0    0    0    0  0.00000000000E+00  0.00000000000E+00  0.45593999997E+02  0.45594000000E+02  0.51100000000E-03 0. -1.
         11   -1    0    0    0    0 -0.00000000000E+00 -0.00000000000E+00 -0.45593999997E+02  0.45594000000E+02  0.51100000000E-03 0.  1.
    9900012    2    1    2    0    0  0.10513491317E+02 -0.41903417852E+02 -0.41464740695E+01  0.47787272189E+02  0.20000005217E+02 0.  0.
         12    1    1    2    0    0 -0.10513491317E+02  0.41903417852E+02  0.41464740695E+01  0.43400727811E+02  0.00000000000E+00 0. -1.
         11    1    3    3    0    0  0.22926531850E+01 -0.22864778346E+02 -0.55682650783E+00  0.22986178531E+02  0.51100000000E-03 0. -1.
        -11    1    3    3    0    0  0.31521140250E+01 -0.31264805718E+01  0.44330986906E+01  0.62739993508E+01  0.51100000000E-03 0.  1.
        -12    1    3    3    0    0  0.50687241075E+01 -0.15912158934E+02 -0.80227462523E+01  0.18527094306E+02  0.00000000000E+00 0.  1.
</event>
<event>
 7    1  0.4937359E-010  0.4778727E+02  0.7816164E-02  0.1312668E+00
        -11   -1    0    0    0    0  0.00000000000E+00  0.00000000000E+00  0.45593999997E+02  0.45594000000E+02  0.51100000000E-03 0.  1.
         11   -1    0    0    0    0 -0.00000000000E+00 -0.00000000000E+00 -0.45593999997E+02  0.45594000000E+02  0.51100000000E-03 0. -1.
    9900012    2    1    2    0    0 -0.21352848166E+02 -0.20420183656E+02  0.31791431519E+02  0.47787272548E+02  0.20000006854E+02 0.  0.
         12    1    1    2    0    0  0.21352848166E+02  0.20420183656E+02 -0.31791431519E+02  0.43400727452E+02  0.00000000000E+00 0. -1.
         11    1    3    3    0    0  0.10544459710E+01 -0.12847899615E+01  0.61359389966E+00  0.17717334127E+01  0.51100000000E-03 0. -1.
        -11    1    3    3    0    0 -0.14980454542E+01 -0.58040261632E+01  0.15646948022E+02  0.16755830106E+02  0.51100000000E-03 0.  1.
        -12    1    3    3    0    0 -0.20909248683E+02 -0.13331367531E+02  0.15530889598E+02  0.29259709029E+02  0.00000000000E+00 0.  1.
</event>
<event>
 7    1  0.4937359E-010  0.4778727E+02  0.7816164E-02  0.1312668E+00
        -11   -1    0    0    0    0  0.00000000000E+00  0.00000000000E+00  0.45593999997E+02  0.45594000000E+02  0.51100000000E-03 0.  1.
         11   -1    0    0    0    0 -0.00000000000E+00 -0.00000000000E+00 -0.45593999997E+02  0.45594000000E+02  0.51100000000E-03 0. -1.
    9900012    2    1    2    0    0 -0.29278365061E+01  0.17431059451E+02  0.39638482339E+02  0.47787270256E+02  0.19999996403E+02 0.  0.
         12    1    1    2    0    0  0.29278365061E+01 -0.17431059451E+02 -0.39638482339E+02  0.43400729744E+02  0.00000000000E+00 0. -1.
         11    1    3    3    0    0  0.97257019711E+00 -0.18319167282E+01 -0.84695653822E+00  0.22403453586E+01  0.51100000000E-03 0. -1.
        -11    1    3    3    0    0  0.34260552045E+00  0.87883772951E+01  0.23990419297E+02  0.25551774348E+02  0.51100000000E-03 0.  1.
         12    1    3    3    0    0 -0.42430122237E+01  0.10474598884E+02  0.16495019580E+02  0.19995150549E+02  0.00000000000E+00 0. -1.
</event>
<event>
 7    1  0.4937359E-010  0.4778727E+02  0.7816164E-02  0.1312668E+00
        -11   -1    0    0    0    0  0.00000000000E+00  0.00000000000E+00  0.45593999997E+02  0.45594000000E+02  0.51100000000E-03 0.  1.
         11   -1    0    0    0    0 -0.00000000000E+00 -0.00000000000E+00 -0.45593999997E+02  0.45594000000E+02  0.51100000000E-03 0. -1.
    9900012    2    1    2    0    0 -0.41788670366E+02 -0.11373971905E+02  0.28219329563E+01  0.47787268285E+02  0.19999987417E+02 0.  0.
         12    1    1    2    0    0  0.41788670366E+02  0.11373971905E+02 -0.28219329563E+01  0.43400731715E+02  0.00000000000E+00 0. -1.
         11    1    3    3    0    0  0.12464238072E+01 -0.35685560122E+00 -0.94202525830E+00  0.16026010345E+01  0.51100000000E-03 0. -1.
        -11    1    3    3    0    0 -0.43844299152E+02 -0.10592113243E+02  0.35444361304E+01  0.45244651163E+02  0.51100000000E-03 0.  1.
        -12    1    3    3    0    0  0.80920497907E+00 -0.42500306054E+00  0.21952208416E+00  0.94001608766E+00  0.00000000000E+00 0.  1.
</event>
<event>
 7    1  0.4937359E-010  0.4778727E+02  0.7816164E-02  0.1312668E+00
        -11   -1    0    0    0    0  0.00000000000E+00  0.00000000000E+00  0.45593999997E+02  0.45594000000E+02  0.51100000000E-03 0.  1.
         11   -1    0    0    0    0 -0.00000000000E+00 -0.00000000000E+00 -0.45593999997E+02  0.45594000000E+02  0.51100000000E-03 0. -1.
    9900012    2    1    2    0    0  0.29376815262E+02  0.15775751706E+02  0.27780418772E+02  0.47787270928E+02  0.19999999469E+02 0.  0.
         12    1    1    2    0    0 -0.29376815262E+02 -0.15775751706E+02 -0.27780418772E+02  0.43400729072E+02  0.00000000000E+00 0. -1.
         11    1    3    3    0    0  0.58486495337E+01  0.30244967567E+01 -0.22308560571E+01  0.69520501298E+01  0.51100000000E-03 0. -1.
        -11    1    3    3    0    0  0.42382145496E+00  0.22676754402E+01  0.28642252529E+01  0.36777388554E+01  0.51100000000E-03 0.  1.
         12    1    3    3    0    0  0.23104344273E+02  0.10483579509E+02  0.27147049577E+02  0.37157481943E+02  0.00000000000E+00 0. -1.
</event>
<event>
 7    1  0.4937359E-010  0.4778727E+02  0.7816164E-02  0.1312668E+00
        -11   -1    0    0    0    0  0.00000000000E+00  0.00000000000E+00  0.45593999997E+02  0.45594000000E+02  0.51100000000E-03 0. -1.
         11   -1    0    0    0    0 -0.00000000000E+00 -0.00000000000E+00 -0.45593999997E+02  0.45594000000E+02  0.51100000000E-03 0.  1.
    9900012    2    1    2    0    0 -0.13860129941E+02 -0.40895973295E+02 -0.43634128400E+01  0.47787271834E+02  0.20000003600E+02 0.  0.
         12    1    1    2    0    0  0.13860129941E+02  0.40895973295E+02  0.43634128400E+01  0.43400728166E+02  0.00000000000E+00 0. -1.
         11    1    3    3    0    0  0.95730602738E+00  0.61828595138E+00 -0.24991519307E+01  0.27467204047E+01  0.51100000000E-03 0. -1.
        -11    1    3    3    0    0 -0.37497213222E+00 -0.12075000928E+02 -0.20233468603E+01  0.12249089121E+02  0.51100000000E-03 0.  1.
         12    1    3    3    0    0 -0.14442463837E+02 -0.29439258318E+02  0.15908595107E+00  0.32791462308E+02  0.00000000000E+00 0. -1.
</event>
<event>
 7    1  0.4937359E-010  0.4778727E+02  0.7816164E-02  0.1312668E+00
        -11   -1    0    0    0    0  0.00000000000E+00  0.00000000000E+00  0.45593999997E+02  0.45594000000E+02  0.51100000000E-03 0.  1.
         11   -1    0    0    0    0 -0.00000000000E+00 -0.00000000000E+00 -0.45593999997E+02  0.45594000000E+02  0.51100000000E-03 0. -1.
    9900012    2    1    2    0    0 -0.31433615818E+02 -0.11742680970E+02  0.27525633517E+02  0.47787271201E+02  0.20000000715E+02 0.  0.
         12    1    1    2    0    0  0.31433615818E+02  0.11742680970E+02 -0.27525633517E+02  0.43400728799E+02  0.00000000000E+00 0. -1.
         11    1    3    3    0    0 -0.17994150390E+02 -0.13861486056E+02  0.21338350200E+02  0.31164971257E+02  0.51100000000E-03 0. -1.
        -11    1    3    3    0    0 -0.36587939397E+01  0.37906343336E+01  0.79127184196E+00  0.53274565351E+01  0.51100000000E-03 0.  1.
         12    1    3    3    0    0 -0.97806714886E+01 -0.16718292474E+01  0.53960114747E+01  0.11294843409E+02  0.00000000000E+00 0. -1.
</event>
<event>
 7    1  0.4937359E-010  0.4778727E+02  0.7816164E-02  0.1312668E+00
        -11   -1    0    0    0    0  0.00000000000E+00  0.00000000000E+00  0.45593999997E+02  0.45594000000E+02  0.51100000000E-03 0.  1.
         11   -1    0    0    0    0 -0.00000000000E+00 -0.00000000000E+00 -0.45593999997E+02  0.45594000000E+02  0.51100000000E-03 0. -1.
    9900012    2    1    2    0    0 -0.23808521094E-01  0.13072738739E+02  0.41385094113E+02  0.47787273281E+02  0.20000010198E+02 0.  0.
         12    1    1    2    0    0  0.23808521094E-01 -0.13072738739E+02 -0.41385094113E+02  0.43400726719E+02  0.00000000000E+00 0. -1.
         11    1    3    3    0    0  0.77524875652E+01  0.45539582397E+01  0.19203886229E+02  0.21204453439E+02  0.51100000000E-03 0. -1.
        -11    1    3    3    0    0  0.20195569426E+01  0.95880619607E+00  0.41562243652E+01  0.47193347837E+01  0.51100000000E-03 0.  1.
         12    1    3    3    0    0 -0.97958530289E+01  0.75599743030E+01  0.18024983519E+02  0.21863485058E+02  0.00000000000E+00 0. -1.
</event>
<event>
 7    1  0.4937359E-010  0.4778727E+02  0.7816164E-02  0.1312668E+00
        -11   -1    0    0    0    0  0.00000000000E+00  0.00000000000E+00  0.45593999997E+02  0.45594000000E+02  0.51100000000E-03 0. -1.
         11   -1    0    0    0    0 -0.00000000000E+00 -0.00000000000E+00 -0.45593999997E+02  0.45594000000E+02  0.51100000000E-03 0.  1.
    9900012    2    1    2    0    0 -0.30130972201E+02 -0.18925945964E+02 -0.24850679891E+02  0.47787271809E+02  0.20000003488E+02 0.  0.
         12    1    1    2    0    0  0.30130972201E+02  0.18925945964E+02  0.24850679891E+02  0.43400728191E+02  0.00000000000E+00 0. -1.
         11    1    3    3    0    0 -0.28698939355E+02 -0.15825858072E+02 -0.14746750508E+02  0.35938190753E+02  0.51100000000E-03 0.  1.
        -11    1    3    3    0    0 -0.20515967598E+01 -0.12141918111E+01 -0.94696921649E+01  0.97651615951E+01  0.51100000000E-03 0. -1.
        -12    1    3    3    0    0  0.61956391335E+00 -0.18858960813E+01 -0.63423721789E+00  0.20839194612E+01  0.00000000000E+00 0.  1.
</event>
<event>
 7    1  0.4937359E-010  0.4778726E+02  0.7816164E-02  0.1312668E+00
        -11   -1    0    0    0    0  0.00000000000E+00  0.00000000000E+00  0.45593999997E+02  0.45594000000E+02  0.51100000000E-03 0.  1.
         11   -1    0    0    0    0 -0.00000000000E+00 -0.00000000000E+00 -0.45593999997E+02  0.45594000000E+02  0.51100000000E-03 0. -1.
    9900012    2    1    2    0    0  0.17507433228E+02  0.38807382931E+02  0.84321236457E+01  0.47787263861E+02  0.19999967248E+02 0.  0.
         12    1    1    2    0    0 -0.17507433228E+02 -0.38807382931E+02 -0.84321236457E+01  0.43400736139E+02  0.00000000000E+00 0. -1.
         11    1    3    3    0    0  0.50340553684E+01  0.11115063365E+02  0.87995010983E+00  0.12233587353E+02  0.51100000000E-03 0. -1.
        -11    1    3    3    0    0  0.13655170682E+02  0.16600823884E+02 -0.96868834620E+00  0.21517188417E+02  0.51100000000E-03 0.  1.
        -12    1    3    3    0    0 -0.11817928216E+01  0.11091495682E+02  0.85208618820E+01  0.14036488092E+02  0.00000000000E+00 0.  1.
</event>
<event>
 7    1  0.4937359E-010  0.4778727E+02  0.7816164E-02  0.1312668E+00
        -11   -1    0    0    0    0  0.00000000000E+00  0.00000000000E+00  0.45593999997E+02  0.45594000000E+02  0.51100000000E-03 0. -1.
         11   -1    0    0    0    0 -0.00000000000E+00 -0.00000000000E+00 -0.45593999997E+02  0.45594000000E+02  0.51100000000E-03 0.  1.
    9900012    2    1    2    0    0 -0.33706197198E+02  0.27335689736E+02 -0.52491039248E+00  0.47787271967E+02  0.20000004206E+02 0.  0.
         12    1    1    2    0    0  0.33706197198E+02 -0.27335689736E+02  0.52491039248E+00  0.43400728033E+02  0.00000000000E+00 0. -1.
         11    1    3    3    0    0 -0.11764008492E+01 -0.25081163091E+01  0.35835122089E+00  0.27933818637E+01  0.51100000000E-03 0. -1.
        -11    1    3    3    0    0 -0.31608505907E+02  0.27638425527E+02 -0.25733246677E+01  0.42066640125E+02  0.51100000000E-03 0.  1.
        -12    1    3    3    0    0 -0.92129044116E+00  0.22053805185E+01  0.16900630543E+01  0.29272499784E+01  0.00000000000E+00 0.  1.
</event>
<event>
 7    1  0.4937359E-010  0.4778726E+02  0.7816164E-02  0.1312668E+00
        -11   -1    0    0    0    0  0.00000000000E+00  0.00000000000E+00  0.45593999997E+02  0.45594000000E+02  0.51100000000E-03 0.  1.
         11   -1    0    0    0    0 -0.00000000000E+00 -0.00000000000E+00 -0.45593999997E+02  0.45594000000E+02  0.51100000000E-03 0. -1.
    9900012    2    1    2    0    0  0.30745134822E+02 -0.26243607134E+02  0.15799803383E+02  0.47787262476E+02  0.19999960934E+02 0.  0.
         12    1    1    2    0    0 -0.30745134822E+02  0.26243607134E+02 -0.15799803383E+02  0.43400737524E+02  0.00000000000E+00 0. -1.
         11    1    3    3    0    0 -0.23043924076E+01  0.21167836703E-01  0.48002360412E-01  0.23049895733E+01  0.51100000000E-03 0. -1.
        -11    1    3    3    0    0  0.20952147701E+02 -0.20303688789E+02  0.10437979135E+02  0.30986830758E+02  0.51100000000E-03 0.  1.
         12    1    3    3    0    0  0.12097379529E+02 -0.59610861821E+01  0.53138218875E+01  0.14495442145E+02  0.00000000000E+00 0. -1.
</event>
<event>
 7    1  0.4937359E-010  0.4778728E+02  0.7816164E-02  0.1312668E+00
        -11   -1    0    0    0    0  0.00000000000E+00  0.00000000000E+00  0.45593999997E+02  0.45594000000E+02  0.51100000000E-03 0.  1.
         11   -1    0    0    0    0 -0.00000000000E+00 -0.00000000000E+00 -0.45593999997E+02  0.45594000000E+02  0.51100000000E-03 0. -1.
    9900012    2    1    2    0    0 -0.75012507096E+00  0.30824402761E+02  0.30543678765E+02  0.47787276438E+02  0.20000024591E+02 0.  0.
         12    1    1    2    0    0  0.75012507096E+00 -0.30824402761E+02 -0.30543678765E+02  0.43400723562E+02  0.00000000000E+00 0. -1.
         11    1    3    3    0    0  0.36190860532E+01  0.87160804057E+01  0.78633938195E-01  0.94379036368E+01  0.51100000000E-03 0. -1.
        -11    1    3    3    0    0 -0.31184259775E+01  0.13695805459E+02  0.14079225842E+02  0.19887791942E+02  0.51100000000E-03 0.  1.
         12    1    3    3    0    0 -0.12507851466E+01  0.84125168957E+01  0.16385818985E+02  0.18461580859E+02  0.00000000000E+00 0. -1.
</event>
<event>
 7    1  0.5071610E-010  0.4778727E+02  0.7816164E-02  0.1312668E+00
        -11   -1    0    0    0    0  0.00000000000E+00  0.00000000000E+00  0.45593999997E+02  0.45594000000E+02  0.51100000000E-03 0.  1.
         11   -1    0    0    0    0 -0.00000000000E+00 -0.00000000000E+00 -0.45593999997E+02  0.45594000000E+02  0.51100000000E-03 0. -1.
    9900012    2    1    2    0    0  0.31870083433E+02  0.27570590606E+02  0.10381894429E+02  0.47787269403E+02  0.19999992517E+02 0.  0.
         12    1    1    2    0    0 -0.31870083433E+02 -0.27570590606E+02 -0.10381894429E+02  0.43400730597E+02  0.00000000000E+00 0. -1.
         11    1    3    3    0    0  0.16844993118E+02  0.12033605397E+02 -0.24440137525E+01  0.20845494848E+02  0.51100000000E-03 0. -1.
        -11    1    3    3    0    0  0.15541037025E+02  0.10814262600E+02  0.10543656768E+02  0.21671197607E+02  0.51100000000E-03 0.  1.
         12    1    3    3    0    0 -0.51594671028E+00  0.47227226096E+01  0.22822514131E+01  0.52705769483E+01  0.00000000000E+00 0. -1.
</event>
<event>
 7    1  0.4937359E-010  0.4778728E+02  0.7816164E-02  0.1312668E+00
        -11   -1    0    0    0    0  0.00000000000E+00  0.00000000000E+00  0.45593999997E+02  0.45594000000E+02  0.51100000000E-03 0. -1.
         11   -1    0    0    0    0 -0.00000000000E+00 -0.00000000000E+00 -0.45593999997E+02  0.45594000000E+02  0.51100000000E-03 0.  1.
    9900012    2    1    2    0    0 -0.36246242925E+02 -0.22197661149E+02 -0.87804628483E+01  0.47787276337E+02  0.20000024130E+02 0.  0.
         12    1    1    2    0    0  0.36246242925E+02  0.22197661149E+02  0.87804628483E+01  0.43400723663E+02  0.00000000000E+00 0. -1.
         11    1    3    3    0    0 -0.15322168159E+02 -0.17606294764E+02 -0.77547438829E+01  0.24594440538E+02  0.51100000000E-03 0.  1.
        -11    1    3    3    0    0 -0.14257007359E+02 -0.27548438838E-01  0.23263300824E+01  0.14445581665E+02  0.51100000000E-03 0. -1.
         12    1    3    3    0    0 -0.66670674072E+01 -0.45638179456E+01 -0.33520490478E+01  0.87472541333E+01  0.00000000000E+00 0. -1.
</event>
<event>
 7    1  0.4937359E-010  0.4778726E+02  0.7816164E-02  0.1312668E+00
        -11   -1    0    0    0    0  0.00000000000E+00  0.00000000000E+00  0.45593999997E+02  0.45594000000E+02  0.51100000000E-03 0. -1.
         11   -1    0    0    0    0 -0.00000000000E+00 -0.00000000000E+00 -0.45593999997E+02  0.45594000000E+02  0.51100000000E-03 0.  1.
    9900012    2    1    2    0    0  0.25532386972E+02  0.28948298984E+02 -0.19842304140E+02  0.47787264613E+02  0.19999970676E+02 0.  0.
         12    1    1    2    0    0 -0.25532386972E+02 -0.28948298984E+02  0.19842304140E+02  0.43400735387E+02  0.00000000000E+00 0. -1.
         11    1    3    3    0    0 -0.54921797637E+00 -0.20679147003E+01 -0.76715790692E-02  0.21396192903E+01  0.51100000000E-03 0. -1.
        -11    1    3    3    0    0  0.70982769540E+01  0.13570848875E+02 -0.80118232095E+01  0.17284177339E+02  0.51100000000E-03 0.  1.
         12    1    3    3    0    0  0.18983327994E+02  0.17445364810E+02 -0.11822809351E+02  0.28363467983E+02  0.00000000000E+00 0. -1.
</event>
<event>
 7    1  0.4937359E-010  0.4778727E+02  0.7816164E-02  0.1312668E+00
        -11   -1    0    0    0    0  0.00000000000E+00  0.00000000000E+00  0.45593999997E+02  0.45594000000E+02  0.51100000000E-03 0. -1.
         11   -1    0    0    0    0 -0.00000000000E+00 -0.00000000000E+00 -0.45593999997E+02  0.45594000000E+02  0.51100000000E-03 0.  1.
    9900012    2    1    2    0    0  0.29203639866E+02 -0.31714655018E+02 -0.49951400395E+01  0.47787270186E+02  0.19999996088E+02 0.  0.
         12    1    1    2    0    0 -0.29203639866E+02  0.31714655018E+02  0.49951400395E+01  0.43400729814E+02  0.00000000000E+00 0. -1.
         11    1    3    3    0    0  0.10322901704E+02 -0.16797331685E+01 -0.84413110882E-01  0.10459011853E+02  0.51100000000E-03 0. -1.
        -11    1    3    3    0    0  0.18336743556E+02 -0.26806149481E+02 -0.72837091607E+01  0.33284504407E+02  0.51100000000E-03 0.  1.
         12    1    3    3    0    0  0.54399460613E+00 -0.32287723688E+01  0.23729822321E+01  0.40437539261E+01  0.00000000000E+00 0. -1.
</event>
<event>
 7    1  0.4937359E-010  0.4778727E+02  0.7816164E-02  0.1312668E+00
        -11   -1    0    0    0    0  0.00000000000E+00  0.00000000000E+00  0.45593999997E+02  0.45594000000E+02  0.51100000000E-03 0.  1.
         11   -1    0    0    0    0 -0.00000000000E+00 -0.00000000000E+00 -0.45593999997E+02  0.45594000000E+02  0.51100000000E-03 0. -1.
    9900012    2    1    2    0    0 -0.27171567890E+02 -0.18707918678E+02  0.28201832000E+02  0.47787266700E+02  0.19999980190E+02 0.  0.
         12    1    1    2    0    0  0.27171567890E+02  0.18707918678E+02 -0.28201832000E+02  0.43400733300E+02  0.00000000000E+00 0. -1.
         11    1    3    3    0    0 -0.13622604245E+02 -0.17271241373E+02  0.11729068416E+02  0.24928741869E+02  0.51100000000E-03 0. -1.
        -11    1    3    3    0    0 -0.13701190738E+02 -0.12858865749E+01  0.11648549084E+02  0.18029554291E+02  0.51100000000E-03 0.  1.
         12    1    3    3    0    0  0.15222709265E+00 -0.15079072978E+00  0.48242145002E+01  0.48289705399E+01  0.00000000000E+00 0. -1.
</event>
<event>
 7    1  0.4937359E-010  0.4778727E+02  0.7816164E-02  0.1312668E+00
        -11   -1    0    0    0    0  0.00000000000E+00  0.00000000000E+00  0.45593999997E+02  0.45594000000E+02  0.51100000000E-03 0. -1.
         11   -1    0    0    0    0 -0.00000000000E+00 -0.00000000000E+00 -0.45593999997E+02  0.45594000000E+02  0.51100000000E-03 0.  1.
    9900012    2    1    2    0    0 -0.35188911443E+02 -0.15669723736E+02 -0.19995597398E+02  0.47787266759E+02  0.19999980462E+02 0.  0.
         12    1    1    2    0    0  0.35188911443E+02  0.15669723736E+02  0.19995597398E+02  0.43400733241E+02  0.00000000000E+00 0. -1.
         11    1    3    3    0    0 -0.16583780399E+02 -0.18282585289E+01 -0.38739319321E+01  0.17128095353E+02  0.51100000000E-03 0.  1.
        -11    1    3    3    0    0 -0.16695830650E+02 -0.60546518785E+01 -0.88830841812E+01  0.19857460948E+02  0.51100000000E-03 0. -1.
         12    1    3    3    0    0 -0.19093003951E+01 -0.77868133281E+01 -0.72385812849E+01  0.10801710458E+02  0.00000000000E+00 0. -1.
</event>
<event>
 7    1  0.4937359E-010  0.4778727E+02  0.7816164E-02  0.1312668E+00
        -11   -1    0    0    0    0  0.00000000000E+00  0.00000000000E+00  0.45593999997E+02  0.45594000000E+02  0.51100000000E-03 0.  1.
         11   -1    0    0    0    0 -0.00000000000E+00 -0.00000000000E+00 -0.45593999997E+02  0.45594000000E+02  0.51100000000E-03 0. -1.
    9900012    2    1    2    0    0 -0.16545850989E+02  0.36065503311E+02  0.17582317118E+02  0.47787267411E+02  0.19999983434E+02 0.  0.
         12    1    1    2    0    0  0.16545850989E+02 -0.36065503311E+02 -0.17582317118E+02  0.43400732589E+02  0.00000000000E+00 0. -1.
         11    1    3    3    0    0 -0.18109146915E+02  0.15721426583E+02  0.87065499091E+01  0.25512907858E+02  0.51100000000E-03 0. -1.
        -11    1    3    3    0    0  0.11622413496E+01  0.92888712306E+01  0.38038828856E+01  0.10104625622E+02  0.51100000000E-03 0.  1.
         12    1    3    3    0    0  0.40105457635E+00  0.11055205497E+02  0.50718843230E+01  0.12169733931E+02  0.00000000000E+00 0. -1.
</event>
<event>
 7    1  0.4937359E-010  0.4778726E+02  0.7816164E-02  0.1312668E+00
        -11   -1    0    0    0    0  0.00000000000E+00  0.00000000000E+00  0.45593999997E+02  0.45594000000E+02  0.51100000000E-03 0.  1.
         11   -1    0    0    0    0 -0.00000000000E+00 -0.00000000000E+00 -0.45593999997E+02  0.45594000000E+02  0.51100000000E-03 0. -1.
    9900012    2    1    2    0    0  0.22396513422E+02 -0.21680059584E+02  0.30199256852E+02  0.47787263699E+02  0.19999966510E+02 0.  0.
         12    1    1    2    0    0 -0.22396513422E+02  0.21680059584E+02 -0.30199256852E+02  0.43400736301E+02  0.00000000000E+00 0. -1.
         11    1    3    3    0    0 -0.16267609664E+01  0.15479060226E+01  0.15149045187E+01  0.27087451446E+01  0.51100000000E-03 0. -1.
        -11    1    3    3    0    0  0.20210897119E+02 -0.23287351426E+02  0.26658121367E+02  0.40760722931E+02  0.51100000000E-03 0.  1.
        -12    1    3    3    0    0  0.38123772688E+01  0.59385819347E-01  0.20262309664E+01  0.43177956233E+01  0.00000000000E+00 0.  1.
</event>
<event>
 7    1  0.4937359E-010  0.4778727E+02  0.7816164E-02  0.1312668E+00
        -11   -1    0    0    0    0  0.00000000000E+00  0.00000000000E+00  0.45593999997E+02  0.45594000000E+02  0.51100000000E-03 0.  1.
         11   -1    0    0    0    0 -0.00000000000E+00 -0.00000000000E+00 -0.45593999997E+02  0.45594000000E+02  0.51100000000E-03 0. -1.
    9900012    2    1    2    0    0 -0.16215975534E+02 -0.13472675846E+02  0.37936165934E+02  0.47787267947E+02  0.19999985877E+02 0.  0.
         12    1    1    2    0    0  0.16215975534E+02  0.13472675846E+02 -0.37936165934E+02  0.43400732053E+02  0.00000000000E+00 0. -1.
         11    1    3    3    0    0 -0.33803605677E+01  0.55216657492E+00  0.61385686646E+01  0.70294915183E+01  0.51100000000E-03 0. -1.
        -11    1    3    3    0    0 -0.30927966261E+01  0.23770016893E+01  0.27305266093E+00  0.39102539583E+01  0.51100000000E-03 0.  1.
        -12    1    3    3    0    0 -0.97428183403E+01 -0.16401844110E+02  0.31524544608E+02  0.36847522470E+02  0.00000000000E+00 0.  1.
</event>
<event>
 7    1  0.4937359E-010  0.4778727E+02  0.7816164E-02  0.1312668E+00
        -11   -1    0    0    0    0  0.00000000000E+00  0.00000000000E+00  0.45593999997E+02  0.45594000000E+02  0.51100000000E-03 0. -1.
         11   -1    0    0    0    0 -0.00000000000E+00 -0.00000000000E+00 -0.45593999997E+02  0.45594000000E+02  0.51100000000E-03 0.  1.
    9900012    2    1    2    0    0 -0.50909952679E+01 -0.90363813518E+01 -0.42143194942E+02  0.47787270736E+02  0.19999998592E+02 0.  0.
         12    1    1    2    0    0  0.50909952679E+01  0.90363813518E+01  0.42143194942E+02  0.43400729264E+02  0.00000000000E+00 0. -1.
         11    1    3    3    0    0  0.20801033634E+01 -0.96556200122E+01 -0.99364272028E+01  0.14010368077E+02  0.51100000000E-03 0. -1.
        -11    1    3    3    0    0 -0.78839495772E+00  0.31561578732E+01 -0.12084729769E+02  0.12514934798E+02  0.51100000000E-03 0.  1.
         12    1    3    3    0    0 -0.63827036735E+01 -0.25369192127E+01 -0.20122037970E+02  0.21261967862E+02  0.00000000000E+00 0. -1.
</event>
<event>
 7    1  0.4937359E-010  0.4778727E+02  0.7816164E-02  0.1312668E+00
        -11   -1    0    0    0    0  0.00000000000E+00  0.00000000000E+00  0.45593999997E+02  0.45594000000E+02  0.51100000000E-03 0.  1.
         11   -1    0    0    0    0 -0.00000000000E+00 -0.00000000000E+00 -0.45593999997E+02  0.45594000000E+02  0.51100000000E-03 0. -1.
    9900012    2    1    2    0    0  0.48082683230E+01  0.28663404835E+02  0.32232176365E+02  0.47787269428E+02  0.19999992629E+02 0.  0.
         12    1    1    2    0    0 -0.48082683230E+01 -0.28663404835E+02 -0.32232176365E+02  0.43400730572E+02  0.00000000000E+00 0. -1.
         11    1    3    3    0    0 -0.18122861929E+01  0.36637850093E+01  0.80655476359E+01  0.90421657122E+01  0.51100000000E-03 0. -1.
        -11    1    3    3    0    0 -0.21439214487E+01  0.49492407307E+01 -0.90297274474E+00  0.54687057909E+01  0.51100000000E-03 0.  1.
        -12    1    3    3    0    0  0.87644759646E+01  0.20050379095E+02  0.25069601474E+02  0.33276397925E+02  0.00000000000E+00 0.  1.
</event>
<event>
 7    1  0.4937359E-010  0.4778727E+02  0.7816164E-02  0.1312668E+00
        -11   -1    0    0    0    0  0.00000000000E+00  0.00000000000E+00  0.45593999997E+02  0.45594000000E+02  0.51100000000E-03 0. -1.
         11   -1    0    0    0    0 -0.00000000000E+00 -0.00000000000E+00 -0.45593999997E+02  0.45594000000E+02  0.51100000000E-03 0.  1.
    9900012    2    1    2    0    0  0.54790536334E+00 -0.16769489745E+02 -0.40026337536E+02  0.47787266329E+02  0.19999978502E+02 0.  0.
         12    1    1    2    0    0 -0.54790536334E+00  0.16769489745E+02  0.40026337536E+02  0.43400733671E+02  0.00000000000E+00 0. -1.
         11    1    3    3    0    0  0.15338576496E+01 -0.37900071545E+01 -0.32109508742E+01  0.51987574764E+01  0.51100000000E-03 0. -1.
        -11    1    3    3    0    0  0.79433918491E+01 -0.68161245335E+01 -0.16090911785E+02  0.19195688840E+02  0.51100000000E-03 0.  1.
        -12    1    3    3    0    0 -0.89293441354E+01 -0.61633580573E+01 -0.20724474877E+02  0.23392820013E+02  0.00000000000E+00 0.  1.
</event>
<event>
 7    1  0.4937359E-010  0.4778727E+02  0.7816164E-02  0.1312668E+00
        -11   -1    0    0    0    0  0.00000000000E+00  0.00000000000E+00  0.45593999997E+02  0.45594000000E+02  0.51100000000E-03 0.  1.
         11   -1    0    0    0    0 -0.00000000000E+00 -0.00000000000E+00 -0.45593999997E+02  0.45594000000E+02  0.51100000000E-03 0. -1.
    9900012    2    1    2    0    0 -0.40817543606E+02 -0.14324508835E+02  0.35156958114E+01  0.47787268019E+02  0.19999986207E+02 0.  0.
         12    1    1    2    0    0  0.40817543606E+02  0.14324508835E+02 -0.35156958114E+01  0.43400731981E+02  0.00000000000E+00 0. -1.
         11    1    3    3    0    0 -0.20891714328E+02  0.28161935228E+00  0.65505147859E+01  0.21896398819E+02  0.51100000000E-03 0. -1.
        -11    1    3    3    0    0 -0.78671294168E+01 -0.90059185037E+01  0.99072520975E+00  0.11999159556E+02  0.51100000000E-03 0.  1.
         12    1    3    3    0    0 -0.12058699861E+02 -0.56002096839E+01 -0.40255441842E+01  0.13891709644E+02  0.00000000000E+00 0. -1.
</event>
<event>
 7    1  0.4937359E-010  0.4778727E+02  0.7816164E-02  0.1312668E+00
        -11   -1    0    0    0    0  0.00000000000E+00  0.00000000000E+00  0.45593999997E+02  0.45594000000E+02  0.51100000000E-03 0. -1.
         11   -1    0    0    0    0 -0.00000000000E+00 -0.00000000000E+00 -0.45593999997E+02  0.45594000000E+02  0.51100000000E-03 0.  1.
    9900012    2    1    2    0    0  0.32050701469E+02  0.28791298828E+02 -0.52380228569E+01  0.47787271478E+02  0.20000001976E+02 0.  0.
         12    1    1    2    0    0 -0.32050701469E+02 -0.28791298828E+02  0.52380228569E+01  0.43400728522E+02  0.00000000000E+00 0. -1.
         11    1    3    3    0    0  0.23654401353E+02  0.14756396033E+02 -0.93204085489E+01  0.29396461404E+02  0.51100000000E-03 0. -1.
        -11    1    3    3    0    0  0.33763195077E+01  0.11501585802E+02  0.11305058994E+01  0.12040101878E+02  0.51100000000E-03 0.  1.
        -12    1    3    3    0    0  0.50199806078E+01  0.25333169921E+01  0.29518797926E+01  0.63507081963E+01  0.00000000000E+00 0.  1.
</event>
<event>
 7    1  0.4937359E-010  0.4778727E+02  0.7816164E-02  0.1312668E+00
        -11   -1    0    0    0    0  0.00000000000E+00  0.00000000000E+00  0.45593999997E+02  0.45594000000E+02  0.51100000000E-03 0. -1.
         11   -1    0    0    0    0 -0.00000000000E+00 -0.00000000000E+00 -0.45593999997E+02  0.45594000000E+02  0.51100000000E-03 0.  1.
    9900012    2    1    2    0    0 -0.50839229607E+01  0.40696917357E+02 -0.14196401320E+02  0.47787272294E+02  0.20000005695E+02 0.  0.
         12    1    1    2    0    0  0.50839229607E+01 -0.40696917357E+02  0.14196401320E+02  0.43400727706E+02  0.00000000000E+00 0. -1.
         11    1    3    3    0    0 -0.99067503089E+01  0.22199449499E+02 -0.24879793413E+01  0.24436638501E+02  0.51100000000E-03 0. -1.
        -11    1    3    3    0    0  0.85788203999E+00  0.12862744866E+02 -0.98232250943E+01  0.16207464904E+02  0.51100000000E-03 0.  1.
         12    1    3    3    0    0  0.39649453083E+01  0.56347229914E+01 -0.18851968840E+01  0.71431688892E+01  0.00000000000E+00 0. -1.
</event>
<event>
 7    1  0.4937359E-010  0.4778728E+02  0.7816164E-02  0.1312668E+00
        -11   -1    0    0    0    0  0.00000000000E+00  0.00000000000E+00  0.45593999997E+02  0.45594000000E+02  0.51100000000E-03 0.  1.
         11   -1    0    0    0    0 -0.00000000000E+00 -0.00000000000E+00 -0.45593999997E+02  0.45594000000E+02  0.51100000000E-03 0. -1.
    9900012    2    1    2    0    0 -0.50965038746E+01  0.36855258891E+02 -0.22345864980E+02  0.47787284092E+02  0.20000059487E+02 0.  0.
         12    1    1    2    0    0  0.50965038746E+01 -0.36855258891E+02  0.22345864980E+02  0.43400715908E+02  0.00000000000E+00 0. -1.
         11    1    3    3    0    0  0.48724241707E+00  0.43139138416E+01 -0.10401415224E+02  0.11271055706E+02  0.51100000000E-03 0. -1.
        -11    1    3    3    0    0 -0.55819966261E+01  0.33270697637E+02 -0.11941604754E+02  0.35786868150E+02  0.51100000000E-03 0.  1.
        -12    1    3    3    0    0 -0.17496655934E-02 -0.72935258821E+00 -0.28450022372E-02  0.72936023562E+00  0.00000000000E+00 0.  1.
</event>
<event>
 7    1  0.4937359E-010  0.4778727E+02  0.7816164E-02  0.1312668E+00
        -11   -1    0    0    0    0  0.00000000000E+00  0.00000000000E+00  0.45593999997E+02  0.45594000000E+02  0.51100000000E-03 0.  1.
         11   -1    0    0    0    0 -0.00000000000E+00 -0.00000000000E+00 -0.45593999997E+02  0.45594000000E+02  0.51100000000E-03 0. -1.
    9900012    2    1    2    0    0 -0.10922431884E+02 -0.38888810273E+02  0.15874009896E+02  0.47787271055E+02  0.20000000050E+02 0.  0.
         12    1    1    2    0    0  0.10922431884E+02  0.38888810273E+02 -0.15874009896E+02  0.43400728945E+02  0.00000000000E+00 0. -1.
         11    1    3    3    0    0 -0.97267992523E+01 -0.84879640855E+01  0.68591084890E+00  0.12927746593E+02  0.51100000000E-03 0. -1.
        -11    1    3    3    0    0 -0.19017596591E+01 -0.22461326129E+02  0.74252631287E+01  0.23733149687E+02  0.51100000000E-03 0.  1.
         12    1    3    3    0    0  0.70612702718E+00 -0.79395200586E+01  0.77628359188E+01  0.11126374775E+02  0.00000000000E+00 0. -1.
</event>
<event>
 7    1  0.4937359E-010  0.4778727E+02  0.7816164E-02  0.1312668E+00
        -11   -1    0    0    0    0  0.00000000000E+00  0.00000000000E+00  0.45593999997E+02  0.45594000000E+02  0.51100000000E-03 0.  1.
         11   -1    0    0    0    0 -0.00000000000E+00 -0.00000000000E+00 -0.45593999997E+02  0.45594000000E+02  0.51100000000E-03 0. -1.
    9900012    2    1    2    0    0  0.43156746949E+02  0.34694905081E+01  0.30134443018E+01  0.47787273991E+02  0.20000013434E+02 0.  0.
         12    1    1    2    0    0 -0.43156746949E+02 -0.34694905081E+01 -0.30134443018E+01  0.43400726009E+02  0.00000000000E+00 0. -1.
         11    1    3    3    0    0  0.18020961257E+02 -0.32984814928E+01 -0.66055303226E+01  0.19474805670E+02  0.51100000000E-03 0. -1.
        -11    1    3    3    0    0  0.23052630112E+02  0.44985286341E+01  0.78749144233E+01  0.24772460362E+02  0.51100000000E-03 0.  1.
         12    1    3    3    0    0  0.20831555800E+01  0.22694433667E+01  0.17440602011E+01  0.35400079591E+01  0.00000000000E+00 0. -1.
</event>
<event>
 7    1  0.4937359E-010  0.4778722E+02  0.7816164E-02  0.1312668E+00
        -11   -1    0    0    0    0  0.00000000000E+00  0.00000000000E+00  0.45593999997E+02  0.45594000000E+02  0.51100000000E-03 0. -1.
         11   -1    0    0    0    0 -0.00000000000E+00 -0.00000000000E+00 -0.45593999997E+02  0.45594000000E+02  0.51100000000E-03 0.  1.
    9900012    2    1    2    0    0 -0.28087768681E+02  0.22703991355E+02 -0.24067266694E+02  0.47787224672E+02  0.19999788570E+02 0.  0.
         12    1    1    2    0    0  0.28087768681E+02 -0.22703991355E+02  0.24067266694E+02  0.43400775328E+02  0.00000000000E+00 0. -1.
         11    1    3    3    0    0 -0.58717174521E+01  0.46765846725E+01 -0.14464023647E+02  0.16295873415E+02  0.51100000000E-03 0. -1.
        -11    1    3    3    0    0 -0.20958946416E+02  0.16838951013E+02 -0.60771308307E+01  0.27563730253E+02  0.51100000000E-03 0.  1.
        -12    1    3    3    0    0 -0.12571048126E+01  0.11884556698E+01 -0.35261122158E+01  0.39276210035E+01  0.00000000000E+00 0.  1.
</event>
<event>
 7    1  0.4937359E-010  0.4778727E+02  0.7816164E-02  0.1312668E+00
        -11   -1    0    0    0    0  0.00000000000E+00  0.00000000000E+00  0.45593999997E+02  0.45594000000E+02  0.51100000000E-03 0.  1.
         11   -1    0    0    0    0 -0.00000000000E+00 -0.00000000000E+00 -0.45593999997E+02  0.45594000000E+02  0.51100000000E-03 0. -1.
    9900012    2    1    2    0    0  0.23617867819E+02 -0.35621283972E+02  0.75461004900E+01  0.47787272071E+02  0.20000004680E+02 0.  0.
         12    1    1    2    0    0 -0.23617867819E+02  0.35621283972E+02 -0.75461004900E+01  0.43400727929E+02  0.00000000000E+00 0. -1.
         11    1    3    3    0    0 -0.28542104121E+01 -0.71731200514E+01  0.73253033250E-01  0.77204620728E+01  0.51100000000E-03 0. -1.
        -11    1    3    3    0    0  0.25264281012E+02 -0.27980299733E+02  0.82019165801E+01  0.38580467908E+02  0.51100000000E-03 0.  1.
         12    1    3    3    0    0  0.12077972193E+01 -0.46786418852E+00 -0.72906912330E+00  0.14863420900E+01  0.00000000000E+00 0. -1.
</event>
<event>
 7    1  0.4937359E-010  0.4778727E+02  0.7816164E-02  0.1312668E+00
        -11   -1    0    0    0    0  0.00000000000E+00  0.00000000000E+00  0.45593999997E+02  0.45594000000E+02  0.51100000000E-03 0. -1.
         11   -1    0    0    0    0 -0.00000000000E+00 -0.00000000000E+00 -0.45593999997E+02  0.45594000000E+02  0.51100000000E-03 0.  1.
    9900012    2    1    2    0    0 -0.10656202463E+02  0.67929627400E+01 -0.41520166473E+02  0.47787271692E+02  0.20000002951E+02 0.  0.
         12    1    1    2    0    0  0.10656202463E+02 -0.67929627400E+01  0.41520166473E+02  0.43400728308E+02  0.00000000000E+00 0. -1.
         11    1    3    3    0    0  0.36314876285E+01  0.53808326131E+01 -0.20550185116E+02  0.21551129218E+02  0.51100000000E-03 0. -1.
        -11    1    3    3    0    0 -0.12812671379E+02 -0.10241808067E+01 -0.16189166588E+02  0.20671299168E+02  0.51100000000E-03 0.  1.
         12    1    3    3    0    0 -0.14750187132E+01  0.24363109336E+01 -0.47808147689E+01  0.55648433063E+01  0.00000000000E+00 0. -1.
</event>
<event>
 7    1  0.4937359E-010  0.4778727E+02  0.7816164E-02  0.1312668E+00
        -11   -1    0    0    0    0  0.00000000000E+00  0.00000000000E+00  0.45593999997E+02  0.45594000000E+02  0.51100000000E-03 0.  1.
         11   -1    0    0    0    0 -0.00000000000E+00 -0.00000000000E+00 -0.45593999997E+02  0.45594000000E+02  0.51100000000E-03 0. -1.
    9900012    2    1    2    0    0  0.40028527657E+02  0.10163710072E+02 -0.13343127982E+02  0.47787273127E+02  0.20000009493E+02 0.  0.
         12    1    1    2    0    0 -0.40028527657E+02 -0.10163710072E+02  0.13343127982E+02  0.43400726873E+02  0.00000000000E+00 0. -1.
         11    1    3    3    0    0  0.73867937192E+01  0.36957531894E+01 -0.33610250688E+01  0.89173876702E+01  0.51100000000E-03 0. -1.
        -11    1    3    3    0    0  0.11986709037E+02  0.91316468359E+01 -0.99251299348E+01  0.18043734978E+02  0.51100000000E-03 0.  1.
        -12    1    3    3    0    0  0.20655024901E+02 -0.26636899538E+01 -0.56972978230E-01  0.20826150478E+02  0.00000000000E+00 0.  1.
</event>
<event>
 7    1  0.4937359E-010  0.4778727E+02  0.7816164E-02  0.1312668E+00
        -11   -1    0    0    0    0  0.00000000000E+00  0.00000000000E+00  0.45593999997E+02  0.45594000000E+02  0.51100000000E-03 0.  1.
         11   -1    0    0    0    0 -0.00000000000E+00 -0.00000000000E+00 -0.45593999997E+02  0.45594000000E+02  0.51100000000E-03 0. -1.
    9900012    2    1    2    0    0  0.13758134769E+02 -0.26605609563E+02  0.31408252475E+02  0.47787273554E+02  0.20000011442E+02 0.  0.
         12    1    1    2    0    0 -0.13758134769E+02  0.26605609563E+02 -0.31408252475E+02  0.43400726446E+02  0.00000000000E+00 0. -1.
         11    1    3    3    0    0  0.67353643696E+00 -0.44331123094E+01  0.55711914112E+00  0.45184641282E+01  0.51100000000E-03 0. -1.
        -11    1    3    3    0    0  0.99982956486E+01 -0.23456160091E+02  0.21549132600E+02  0.33384464623E+02  0.51100000000E-03 0.  1.
        -12    1    3    3    0    0  0.30863026834E+01  0.12836628378E+01  0.93020007335E+01  0.98843448028E+01  0.00000000000E+00 0.  1.
</event>
<event>
 7    1  0.4937359E-010  0.4778727E+02  0.7816164E-02  0.1312668E+00
        -11   -1    0    0    0    0  0.00000000000E+00  0.00000000000E+00  0.45593999997E+02  0.45594000000E+02  0.51100000000E-03 0.  1.
         11   -1    0    0    0    0 -0.00000000000E+00 -0.00000000000E+00 -0.45593999997E+02  0.45594000000E+02  0.51100000000E-03 0. -1.
    9900012    2    1    2    0    0  0.42793287597E+02 -0.57569120998E+01  0.43835632423E+01  0.47787272736E+02  0.20000007714E+02 0.  0.
         12    1    1    2    0    0 -0.42793287597E+02  0.57569120998E+01 -0.43835632423E+01  0.43400727264E+02  0.00000000000E+00 0. -1.
         11    1    3    3    0    0  0.30234270195E+02  0.87893602770E+00  0.73411334297E+01  0.31125164466E+02  0.51100000000E-03 0. -1.
        -11    1    3    3    0    0  0.12394247837E+02 -0.51671688559E+01 -0.81411571484E-01  0.13428463856E+02  0.51100000000E-03 0.  1.
         12    1    3    3    0    0  0.16476956572E+00 -0.14686792716E+01 -0.28761586160E+01  0.32336444141E+01  0.00000000000E+00 0. -1.
</event>
<event>
 7    1  0.4937359E-010  0.4778727E+02  0.7816164E-02  0.1312668E+00
        -11   -1    0    0    0    0  0.00000000000E+00  0.00000000000E+00  0.45593999997E+02  0.45594000000E+02  0.51100000000E-03 0.  1.
         11   -1    0    0    0    0 -0.00000000000E+00 -0.00000000000E+00 -0.45593999997E+02  0.45594000000E+02  0.51100000000E-03 0. -1.
    9900012    2    1    2    0    0  0.27394599265E+02 -0.33273531274E+02  0.51020782195E+01  0.47787272419E+02  0.20000006269E+02 0.  0.
         12    1    1    2    0    0 -0.27394599265E+02  0.33273531274E+02 -0.51020782195E+01  0.43400727581E+02  0.00000000000E+00 0. -1.
         11    1    3    3    0    0 -0.18617232197E+01 -0.68781677747E+01  0.93822015554E+00  0.71871734782E+01  0.51100000000E-03 0. -1.
        -11    1    3    3    0    0  0.10542900843E+02 -0.13483126672E+02 -0.14636245803E+01  0.17178173949E+02  0.51100000000E-03 0.  1.
         12    1    3    3    0    0  0.18713421642E+02 -0.12912236827E+02  0.56274826442E+01  0.23421924993E+02  0.00000000000E+00 0. -1.
</event>
<event>
 7    1  0.4937359E-010  0.4778727E+02  0.7816164E-02  0.1312668E+00
        -11   -1    0    0    0    0  0.00000000000E+00  0.00000000000E+00  0.45593999997E+02  0.45594000000E+02  0.51100000000E-03 0. -1.
         11   -1    0    0    0    0 -0.00000000000E+00 -0.00000000000E+00 -0.45593999997E+02  0.45594000000E+02  0.51100000000E-03 0.  1.
    9900012    2    1    2    0    0  0.32231078018E+01  0.26440946604E+02 -0.34265306028E+02  0.47787270992E+02  0.19999999762E+02 0.  0.
         12    1    1    2    0    0 -0.32231078018E+01 -0.26440946604E+02  0.34265306028E+02  0.43400729008E+02  0.00000000000E+00 0. -1.
         11    1    3    3    0    0 -0.13367821260E+01  0.39992039813E+01 -0.79980958454E+01  0.90415793062E+01  0.51100000000E-03 0. -1.
        -11    1    3    3    0    0  0.81094032027E+01  0.14136878385E+02 -0.24680125294E+02  0.29575705157E+02  0.51100000000E-03 0.  1.
        -12    1    3    3    0    0 -0.35495132750E+01  0.83048642377E+01 -0.15870848888E+01  0.91699865289E+01  0.00000000000E+00 0.  1.
</event>
<event>
 7    1  0.4937359E-010  0.4778727E+02  0.7816164E-02  0.1312668E+00
        -11   -1    0    0    0    0  0.00000000000E+00  0.00000000000E+00  0.45593999997E+02  0.45594000000E+02  0.51100000000E-03 0.  1.
         11   -1    0    0    0    0 -0.00000000000E+00 -0.00000000000E+00 -0.45593999997E+02  0.45594000000E+02  0.51100000000E-03 0. -1.
    9900012    2    1    2    0    0 -0.18569545443E+02 -0.32212978738E+02 -0.22385685796E+02  0.47787274826E+02  0.20000017240E+02 0.  0.
         12    1    1    2    0    0  0.18569545443E+02  0.32212978738E+02  0.22385685796E+02  0.43400725174E+02  0.00000000000E+00 0. -1.
         11    1    3    3    0    0 -0.28721076185E+01 -0.55332041371E+01  0.10124798355E+01  0.63158899510E+01  0.51100000000E-03 0. -1.
        -11    1    3    3    0    0 -0.94397634327E+01 -0.68292637532E+01 -0.15081538884E+02  0.19057827590E+02  0.51100000000E-03 0.  1.
        -12    1    3    3    0    0 -0.62576743916E+01 -0.19850510848E+02 -0.83166267476E+01  0.22413557285E+02  0.00000000000E+00 0.  1.
</event>
<event>
 7    1  0.4937359E-010  0.4778727E+02  0.7816164E-02  0.1312668E+00
        -11   -1    0    0    0    0  0.00000000000E+00  0.00000000000E+00  0.45593999997E+02  0.45594000000E+02  0.51100000000E-03 0. -1.
         11   -1    0    0    0    0 -0.00000000000E+00 -0.00000000000E+00 -0.45593999997E+02  0.45594000000E+02  0.51100000000E-03 0.  1.
    9900012    2    1    2    0    0  0.36595503027E+02 -0.63983488822E+01 -0.22437775617E+02  0.47787268614E+02  0.19999988918E+02 0.  0.
         12    1    1    2    0    0 -0.36595503027E+02  0.63983488822E+01  0.22437775617E+02  0.43400731386E+02  0.00000000000E+00 0. -1.
         11    1    3    3    0    0  0.98404171707E+01 -0.24453453511E+01 -0.53674340784E+01  0.11472701200E+02  0.51100000000E-03 0.  1.
        -11    1    3    3    0    0  0.20558849864E+02 -0.98691326956E+01 -0.15579992809E+02  0.27618875141E+02  0.51100000000E-03 0. -1.
        -12    1    3    3    0    0  0.61962359923E+01  0.59161291646E+01 -0.14903487304E+01  0.86956922728E+01  0.00000000000E+00 0.  1.
</event>
<event>
 7    1  0.4937359E-010  0.4778729E+02  0.7816164E-02  0.1312668E+00
        -11   -1    0    0    0    0  0.00000000000E+00  0.00000000000E+00  0.45593999997E+02  0.45594000000E+02  0.51100000000E-03 0.  1.
         11   -1    0    0    0    0 -0.00000000000E+00 -0.00000000000E+00 -0.45593999997E+02  0.45594000000E+02  0.51100000000E-03 0. -1.
    9900012    2    1    2    0    0  0.42071215681E+02 -0.35898160983E+01 -0.10037299975E+02  0.47787293101E+02  0.20000100567E+02 0.  0.
         12    1    1    2    0    0 -0.42071215681E+02  0.35898160983E+01  0.10037299975E+02  0.43400706899E+02  0.00000000000E+00 0. -1.
         11    1    3    3    0    0  0.17711283751E+01  0.38766294274E+01  0.86485506464E+00  0.43489223933E+01  0.51100000000E-03 0. -1.
        -11    1    3    3    0    0  0.32900768102E+02 -0.84188104775E+01 -0.59345285450E+01  0.34475433875E+02  0.51100000000E-03 0.  1.
         12    1    3    3    0    0  0.73993192040E+01  0.95236495180E+00 -0.49676264951E+01  0.89629368334E+01  0.00000000000E+00 0. -1.
</event>
<event>
 7    1  0.4937359E-010  0.4778727E+02  0.7816164E-02  0.1312668E+00
        -11   -1    0    0    0    0  0.00000000000E+00  0.00000000000E+00  0.45593999997E+02  0.45594000000E+02  0.51100000000E-03 0. -1.
         11   -1    0    0    0    0 -0.00000000000E+00 -0.00000000000E+00 -0.45593999997E+02  0.45594000000E+02  0.51100000000E-03 0.  1.
    9900012    2    1    2    0    0 -0.41141529005E+02 -0.10121866765E+02 -0.94098776722E+01  0.47787269667E+02  0.19999993718E+02 0.  0.
         12    1    1    2    0    0  0.41141529005E+02  0.10121866765E+02  0.94098776722E+01  0.43400730333E+02  0.00000000000E+00 0. -1.
         11    1    3    3    0    0 -0.39078276340E+01 -0.15850543019E+01 -0.17297028244E+01  0.45580024220E+01  0.51100000000E-03 0. -1.
        -11    1    3    3    0    0 -0.19175094678E+02 -0.12887009934E+02 -0.85478742394E+01  0.24633827052E+02  0.51100000000E-03 0.  1.
        -12    1    3    3    0    0 -0.18058606692E+02  0.43501974709E+01  0.86769939161E+00  0.18595440192E+02  0.00000000000E+00 0.  1.
</event>
<event>
 7    1  0.4937359E-010  0.4778727E+02  0.7816164E-02  0.1312668E+00
        -11   -1    0    0    0    0  0.00000000000E+00  0.00000000000E+00  0.45593999997E+02  0.45594000000E+02  0.51100000000E-03 0.  1.
         11   -1    0    0    0    0 -0.00000000000E+00 -0.00000000000E+00 -0.45593999997E+02  0.45594000000E+02  0.51100000000E-03 0. -1.
    9900012    2    1    2    0    0 -0.65520998512E+01  0.42873833150E+02 -0.15898895356E+01  0.47787270396E+02  0.19999997045E+02 0.  0.
         12    1    1    2    0    0  0.65520998512E+01 -0.42873833150E+02  0.15898895356E+01  0.43400729604E+02  0.00000000000E+00 0. -1.
         11    1    3    3    0    0 -0.49182270211E+01  0.11386365826E+01 -0.79209252143E+00  0.51100744732E+01  0.51100000000E-03 0. -1.
        -11    1    3    3    0    0 -0.21899524778E+01  0.41342796844E+02 -0.18295780225E+01  0.41441164303E+02  0.51100000000E-03 0.  1.
         12    1    3    3    0    0  0.55607964775E+00  0.39239972285E+00  0.10317810084E+01  0.12360316203E+01  0.00000000000E+00 0. -1.
</event>
<event>
 7    1  0.4937359E-010  0.4778727E+02  0.7816164E-02  0.1312668E+00
        -11   -1    0    0    0    0  0.00000000000E+00  0.00000000000E+00  0.45593999997E+02  0.45594000000E+02  0.51100000000E-03 0.  1.
         11   -1    0    0    0    0 -0.00000000000E+00 -0.00000000000E+00 -0.45593999997E+02  0.45594000000E+02  0.51100000000E-03 0. -1.
    9900012    2    1    2    0    0 -0.10269424285E+02  0.39901070773E+02 -0.13640632529E+02  0.47787269824E+02  0.19999994437E+02 0.  0.
         12    1    1    2    0    0  0.10269424285E+02 -0.39901070773E+02  0.13640632529E+02  0.43400730176E+02  0.00000000000E+00 0. -1.
         11    1    3    3    0    0 -0.13739973116E+01  0.45282279879E+01  0.48434309943E+01  0.67713766237E+01  0.51100000000E-03 0. -1.
        -11    1    3    3    0    0 -0.77048230062E+01  0.24678955945E+02 -0.13196840310E+02  0.29027086635E+02  0.51100000000E-03 0.  1.
        -12    1    3    3    0    0 -0.11906039675E+01  0.10693886840E+02 -0.52872232135E+01  0.11988806565E+02  0.00000000000E+00 0.  1.
</event>
<event>
 7    1  0.4937359E-010  0.4778726E+02  0.7816164E-02  0.1312668E+00
        -11   -1    0    0    0    0  0.00000000000E+00  0.00000000000E+00  0.45593999997E+02  0.45594000000E+02  0.51100000000E-03 0.  1.
         11   -1    0    0    0    0 -0.00000000000E+00 -0.00000000000E+00 -0.45593999997E+02  0.45594000000E+02  0.51100000000E-03 0. -1.
    9900012    2    1    2    0    0  0.16290386418E+02  0.38589832644E+02  0.11361002503E+02  0.47787259787E+02  0.19999948671E+02 0.  0.
         12    1    1    2    0    0 -0.16290386418E+02 -0.38589832644E+02 -0.11361002503E+02  0.43400740213E+02  0.00000000000E+00 0. -1.
         11    1    3    3    0    0  0.11023967791E+02  0.10745020763E+02 -0.15955858259E+01  0.15476731937E+02  0.51100000000E-03 0. -1.
        -11    1    3    3    0    0 -0.89172454538E+00  0.12121533842E+02  0.85453254317E+01  0.14857635826E+02  0.51100000000E-03 0.  1.
         12    1    3    3    0    0  0.61581431731E+01  0.15723278039E+02  0.44112628976E+01  0.17452892023E+02  0.00000000000E+00 0. -1.
</event>
<event>
 7    1  0.4937359E-010  0.4778727E+02  0.7816164E-02  0.1312668E+00
        -11   -1    0    0    0    0  0.00000000000E+00  0.00000000000E+00  0.45593999997E+02  0.45594000000E+02  0.51100000000E-03 0.  1.
         11   -1    0    0    0    0 -0.00000000000E+00 -0.00000000000E+00 -0.45593999997E+02  0.45594000000E+02  0.51100000000E-03 0. -1.
    9900012    2    1    2    0    0  0.47477419102E+01 -0.77066034072E+01  0.42446324153E+02  0.47787271626E+02  0.20000002651E+02 0.  0.
         12    1    1    2    0    0 -0.47477419102E+01  0.77066034072E+01 -0.42446324153E+02  0.43400728374E+02  0.00000000000E+00 0. -1.
         11    1    3    3    0    0 -0.24005468251E+01  0.13942266977E+01  0.10208481134E+01  0.29578073426E+01  0.51100000000E-03 0. -1.
        -11    1    3    3    0    0  0.98135566208E+01 -0.87837432725E+01  0.39165529269E+02  0.41320681537E+02  0.51100000000E-03 0.  1.
        -12    1    3    3    0    0 -0.26652678855E+01 -0.31708683236E+00  0.22599467699E+01  0.35087827467E+01  0.00000000000E+00 0.  1.
</event>
<event>
 7    1  0.4937359E-010  0.4778727E+02  0.7816164E-02  0.1312668E+00
        -11   -1    0    0    0    0  0.00000000000E+00  0.00000000000E+00  0.45593999997E+02  0.45594000000E+02  0.51100000000E-03 0. -1.
         11   -1    0    0    0    0 -0.00000000000E+00 -0.00000000000E+00 -0.45593999997E+02  0.45594000000E+02  0.51100000000E-03 0.  1.
    9900012    2    1    2    0    0  0.26509484971E+02  0.34133345998E+02  0.39730799167E+01  0.47787268825E+02  0.19999989883E+02 0.  0.
         12    1    1    2    0    0 -0.26509484971E+02 -0.34133345998E+02 -0.39730799167E+01  0.43400731175E+02  0.00000000000E+00 0. -1.
         11    1    3    3    0    0  0.96689848013E+01  0.18648691927E+01  0.39532670646E+00  0.98551147969E+01  0.51100000000E-03 0. -1.
        -11    1    3    3    0    0  0.66341119922E+01  0.49609207172E+01 -0.12656242472E+01  0.83799750169E+01  0.51100000000E-03 0.  1.
         12    1    3    3    0    0  0.10206388177E+02  0.27307556088E+02  0.48433774574E+01  0.29552179012E+02  0.00000000000E+00 0. -1.
</event>
<event>
 7    1  0.4937359E-010  0.4778725E+02  0.7816164E-02  0.1312668E+00
        -11   -1    0    0    0    0  0.00000000000E+00  0.00000000000E+00  0.45593999997E+02  0.45594000000E+02  0.51100000000E-03 0.  1.
         11   -1    0    0    0    0 -0.00000000000E+00 -0.00000000000E+00 -0.45593999997E+02  0.45594000000E+02  0.51100000000E-03 0. -1.
    9900012    2    1    2    0    0 -0.73869703947E+01  0.38024447050E+02  0.19575473283E+02  0.47787250475E+02  0.19999906217E+02 0.  0.
         12    1    1    2    0    0  0.73869703947E+01 -0.38024447050E+02 -0.19575473283E+02  0.43400749525E+02  0.00000000000E+00 0. -1.
         11    1    3    3    0    0 -0.76763698961E+01  0.68433831478E+01  0.60044804046E+00  0.10301411835E+02  0.51100000000E-03 0. -1.
        -11    1    3    3    0    0 -0.12879345042E+01  0.98374570821E+00  0.26913483506E+01  0.31416376479E+01  0.51100000000E-03 0.  1.
         12    1    3    3    0    0  0.15773340056E+01  0.30197318194E+02  0.16283676892E+02  0.34344200992E+02  0.00000000000E+00 0. -1.
</event>
<event>
 7    1  0.4937359E-010  0.4778727E+02  0.7816164E-02  0.1312668E+00
        -11   -1    0    0    0    0  0.00000000000E+00  0.00000000000E+00  0.45593999997E+02  0.45594000000E+02  0.51100000000E-03 0.  1.
         11   -1    0    0    0    0 -0.00000000000E+00 -0.00000000000E+00 -0.45593999997E+02  0.45594000000E+02  0.51100000000E-03 0. -1.
    9900012    2    1    2    0    0  0.16625593460E+02  0.31812033476E+02 -0.24396873825E+02  0.47787270926E+02  0.19999999458E+02 0.  0.
         12    1    1    2    0    0 -0.16625593460E+02 -0.31812033476E+02  0.24396873825E+02  0.43400729074E+02  0.00000000000E+00 0. -1.
         11    1    3    3    0    0  0.31379059208E+01 -0.40727206977E+00 -0.89098471898E+01  0.94550357648E+01  0.51100000000E-03 0. -1.
        -11    1    3    3    0    0  0.87259885865E+01  0.16888028987E+02 -0.82184096527E+01  0.20709675452E+02  0.51100000000E-03 0.  1.
         12    1    3    3    0    0  0.47616989530E+01  0.15331276559E+02 -0.72686169824E+01  0.17622559708E+02  0.00000000000E+00 0. -1.
</event>
<event>
 7    1  0.4937359E-010  0.4778729E+02  0.7816164E-02  0.1312668E+00
        -11   -1    0    0    0    0  0.00000000000E+00  0.00000000000E+00  0.45593999997E+02  0.45594000000E+02  0.51100000000E-03 0. -1.
         11   -1    0    0    0    0 -0.00000000000E+00 -0.00000000000E+00 -0.45593999997E+02  0.45594000000E+02  0.51100000000E-03 0.  1.
    9900012    2    1    2    0    0 -0.39047146018E+02 -0.14153139958E+02  0.12594881063E+02  0.47787285584E+02  0.20000066290E+02 0.  0.
         12    1    1    2    0    0  0.39047146018E+02  0.14153139958E+02 -0.12594881063E+02  0.43400714416E+02  0.00000000000E+00 0. -1.
         11    1    3    3    0    0 -0.41542538623E+00 -0.26418977466E+01 -0.22343837489E+01  0.34849207959E+01  0.51100000000E-03 0. -1.
        -11    1    3    3    0    0 -0.38370668159E+02 -0.12375509497E+02  0.13170323115E+02  0.42413663147E+02  0.51100000000E-03 0.  1.
        -12    1    3    3    0    0 -0.26105247302E+00  0.86426728579E+00  0.16589416972E+01  0.18887016412E+01  0.00000000000E+00 0.  1.
</event>
<event>
 7    1 -0.4937359E-010  0.4778727E+02  0.7816164E-02  0.1312668E+00
        -11   -1    0    0    0    0  0.00000000000E+00  0.00000000000E+00  0.45593999997E+02  0.45594000000E+02  0.51100000000E-03 0.  1.
         11   -1    0    0    0    0 -0.00000000000E+00 -0.00000000000E+00 -0.45593999997E+02  0.45594000000E+02  0.51100000000E-03 0. -1.
    9900012    2    1    2    0    0  0.35998018677E+02  0.21719206731E+02  0.10772273391E+02  0.47787272314E+02  0.20000005789E+02 0.  0.
         12    1    1    2    0    0 -0.35998018677E+02 -0.21719206731E+02 -0.10772273391E+02  0.43400727686E+02  0.00000000000E+00 0. -1.
         11    1    3    3    0    0  0.15073131093E+02  0.83446621547E+00  0.94779348328E+01  0.17824894495E+02  0.51100000000E-03 0. -1.
        -11    1    3    3    0    0  0.17383185278E+01  0.40320334209E+01  0.41310363440E+00  0.44101813665E+01  0.51100000000E-03 0.  1.
         12    1    3    3    0    0  0.19186569056E+02  0.16852707094E+02  0.88123492396E+00  0.25552196452E+02  0.00000000000E+00 0. -1.
</event>
<event>
 7    1  0.4937359E-010  0.4778728E+02  0.7816164E-02  0.1312668E+00
        -11   -1    0    0    0    0  0.00000000000E+00  0.00000000000E+00  0.45593999997E+02  0.45594000000E+02  0.51100000000E-03 0. -1.
         11   -1    0    0    0    0 -0.00000000000E+00 -0.00000000000E+00 -0.45593999997E+02  0.45594000000E+02  0.51100000000E-03 0.  1.
    9900012    2    1    2    0    0 -0.41013402372E+02  0.11673717178E+02  0.80776194198E+01  0.47787276707E+02  0.20000025816E+02 0.  0.
         12    1    1    2    0    0  0.41013402372E+02 -0.11673717178E+02 -0.80776194198E+01  0.43400723293E+02  0.00000000000E+00 0. -1.
         11    1    3    3    0    0 -0.14155802382E+02  0.37473996947E+01  0.11700983959E+02  0.18744139655E+02  0.51100000000E-03 0. -1.
        -11    1    3    3    0    0 -0.24573065029E+02  0.55815239854E+01 -0.17229834575E+01  0.25257822693E+02  0.51100000000E-03 0.  1.
         12    1    3    3    0    0 -0.22845349620E+01  0.23447934977E+01 -0.19003810818E+01  0.37853143589E+01  0.00000000000E+00 0. -1.
</event>
<event>
 7    1  0.4937359E-010  0.4778727E+02  0.7816164E-02  0.1312668E+00
        -11   -1    0    0    0    0  0.00000000000E+00  0.00000000000E+00  0.45593999997E+02  0.45594000000E+02  0.51100000000E-03 0.  1.
         11   -1    0    0    0    0 -0.00000000000E+00 -0.00000000000E+00 -0.45593999997E+02  0.45594000000E+02  0.51100000000E-03 0. -1.
    9900012    2    1    2    0    0  0.36647927689E+01  0.69640768290E+01  0.42681309907E+02  0.47787270888E+02  0.19999999285E+02 0.  0.
         12    1    1    2    0    0 -0.36647927689E+01 -0.69640768290E+01 -0.42681309907E+02  0.43400729112E+02  0.00000000000E+00 0. -1.
         11    1    3    3    0    0  0.58214816011E+01  0.38069088449E+01  0.13779337369E+02  0.15435424891E+02  0.51100000000E-03 0. -1.
        -11    1    3    3    0    0 -0.66193061756E+01  0.60003275395E+01  0.21217975408E+02  0.23022198538E+02  0.51100000000E-03 0.  1.
        -12    1    3    3    0    0  0.44626173434E+01 -0.28431595554E+01  0.76839971295E+01  0.93296474583E+01  0.00000000000E+00 0.  1.
</event>
<event>
 7    1  0.4937359E-010  0.4778727E+02  0.7816164E-02  0.1312668E+00
        -11   -1    0    0    0    0  0.00000000000E+00  0.00000000000E+00  0.45593999997E+02  0.45594000000E+02  0.51100000000E-03 0. -1.
         11   -1    0    0    0    0 -0.00000000000E+00 -0.00000000000E+00 -0.45593999997E+02  0.45594000000E+02  0.51100000000E-03 0.  1.
    9900012    2    1    2    0    0 -0.39568256035E+02 -0.87365637276E+00 -0.17810471663E+02  0.47787273486E+02  0.20000011132E+02 0.  0.
         12    1    1    2    0    0  0.39568256035E+02  0.87365637276E+00  0.17810471663E+02  0.43400726514E+02  0.00000000000E+00 0. -1.
         11    1    3    3    0    0 -0.13849614258E+02 -0.38753443859E+01  0.27013963187E+01  0.14633101228E+02  0.51100000000E-03 0. -1.
        -11    1    3    3    0    0 -0.20746722613E+02  0.13174267178E+01 -0.16015634268E+02  0.26242382773E+02  0.51100000000E-03 0.  1.
         12    1    3    3    0    0 -0.49719191638E+01  0.16842612954E+01 -0.44962337142E+01  0.69117894857E+01  0.00000000000E+00 0. -1.
</event>
<event>
 7    1  0.4937359E-010  0.4778727E+02  0.7816164E-02  0.1312668E+00
        -11   -1    0    0    0    0  0.00000000000E+00  0.00000000000E+00  0.45593999997E+02  0.45594000000E+02  0.51100000000E-03 0. -1.
         11   -1    0    0    0    0 -0.00000000000E+00 -0.00000000000E+00 -0.45593999997E+02  0.45594000000E+02  0.51100000000E-03 0.  1.
    9900012    2    1    2    0    0 -0.80478792801E+01  0.42630520694E+02  0.12221391526E+01  0.47787270978E+02  0.19999999696E+02 0.  0.
         12    1    1    2    0    0  0.80478792801E+01 -0.42630520694E+02 -0.12221391526E+01  0.43400729022E+02  0.00000000000E+00 0. -1.
         11    1    3    3    0    0 -0.92264176113E+01  0.23344899999E+02  0.65278801860E+01  0.25936930386E+02  0.51100000000E-03 0. -1.
        -11    1    3    3    0    0 -0.14966352692E+01  0.70301214257E+01  0.18323181062E+01  0.74175409869E+01  0.51100000000E-03 0.  1.
         12    1    3    3    0    0  0.26751736004E+01  0.12255499270E+02 -0.71380591396E+01  0.14432799605E+02  0.00000000000E+00 0. -1.
</event>
<event>
 7    1  0.4937359E-010  0.4778727E+02  0.7816164E-02  0.1312668E+00
        -11   -1    0    0    0    0  0.00000000000E+00  0.00000000000E+00  0.45593999997E+02  0.45594000000E+02  0.51100000000E-03 0.  1.
         11   -1    0    0    0    0 -0.00000000000E+00 -0.00000000000E+00 -0.45593999997E+02  0.45594000000E+02  0.51100000000E-03 0. -1.
    9900012    2    1    2    0    0 -0.21080914884E+02  0.33720469621E+02  0.17382415285E+02  0.47787269534E+02  0.19999993113E+02 0.  0.
         12    1    1    2    0    0  0.21080914884E+02 -0.33720469621E+02 -0.17382415285E+02  0.43400730466E+02  0.00000000000E+00 0. -1.
         11    1    3    3    0    0 -0.59472720376E+01  0.41566655015E+01  0.11056972267E+02  0.13225148345E+02  0.51100000000E-03 0. -1.
        -11    1    3    3    0    0 -0.11665212629E+02  0.19407782312E+02  0.72864853851E+01  0.23787224922E+02  0.51100000000E-03 0.  1.
         12    1    3    3    0    0 -0.34684302171E+01  0.10156021807E+02 -0.96104236651E+00  0.10774896266E+02  0.00000000000E+00 0. -1.
</event>
<event>
 7    1  0.5844845E-010  0.4778727E+02  0.7816164E-02  0.1312668E+00
        -11   -1    0    0    0    0  0.00000000000E+00  0.00000000000E+00  0.45593999997E+02  0.45594000000E+02  0.51100000000E-03 0. -1.
         11   -1    0    0    0    0 -0.00000000000E+00 -0.00000000000E+00 -0.45593999997E+02  0.45594000000E+02  0.51100000000E-03 0.  1.
    9900012    2    1    2    0    0  0.16756308447E+02  0.25746754638E+02 -0.30658668612E+02  0.47787271801E+02  0.20000003448E+02 0.  0.
         12    1    1    2    0    0 -0.16756308447E+02 -0.25746754638E+02  0.30658668612E+02  0.43400728199E+02  0.00000000000E+00 0. -1.
         11    1    3    3    0    0  0.84789256732E+01  0.14865909580E+01 -0.10306339256E+02  0.13428431121E+02  0.51100000000E-03 0. -1.
        -11    1    3    3    0    0  0.39478255369E+01  0.16181191828E+02 -0.18705350965E+02  0.25046086529E+02  0.51100000000E-03 0.  1.
         12    1    3    3    0    0  0.43295572366E+01  0.80789718518E+01 -0.16469783913E+01  0.93127541506E+01  0.00000000000E+00 0. -1.
</event>
<event>
 7    1  0.4937359E-010  0.4778727E+02  0.7816164E-02  0.1312668E+00
        -11   -1    0    0    0    0  0.00000000000E+00  0.00000000000E+00  0.45593999997E+02  0.45594000000E+02  0.51100000000E-03 0. -1.
         11   -1    0    0    0    0 -0.00000000000E+00 -0.00000000000E+00 -0.45593999997E+02  0.45594000000E+02  0.51100000000E-03 0.  1.
    9900012    2    1    2    0    0  0.25529718109E+02  0.33461653497E+02 -0.10591247551E+02  0.47787270903E+02  0.19999999354E+02 0.  0.
         12    1    1    2    0    0 -0.25529718109E+02 -0.33461653497E+02  0.10591247551E+02  0.43400729097E+02  0.00000000000E+00 0. -1.
         11    1    3    3    0    0  0.26499333114E+01  0.16001506624E+02 -0.58014239693E+01  0.17225762134E+02  0.51100000000E-03 0. -1.
        -11    1    3    3    0    0  0.90073766030E+01  0.11760454530E+02 -0.47740543273E+01  0.15563827260E+02  0.51100000000E-03 0.  1.
         12    1    3    3    0    0  0.13872408195E+02  0.56996923438E+01 -0.15769254470E-01  0.14997681508E+02  0.00000000000E+00 0. -1.
</event>
<event>
 7    1  0.4937359E-010  0.4778727E+02  0.7816164E-02  0.1312668E+00
        -11   -1    0    0    0    0  0.00000000000E+00  0.00000000000E+00  0.45593999997E+02  0.45594000000E+02  0.51100000000E-03 0. -1.
         11   -1    0    0    0    0 -0.00000000000E+00 -0.00000000000E+00 -0.45593999997E+02  0.45594000000E+02  0.51100000000E-03 0.  1.
    9900012    2    1    2    0    0 -0.19554691770E+02 -0.13234730603E+02 -0.36415370370E+02  0.47787271164E+02  0.20000000543E+02 0.  0.
         12    1    1    2    0    0  0.19554691770E+02  0.13234730603E+02  0.36415370370E+02  0.43400728836E+02  0.00000000000E+00 0. -1.
         11    1    3    3    0    0 -0.10905894028E+02 -0.10805574386E+02 -0.79718601688E+01  0.17298829937E+02  0.51100000000E-03 0. -1.
        -11    1    3    3    0    0 -0.12452728110E+01 -0.30753283897E+01 -0.61361609676E+01  0.69757308405E+01  0.51100000000E-03 0.  1.
         12    1    3    3    0    0 -0.74035249314E+01  0.64617217350E+00 -0.22307349234E+02  0.23512710386E+02  0.00000000000E+00 0. -1.
</event>
<event>
 7    1  0.4937359E-010  0.4778728E+02  0.7816164E-02  0.1312668E+00
        -11   -1    0    0    0    0  0.00000000000E+00  0.00000000000E+00  0.45593999997E+02  0.45594000000E+02  0.51100000000E-03 0.  1.
         11   -1    0    0    0    0 -0.00000000000E+00 -0.00000000000E+00 -0.45593999997E+02  0.45594000000E+02  0.51100000000E-03 0. -1.
    9900012    2    1    2    0    0 -0.29218148710E+02 -0.56715816214E+01  0.31587266385E+02  0.47787280538E+02  0.20000043286E+02 0.  0.
         12    1    1    2    0    0  0.29218148710E+02  0.56715816214E+01 -0.31587266385E+02  0.43400719462E+02  0.00000000000E+00 0. -1.
         11    1    3    3    0    0  0.13474553383E+01 -0.26590081766E+01  0.54069605742E+01  0.61742354413E+01  0.51100000000E-03 0. -1.
        -11    1    3    3    0    0 -0.17556386846E+02  0.31401100386E+01  0.12699991973E+02  0.21894675300E+02  0.51100000000E-03 0.  1.
        -12    1    3    3    0    0 -0.13009217203E+02 -0.61526834833E+01  0.13480313838E+02  0.19718369797E+02  0.00000000000E+00 0.  1.
</event>
<event>
 7    1  0.4937359E-010  0.4778727E+02  0.7816164E-02  0.1312668E+00
        -11   -1    0    0    0    0  0.00000000000E+00  0.00000000000E+00  0.45593999997E+02  0.45594000000E+02  0.51100000000E-03 0.  1.
         11   -1    0    0    0    0 -0.00000000000E+00 -0.00000000000E+00 -0.45593999997E+02  0.45594000000E+02  0.51100000000E-03 0. -1.
    9900012    2    1    2    0    0  0.25709041837E+02 -0.23609355180E+02  0.25792765111E+02  0.47787271708E+02  0.20000003025E+02 0.  0.
         12    1    1    2    0    0 -0.25709041837E+02  0.23609355180E+02 -0.25792765111E+02  0.43400728292E+02  0.00000000000E+00 0. -1.
         11    1    3    3    0    0  0.52722873636E+01  0.19863789396E+01  0.62164198899E+01  0.83896717364E+01  0.51100000000E-03 0. -1.
        -11    1    3    3    0    0  0.62442958652E+01 -0.50839009237E+01  0.96088107031E+01  0.12536607310E+02  0.51100000000E-03 0.  1.
         12    1    3    3    0    0  0.14192458608E+02 -0.20511833196E+02  0.99675345181E+01  0.26860992662E+02  0.00000000000E+00 0. -1.
</event>
<event>
 7    1  0.4937359E-010  0.4778727E+02  0.7816164E-02  0.1312668E+00
        -11   -1    0    0    0    0  0.00000000000E+00  0.00000000000E+00  0.45593999997E+02  0.45594000000E+02  0.51100000000E-03 0. -1.
         11   -1    0    0    0    0 -0.00000000000E+00 -0.00000000000E+00 -0.45593999997E+02  0.45594000000E+02  0.51100000000E-03 0.  1.
    9900012    2    1    2    0    0  0.34868270839E+02  0.24911554505E+02  0.68732504833E+01  0.47787269230E+02  0.19999991727E+02 0.  0.
         12    1    1    2    0    0 -0.34868270839E+02 -0.24911554505E+02 -0.68732504833E+01  0.43400730770E+02  0.00000000000E+00 0. -1.
         11    1    3    3    0    0 -0.12035115846E+01  0.34893987488E+01  0.36580621456E-01  0.36912981681E+01  0.51100000000E-03 0. -1.
        -11    1    3    3    0    0  0.26755669015E+02  0.11311331689E+02  0.74381290677E+00  0.29057964604E+02  0.51100000000E-03 0.  1.
         12    1    3    3    0    0  0.93161134090E+01  0.10110824067E+02  0.60928569550E+01  0.15038006458E+02  0.00000000000E+00 0. -1.
</event>
<event>
 7    1  0.4937359E-010  0.4778727E+02  0.7816164E-02  0.1312668E+00
        -11   -1    0    0    0    0  0.00000000000E+00  0.00000000000E+00  0.45593999997E+02  0.45594000000E+02  0.51100000000E-03 0.  1.
         11   -1    0    0    0    0 -0.00000000000E+00 -0.00000000000E+00 -0.45593999997E+02  0.45594000000E+02  0.51100000000E-03 0. -1.
    9900012    2    1    2    0    0 -0.29583348408E+02 -0.90065339035E+01  0.30452109734E+02  0.47787272550E+02  0.20000006865E+02 0.  0.
         12    1    1    2    0    0  0.29583348408E+02  0.90065339035E+01 -0.30452109734E+02  0.43400727450E+02  0.00000000000E+00 0. -1.
         11    1    3    3    0    0 -0.70801588003E+01  0.63417210228E+00  0.15652002613E+02  0.17190579076E+02  0.51100000000E-03 0. -1.
        -11    1    3    3    0    0 -0.22504034898E+02 -0.73185183524E+01  0.10891471912E+02  0.26050267911E+02  0.51100000000E-03 0.  1.
        -12    1    3    3    0    0  0.84529067096E-03 -0.23221876534E+01  0.39086352083E+01  0.45464255634E+01  0.00000000000E+00 0.  1.
</event>
<event>
 7    1  0.4937359E-010  0.4778728E+02  0.7816164E-02  0.1312668E+00
        -11   -1    0    0    0    0  0.00000000000E+00  0.00000000000E+00  0.45593999997E+02  0.45594000000E+02  0.51100000000E-03 0.  1.
         11   -1    0    0    0    0 -0.00000000000E+00 -0.00000000000E+00 -0.45593999997E+02  0.45594000000E+02  0.51100000000E-03 0. -1.
    9900012    2    1    2    0    0  0.11886850658E+02  0.19772261462E+02  0.36761163981E+02  0.47787277436E+02  0.20000029140E+02 0.  0.
         12    1    1    2    0    0 -0.11886850658E+02 -0.19772261462E+02 -0.36761163981E+02  0.43400722564E+02  0.00000000000E+00 0. -1.
         11    1    3    3    0    0  0.29803396827E+00  0.12766864729E+02  0.15747994670E+02  0.20275132444E+02  0.51100000000E-03 0.  1.
        -11    1    3    3    0    0  0.12680223420E+02  0.38317910201E+01  0.20031949144E+02  0.24015613154E+02  0.51100000000E-03 0. -1.
        -12    1    3    3    0    0 -0.10914067308E+01  0.31736057129E+01  0.98122016734E+00  0.34965318374E+01  0.00000000000E+00 0.  1.
</event>
<event>
 7    1  0.5810960E-010  0.4778728E+02  0.7816164E-02  0.1312668E+00
        -11   -1    0    0    0    0  0.00000000000E+00  0.00000000000E+00  0.45593999997E+02  0.45594000000E+02  0.51100000000E-03 0. -1.
         11   -1    0    0    0    0 -0.00000000000E+00 -0.00000000000E+00 -0.45593999997E+02  0.45594000000E+02  0.51100000000E-03 0.  1.
    9900012    2    1    2    0    0  0.20462267348E+02 -0.35081232424E+02 -0.15304423001E+02  0.47787278614E+02  0.20000034511E+02 0.  0.
         12    1    1    2    0    0 -0.20462267348E+02  0.35081232424E+02  0.15304423001E+02  0.43400721386E+02  0.00000000000E+00 0. -1.
         11    1    3    3    0    0  0.93211176584E+01 -0.21445120091E+02  0.17057409983E+00  0.23383872774E+02  0.51100000000E-03 0. -1.
        -11    1    3    3    0    0  0.48231813668E+01 -0.10904889669E+02 -0.10752776174E+02  0.16056210415E+02  0.51100000000E-03 0.  1.
         12    1    3    3    0    0  0.63179683231E+01 -0.27312226648E+01 -0.47222209270E+01  0.83471954248E+01  0.00000000000E+00 0. -1.
</event>
<event>
 7    1  0.4937359E-010  0.4778727E+02  0.7816164E-02  0.1312668E+00
        -11   -1    0    0    0    0  0.00000000000E+00  0.00000000000E+00  0.45593999997E+02  0.45594000000E+02  0.51100000000E-03 0.  1.
         11   -1    0    0    0    0 -0.00000000000E+00 -0.00000000000E+00 -0.45593999997E+02  0.45594000000E+02  0.51100000000E-03 0. -1.
    9900012    2    1    2    0    0  0.25654569760E+02  0.14009837642E+02  0.32081004202E+02  0.47787270387E+02  0.19999997003E+02 0.  0.
         12    1    1    2    0    0 -0.25654569760E+02 -0.14009837642E+02 -0.32081004202E+02  0.43400729613E+02  0.00000000000E+00 0. -1.
         11    1    3    3    0    0 -0.63648533540E-01  0.67626153003E+01  0.74326424108E+01  0.10048939760E+02  0.51100000000E-03 0. -1.
        -11    1    3    3    0    0  0.21989606499E+02  0.95609401153E+01  0.19045819193E+02  0.30621848391E+02  0.51100000000E-03 0.  1.
        -12    1    3    3    0    0  0.37286117948E+01 -0.23137177739E+01  0.56025425976E+01  0.71164822357E+01  0.00000000000E+00 0.  1.
</event>
<event>
 7    1  0.4937359E-010  0.4778727E+02  0.7816164E-02  0.1312668E+00
        -11   -1    0    0    0    0  0.00000000000E+00  0.00000000000E+00  0.45593999997E+02  0.45594000000E+02  0.51100000000E-03 0.  1.
         11   -1    0    0    0    0 -0.00000000000E+00 -0.00000000000E+00 -0.45593999997E+02  0.45594000000E+02  0.51100000000E-03 0. -1.
    9900012    2    1    2    0    0 -0.10267825035E+02 -0.45154094941E+00  0.42166235337E+02  0.47787268178E+02  0.19999986930E+02 0.  0.
         12    1    1    2    0    0  0.10267825035E+02  0.45154094941E+00 -0.42166235337E+02  0.43400731822E+02  0.00000000000E+00 0. -1.
         11    1    3    3    0    0  0.26771880549E+01  0.15689831322E+01  0.11359431983E+01  0.33044532319E+01  0.51100000000E-03 0. -1.
        -11    1    3    3    0    0 -0.12903103729E+02  0.71169587581E+00  0.24219863614E+02  0.27451746586E+02  0.51100000000E-03 0.  1.
         12    1    3    3    0    0 -0.41909360567E-01 -0.27322199574E+01  0.16810428525E+02  0.17031068360E+02  0.00000000000E+00 0. -1.
</event>
<event>
 7    1  0.4937359E-010  0.4778728E+02  0.7816164E-02  0.1312668E+00
        -11   -1    0    0    0    0  0.00000000000E+00  0.00000000000E+00  0.45593999997E+02  0.45594000000E+02  0.51100000000E-03 0. -1.
         11   -1    0    0    0    0 -0.00000000000E+00 -0.00000000000E+00 -0.45593999997E+02  0.45594000000E+02  0.51100000000E-03 0.  1.
    9900012    2    1    2    0    0  0.29509700240E+02 -0.24063910543E+02 -0.20826153512E+02  0.47787275709E+02  0.20000021269E+02 0.  0.
         12    1    1    2    0    0 -0.29509700240E+02  0.24063910543E+02  0.20826153512E+02  0.43400724291E+02  0.00000000000E+00 0. -1.
         11    1    3    3    0    0 -0.21755141894E+01  0.39694566055E+00 -0.27405027036E+00  0.22283472929E+01  0.51100000000E-03 0. -1.
        -11    1    3    3    0    0  0.84178133813E+00 -0.15950242042E+01 -0.26255040716E+01  0.31852739167E+01  0.51100000000E-03 0.  1.
         12    1    3    3    0    0  0.30843433091E+02 -0.22865831999E+02 -0.17926599170E+02  0.42373654500E+02  0.00000000000E+00 0. -1.
</event>
<event>
 7    1  0.4937359E-010  0.4778727E+02  0.7816164E-02  0.1312668E+00
        -11   -1    0    0    0    0  0.00000000000E+00  0.00000000000E+00  0.45593999997E+02  0.45594000000E+02  0.51100000000E-03 0.  1.
         11   -1    0    0    0    0 -0.00000000000E+00 -0.00000000000E+00 -0.45593999997E+02  0.45594000000E+02  0.51100000000E-03 0. -1.
    9900012    2    1    2    0    0  0.16678986216E+02 -0.36355827225E+02  0.16843049630E+02  0.47787273333E+02  0.20000010434E+02 0.  0.
         12    1    1    2    0    0 -0.16678986216E+02  0.36355827225E+02 -0.16843049630E+02  0.43400726667E+02  0.00000000000E+00 0. -1.
         11    1    3    3    0    0  0.10302088949E+02 -0.77543798710E+01 -0.14748773320E+01  0.12978393865E+02  0.51100000000E-03 0. -1.
        -11    1    3    3    0    0  0.65835867186E+01 -0.22725690004E+02  0.13766626857E+02  0.27373721258E+02  0.51100000000E-03 0.  1.
         12    1    3    3    0    0 -0.20668945198E+00 -0.58757573498E+01  0.45513001049E+01  0.74351582101E+01  0.00000000000E+00 0. -1.
</event>
<event>
 7    1  0.4937359E-010  0.4778727E+02  0.7816164E-02  0.1312668E+00
        -11   -1    0    0    0    0  0.00000000000E+00  0.00000000000E+00  0.45593999997E+02  0.45594000000E+02  0.51100000000E-03 0. -1.
         11   -1    0    0    0    0 -0.00000000000E+00 -0.00000000000E+00 -0.45593999997E+02  0.45594000000E+02  0.51100000000E-03 0.  1.
    9900012    2    1    2    0    0  0.13263913840E+02 -0.40249644468E+02 -0.93625863753E+01  0.47787270584E+02  0.19999997902E+02 0.  0.
         12    1    1    2    0    0 -0.13263913840E+02  0.40249644468E+02  0.93625863753E+01  0.43400729416E+02  0.00000000000E+00 0. -1.
         11    1    3    3    0    0 -0.35205588724E+01 -0.27088642205E+01 -0.18638816820E+01  0.48172954368E+01  0.51100000000E-03 0. -1.
        -11    1    3    3    0    0  0.12493722611E+02 -0.29991742578E+02 -0.17116693110E+01  0.32535020203E+02  0.51100000000E-03 0.  1.
         12    1    3    3    0    0  0.42907501010E+01 -0.75490376700E+01 -0.57870353823E+01  0.10434954944E+02  0.00000000000E+00 0. -1.
</event>
<event>
 7    1  0.4937359E-010  0.4778727E+02  0.7816164E-02  0.1312668E+00
        -11   -1    0    0    0    0  0.00000000000E+00  0.00000000000E+00  0.45593999997E+02  0.45594000000E+02  0.51100000000E-03 0.  1.
         11   -1    0    0    0    0 -0.00000000000E+00 -0.00000000000E+00 -0.45593999997E+02  0.45594000000E+02  0.51100000000E-03 0. -1.
    9900012    2    1    2    0    0 -0.25494243712E+02  0.20407113729E+02  0.28586995063E+02  0.47787273740E+02  0.20000012288E+02 0.  0.
         12    1    1    2    0    0  0.25494243712E+02 -0.20407113729E+02 -0.28586995063E+02  0.43400726260E+02  0.00000000000E+00 0. -1.
         11    1    3    3    0    0 -0.11695666746E+00  0.72764463684E+01  0.93878927524E+01  0.11878252447E+02  0.51100000000E-03 0. -1.
        -11    1    3    3    0    0 -0.24173663477E+02  0.13339312056E+02  0.14765306621E+02  0.31310022867E+02  0.51100000000E-03 0.  1.
        -12    1    3    3    0    0 -0.12036235677E+01 -0.20864469568E+00  0.44337956891E+01  0.45989984251E+01  0.00000000000E+00 0.  1.
</event>
<event>
 7    1  0.4937359E-010  0.4778727E+02  0.7816164E-02  0.1312668E+00
        -11   -1    0    0    0    0  0.00000000000E+00  0.00000000000E+00  0.45593999997E+02  0.45594000000E+02  0.51100000000E-03 0.  1.
         11   -1    0    0    0    0 -0.00000000000E+00 -0.00000000000E+00 -0.45593999997E+02  0.45594000000E+02  0.51100000000E-03 0. -1.
    9900012    2    1    2    0    0  0.38454682197E+02  0.15847869007E+02  0.12397803740E+02  0.47787273365E+02  0.20000010578E+02 0.  0.
         12    1    1    2    0    0 -0.38454682197E+02 -0.15847869007E+02 -0.12397803740E+02  0.43400726635E+02  0.00000000000E+00 0. -1.
         11    1    3    3    0    0  0.21439874639E+02  0.12077875726E+02 -0.97784580402E+00  0.24627210342E+02  0.51100000000E-03 0. -1.
        -11    1    3    3    0    0  0.15923324764E+02  0.20962780301E+01  0.91463307426E+01  0.18482478715E+02  0.51100000000E-03 0.  1.
         12    1    3    3    0    0  0.10914827941E+01  0.16737152514E+01  0.42293188013E+01  0.46775843077E+01  0.00000000000E+00 0. -1.
</event>
<event>
 7    1  0.4937359E-010  0.4778727E+02  0.7816164E-02  0.1312668E+00
        -11   -1    0    0    0    0  0.00000000000E+00  0.00000000000E+00  0.45593999997E+02  0.45594000000E+02  0.51100000000E-03 0.  1.
         11   -1    0    0    0    0 -0.00000000000E+00 -0.00000000000E+00 -0.45593999997E+02  0.45594000000E+02  0.51100000000E-03 0. -1.
    9900012    2    1    2    0    0 -0.13921865267E+02 -0.27624993853E+02  0.30441166214E+02  0.47787271684E+02  0.20000002914E+02 0.  0.
         12    1    1    2    0    0  0.13921865267E+02  0.27624993853E+02 -0.30441166214E+02  0.43400728316E+02  0.00000000000E+00 0. -1.
         11    1    3    3    0    0  0.35247506437E+01 -0.13191885930E+01  0.21644177843E+01  0.43415239548E+01  0.51100000000E-03 0. -1.
        -11    1    3    3    0    0 -0.17294756278E+02 -0.27100548990E+02  0.27291000025E+02  0.42170452131E+02  0.51100000000E-03 0.  1.
        -12    1    3    3    0    0 -0.15185963200E+00  0.79474372968E+00  0.98574840561E+00  0.12752955982E+01  0.00000000000E+00 0.  1.
</event>
<event>
 7    1  0.4937359E-010  0.4778727E+02  0.7816164E-02  0.1312668E+00
        -11   -1    0    0    0    0  0.00000000000E+00  0.00000000000E+00  0.45593999997E+02  0.45594000000E+02  0.51100000000E-03 0.  1.
         11   -1    0    0    0    0 -0.00000000000E+00 -0.00000000000E+00 -0.45593999997E+02  0.45594000000E+02  0.51100000000E-03 0. -1.
    9900012    2    1    2    0    0 -0.17178453824E+02 -0.11846651652E+02  0.38054975335E+02  0.47787267531E+02  0.19999983980E+02 0.  0.
         12    1    1    2    0    0  0.17178453824E+02  0.11846651652E+02 -0.38054975335E+02  0.43400732469E+02  0.00000000000E+00 0. -1.
         11    1    3    3    0    0 -0.10981148213E+01 -0.33420371438E+01 -0.71369370511E+00  0.35894884590E+01  0.51100000000E-03 0. -1.
        -11    1    3    3    0    0 -0.71674376187E+01 -0.96476392912E+01  0.25258586718E+02  0.27972223887E+02  0.51100000000E-03 0.  1.
        -12    1    3    3    0    0 -0.89129013835E+01  0.11430247833E+01  0.13510082322E+02  0.16225555185E+02  0.00000000000E+00 0.  1.
</event>
<event>
 7    1  0.4937359E-010  0.4778727E+02  0.7816164E-02  0.1312668E+00
        -11   -1    0    0    0    0  0.00000000000E+00  0.00000000000E+00  0.45593999997E+02  0.45594000000E+02  0.51100000000E-03 0. -1.
         11   -1    0    0    0    0 -0.00000000000E+00 -0.00000000000E+00 -0.45593999997E+02  0.45594000000E+02  0.51100000000E-03 0.  1.
    9900012    2    1    2    0    0 -0.89655099452E+01  0.42341798091E+02 -0.32272231886E+01  0.47787271854E+02  0.20000003690E+02 0.  0.
         12    1    1    2    0    0  0.89655099452E+01 -0.42341798091E+02  0.32272231886E+01  0.43400728146E+02  0.00000000000E+00 0. -1.
         11    1    3    3    0    0  0.12338115468E+01  0.10964292436E+02 -0.71766024145E+01  0.13162128325E+02  0.51100000000E-03 0. -1.
        -11    1    3    3    0    0 -0.53571150019E+01  0.89532060074E+01 -0.26286048224E+01  0.10759560517E+02  0.51100000000E-03 0.  1.
         12    1    3    3    0    0 -0.48422064901E+01  0.22424299647E+02  0.65779840482E+01  0.23865583011E+02  0.00000000000E+00 0. -1.
</event>
<event>
 7    1  0.4937359E-010  0.4778726E+02  0.7816164E-02  0.1312668E+00
        -11   -1    0    0    0    0  0.00000000000E+00  0.00000000000E+00  0.45593999997E+02  0.45594000000E+02  0.51100000000E-03 0. -1.
         11   -1    0    0    0    0 -0.00000000000E+00 -0.00000000000E+00 -0.45593999997E+02  0.45594000000E+02  0.51100000000E-03 0.  1.
    9900012    2    1    2    0    0  0.21675545449E+02 -0.30725159165E+02  0.21673929125E+02  0.47787264063E+02  0.19999968167E+02 0.  0.
         12    1    1    2    0    0 -0.21675545449E+02  0.30725159165E+02 -0.21673929125E+02  0.43400735937E+02  0.00000000000E+00 0. -1.
         11    1    3    3    0    0  0.30913878443E+01 -0.21179893833E+01  0.39792532317E+01  0.54659870448E+01  0.51100000000E-03 0. -1.
        -11    1    3    3    0    0  0.41845316495E+01 -0.17250473714E+02  0.14291378760E+01  0.17808188673E+02  0.51100000000E-03 0.  1.
        -12    1    3    3    0    0  0.14399625955E+02 -0.11356696068E+02  0.16265538017E+02  0.24513088345E+02  0.00000000000E+00 0.  1.
</event>
<event>
 7    1  0.4937359E-010  0.4778729E+02  0.7816164E-02  0.1312668E+00
        -11   -1    0    0    0    0  0.00000000000E+00  0.00000000000E+00  0.45593999997E+02  0.45594000000E+02  0.51100000000E-03 0.  1.
         11   -1    0    0    0    0 -0.00000000000E+00 -0.00000000000E+00 -0.45593999997E+02  0.45594000000E+02  0.51100000000E-03 0. -1.
    9900012    2    1    2    0    0  0.46653198482E+01 -0.36003819654E+02  0.23781952121E+02  0.47787291646E+02  0.20000093928E+02 0.  0.
         12    1    1    2    0    0 -0.46653198482E+01  0.36003819654E+02 -0.23781952121E+02  0.43400708354E+02  0.00000000000E+00 0. -1.
         11    1    3    3    0    0  0.34630566253E+01 -0.30953328547E+02  0.12475228953E+02  0.33551939542E+02  0.51100000000E-03 0. -1.
        -11    1    3    3    0    0  0.99641179552E+00 -0.67190009965E+01  0.10076669053E+02  0.12152245485E+02  0.51100000000E-03 0.  1.
         12    1    3    3    0    0  0.20585142730E+00  0.16685098891E+01  0.12300541147E+01  0.20831066187E+01  0.00000000000E+00 0. -1.
</event>
<event>
 7    1  0.4937359E-010  0.4778727E+02  0.7816164E-02  0.1312668E+00
        -11   -1    0    0    0    0  0.00000000000E+00  0.00000000000E+00  0.45593999997E+02  0.45594000000E+02  0.51100000000E-03 0. -1.
         11   -1    0    0    0    0 -0.00000000000E+00 -0.00000000000E+00 -0.45593999997E+02  0.45594000000E+02  0.51100000000E-03 0.  1.
    9900012    2    1    2    0    0  0.32520935601E+02 -0.65995907128E+01 -0.27972447632E+02  0.47787266407E+02  0.19999978856E+02 0.  0.
         12    1    1    2    0    0 -0.32520935601E+02  0.65995907128E+01  0.27972447632E+02  0.43400733593E+02  0.00000000000E+00 0. -1.
         11    1    3    3    0    0  0.14726952281E+02 -0.46733244256E+01 -0.20491918238E+02  0.25664017574E+02  0.51100000000E-03 0. -1.
        -11    1    3    3    0    0  0.71621076179E+01 -0.51449363662E+01 -0.16066171664E+00  0.88199755210E+01  0.51100000000E-03 0.  1.
        -12    1    3    3    0    0  0.10631875702E+02  0.32186700790E+01 -0.73198676766E+01  0.13303273312E+02  0.00000000000E+00 0.  1.
</event>
<event>
 7    1  0.4937359E-010  0.4778727E+02  0.7816164E-02  0.1312668E+00
        -11   -1    0    0    0    0  0.00000000000E+00  0.00000000000E+00  0.45593999997E+02  0.45594000000E+02  0.51100000000E-03 0.  1.
         11   -1    0    0    0    0 -0.00000000000E+00 -0.00000000000E+00 -0.45593999997E+02  0.45594000000E+02  0.51100000000E-03 0. -1.
    9900012    2    1    2    0    0 -0.18889429426E+02 -0.37027371374E+02  0.12481445426E+02  0.47787271264E+02  0.20000001001E+02 0.  0.
         12    1    1    2    0    0  0.18889429426E+02  0.37027371374E+02 -0.12481445426E+02  0.43400728736E+02  0.00000000000E+00 0. -1.
         11    1    3    3    0    0 -0.83070130749E+01 -0.13053397456E+02 -0.44659631335E+01  0.16104113709E+02  0.51100000000E-03 0. -1.
        -11    1    3    3    0    0 -0.44911234575E+01 -0.15896646064E+02  0.89531521561E+01  0.18789158570E+02  0.51100000000E-03 0.  1.
         12    1    3    3    0    0 -0.60912928933E+01 -0.80773278537E+01  0.79942564035E+01  0.12893998985E+02  0.00000000000E+00 0. -1.
</event>
<event>
 7    1  0.4937359E-010  0.4778727E+02  0.7816164E-02  0.1312668E+00
        -11   -1    0    0    0    0  0.00000000000E+00  0.00000000000E+00  0.45593999997E+02  0.45594000000E+02  0.51100000000E-03 0. -1.
         11   -1    0    0    0    0 -0.00000000000E+00 -0.00000000000E+00 -0.45593999997E+02  0.45594000000E+02  0.51100000000E-03 0.  1.
    9900012    2    1    2    0    0 -0.15624554077E+02 -0.69319913685E+01 -0.39892906616E+02  0.47787271979E+02  0.20000004263E+02 0.  0.
         12    1    1    2    0    0  0.15624554077E+02  0.69319913685E+01  0.39892906616E+02  0.43400728021E+02  0.00000000000E+00 0. -1.
         11    1    3    3    0    0 -0.43535295773E+01 -0.83996921135E+01 -0.70249325696E+01  0.11783790784E+02  0.51100000000E-03 0.  1.
        -11    1    3    3    0    0 -0.35260639521E+01  0.49062399904E+01 -0.10982489604E+02  0.12534727599E+02  0.51100000000E-03 0. -1.
        -12    1    3    3    0    0 -0.77449605473E+01 -0.34385392454E+01 -0.21885484443E+02  0.23468753596E+02  0.00000000000E+00 0.  1.
</event>
<event>
 7    1  0.4937359E-010  0.4778727E+02  0.7816164E-02  0.1312668E+00
        -11   -1    0    0    0    0  0.00000000000E+00  0.00000000000E+00  0.45593999997E+02  0.45594000000E+02  0.51100000000E-03 0.  1.
         11   -1    0    0    0    0 -0.00000000000E+00 -0.00000000000E+00 -0.45593999997E+02  0.45594000000E+02  0.51100000000E-03 0. -1.
    9900012    2    1    2    0    0 -0.63812134748E+00  0.42435703112E+02  0.90789404704E+01  0.47787271233E+02  0.20000000861E+02 0.  0.
         12    1    1    2    0    0  0.63812134748E+00 -0.42435703112E+02 -0.90789404704E+01  0.43400728767E+02  0.00000000000E+00 0. -1.
         11    1    3    3    0    0  0.14021822673E+01  0.57936894163E+01 -0.37133553709E+01  0.70229595282E+01  0.51100000000E-03 0. -1.
        -11    1    3    3    0    0 -0.68239381926E+01  0.24314755718E+02  0.62727153827E+01  0.26021537937E+02  0.51100000000E-03 0.  1.
        -12    1    3    3    0    0  0.47836345778E+01  0.12327257977E+02  0.65195804586E+01  0.14742773768E+02  0.00000000000E+00 0.  1.
</event>
<event>
 7    1  0.4937359E-010  0.4778727E+02  0.7816164E-02  0.1312668E+00
        -11   -1    0    0    0    0  0.00000000000E+00  0.00000000000E+00  0.45593999997E+02  0.45594000000E+02  0.51100000000E-03 0.  1.
         11   -1    0    0    0    0 -0.00000000000E+00 -0.00000000000E+00 -0.45593999997E+02  0.45594000000E+02  0.51100000000E-03 0. -1.
    9900012    2    1    2    0    0 -0.21718587201E+02 -0.30840028759E+02  0.21466689532E+02  0.47787272318E+02  0.20000005808E+02 0.  0.
         12    1    1    2    0    0  0.21718587201E+02  0.30840028759E+02 -0.21466689532E+02  0.43400727682E+02  0.00000000000E+00 0. -1.
         11    1    3    3    0    0 -0.17027946992E+01  0.10784620059E-01 -0.20927768267E+01  0.26980254267E+01  0.51100000000E-03 0. -1.
        -11    1    3    3    0    0 -0.95169409269E+01 -0.19316933827E+02  0.19310313217E+02  0.28924112672E+02  0.51100000000E-03 0.  1.
         12    1    3    3    0    0 -0.10498851575E+02 -0.11533879552E+02  0.42491531422E+01  0.16165134220E+02  0.00000000000E+00 0. -1.
</event>
<event>
 7    1  0.4937359E-010  0.4778726E+02  0.7816164E-02  0.1312668E+00
        -11   -1    0    0    0    0  0.00000000000E+00  0.00000000000E+00  0.45593999997E+02  0.45594000000E+02  0.51100000000E-03 0.  1.
         11   -1    0    0    0    0 -0.00000000000E+00 -0.00000000000E+00 -0.45593999997E+02  0.45594000000E+02  0.51100000000E-03 0. -1.
    9900012    2    1    2    0    0 -0.20343632490E+02  0.34614856566E+02  0.16479452615E+02  0.47787262259E+02  0.19999959943E+02 0.  0.
         12    1    1    2    0    0  0.20343632490E+02 -0.34614856566E+02 -0.16479452615E+02  0.43400737741E+02  0.00000000000E+00 0. -1.
         11    1    3    3    0    0 -0.83359813602E+01  0.21328600086E+02  0.75553672503E+00  0.22912193323E+02  0.51100000000E-03 0. -1.
        -11    1    3    3    0    0 -0.74224682638E+01  0.30473588942E+01  0.72749514011E+01  0.10830713250E+02  0.51100000000E-03 0.  1.
        -12    1    3    3    0    0 -0.45851828661E+01  0.10238897586E+02  0.84489644891E+01  0.14044355686E+02  0.00000000000E+00 0.  1.
</event>
<event>
 7    1  0.4937359E-010  0.4778727E+02  0.7816164E-02  0.1312668E+00
        -11   -1    0    0    0    0  0.00000000000E+00  0.00000000000E+00  0.45593999997E+02  0.45594000000E+02  0.51100000000E-03 0. -1.
         11   -1    0    0    0    0 -0.00000000000E+00 -0.00000000000E+00 -0.45593999997E+02  0.45594000000E+02  0.51100000000E-03 0.  1.
    9900012    2    1    2    0    0 -0.61786911304E+01 -0.32254687458E+02 -0.28373971899E+02  0.47787269955E+02  0.19999995035E+02 0.  0.
         12    1    1    2    0    0  0.61786911304E+01  0.32254687458E+02  0.28373971899E+02  0.43400730045E+02  0.00000000000E+00 0. -1.
         11    1    3    3    0    0 -0.27226730156E+01 -0.23077718276E+02 -0.25663578744E+02  0.34620995124E+02  0.51100000000E-03 0. -1.
        -11    1    3    3    0    0 -0.38962577804E+00 -0.84997347526E+01 -0.44227392621E+01  0.95894693259E+01  0.51100000000E-03 0.  1.
         12    1    3    3    0    0 -0.30663923367E+01 -0.67723442896E+00  0.17123461068E+01  0.35768055055E+01  0.00000000000E+00 0. -1.
</event>
<event>
 7    1  0.4937359E-010  0.4778727E+02  0.7816164E-02  0.1312668E+00
        -11   -1    0    0    0    0  0.00000000000E+00  0.00000000000E+00  0.45593999997E+02  0.45594000000E+02  0.51100000000E-03 0.  1.
         11   -1    0    0    0    0 -0.00000000000E+00 -0.00000000000E+00 -0.45593999997E+02  0.45594000000E+02  0.51100000000E-03 0. -1.
    9900012    2    1    2    0    0  0.89126148624E+01  0.61686547312E+01  0.42025427414E+02  0.47787267815E+02  0.19999985276E+02 0.  0.
         12    1    1    2    0    0 -0.89126148624E+01 -0.61686547312E+01 -0.42025427414E+02  0.43400732185E+02  0.00000000000E+00 0. -1.
         11    1    3    3    0    0  0.88979981259E+00  0.98813694787E+01  0.18801670717E+02  0.21258787089E+02  0.51100000000E-03 0. -1.
        -11    1    3    3    0    0  0.69714857375E+01  0.15816545388E+01  0.10451039664E+02  0.12662048601E+02  0.51100000000E-03 0.  1.
         12    1    3    3    0    0  0.10513293123E+01 -0.52943692863E+01  0.12772717033E+02  0.13866432124E+02  0.00000000000E+00 0. -1.
</event>
<event>
 7    1  0.4937359E-010  0.4778727E+02  0.7816164E-02  0.1312668E+00
        -11   -1    0    0    0    0  0.00000000000E+00  0.00000000000E+00  0.45593999997E+02  0.45594000000E+02  0.51100000000E-03 0.  1.
         11   -1    0    0    0    0 -0.00000000000E+00 -0.00000000000E+00 -0.45593999997E+02  0.45594000000E+02  0.51100000000E-03 0. -1.
    9900012    2    1    2    0    0  0.54325119785E+01 -0.36319971802E+02  0.23129445484E+02  0.47787265139E+02  0.19999973073E+02 0.  0.
         12    1    1    2    0    0 -0.54325119785E+01  0.36319971802E+02 -0.23129445484E+02  0.43400734861E+02  0.00000000000E+00 0. -1.
         11    1    3    3    0    0  0.11189670286E+01 -0.23506804355E+02  0.14026357198E+02  0.27396361705E+02  0.51100000000E-03 0. -1.
        -11    1    3    3    0    0 -0.14869681148E+01  0.18863362089E+01  0.74909443345E+00  0.25160447529E+01  0.51100000000E-03 0.  1.
        -12    1    3    3    0    0  0.58005130648E+01 -0.14699503657E+02  0.83539938518E+01  0.17874858680E+02  0.00000000000E+00 0.  1.
</event>
<event>
 7    1  0.4937359E-010  0.4778727E+02  0.7816164E-02  0.1312668E+00
        -11   -1    0    0    0    0  0.00000000000E+00  0.00000000000E+00  0.45593999997E+02  0.45594000000E+02  0.51100000000E-03 0. -1.
         11   -1    0    0    0    0 -0.00000000000E+00 -0.00000000000E+00 -0.45593999997E+02  0.45594000000E+02  0.51100000000E-03 0.  1.
    9900012    2    1    2    0    0  0.22047952066E+02  0.93439512720E+01 -0.36196707293E+02  0.47787271497E+02  0.20000002065E+02 0.  0.
         12    1    1    2    0    0 -0.22047952066E+02 -0.93439512720E+01  0.36196707293E+02  0.43400728503E+02  0.00000000000E+00 0. -1.
         11    1    3    3    0    0  0.16856777955E+02  0.20418589561E+01 -0.11161374693E+02  0.20319853256E+02  0.51100000000E-03 0. -1.
        -11    1    3    3    0    0  0.42581179113E+00  0.62628763780E+01 -0.16227356691E+02  0.17399196581E+02  0.51100000000E-03 0.  1.
        -12    1    3    3    0    0  0.47653623199E+01  0.10392159380E+01 -0.88079759084E+01  0.10068221661E+02  0.00000000000E+00 0.  1.
</event>
<event>
 7    1  0.4937359E-010  0.4778727E+02  0.7816164E-02  0.1312668E+00
        -11   -1    0    0    0    0  0.00000000000E+00  0.00000000000E+00  0.45593999997E+02  0.45594000000E+02  0.51100000000E-03 0. -1.
         11   -1    0    0    0    0 -0.00000000000E+00 -0.00000000000E+00 -0.45593999997E+02  0.45594000000E+02  0.51100000000E-03 0.  1.
    9900012    2    1    2    0    0 -0.27232983807E+02 -0.20764995841E+02 -0.26660883634E+02  0.47787272178E+02  0.20000005170E+02 0.  0.
         12    1    1    2    0    0  0.27232983807E+02  0.20764995841E+02  0.26660883634E+02  0.43400727822E+02  0.00000000000E+00 0. -1.
         11    1    3    3    0    0  0.60086627446E+00  0.18610688721E+01 -0.25515967461E+01  0.32148505163E+01  0.51100000000E-03 0. -1.
        -11    1    3    3    0    0 -0.77317876208E+01 -0.14920019783E+01 -0.81147117023E+01  0.11307305426E+02  0.51100000000E-03 0.  1.
         12    1    3    3    0    0 -0.20102062460E+02 -0.21134062735E+02 -0.15994575186E+02  0.33265116236E+02  0.00000000000E+00 0. -1.
</event>
<event>
 7    1  0.4937359E-010  0.4778727E+02  0.7816164E-02  0.1312668E+00
        -11   -1    0    0    0    0  0.00000000000E+00  0.00000000000E+00  0.45593999997E+02  0.45594000000E+02  0.51100000000E-03 0.  1.
         11   -1    0    0    0    0 -0.00000000000E+00 -0.00000000000E+00 -0.45593999997E+02  0.45594000000E+02  0.51100000000E-03 0. -1.
    9900012    2    1    2    0    0  0.36435275024E+02  0.21999098031E+02 -0.84931528922E+01  0.47787271593E+02  0.20000002500E+02 0.  0.
         12    1    1    2    0    0 -0.36435275024E+02 -0.21999098031E+02  0.84931528922E+01  0.43400728407E+02  0.00000000000E+00 0. -1.
         11    1    3    3    0    0  0.70112577619E+01  0.38336020747E+01 -0.70894157219E+01  0.10682418069E+02  0.51100000000E-03 0. -1.
        -11    1    3    3    0    0  0.11964439665E+02  0.10967677604E+02  0.52861394181E+01  0.17069886899E+02  0.51100000000E-03 0.  1.
         12    1    3    3    0    0  0.17459577596E+02  0.71978183523E+01 -0.66898765884E+01  0.20034966624E+02  0.00000000000E+00 0. -1.
</event>
<event>
 7    1  0.4937359E-010  0.4778727E+02  0.7816164E-02  0.1312668E+00
        -11   -1    0    0    0    0  0.00000000000E+00  0.00000000000E+00  0.45593999997E+02  0.45594000000E+02  0.51100000000E-03 0. -1.
         11   -1    0    0    0    0 -0.00000000000E+00 -0.00000000000E+00 -0.45593999997E+02  0.45594000000E+02  0.51100000000E-03 0.  1.
    9900012    2    1    2    0    0  0.16023953588E+02  0.39578014174E+02 -0.77741280451E+01  0.47787270036E+02  0.19999995402E+02 0.  0.
         12    1    1    2    0    0 -0.16023953588E+02 -0.39578014174E+02  0.77741280451E+01  0.43400729964E+02  0.00000000000E+00 0. -1.
         11    1    3    3    0    0  0.61259519628E+00  0.81179075278E+01 -0.89951158103E+01  0.12132098096E+02  0.51100000000E-03 0. -1.
        -11    1    3    3    0    0  0.11932405058E+02  0.29040476973E+02  0.10332779044E+01  0.31413361119E+02  0.51100000000E-03 0.  1.
         12    1    3    3    0    0  0.34789533335E+01  0.24196296737E+01  0.18770986082E+00  0.42418108216E+01  0.00000000000E+00 0. -1.
</event>
<event>
 7    1  0.4937359E-010  0.4778727E+02  0.7816164E-02  0.1312668E+00
        -11   -1    0    0    0    0  0.00000000000E+00  0.00000000000E+00  0.45593999997E+02  0.45594000000E+02  0.51100000000E-03 0.  1.
         11   -1    0    0    0    0 -0.00000000000E+00 -0.00000000000E+00 -0.45593999997E+02  0.45594000000E+02  0.51100000000E-03 0. -1.
    9900012    2    1    2    0    0 -0.32568939838E+02 -0.62978314632E+01  0.27986153102E+02  0.47787270873E+02  0.19999999218E+02 0.  0.
         12    1    1    2    0    0  0.32568939838E+02  0.62978314632E+01 -0.27986153102E+02  0.43400729127E+02  0.00000000000E+00 0. -1.
         11    1    3    3    0    0 -0.50372549455E+01 -0.33530407682E+01  0.14045570379E+02  0.15293621785E+02  0.51100000000E-03 0. -1.
        -11    1    3    3    0    0 -0.22969865903E+02 -0.48544735282E+01  0.80878686914E+01  0.24831316378E+02  0.51100000000E-03 0.  1.
        -12    1    3    3    0    0 -0.45618189896E+01  0.19096828332E+01  0.58527140324E+01  0.76623327102E+01  0.00000000000E+00 0.  1.
</event>
<event>
 7    1  0.4937359E-010  0.4778727E+02  0.7816164E-02  0.1312668E+00
        -11   -1    0    0    0    0  0.00000000000E+00  0.00000000000E+00  0.45593999997E+02  0.45594000000E+02  0.51100000000E-03 0. -1.
         11   -1    0    0    0    0 -0.00000000000E+00 -0.00000000000E+00 -0.45593999997E+02  0.45594000000E+02  0.51100000000E-03 0.  1.
    9900012    2    1    2    0    0 -0.38166622515E+02 -0.78869342987E+01 -0.19097860304E+02  0.47787273335E+02  0.20000010444E+02 0.  0.
         12    1    1    2    0    0  0.38166622515E+02  0.78869342987E+01  0.19097860304E+02  0.43400726665E+02  0.00000000000E+00 0. -1.
         11    1    3    3    0    0 -0.27709361613E+02 -0.34467085231E+01 -0.19490051909E+02  0.34052175324E+02  0.51100000000E-03 0.  1.
        -11    1    3    3    0    0 -0.73688038079E+01  0.70820067403E+00 -0.12575749432E+01  0.75088156692E+01  0.51100000000E-03 0. -1.
         12    1    3    3    0    0 -0.30884570944E+01 -0.51484264496E+01  0.16497665486E+01  0.62262823415E+01  0.00000000000E+00 0. -1.
</event>
<event>
 7    1  0.4937359E-010  0.4778727E+02  0.7816164E-02  0.1312668E+00
        -11   -1    0    0    0    0  0.00000000000E+00  0.00000000000E+00  0.45593999997E+02  0.45594000000E+02  0.51100000000E-03 0.  1.
         11   -1    0    0    0    0 -0.00000000000E+00 -0.00000000000E+00 -0.45593999997E+02  0.45594000000E+02  0.51100000000E-03 0. -1.
    9900012    2    1    2    0    0  0.16137035696E+02 -0.26275895512E+02  0.30541717074E+02  0.47787273187E+02  0.20000009770E+02 0.  0.
         12    1    1    2    0    0 -0.16137035696E+02  0.26275895512E+02 -0.30541717074E+02  0.43400726813E+02  0.00000000000E+00 0. -1.
         11    1    3    3    0    0 -0.12929262239E+01 -0.15543691709E+00  0.44413450035E+01  0.46283220023E+01  0.51100000000E-03 0. -1.
        -11    1    3    3    0    0  0.14564614018E+02 -0.10360477849E+02  0.17334985560E+02  0.24899180858E+02  0.51100000000E-03 0.  1.
        -12    1    3    3    0    0  0.28653479015E+01 -0.15759980746E+02  0.87653865104E+01  0.18259770327E+02  0.00000000000E+00 0.  1.
</event>
<event>
 7    1  0.4937359E-010  0.4778727E+02  0.7816164E-02  0.1312668E+00
        -11   -1    0    0    0    0  0.00000000000E+00  0.00000000000E+00  0.45593999997E+02  0.45594000000E+02  0.51100000000E-03 0.  1.
         11   -1    0    0    0    0 -0.00000000000E+00 -0.00000000000E+00 -0.45593999997E+02  0.45594000000E+02  0.51100000000E-03 0. -1.
    9900012    2    1    2    0    0 -0.22650417331E+02  0.18479751754E+02  0.32079286590E+02  0.47787271224E+02  0.20000000818E+02 0.  0.
         12    1    1    2    0    0  0.22650417331E+02 -0.18479751754E+02 -0.32079286590E+02  0.43400728776E+02  0.00000000000E+00 0. -1.
         11    1    3    3    0    0 -0.24073645185E+02  0.11901001603E+02  0.26372984622E+02  0.37639189016E+02  0.51100000000E-03 0. -1.
        -11    1    3    3    0    0  0.26250978860E+01  0.64374922741E+01  0.56114104415E+01  0.89342248177E+01  0.51100000000E-03 0.  1.
        -12    1    3    3    0    0 -0.12018700319E+01  0.14125787733E+00  0.94891526451E-01  0.12138573900E+01  0.00000000000E+00 0.  1.
</event>
<event>
 7    1  0.4937359E-010  0.4778727E+02  0.7816164E-02  0.1312668E+00
        -11   -1    0    0    0    0  0.00000000000E+00  0.00000000000E+00  0.45593999997E+02  0.45594000000E+02  0.51100000000E-03 0.  1.
         11   -1    0    0    0    0 -0.00000000000E+00 -0.00000000000E+00 -0.45593999997E+02  0.45594000000E+02  0.51100000000E-03 0. -1.
    9900012    2    1    2    0    0  0.13378316880E+02 -0.19453743287E+02  0.36416969979E+02  0.47787271978E+02  0.20000004256E+02 0.  0.
         12    1    1    2    0    0 -0.13378316880E+02  0.19453743287E+02 -0.36416969979E+02  0.43400728022E+02  0.00000000000E+00 0. -1.
         11    1    3    3    0    0  0.47126421764E+01  0.33590975001E+00  0.16581655245E+02  0.17241610208E+02  0.51100000000E-03 0. -1.
        -11    1    3    3    0    0  0.94510999972E+01 -0.13022860829E+02  0.16161373226E+02  0.22805880385E+02  0.51100000000E-03 0.  1.
         12    1    3    3    0    0 -0.78542529320E+00 -0.67667922087E+01  0.36739415077E+01  0.77397813851E+01  0.00000000000E+00 0. -1.
</event>
<event>
 7    1  0.4937359E-010  0.4778727E+02  0.7816164E-02  0.1312668E+00
        -11   -1    0    0    0    0  0.00000000000E+00  0.00000000000E+00  0.45593999997E+02  0.45594000000E+02  0.51100000000E-03 0.  1.
         11   -1    0    0    0    0 -0.00000000000E+00 -0.00000000000E+00 -0.45593999997E+02  0.45594000000E+02  0.51100000000E-03 0. -1.
    9900012    2    1    2    0    0  0.31068753853E+02 -0.25917083238E+02  0.15705448607E+02  0.47787265150E+02  0.19999973126E+02 0.  0.
         12    1    1    2    0    0 -0.31068753853E+02  0.25917083238E+02 -0.15705448607E+02  0.43400734850E+02  0.00000000000E+00 0. -1.
         11    1    3    3    0    0  0.14088558637E+02 -0.96398541718E+01 -0.12296557912E+01  0.17115090609E+02  0.51100000000E-03 0. -1.
        -11    1    3    3    0    0  0.14498390348E+02 -0.89313249293E+01  0.14970108919E+02  0.22673245223E+02  0.51100000000E-03 0.  1.
        -12    1    3    3    0    0  0.24818048680E+01 -0.73459041373E+01  0.19649954793E+01  0.79989293178E+01  0.00000000000E+00 0.  1.
</event>
<event>
 7    1  0.4937359E-010  0.4778726E+02  0.7816164E-02  0.1312668E+00
        -11   -1    0    0    0    0  0.00000000000E+00  0.00000000000E+00  0.45593999997E+02  0.45594000000E+02  0.51100000000E-03 0. -1.
         11   -1    0    0    0    0 -0.00000000000E+00 -0.00000000000E+00 -0.45593999997E+02  0.45594000000E+02  0.51100000000E-03 0.  1.
    9900012    2    1    2    0    0 -0.11977917770E+02 -0.66690612773E+01 -0.41178598338E+02  0.47787264366E+02  0.19999969552E+02 0.  0.
         12    1    1    2    0    0  0.11977917770E+02  0.66690612773E+01  0.41178598338E+02  0.43400735634E+02  0.00000000000E+00 0. -1.
         11    1    3    3    0    0  0.36094816469E+01  0.73372154746E+00 -0.50329035918E+01  0.62367318279E+01  0.51100000000E-03 0. -1.
        -11    1    3    3    0    0 -0.13608058729E+02 -0.36608307547E+01 -0.33999903981E+02  0.36804543404E+02  0.51100000000E-03 0.  1.
        -12    1    3    3    0    0 -0.19793406886E+01 -0.37419520700E+01 -0.21457907655E+01  0.47459891345E+01  0.00000000000E+00 0.  1.
</event>
<event>
 7    1  0.4937359E-010  0.4778727E+02  0.7816164E-02  0.1312668E+00
        -11   -1    0    0    0    0  0.00000000000E+00  0.00000000000E+00  0.45593999997E+02  0.45594000000E+02  0.51100000000E-03 0.  1.
         11   -1    0    0    0    0 -0.00000000000E+00 -0.00000000000E+00 -0.45593999997E+02  0.45594000000E+02  0.51100000000E-03 0. -1.
    9900012    2    1    2    0    0  0.30001104596E+02 -0.18045030532E+01  0.31309756855E+02  0.47787269792E+02  0.19999994290E+02 0.  0.
         12    1    1    2    0    0 -0.30001104596E+02  0.18045030532E+01 -0.31309756855E+02  0.43400730208E+02  0.00000000000E+00 0. -1.
         11    1    3    3    0    0  0.23503846295E+01  0.90437541480E+00  0.54809071698E+00  0.25773254534E+01  0.51100000000E-03 0. -1.
        -11    1    3    3    0    0  0.29131602971E+02 -0.57798875960E+01  0.28079718237E+02  0.40872092787E+02  0.51100000000E-03 0.  1.
        -12    1    3    3    0    0 -0.14808830045E+01  0.30710091280E+01  0.26819479011E+01  0.43378515513E+01  0.00000000000E+00 0.  1.
</event>
<event>
 7    1  0.4937359E-010  0.4778729E+02  0.7816164E-02  0.1312668E+00
        -11   -1    0    0    0    0  0.00000000000E+00  0.00000000000E+00  0.45593999997E+02  0.45594000000E+02  0.51100000000E-03 0.  1.
         11   -1    0    0    0    0 -0.00000000000E+00 -0.00000000000E+00 -0.45593999997E+02  0.45594000000E+02  0.51100000000E-03 0. -1.
    9900012    2    1    2    0    0 -0.26636140553E+02 -0.31397528464E+02  0.13723448781E+02  0.47787287752E+02  0.20000076176E+02 0.  0.
         12    1    1    2    0    0  0.26636140553E+02  0.31397528464E+02 -0.13723448781E+02  0.43400712248E+02  0.00000000000E+00 0. -1.
         11    1    3    3    0    0 -0.20259799255E+02 -0.18395414069E+02  0.39815207550E+01  0.27653268024E+02  0.51100000000E-03 0.  1.
        -11    1    3    3    0    0  0.23687533280E+01 -0.91762085170E+00  0.50840375349E+00  0.25906553213E+01  0.51100000000E-03 0. -1.
         12    1    3    3    0    0 -0.87450946266E+01 -0.12084493543E+02  0.92335242722E+01  0.17543364406E+02  0.00000000000E+00 0. -1.
</event>
<event>
 7    1  0.4937359E-010  0.4778727E+02  0.7816164E-02  0.1312668E+00
        -11   -1    0    0    0    0  0.00000000000E+00  0.00000000000E+00  0.45593999997E+02  0.45594000000E+02  0.51100000000E-03 0. -1.
         11   -1    0    0    0    0 -0.00000000000E+00 -0.00000000000E+00 -0.45593999997E+02  0.45594000000E+02  0.51100000000E-03 0.  1.
    9900012    2    1    2    0    0 -0.41751656668E+02  0.65755710556E+01  0.98582059257E+01  0.47787271973E+02  0.20000004233E+02 0.  0.
         12    1    1    2    0    0  0.41751656668E+02 -0.65755710556E+01 -0.98582059257E+01  0.43400728027E+02  0.00000000000E+00 0. -1.
         11    1    3    3    0    0 -0.15028981301E+01 -0.27629710906E+01 -0.21486665207E+01  0.38091311496E+01  0.51100000000E-03 0. -1.
        -11    1    3    3    0    0 -0.49071037167E+01 -0.45000283191E+00 -0.10730283885E+01  0.50431696005E+01  0.51100000000E-03 0.  1.
         12    1    3    3    0    0 -0.35341654821E+02  0.97885449781E+01  0.13079900835E+02  0.38934971223E+02  0.00000000000E+00 0. -1.
</event>
<event>
 7    1  0.4937359E-010  0.4778727E+02  0.7816164E-02  0.1312668E+00
        -11   -1    0    0    0    0  0.00000000000E+00  0.00000000000E+00  0.45593999997E+02  0.45594000000E+02  0.51100000000E-03 0. -1.
         11   -1    0    0    0    0 -0.00000000000E+00 -0.00000000000E+00 -0.45593999997E+02  0.45594000000E+02  0.51100000000E-03 0.  1.
    9900012    2    1    2    0    0 -0.16816151331E+02 -0.15081376465E+02 -0.37059310357E+02  0.47787270216E+02  0.19999996221E+02 0.  0.
         12    1    1    2    0    0  0.16816151331E+02  0.15081376465E+02  0.37059310357E+02  0.43400729784E+02  0.00000000000E+00 0. -1.
         11    1    3    3    0    0 -0.83363498862E+01 -0.29339565617E+00 -0.39621920623E+01  0.92347050107E+01  0.51100000000E-03 0. -1.
        -11    1    3    3    0    0 -0.16398370038E+01 -0.18798844476E+01 -0.15419587038E+02  0.15620073483E+02  0.51100000000E-03 0.  1.
         12    1    3    3    0    0 -0.68399644414E+01 -0.12908096361E+02 -0.17677531257E+02  0.22932491722E+02  0.00000000000E+00 0. -1.
</event>
<event>
 7    1  0.4937359E-010  0.4778727E+02  0.7816164E-02  0.1312668E+00
        -11   -1    0    0    0    0  0.00000000000E+00  0.00000000000E+00  0.45593999997E+02  0.45594000000E+02  0.51100000000E-03 0.  1.
         11   -1    0    0    0    0 -0.00000000000E+00 -0.00000000000E+00 -0.45593999997E+02  0.45594000000E+02  0.51100000000E-03 0. -1.
    9900012    2    1    2    0    0  0.24133980175E+02  0.28413722826E+02  0.22222386785E+02  0.47787272836E+02  0.20000008169E+02 0.  0.
         12    1    1    2    0    0 -0.24133980175E+02 -0.28413722826E+02 -0.22222386785E+02  0.43400727164E+02  0.00000000000E+00 0. -1.
         11    1    3    3    0    0  0.10443272634E+01  0.68070814032E+01  0.35719487648E+01  0.77579504318E+01  0.51100000000E-03 0. -1.
        -11    1    3    3    0    0  0.11756407694E+02  0.11943786632E+02  0.18733288779E+02  0.25135697120E+02  0.51100000000E-03 0.  1.
        -12    1    3    3    0    0  0.11333245217E+02  0.96628547909E+01 -0.82850758486E-01  0.14893625284E+02  0.00000000000E+00 0.  1.
</event>
<event>
 7    1  0.4937359E-010  0.4778727E+02  0.7816164E-02  0.1312668E+00
        -11   -1    0    0    0    0  0.00000000000E+00  0.00000000000E+00  0.45593999997E+02  0.45594000000E+02  0.51100000000E-03 0.  1.
         11   -1    0    0    0    0 -0.00000000000E+00 -0.00000000000E+00 -0.45593999997E+02  0.45594000000E+02  0.51100000000E-03 0. -1.
    9900012    2    1    2    0    0  0.16046000235E+02  0.39209858352E+02 -0.94199936678E+01  0.47787269635E+02  0.19999993572E+02 0.  0.
         12    1    1    2    0    0 -0.16046000235E+02 -0.39209858352E+02  0.94199936678E+01  0.43400730365E+02  0.00000000000E+00 0. -1.
         11    1    3    3    0    0  0.17114515088E+02  0.22219443762E+02 -0.10636538783E+02  0.29995770791E+02  0.51100000000E-03 0. -1.
        -11    1    3    3    0    0 -0.20237347318E+01  0.11359025765E+02  0.27829615951E+01  0.11868776015E+02  0.51100000000E-03 0.  1.
         12    1    3    3    0    0  0.95521987903E+00  0.56313888250E+01 -0.15664164802E+01  0.59227228286E+01  0.00000000000E+00 0. -1.
</event>
<event>
 7    1  0.4937359E-010  0.4778727E+02  0.7816164E-02  0.1312668E+00
        -11   -1    0    0    0    0  0.00000000000E+00  0.00000000000E+00  0.45593999997E+02  0.45594000000E+02  0.51100000000E-03 0.  1.
         11   -1    0    0    0    0 -0.00000000000E+00 -0.00000000000E+00 -0.45593999997E+02  0.45594000000E+02  0.51100000000E-03 0. -1.
    9900012    2    1    2    0    0  0.22784205003E+02  0.73483603462E+01  0.36200897416E+02  0.47787269924E+02  0.19999994894E+02 0.  0.
         12    1    1    2    0    0 -0.22784205003E+02 -0.73483603462E+01 -0.36200897416E+02  0.43400730076E+02  0.00000000000E+00 0. -1.
         11    1    3    3    0    0  0.88704450316E+01  0.30989923167E+01  0.25840390073E+01  0.97450400866E+01  0.51100000000E-03 0. -1.
        -11    1    3    3    0    0  0.10097476047E+02 -0.17122875059E+01  0.24062897689E+02  0.26151749396E+02  0.51100000000E-03 0.  1.
         12    1    3    3    0    0  0.38162839247E+01  0.59616555353E+01  0.95539607197E+01  0.11890480442E+02  0.00000000000E+00 0. -1.
</event>
<event>
 7    1  0.4937359E-010  0.4778727E+02  0.7816164E-02  0.1312668E+00
        -11   -1    0    0    0    0  0.00000000000E+00  0.00000000000E+00  0.45593999997E+02  0.45594000000E+02  0.51100000000E-03 0.  1.
         11   -1    0    0    0    0 -0.00000000000E+00 -0.00000000000E+00 -0.45593999997E+02  0.45594000000E+02  0.51100000000E-03 0. -1.
    9900012    2    1    2    0    0 -0.85038231031E+00  0.44387369201E+01  0.43164774330E+02  0.47787270991E+02  0.19999999758E+02 0.  0.
         12    1    1    2    0    0  0.85038231031E+00 -0.44387369201E+01 -0.43164774330E+02  0.43400729009E+02  0.00000000000E+00 0. -1.
         11    1    3    3    0    0 -0.94411753225E+01 -0.20185554863E+01  0.19881568368E+02  0.22101744699E+02  0.51100000000E-03 0. -1.
        -11    1    3    3    0    0  0.63052679660E+01  0.52418660862E+01  0.16497666139E+02  0.18422989781E+02  0.51100000000E-03 0.  1.
         12    1    3    3    0    0  0.22855250462E+01  0.12154263202E+01  0.67855398237E+01  0.72625365111E+01  0.00000000000E+00 0. -1.
</event>
<event>
 7    1  0.4937359E-010  0.4778727E+02  0.7816164E-02  0.1312668E+00
        -11   -1    0    0    0    0  0.00000000000E+00  0.00000000000E+00  0.45593999997E+02  0.45594000000E+02  0.51100000000E-03 0.  1.
         11   -1    0    0    0    0 -0.00000000000E+00 -0.00000000000E+00 -0.45593999997E+02  0.45594000000E+02  0.51100000000E-03 0. -1.
    9900012    2    1    2    0    0  0.21763388930E+02 -0.36913661793E+02  0.68818471138E+01  0.47787270232E+02  0.19999996297E+02 0.  0.
         12    1    1    2    0    0 -0.21763388930E+02  0.36913661793E+02 -0.68818471138E+01  0.43400729768E+02  0.00000000000E+00 0. -1.
         11    1    3    3    0    0  0.19785916828E+02 -0.15503686128E+02  0.48876859279E+01  0.25607347818E+02  0.51100000000E-03 0. -1.
        -11    1    3    3    0    0  0.35520466963E+01 -0.16210452323E+02  0.22179076271E+01  0.16742607764E+02  0.51100000000E-03 0.  1.
         12    1    3    3    0    0 -0.15745745938E+01 -0.51995233415E+01 -0.22374644118E+00  0.54373146498E+01  0.00000000000E+00 0. -1.
</event>
<event>
 7    1  0.4937359E-010  0.4778727E+02  0.7816164E-02  0.1312668E+00
        -11   -1    0    0    0    0  0.00000000000E+00  0.00000000000E+00  0.45593999997E+02  0.45594000000E+02  0.51100000000E-03 0.  1.
         11   -1    0    0    0    0 -0.00000000000E+00 -0.00000000000E+00 -0.45593999997E+02  0.45594000000E+02  0.51100000000E-03 0. -1.
    9900012    2    1    2    0    0 -0.79932057324E+01 -0.41424564093E+01  0.42456706669E+02  0.47787271617E+02  0.20000002612E+02 0.  0.
         12    1    1    2    0    0  0.79932057324E+01  0.41424564093E+01 -0.42456706669E+02  0.43400728383E+02  0.00000000000E+00 0. -1.
         11    1    3    3    0    0 -0.62069403757E+01 -0.46194024952E+01  0.94266102909E+01  0.12195325747E+02  0.51100000000E-03 0. -1.
        -11    1    3    3    0    0 -0.50251773222E+01  0.17745686163E+01  0.31200119819E+02  0.31651998008E+02  0.51100000000E-03 0.  1.
        -12    1    3    3    0    0  0.32389119655E+01 -0.12976225304E+01  0.18299765587E+01  0.39399478622E+01  0.00000000000E+00 0.  1.
</event>
<event>
 7    1  0.4937359E-010  0.4778727E+02  0.7816164E-02  0.1312668E+00
        -11   -1    0    0    0    0  0.00000000000E+00  0.00000000000E+00  0.45593999997E+02  0.45594000000E+02  0.51100000000E-03 0. -1.
         11   -1    0    0    0    0 -0.00000000000E+00 -0.00000000000E+00 -0.45593999997E+02  0.45594000000E+02  0.51100000000E-03 0.  1.
    9900012    2    1    2    0    0  0.78575834609E+00  0.40432097265E+02  0.15755995308E+02  0.47787270817E+02  0.19999998965E+02 0.  0.
         12    1    1    2    0    0 -0.78575834609E+00 -0.40432097265E+02 -0.15755995308E+02  0.43400729183E+02  0.00000000000E+00 0. -1.
         11    1    3    3    0    0  0.17665436109E+01  0.30755353687E+01 -0.89359767821E+00  0.36576100401E+01  0.51100000000E-03 0. -1.
        -11    1    3    3    0    0  0.59688852752E+01  0.65621474887E+01  0.10989358756E+01  0.89385139376E+01  0.51100000000E-03 0.  1.
        -12    1    3    3    0    0 -0.69496705400E+01  0.30794414408E+02  0.15550657110E+02  0.35191146840E+02  0.00000000000E+00 0.  1.
</event>
<event>
 7    1  0.4937359E-010  0.4778728E+02  0.7816164E-02  0.1312668E+00
        -11   -1    0    0    0    0  0.00000000000E+00  0.00000000000E+00  0.45593999997E+02  0.45594000000E+02  0.51100000000E-03 0.  1.
         11   -1    0    0    0    0 -0.00000000000E+00 -0.00000000000E+00 -0.45593999997E+02  0.45594000000E+02  0.51100000000E-03 0. -1.
    9900012    2    1    2    0    0 -0.14462822508E+02 -0.38369152229E+02  0.14221735102E+02  0.47787276193E+02  0.20000023473E+02 0.  0.
         12    1    1    2    0    0  0.14462822508E+02  0.38369152229E+02 -0.14221735102E+02  0.43400723807E+02  0.00000000000E+00 0. -1.
         11    1    3    3    0    0 -0.11635708371E+02 -0.22176082614E+02  0.70351580928E+01  0.26012723792E+02  0.51100000000E-03 0. -1.
        -11    1    3    3    0    0  0.21106777925E+01  0.11878112284E+01  0.31061023223E+00  0.24417893512E+01  0.51100000000E-03 0.  1.
        -12    1    3    3    0    0 -0.49377919298E+01 -0.17380880843E+02  0.68759667771E+01  0.19332763050E+02  0.00000000000E+00 0.  1.
</event>
<event>
 7    1  0.4937359E-010  0.4778728E+02  0.7816164E-02  0.1312668E+00
        -11   -1    0    0    0    0  0.00000000000E+00  0.00000000000E+00  0.45593999997E+02  0.45594000000E+02  0.51100000000E-03 0.  1.
         11   -1    0    0    0    0 -0.00000000000E+00 -0.00000000000E+00 -0.45593999997E+02  0.45594000000E+02  0.51100000000E-03 0. -1.
    9900012    2    1    2    0    0 -0.15228762565E+02  0.29567578813E+02  0.27883074118E+02  0.47787277098E+02  0.20000027601E+02 0.  0.
         12    1    1    2    0    0  0.15228762565E+02 -0.29567578813E+02 -0.27883074118E+02  0.43400722902E+02  0.00000000000E+00 0. -1.
         11    1    3    3    0    0 -0.21141930835E+01  0.47896464472E+01 -0.25251064426E+01  0.58126317870E+01  0.51100000000E-03 0. -1.
        -11    1    3    3    0    0 -0.85721050754E+01  0.21380943238E+02  0.26355711438E+02  0.35003560459E+02  0.51100000000E-03 0.  1.
        -12    1    3    3    0    0 -0.45424644065E+01  0.33969891277E+01  0.40524691228E+01  0.69710848517E+01  0.00000000000E+00 0.  1.
</event>
<event>
 7    1  0.4937359E-010  0.4778727E+02  0.7816164E-02  0.1312668E+00
        -11   -1    0    0    0    0  0.00000000000E+00  0.00000000000E+00  0.45593999997E+02  0.45594000000E+02  0.51100000000E-03 0. -1.
         11   -1    0    0    0    0 -0.00000000000E+00 -0.00000000000E+00 -0.45593999997E+02  0.45594000000E+02  0.51100000000E-03 0.  1.
    9900012    2    1    2    0    0 -0.12272453444E+02  0.59475000818E+01 -0.41202391694E+02  0.47787274752E+02  0.20000016906E+02 0.  0.
         12    1    1    2    0    0  0.12272453444E+02 -0.59475000818E+01  0.41202391694E+02  0.43400725248E+02  0.00000000000E+00 0. -1.
         11    1    3    3    0    0 -0.15783311950E+01 -0.26911290730E+01 -0.24370265006E+02  0.24569149797E+02  0.51100000000E-03 0. -1.
        -11    1    3    3    0    0 -0.44186461743E+01  0.30318040362E+01 -0.12405612436E+01  0.55004783599E+01  0.51100000000E-03 0.  1.
        -12    1    3    3    0    0 -0.62754760744E+01  0.56068251186E+01 -0.15591565444E+02  0.17717646595E+02  0.00000000000E+00 0.  1.
</event>
<event>
 7    1  0.4937359E-010  0.4778727E+02  0.7816164E-02  0.1312668E+00
        -11   -1    0    0    0    0  0.00000000000E+00  0.00000000000E+00  0.45593999997E+02  0.45594000000E+02  0.51100000000E-03 0.  1.
         11   -1    0    0    0    0 -0.00000000000E+00 -0.00000000000E+00 -0.45593999997E+02  0.45594000000E+02  0.51100000000E-03 0. -1.
    9900012    2    1    2    0    0  0.24701538318E+02  0.35652138121E+01  0.35506992892E+02  0.47787270870E+02  0.19999999203E+02 0.  0.
         12    1    1    2    0    0 -0.24701538318E+02 -0.35652138121E+01 -0.35506992892E+02  0.43400729130E+02  0.00000000000E+00 0. -1.
         11    1    3    3    0    0 -0.38287602222E+00  0.36891842742E+01 -0.66209962095E-01  0.37095900956E+01  0.51100000000E-03 0. -1.
        -11    1    3    3    0    0  0.19157953768E+02 -0.30431385825E+01  0.27312930920E+02  0.33500508664E+02  0.51100000000E-03 0.  1.
         12    1    3    3    0    0  0.59264605729E+01  0.29191681203E+01  0.82602719335E+01  0.10577172110E+02  0.00000000000E+00 0. -1.
</event>
<event>
 7    1  0.4937359E-010  0.4778726E+02  0.7816164E-02  0.1312668E+00
        -11   -1    0    0    0    0  0.00000000000E+00  0.00000000000E+00  0.45593999997E+02  0.45594000000E+02  0.51100000000E-03 0.  1.
         11   -1    0    0    0    0 -0.00000000000E+00 -0.00000000000E+00 -0.45593999997E+02  0.45594000000E+02  0.51100000000E-03 0. -1.
    9900012    2    1    2    0    0  0.35306497942E+01 -0.18125980640E+02  0.39276037723E+02  0.47787264968E+02  0.19999972294E+02 0.  0.
         12    1    1    2    0    0 -0.35306497942E+01  0.18125980640E+02 -0.39276037723E+02  0.43400735032E+02  0.00000000000E+00 0. -1.
         11    1    3    3    0    0 -0.71996581317E+00 -0.54481159233E+01  0.26122999534E+02  0.26694782688E+02  0.51100000000E-03 0. -1.
        -11    1    3    3    0    0 -0.22051569507E+01 -0.95174996038E-01  0.28019941234E+01  0.35669239949E+01  0.51100000000E-03 0.  1.
         12    1    3    3    0    0  0.64557725581E+01 -0.12582689720E+02  0.10351044066E+02  0.17525558284E+02  0.00000000000E+00 0. -1.
</event>
<event>
 7    1  0.4937359E-010  0.4778727E+02  0.7816164E-02  0.1312668E+00
        -11   -1    0    0    0    0  0.00000000000E+00  0.00000000000E+00  0.45593999997E+02  0.45594000000E+02  0.51100000000E-03 0. -1.
         11   -1    0    0    0    0 -0.00000000000E+00 -0.00000000000E+00 -0.45593999997E+02  0.45594000000E+02  0.51100000000E-03 0.  1.
    9900012    2    1    2    0    0 -0.36278340716E+02 -0.22050664024E+02  0.90151780551E+01  0.47787271615E+02  0.20000002600E+02 0.  0.
         12    1    1    2    0    0  0.36278340716E+02  0.22050664024E+02 -0.90151780551E+01  0.43400728385E+02  0.00000000000E+00 0. -1.
         11    1    3    3    0    0 -0.14750719349E+02 -0.42878505869E+01  0.10718009307E+02  0.18730859770E+02  0.51100000000E-03 0. -1.
        -11    1    3    3    0    0 -0.10495820760E+02 -0.96356461383E+01 -0.47508117806E+01  0.15019259062E+02  0.51100000000E-03 0.  1.
         12    1    3    3    0    0 -0.11031800607E+02 -0.81271672990E+01  0.30479805285E+01  0.14037152783E+02  0.00000000000E+00 0. -1.
</event>
<event>
 7    1  0.4937359E-010  0.4778727E+02  0.7816164E-02  0.1312668E+00
        -11   -1    0    0    0    0  0.00000000000E+00  0.00000000000E+00  0.45593999997E+02  0.45594000000E+02  0.51100000000E-03 0.  1.
         11   -1    0    0    0    0 -0.00000000000E+00 -0.00000000000E+00 -0.45593999997E+02  0.45594000000E+02  0.51100000000E-03 0. -1.
    9900012    2    1    2    0    0 -0.37416214459E+02 -0.20021010871E+02  0.90999427924E+01  0.47787274896E+02  0.20000017561E+02 0.  0.
         12    1    1    2    0    0  0.37416214459E+02  0.20021010871E+02 -0.90999427924E+01  0.43400725104E+02  0.00000000000E+00 0. -1.
         11    1    3    3    0    0 -0.15712498133E+01 -0.59841373154E+01 -0.29903563086E+01  0.68717506138E+01  0.51100000000E-03 0. -1.
        -11    1    3    3    0    0 -0.34442127766E+02 -0.14491965162E+02  0.10651807294E+02  0.38855349930E+02  0.51100000000E-03 0.  1.
        -12    1    3    3    0    0 -0.14028368793E+01  0.45509160669E+00  0.14384918075E+01  0.20601743520E+01  0.00000000000E+00 0.  1.
</event>
<event>
 7    1  0.4937359E-010  0.4778726E+02  0.7816164E-02  0.1312668E+00
        -11   -1    0    0    0    0  0.00000000000E+00  0.00000000000E+00  0.45593999997E+02  0.45594000000E+02  0.51100000000E-03 0.  1.
         11   -1    0    0    0    0 -0.00000000000E+00 -0.00000000000E+00 -0.45593999997E+02  0.45594000000E+02  0.51100000000E-03 0. -1.
    9900012    2    1    2    0    0  0.69356271471E+01  0.20562528557E+01  0.42793612137E+02  0.47787258768E+02  0.19999944028E+02 0.  0.
         12    1    1    2    0    0 -0.69356271471E+01 -0.20562528557E+01 -0.42793612137E+02  0.43400741232E+02  0.00000000000E+00 0. -1.
         11    1    3    3    0    0  0.83353740305E+01  0.10375624797E+01  0.10366049155E+02  0.13342037756E+02  0.51100000000E-03 0. -1.
        -11    1    3    3    0    0 -0.20530616795E+01  0.21712564022E+00  0.33130551407E+02  0.33194813489E+02  0.51100000000E-03 0.  1.
        -12    1    3    3    0    0  0.65331479613E+00  0.80156473580E+00 -0.70298842497E+00  0.12504075232E+01  0.00000000000E+00 0.  1.
</event>
<event>
 7    1  0.4937359E-010  0.4778727E+02  0.7816164E-02  0.1312668E+00
        -11   -1    0    0    0    0  0.00000000000E+00  0.00000000000E+00  0.45593999997E+02  0.45594000000E+02  0.51100000000E-03 0.  1.
         11   -1    0    0    0    0 -0.00000000000E+00 -0.00000000000E+00 -0.45593999997E+02  0.45594000000E+02  0.51100000000E-03 0. -1.
    9900012    2    1    2    0    0  0.31656463585E+02  0.11503612398E+01  0.29667628395E+02  0.47787271985E+02  0.20000004288E+02 0.  0.
         12    1    1    2    0    0 -0.31656463585E+02 -0.11503612398E+01 -0.29667628395E+02  0.43400728015E+02  0.00000000000E+00 0. -1.
         11    1    3    3    0    0  0.37298660093E+01 -0.43176854697E+01  0.12049613262E+01  0.58314869734E+01  0.51100000000E-03 0. -1.
        -11    1    3    3    0    0  0.28872590571E+02  0.61576141593E+01  0.26502848873E+02  0.39672959268E+02  0.51100000000E-03 0.  1.
        -12    1    3    3    0    0 -0.94599299566E+00 -0.68956744987E+00  0.19598181953E+01  0.22828257434E+01  0.00000000000E+00 0.  1.
</event>
<event>
 7    1  0.4937359E-010  0.4778727E+02  0.7816164E-02  0.1312668E+00
        -11   -1    0    0    0    0  0.00000000000E+00  0.00000000000E+00  0.45593999997E+02  0.45594000000E+02  0.51100000000E-03 0.  1.
         11   -1    0    0    0    0 -0.00000000000E+00 -0.00000000000E+00 -0.45593999997E+02  0.45594000000E+02  0.51100000000E-03 0. -1.
    9900012    2    1    2    0    0 -0.98326177796E+01  0.81053074618E+01  0.41487914264E+02  0.47787269460E+02  0.19999992775E+02 0.  0.
         12    1    1    2    0    0  0.98326177796E+01 -0.81053074618E+01 -0.41487914264E+02  0.43400730540E+02  0.00000000000E+00 0. -1.
         11    1    3    3    0    0 -0.30621010861E+01  0.74840224593E+00  0.46491276578E+01  0.56170238759E+01  0.51100000000E-03 0. -1.
        -11    1    3    3    0    0 -0.94396700219E+01  0.90909568085E+01  0.36716075832E+02  0.38984908498E+02  0.51100000000E-03 0.  1.
        -12    1    3    3    0    0  0.26691533285E+01 -0.17340515927E+01  0.12271077391E+00  0.31853370859E+01  0.00000000000E+00 0.  1.
</event>
<event>
 7    1  0.4937359E-010  0.4778727E+02  0.7816164E-02  0.1312668E+00
        -11   -1    0    0    0    0  0.00000000000E+00  0.00000000000E+00  0.45593999997E+02  0.45594000000E+02  0.51100000000E-03 0.  1.
         11   -1    0    0    0    0 -0.00000000000E+00 -0.00000000000E+00 -0.45593999997E+02  0.45594000000E+02  0.51100000000E-03 0. -1.
    9900012    2    1    2    0    0  0.24550163151E+02  0.34089726266E+02  0.10899692442E+02  0.47787271401E+02  0.20000001624E+02 0.  0.
         12    1    1    2    0    0 -0.24550163151E+02 -0.34089726266E+02 -0.10899692442E+02  0.43400728599E+02  0.00000000000E+00 0. -1.
         11    1    3    3    0    0  0.67482824975E+01  0.78127932459E+01 -0.36218452550E+01  0.10940604110E+02  0.51100000000E-03 0. -1.
        -11    1    3    3    0    0  0.70360328956E+01  0.20400227003E+02  0.98590905185E+01  0.23725022377E+02  0.51100000000E-03 0.  1.
        -12    1    3    3    0    0  0.10765847758E+02  0.58767060174E+01  0.46624471789E+01  0.13121644914E+02  0.00000000000E+00 0.  1.
</event>
<event>
 7    1  0.4937359E-010  0.4778727E+02  0.7816164E-02  0.1312668E+00
        -11   -1    0    0    0    0  0.00000000000E+00  0.00000000000E+00  0.45593999997E+02  0.45594000000E+02  0.51100000000E-03 0. -1.
         11   -1    0    0    0    0 -0.00000000000E+00 -0.00000000000E+00 -0.45593999997E+02  0.45594000000E+02  0.51100000000E-03 0.  1.
    9900012    2    1    2    0    0 -0.27398459471E+02 -0.29668326709E+02 -0.15897733550E+02  0.47787272781E+02  0.20000007916E+02 0.  0.
         12    1    1    2    0    0  0.27398459471E+02  0.29668326709E+02  0.15897733550E+02  0.43400727219E+02  0.00000000000E+00 0. -1.
         11    1    3    3    0    0 -0.35095042058E+01  0.80408483764E-01 -0.39443930235E+01  0.52802766859E+01  0.51100000000E-03 0. -1.
        -11    1    3    3    0    0 -0.25399747954E+02 -0.29885861526E+02 -0.11908543333E+02  0.40989331781E+02  0.51100000000E-03 0.  1.
        -12    1    3    3    0    0  0.15107926887E+01  0.13712633293E+00 -0.44797193865E-01  0.15176643134E+01  0.00000000000E+00 0.  1.
</event>
<event>
 7    1  0.4937359E-010  0.4778727E+02  0.7816164E-02  0.1312668E+00
        -11   -1    0    0    0    0  0.00000000000E+00  0.00000000000E+00  0.45593999997E+02  0.45594000000E+02  0.51100000000E-03 0.  1.
         11   -1    0    0    0    0 -0.00000000000E+00 -0.00000000000E+00 -0.45593999997E+02  0.45594000000E+02  0.51100000000E-03 0. -1.
    9900012    2    1    2    0    0 -0.18260342130E+02 -0.19795003276E+02  0.34034412408E+02  0.47787268700E+02  0.19999989310E+02 0.  0.
         12    1    1    2    0    0  0.18260342130E+02  0.19795003276E+02 -0.34034412408E+02  0.43400731300E+02  0.00000000000E+00 0. -1.
         11    1    3    3    0    0 -0.72624866846E+01 -0.48833173087E+01  0.18775320754E+02  0.20714805586E+02  0.51100000000E-03 0.  1.
        -11    1    3    3    0    0 -0.97966940516E+01 -0.57260954303E+01  0.30564631370E+01  0.11751823279E+02  0.51100000000E-03 0. -1.
         12    1    3    3    0    0 -0.12011613936E+01 -0.91855905374E+01  0.12202628517E+02  0.15320639834E+02  0.00000000000E+00 0. -1.
</event>
<event>
 7    1  0.4937359E-010  0.4778727E+02  0.7816164E-02  0.1312668E+00
        -11   -1    0    0    0    0  0.00000000000E+00  0.00000000000E+00  0.45593999997E+02  0.45594000000E+02  0.51100000000E-03 0.  1.
         11   -1    0    0    0    0 -0.00000000000E+00 -0.00000000000E+00 -0.45593999997E+02  0.45594000000E+02  0.51100000000E-03 0. -1.
    9900012    2    1    2    0    0 -0.19546794396E+02  0.77863456097E+01  0.37959435893E+02  0.47787272789E+02  0.20000007956E+02 0.  0.
         12    1    1    2    0    0  0.19546794396E+02 -0.77863456097E+01 -0.37959435893E+02  0.43400727211E+02  0.00000000000E+00 0. -1.
         11    1    3    3    0    0 -0.89157038363E+01  0.27927100035E+00  0.29735037527E+01  0.94026321856E+01  0.51100000000E-03 0. -1.
        -11    1    3    3    0    0 -0.94412805995E+01  0.22437590144E+01  0.27458522121E+02  0.29122889129E+02  0.51100000000E-03 0.  1.
        -12    1    3    3    0    0 -0.11898099601E+01  0.52633155949E+01  0.75274100192E+01  0.92617514753E+01  0.00000000000E+00 0.  1.
</event>
<event>
 7    1  0.4937359E-010  0.4778727E+02  0.7816164E-02  0.1312668E+00
        -11   -1    0    0    0    0  0.00000000000E+00  0.00000000000E+00  0.45593999997E+02  0.45594000000E+02  0.51100000000E-03 0.  1.
         11   -1    0    0    0    0 -0.00000000000E+00 -0.00000000000E+00 -0.45593999997E+02  0.45594000000E+02  0.51100000000E-03 0. -1.
    9900012    2    1    2    0    0  0.10871929694E+01  0.11796344235E+02  0.41752695176E+02  0.47787270970E+02  0.19999999662E+02 0.  0.
         12    1    1    2    0    0 -0.10871929694E+01 -0.11796344235E+02 -0.41752695176E+02  0.43400729030E+02  0.00000000000E+00 0. -1.
         11    1    3    3    0    0 -0.15809899318E+01 -0.11852422902E+01  0.14174271248E+01  0.24317541747E+01  0.51100000000E-03 0.  1.
        -11    1    3    3    0    0  0.73593156806E+01  0.16420205914E+01  0.92386980164E+01  0.11925154096E+02  0.51100000000E-03 0. -1.
        -12    1    3    3    0    0 -0.46911327793E+01  0.11339565933E+02  0.31096570035E+02  0.33430362700E+02  0.00000000000E+00 0.  1.
</event>
<event>
 7    1  0.4937359E-010  0.4778729E+02  0.7816164E-02  0.1312668E+00
        -11   -1    0    0    0    0  0.00000000000E+00  0.00000000000E+00  0.45593999997E+02  0.45594000000E+02  0.51100000000E-03 0.  1.
         11   -1    0    0    0    0 -0.00000000000E+00 -0.00000000000E+00 -0.45593999997E+02  0.45594000000E+02  0.51100000000E-03 0. -1.
    9900012    2    1    2    0    0 -0.19823993456E+02  0.38496927804E+02 -0.29356239363E+01  0.47787285089E+02  0.20000064034E+02 0.  0.
         12    1    1    2    0    0  0.19823993456E+02 -0.38496927804E+02  0.29356239363E+01  0.43400714911E+02  0.00000000000E+00 0. -1.
         11    1    3    3    0    0  0.32982903391E+01  0.49388795780E+01 -0.78256352951E+00  0.59902968696E+01  0.51100000000E-03 0. -1.
        -11    1    3    3    0    0 -0.48896206506E+01  0.14335304565E+02  0.61369052030E+00  0.15158692667E+02  0.51100000000E-03 0.  1.
         12    1    3    3    0    0 -0.18232663144E+02  0.19222743662E+02 -0.27667509271E+01  0.26638295552E+02  0.00000000000E+00 0. -1.
</event>
<event>
 7    1  0.4937359E-010  0.4778727E+02  0.7816164E-02  0.1312668E+00
        -11   -1    0    0    0    0  0.00000000000E+00  0.00000000000E+00  0.45593999997E+02  0.45594000000E+02  0.51100000000E-03 0. -1.
         11   -1    0    0    0    0 -0.00000000000E+00 -0.00000000000E+00 -0.45593999997E+02  0.45594000000E+02  0.51100000000E-03 0.  1.
    9900012    2    1    2    0    0  0.26106379141E+02  0.10822146094E+02 -0.32938753013E+02  0.47787270421E+02  0.19999997159E+02 0.  0.
         12    1    1    2    0    0 -0.26106379141E+02 -0.10822146094E+02  0.32938753013E+02  0.43400729579E+02  0.00000000000E+00 0. -1.
         11    1    3    3    0    0  0.21045691524E+01 -0.13987757645E+01 -0.13919799331E+02  0.14147317719E+02  0.51100000000E-03 0. -1.
        -11    1    3    3    0    0  0.17372961520E+02  0.89942324396E+01 -0.99366742579E+01  0.21942048781E+02  0.51100000000E-03 0.  1.
        -12    1    3    3    0    0  0.66288484688E+01  0.32266894188E+01 -0.90822794235E+01  0.11697903921E+02  0.00000000000E+00 0.  1.
</event>
<event>
 7    1  0.4937359E-010  0.4778729E+02  0.7816164E-02  0.1312668E+00
        -11   -1    0    0    0    0  0.00000000000E+00  0.00000000000E+00  0.45593999997E+02  0.45594000000E+02  0.51100000000E-03 0.  1.
         11   -1    0    0    0    0 -0.00000000000E+00 -0.00000000000E+00 -0.45593999997E+02  0.45594000000E+02  0.51100000000E-03 0. -1.
    9900012    2    1    2    0    0 -0.78061883803E+01 -0.41929208134E+02 -0.80390861258E+01  0.47787285979E+02  0.20000068094E+02 0.  0.
         12    1    1    2    0    0  0.78061883803E+01  0.41929208134E+02  0.80390861258E+01  0.43400714021E+02  0.00000000000E+00 0. -1.
         11    1    3    3    0    0  0.49016288795E+00 -0.14748302943E+02 -0.80583593493E+01  0.16813383211E+02  0.51100000000E-03 0. -1.
        -11    1    3    3    0    0 -0.11204916404E+02 -0.22191992417E+02 -0.17834905111E+01  0.24924195428E+02  0.51100000000E-03 0.  1.
        -12    1    3    3    0    0  0.29085651360E+01 -0.49889127743E+01  0.18027637346E+01  0.60497073403E+01  0.00000000000E+00 0.  1.
</event>
<event>
 7    1  0.4937359E-010  0.4778727E+02  0.7816164E-02  0.1312668E+00
        -11   -1    0    0    0    0  0.00000000000E+00  0.00000000000E+00  0.45593999997E+02  0.45594000000E+02  0.51100000000E-03 0.  1.
         11   -1    0    0    0    0 -0.00000000000E+00 -0.00000000000E+00 -0.45593999997E+02  0.45594000000E+02  0.51100000000E-03 0. -1.
    9900012    2    1    2    0    0 -0.26469931882E+02 -0.11573196783E+02  0.32388688691E+02  0.47787270367E+02  0.19999996910E+02 0.  0.
         12    1    1    2    0    0  0.26469931882E+02  0.11573196783E+02 -0.32388688691E+02  0.43400729633E+02  0.00000000000E+00 0. -1.
         11    1    3    3    0    0 -0.68256051424E+01 -0.15366643843E+01  0.13185531311E+01  0.71196071247E+01  0.51100000000E-03 0. -1.
        -11    1    3    3    0    0 -0.10170199069E+02 -0.11339363104E+02  0.25202096077E+02  0.29447576329E+02  0.51100000000E-03 0.  1.
        -12    1    3    3    0    0 -0.94741276709E+01  0.13028307059E+01  0.58680394828E+01  0.11220086913E+02  0.00000000000E+00 0.  1.
</event>
<event>
 7    1  0.4937359E-010  0.4778727E+02  0.7816164E-02  0.1312668E+00
        -11   -1    0    0    0    0  0.00000000000E+00  0.00000000000E+00  0.45593999997E+02  0.45594000000E+02  0.51100000000E-03 0.  1.
         11   -1    0    0    0    0 -0.00000000000E+00 -0.00000000000E+00 -0.45593999997E+02  0.45594000000E+02  0.51100000000E-03 0. -1.
    9900012    2    1    2    0    0  0.11608935081E+02 -0.27369563818E+02  0.31619023944E+02  0.47787273364E+02  0.20000010578E+02 0.  0.
         12    1    1    2    0    0 -0.11608935081E+02  0.27369563818E+02 -0.31619023944E+02  0.43400726636E+02  0.00000000000E+00 0. -1.
         11    1    3    3    0    0 -0.38850045477E+01 -0.65605879737E+01  0.12931059794E+02  0.15011558299E+02  0.51100000000E-03 0. -1.
        -11    1    3    3    0    0  0.45455580711E+01 -0.11924265223E+02  0.10015953679E+02  0.16222500660E+02  0.51100000000E-03 0.  1.
         12    1    3    3    0    0  0.10948381558E+02 -0.88847106208E+01  0.86720104709E+01  0.16553214406E+02  0.00000000000E+00 0. -1.
</event>
<event>
 7    1  0.4937359E-010  0.4778727E+02  0.7816164E-02  0.1312668E+00
        -11   -1    0    0    0    0  0.00000000000E+00  0.00000000000E+00  0.45593999997E+02  0.45594000000E+02  0.51100000000E-03 0.  1.
         11   -1    0    0    0    0 -0.00000000000E+00 -0.00000000000E+00 -0.45593999997E+02  0.45594000000E+02  0.51100000000E-03 0. -1.
    9900012    2    1    2    0    0  0.36382028549E+02 -0.76846334878E+01  0.22381186189E+02  0.47787273181E+02  0.20000009740E+02 0.  0.
         12    1    1    2    0    0 -0.36382028549E+02  0.76846334878E+01 -0.22381186189E+02  0.43400726819E+02  0.00000000000E+00 0. -1.
         11    1    3    3    0    0  0.18539831382E+02 -0.12122584261E+02  0.14392817892E+02  0.26416578203E+02  0.51100000000E-03 0.  1.
        -11    1    3    3    0    0  0.15435764571E+02  0.18260664963E+01  0.40395119410E+01  0.16059732368E+02  0.51100000000E-03 0. -1.
        -12    1    3    3    0    0  0.24064325957E+01  0.26118842767E+01  0.39488563561E+01  0.53109626090E+01  0.00000000000E+00 0.  1.
</event>
<event>
 7    1  0.4937359E-010  0.4778727E+02  0.7816164E-02  0.1312668E+00
        -11   -1    0    0    0    0  0.00000000000E+00  0.00000000000E+00  0.45593999997E+02  0.45594000000E+02  0.51100000000E-03 0.  1.
         11   -1    0    0    0    0 -0.00000000000E+00 -0.00000000000E+00 -0.45593999997E+02  0.45594000000E+02  0.51100000000E-03 0. -1.
    9900012    2    1    2    0    0 -0.20565749115E+02 -0.34450034095E+02 -0.16548966976E+02  0.47787271967E+02  0.20000004208E+02 0.  0.
         12    1    1    2    0    0  0.20565749115E+02  0.34450034095E+02  0.16548966976E+02  0.43400728033E+02  0.00000000000E+00 0. -1.
         11    1    3    3    0    0  0.33027838880E+00 -0.65381376291E+01 -0.41189897145E+01  0.77344944244E+01  0.51100000000E-03 0. -1.
        -11    1    3    3    0    0 -0.19018237017E+02 -0.15142263352E+02 -0.40006550848E+01  0.24637100479E+02  0.51100000000E-03 0.  1.
        -12    1    3    3    0    0 -0.18777904865E+01 -0.12769633114E+02 -0.84293221766E+01  0.15415677064E+02  0.00000000000E+00 0.  1.
</event>
<event>
 7    1  0.4937359E-010  0.4778727E+02  0.7816164E-02  0.1312668E+00
        -11   -1    0    0    0    0  0.00000000000E+00  0.00000000000E+00  0.45593999997E+02  0.45594000000E+02  0.51100000000E-03 0.  1.
         11   -1    0    0    0    0 -0.00000000000E+00 -0.00000000000E+00 -0.45593999997E+02  0.45594000000E+02  0.51100000000E-03 0. -1.
    9900012    2    1    2    0    0 -0.95684038973E+01  0.31481850496E+02  0.28301268434E+02  0.47787273522E+02  0.20000011297E+02 0.  0.
         12    1    1    2    0    0  0.95684038973E+01 -0.31481850496E+02 -0.28301268434E+02  0.43400726478E+02  0.00000000000E+00 0. -1.
         11    1    3    3    0    0 -0.36352289303E+01  0.26210109784E+02  0.15327016350E+02  0.30579440392E+02  0.51100000000E-03 0. -1.
        -11    1    3    3    0    0 -0.63507925707E+01  0.52897102131E+01  0.13911511185E+02  0.16181586576E+02  0.51100000000E-03 0.  1.
         12    1    3    3    0    0  0.41761760367E+00 -0.17969500297E-01 -0.93725910121E+00  0.10262465535E+01  0.00000000000E+00 0. -1.
</event>
<event>
 7    1  0.4937359E-010  0.4778727E+02  0.7816164E-02  0.1312668E+00
        -11   -1    0    0    0    0  0.00000000000E+00  0.00000000000E+00  0.45593999997E+02  0.45594000000E+02  0.51100000000E-03 0. -1.
         11   -1    0    0    0    0 -0.00000000000E+00 -0.00000000000E+00 -0.45593999997E+02  0.45594000000E+02  0.51100000000E-03 0.  1.
    9900012    2    1    2    0    0 -0.28362308991E+02  0.21083829433E+01 -0.32783494863E+02  0.47787269760E+02  0.19999994145E+02 0.  0.
         12    1    1    2    0    0  0.28362308991E+02 -0.21083829433E+01  0.32783494863E+02  0.43400730240E+02  0.00000000000E+00 0. -1.
         11    1    3    3    0    0 -0.24186008385E+02  0.41850297118E+01 -0.13752936190E+02  0.28135755355E+02  0.51100000000E-03 0. -1.
        -11    1    3    3    0    0 -0.91485157317E+00 -0.84685435657E-01 -0.20539939026E+01  0.22501147164E+01  0.51100000000E-03 0.  1.
         12    1    3    3    0    0 -0.32614490331E+01 -0.19919613328E+01 -0.16976564770E+02  0.17401399689E+02  0.00000000000E+00 0. -1.
</event>
<event>
 7    1  0.4937359E-010  0.4778727E+02  0.7816164E-02  0.1312668E+00
        -11   -1    0    0    0    0  0.00000000000E+00  0.00000000000E+00  0.45593999997E+02  0.45594000000E+02  0.51100000000E-03 0.  1.
         11   -1    0    0    0    0 -0.00000000000E+00 -0.00000000000E+00 -0.45593999997E+02  0.45594000000E+02  0.51100000000E-03 0. -1.
    9900012    2    1    2    0    0  0.11694183047E+02  0.28748788160E+01  0.41696575001E+02  0.47787271756E+02  0.20000003243E+02 0.  0.
         12    1    1    2    0    0 -0.11694183047E+02 -0.28748788160E+01 -0.41696575001E+02  0.43400728244E+02  0.00000000000E+00 0. -1.
         11    1    3    3    0    0  0.14908886544E+01 -0.23781362145E+01  0.17415764735E+01  0.33032362478E+01  0.51100000000E-03 0. -1.
        -11    1    3    3    0    0 -0.11831449487E+01 -0.29592843746E+01  0.18970973540E+02  0.19236814531E+02  0.51100000000E-03 0.  1.
        -12    1    3    3    0    0  0.11386439341E+02  0.82122994052E+01  0.20984024988E+02  0.25247220977E+02  0.00000000000E+00 0.  1.
</event>
<event>
 7    1  0.4937359E-010  0.4778727E+02  0.7816164E-02  0.1312668E+00
        -11   -1    0    0    0    0  0.00000000000E+00  0.00000000000E+00  0.45593999997E+02  0.45594000000E+02  0.51100000000E-03 0. -1.
         11   -1    0    0    0    0 -0.00000000000E+00 -0.00000000000E+00 -0.45593999997E+02  0.45594000000E+02  0.51100000000E-03 0.  1.
    9900012    2    1    2    0    0  0.19206820260E+02 -0.36266664930E+02 -0.14122696357E+02  0.47787268646E+02  0.19999989065E+02 0.  0.
         12    1    1    2    0    0 -0.19206820260E+02  0.36266664930E+02  0.14122696357E+02  0.43400731354E+02  0.00000000000E+00 0. -1.
         11    1    3    3    0    0  0.18368013888E+02 -0.28472806458E+02 -0.12704773604E+02  0.36186957794E+02  0.51100000000E-03 0. -1.
        -11    1    3    3    0    0  0.42330372278E+01 -0.49270205440E+01  0.95156881922E+00  0.65650300145E+01  0.51100000000E-03 0.  1.
         12    1    3    3    0    0 -0.33942308553E+01 -0.28668379279E+01 -0.23694915729E+01  0.50352808380E+01  0.00000000000E+00 0. -1.
</event>
<event>
 7    1  0.4937359E-010  0.4778727E+02  0.7816164E-02  0.1312668E+00
        -11   -1    0    0    0    0  0.00000000000E+00  0.00000000000E+00  0.45593999997E+02  0.45594000000E+02  0.51100000000E-03 0.  1.
         11   -1    0    0    0    0 -0.00000000000E+00 -0.00000000000E+00 -0.45593999997E+02  0.45594000000E+02  0.51100000000E-03 0. -1.
    9900012    2    1    2    0    0  0.17450372728E+02 -0.13384209481E+02  0.37416184155E+02  0.47787269494E+02  0.19999992931E+02 0.  0.
         12    1    1    2    0    0 -0.17450372728E+02  0.13384209481E+02 -0.37416184155E+02  0.43400730506E+02  0.00000000000E+00 0. -1.
         11    1    3    3    0    0  0.80561993686E+01 -0.87794572647E+01  0.87018035668E+01  0.14754748514E+02  0.51100000000E-03 0. -1.
        -11    1    3    3    0    0  0.11714733883E+02 -0.26744314123E+01  0.27019067133E+02  0.29570552283E+02  0.51100000000E-03 0.  1.
        -12    1    3    3    0    0 -0.23205605236E+01 -0.19303208039E+01  0.16953134547E+01  0.34619686971E+01  0.00000000000E+00 0.  1.
</event>
<event>
 7    1  0.4937359E-010  0.4778727E+02  0.7816164E-02  0.1312668E+00
        -11   -1    0    0    0    0  0.00000000000E+00  0.00000000000E+00  0.45593999997E+02  0.45594000000E+02  0.51100000000E-03 0. -1.
         11   -1    0    0    0    0 -0.00000000000E+00 -0.00000000000E+00 -0.45593999997E+02  0.45594000000E+02  0.51100000000E-03 0.  1.
    9900012    2    1    2    0    0  0.33661803566E+01 -0.22481413069E+02 -0.36971314057E+02  0.47787272277E+02  0.20000005619E+02 0.  0.
         12    1    1    2    0    0 -0.33661803566E+01  0.22481413069E+02  0.36971314057E+02  0.43400727723E+02  0.00000000000E+00 0. -1.
         11    1    3    3    0    0 -0.60521325327E+00 -0.25186772764E+01  0.17612896365E+01  0.31324367112E+01  0.51100000000E-03 0. -1.
        -11    1    3    3    0    0  0.38283428630E+01 -0.18485499535E+02 -0.27688977670E+02  0.33511929023E+02  0.51100000000E-03 0.  1.
         12    1    3    3    0    0  0.14305074691E+00 -0.14772362577E+01 -0.11043626024E+02  0.11142906543E+02  0.00000000000E+00 0. -1.
</event>
<event>
 7    1  0.4937359E-010  0.4778727E+02  0.7816164E-02  0.1312668E+00
        -11   -1    0    0    0    0  0.00000000000E+00  0.00000000000E+00  0.45593999997E+02  0.45594000000E+02  0.51100000000E-03 0.  1.
         11   -1    0    0    0    0 -0.00000000000E+00 -0.00000000000E+00 -0.45593999997E+02  0.45594000000E+02  0.51100000000E-03 0. -1.
    9900012    2    1    2    0    0 -0.16408842673E+02  0.13075099564E+02  0.37992300402E+02  0.47787271477E+02  0.20000001972E+02 0.  0.
         12    1    1    2    0    0  0.16408842673E+02 -0.13075099564E+02 -0.37992300402E+02  0.43400728523E+02  0.00000000000E+00 0. -1.
         11    1    3    3    0    0 -0.83020166842E+01  0.14703424968E+02  0.26271201704E+02  0.31229636982E+02  0.51100000000E-03 0. -1.
        -11    1    3    3    0    0 -0.23843582315E+01  0.14975545610E+01  0.91074456243E+01  0.95327540564E+01  0.51100000000E-03 0.  1.
         12    1    3    3    0    0 -0.57224677570E+01 -0.31258799646E+01  0.26136530739E+01  0.70248804384E+01  0.00000000000E+00 0. -1.
</event>
<event>
 7    1  0.4937359E-010  0.4778726E+02  0.7816164E-02  0.1312668E+00
        -11   -1    0    0    0    0  0.00000000000E+00  0.00000000000E+00  0.45593999997E+02  0.45594000000E+02  0.51100000000E-03 0.  1.
         11   -1    0    0    0    0 -0.00000000000E+00 -0.00000000000E+00 -0.45593999997E+02  0.45594000000E+02  0.51100000000E-03 0. -1.
    9900012    2    1    2    0    0  0.89489638661E+01 -0.37400527302E+00  0.42466463147E+02  0.47787258918E+02  0.19999944710E+02 0.  0.
         12    1    1    2    0    0 -0.89489638661E+01  0.37400527302E+00 -0.42466463147E+02  0.43400741082E+02  0.00000000000E+00 0. -1.
         11    1    3    3    0    0  0.21582259234E+01  0.10267973885E+00  0.26221086940E+01  0.33976369037E+01  0.51100000000E-03 0.  1.
        -11    1    3    3    0    0  0.92703189068E+01  0.30320593783E+01  0.90772879082E+01  0.13324014138E+02  0.51100000000E-03 0. -1.
        -12    1    3    3    0    0 -0.24795809641E+01 -0.35087443902E+01  0.30767066545E+02  0.31065607877E+02  0.00000000000E+00 0.  1.
</event>
<event>
 7    1  0.5085509E-010  0.4778732E+02  0.7816164E-02  0.1312668E+00
        -11   -1    0    0    0    0  0.00000000000E+00  0.00000000000E+00  0.45593999997E+02  0.45594000000E+02  0.51100000000E-03 0. -1.
         11   -1    0    0    0    0 -0.00000000000E+00 -0.00000000000E+00 -0.45593999997E+02  0.45594000000E+02  0.51100000000E-03 0.  1.
    9900012    2    1    2    0    0  0.17199349536E+01  0.31807312975E+02 -0.29478057337E+02  0.47787317986E+02  0.20000214022E+02 0.  0.
         12    1    1    2    0    0 -0.17199349536E+01 -0.31807312975E+02  0.29478057337E+02  0.43400682014E+02  0.00000000000E+00 0. -1.
         11    1    3    3    0    0 -0.37849731666E+01 -0.11589756697E+01 -0.32143771067E+01  0.50991633549E+01  0.51100000000E-03 0. -1.
        -11    1    3    3    0    0  0.24255570911E+01  0.21479787014E+02 -0.18799693488E+02  0.28647740799E+02  0.51100000000E-03 0.  1.
         12    1    3    3    0    0  0.30793510291E+01  0.11486501631E+02 -0.74639867420E+01  0.14040413832E+02  0.00000000000E+00 0. -1.
</event>
<event>
 7    1  0.4937359E-010  0.4778728E+02  0.7816164E-02  0.1312668E+00
        -11   -1    0    0    0    0  0.00000000000E+00  0.00000000000E+00  0.45593999997E+02  0.45594000000E+02  0.51100000000E-03 0.  1.
         11   -1    0    0    0    0 -0.00000000000E+00 -0.00000000000E+00 -0.45593999997E+02  0.45594000000E+02  0.51100000000E-03 0. -1.
    9900012    2    1    2    0    0  0.55815992213E+01 -0.42730923064E+02  0.51513954170E+01  0.47787275230E+02  0.20000019084E+02 0.  0.
         12    1    1    2    0    0 -0.55815992213E+01  0.42730923064E+02 -0.51513954170E+01  0.43400724770E+02  0.00000000000E+00 0. -1.
         11    1    3    3    0    0  0.17076633965E+00 -0.22748540889E+02 -0.52032172362E+01  0.23336639509E+02  0.51100000000E-03 0. -1.
        -11    1    3    3    0    0  0.65488798075E+01 -0.91418078384E+01  0.50190594075E+01  0.12314683710E+02  0.51100000000E-03 0.  1.
        -12    1    3    3    0    0 -0.11380469259E+01 -0.10840574337E+02  0.53355532457E+01  0.12135952010E+02  0.00000000000E+00 0.  1.
</event>
<event>
 7    1  0.4937359E-010  0.4778727E+02  0.7816164E-02  0.1312668E+00
        -11   -1    0    0    0    0  0.00000000000E+00  0.00000000000E+00  0.45593999997E+02  0.45594000000E+02  0.51100000000E-03 0. -1.
         11   -1    0    0    0    0 -0.00000000000E+00 -0.00000000000E+00 -0.45593999997E+02  0.45594000000E+02  0.51100000000E-03 0.  1.
    9900012    2    1    2    0    0  0.40792743986E+02  0.12824330889E+02  0.74237310586E+01  0.47787271810E+02  0.20000003489E+02 0.  0.
         12    1    1    2    0    0 -0.40792743986E+02 -0.12824330889E+02 -0.74237310586E+01  0.43400728190E+02  0.00000000000E+00 0. -1.
         11    1    3    3    0    0  0.15795400932E+02  0.22158388978E+01 -0.52953250196E+01  0.16806103057E+02  0.51100000000E-03 0. -1.
        -11    1    3    3    0    0  0.25285897463E+02  0.96453490422E+01  0.11510859545E+02  0.29409339611E+02  0.51100000000E-03 0.  1.
         12    1    3    3    0    0 -0.28855440945E+00  0.96314294893E+00  0.12081965337E+01  0.15718291419E+01  0.00000000000E+00 0. -1.
</event>
<event>
 7    1  0.4937359E-010  0.4778727E+02  0.7816164E-02  0.1312668E+00
        -11   -1    0    0    0    0  0.00000000000E+00  0.00000000000E+00  0.45593999997E+02  0.45594000000E+02  0.51100000000E-03 0.  1.
         11   -1    0    0    0    0 -0.00000000000E+00 -0.00000000000E+00 -0.45593999997E+02  0.45594000000E+02  0.51100000000E-03 0. -1.
    9900012    2    1    2    0    0  0.10225051310E+02  0.12820373064E+02  0.40183451084E+02  0.47787269812E+02  0.19999994383E+02 0.  0.
         12    1    1    2    0    0 -0.10225051310E+02 -0.12820373064E+02 -0.40183451084E+02  0.43400730188E+02  0.00000000000E+00 0. -1.
         11    1    3    3    0    0  0.29279618684E+01  0.65761104648E+01  0.30909425721E+01  0.78340357284E+01  0.51100000000E-03 0. -1.
        -11    1    3    3    0    0  0.15173827593E+01  0.34544214331E+01  0.30572848657E+02  0.30804781336E+02  0.51100000000E-03 0.  1.
        -12    1    3    3    0    0  0.57797066823E+01  0.27898411661E+01  0.65196598550E+01  0.91484527484E+01  0.00000000000E+00 0.  1.
</event>
<event>
 7    1  0.4937359E-010  0.4778727E+02  0.7816164E-02  0.1312668E+00
        -11   -1    0    0    0    0  0.00000000000E+00  0.00000000000E+00  0.45593999997E+02  0.45594000000E+02  0.51100000000E-03 0.  1.
         11   -1    0    0    0    0 -0.00000000000E+00 -0.00000000000E+00 -0.45593999997E+02  0.45594000000E+02  0.51100000000E-03 0. -1.
    9900012    2    1    2    0    0  0.29896824606E+02  0.23285570119E+02  0.21156212605E+02  0.47787271560E+02  0.20000002353E+02 0.  0.
         12    1    1    2    0    0 -0.29896824606E+02 -0.23285570119E+02 -0.21156212605E+02  0.43400728440E+02  0.00000000000E+00 0. -1.
         11    1    3    3    0    0  0.16867650486E+01 -0.89350491908E+00  0.38356778370E+01  0.42843846816E+01  0.51100000000E-03 0. -1.
        -11    1    3    3    0    0  0.20830778713E+02  0.23718923000E+02  0.10038205733E+02  0.33125129806E+02  0.51100000000E-03 0.  1.
        -12    1    3    3    0    0  0.73792808448E+01  0.46015203782E+00  0.72823290352E+01  0.10377757073E+02  0.00000000000E+00 0.  1.
</event>
<event>
 7    1 -0.4937359E-010  0.4778727E+02  0.7816164E-02  0.1312668E+00
        -11   -1    0    0    0    0  0.00000000000E+00  0.00000000000E+00  0.45593999997E+02  0.45594000000E+02  0.51100000000E-03 0.  1.
         11   -1    0    0    0    0 -0.00000000000E+00 -0.00000000000E+00 -0.45593999997E+02  0.45594000000E+02  0.51100000000E-03 0. -1.
    9900012    2    1    2    0    0 -0.41091683776E+02 -0.12730104876E+02 -0.57481776545E+01  0.47787267379E+02  0.19999983288E+02 0.  0.
         12    1    1    2    0    0  0.41091683776E+02  0.12730104876E+02  0.57481776545E+01  0.43400732621E+02  0.00000000000E+00 0. -1.
         11    1    3    3    0    0 -0.17660657364E+02 -0.13456182212E+02 -0.41520281651E+01  0.22587762094E+02  0.51100000000E-03 0. -1.
        -11    1    3    3    0    0 -0.17425062763E+02 -0.28652452172E+01 -0.33760778235E+01  0.17978886067E+02  0.51100000000E-03 0.  1.
         12    1    3    3    0    0 -0.60059636480E+01  0.35913225533E+01  0.17799283341E+01  0.72206192185E+01  0.00000000000E+00 0. -1.
</event>
<event>
 7    1  0.4937359E-010  0.4778727E+02  0.7816164E-02  0.1312668E+00
        -11   -1    0    0    0    0  0.00000000000E+00  0.00000000000E+00  0.45593999997E+02  0.45594000000E+02  0.51100000000E-03 0. -1.
         11   -1    0    0    0    0 -0.00000000000E+00 -0.00000000000E+00 -0.45593999997E+02  0.45594000000E+02  0.51100000000E-03 0.  1.
    9900012    2    1    2    0    0  0.19033937680E+01 -0.43252316570E+02 -0.30393487339E+01  0.47787269162E+02  0.19999991417E+02 0.  0.
         12    1    1    2    0    0 -0.19033937680E+01  0.43252316570E+02  0.30393487339E+01  0.43400730838E+02  0.00000000000E+00 0. -1.
         11    1    3    3    0    0 -0.26568035106E+01 -0.17099830198E+02  0.56974290909E+01  0.18218767692E+02  0.51100000000E-03 0. -1.
        -11    1    3    3    0    0  0.25630664757E+00 -0.64404571487E+01  0.19533667292E+01  0.67350444113E+01  0.51100000000E-03 0.  1.
         12    1    3    3    0    0  0.43038906311E+01 -0.19712029224E+02 -0.10690144554E+02  0.22833457059E+02  0.00000000000E+00 0. -1.
</event>
<event>
 7    1  0.4937359E-010  0.4778727E+02  0.7816164E-02  0.1312668E+00
        -11   -1    0    0    0    0  0.00000000000E+00  0.00000000000E+00  0.45593999997E+02  0.45594000000E+02  0.51100000000E-03 0. -1.
         11   -1    0    0    0    0 -0.00000000000E+00 -0.00000000000E+00 -0.45593999997E+02  0.45594000000E+02  0.51100000000E-03 0.  1.
    9900012    2    1    2    0    0  0.14893022136E+02 -0.17537774947E+02 -0.36800105305E+02  0.47787269489E+02  0.19999992907E+02 0.  0.
         12    1    1    2    0    0 -0.14893022136E+02  0.17537774947E+02  0.36800105305E+02  0.43400730511E+02  0.00000000000E+00 0. -1.
         11    1    3    3    0    0  0.10374685541E+02 -0.14859883891E+02 -0.31570045787E+02  0.36402170822E+02  0.51100000000E-03 0. -1.
        -11    1    3    3    0    0  0.66279585234E+01 -0.38519864931E+01 -0.43576524033E+01  0.88179798628E+01  0.51100000000E-03 0.  1.
         12    1    3    3    0    0 -0.21096219288E+01  0.11740954371E+01 -0.87240711489E+00  0.25671188036E+01  0.00000000000E+00 0. -1.
</event>
<event>
 7    1  0.5217420E-010  0.4778727E+02  0.7816164E-02  0.1312668E+00
        -11   -1    0    0    0    0  0.00000000000E+00  0.00000000000E+00  0.45593999997E+02  0.45594000000E+02  0.51100000000E-03 0. -1.
         11   -1    0    0    0    0 -0.00000000000E+00 -0.00000000000E+00 -0.45593999997E+02  0.45594000000E+02  0.51100000000E-03 0.  1.
    9900012    2    1    2    0    0 -0.38030049128E+02  0.13939772245E+02 -0.15589141898E+02  0.47787271527E+02  0.20000002198E+02 0.  0.
         12    1    1    2    0    0  0.38030049128E+02 -0.13939772245E+02  0.15589141898E+02  0.43400728473E+02  0.00000000000E+00 0. -1.
         11    1    3    3    0    0 -0.32031011472E+01 -0.67366274557E+00 -0.76590609617E+01  0.83291592331E+01  0.51100000000E-03 0. -1.
        -11    1    3    3    0    0 -0.27330903659E+02  0.11619310375E+02 -0.96077708901E+01  0.31213713815E+02  0.51100000000E-03 0.  1.
        -12    1    3    3    0    0 -0.74960443216E+01  0.29941246161E+01  0.16776899539E+01  0.82443984783E+01  0.00000000000E+00 0.  1.
</event>
<event>
 7    1  0.4937359E-010  0.4778727E+02  0.7816164E-02  0.1312668E+00
        -11   -1    0    0    0    0  0.00000000000E+00  0.00000000000E+00  0.45593999997E+02  0.45594000000E+02  0.51100000000E-03 0.  1.
         11   -1    0    0    0    0 -0.00000000000E+00 -0.00000000000E+00 -0.45593999997E+02  0.45594000000E+02  0.51100000000E-03 0. -1.
    9900012    2    1    2    0    0 -0.34900359580E+02 -0.52193060074E+01  0.25265530378E+02  0.47787270982E+02  0.19999999714E+02 0.  0.
         12    1    1    2    0    0  0.34900359580E+02  0.52193060074E+01 -0.25265530378E+02  0.43400729018E+02  0.00000000000E+00 0. -1.
         11    1    3    3    0    0 -0.32943806791E+01  0.24546327261E+01 -0.64805356675E+00  0.41591032165E+01  0.51100000000E-03 0. -1.
        -11    1    3    3    0    0 -0.15977826039E+02 -0.10395256304E+02  0.16288142496E+02  0.25073010685E+02  0.51100000000E-03 0.  1.
        -12    1    3    3    0    0 -0.15628152862E+02  0.27213175704E+01  0.96254414494E+01  0.18555157081E+02  0.00000000000E+00 0.  1.
</event>
<event>
 7    1  0.4937359E-010  0.4778726E+02  0.7816164E-02  0.1312668E+00
        -11   -1    0    0    0    0  0.00000000000E+00  0.00000000000E+00  0.45593999997E+02  0.45594000000E+02  0.51100000000E-03 0.  1.
         11   -1    0    0    0    0 -0.00000000000E+00 -0.00000000000E+00 -0.45593999997E+02  0.45594000000E+02  0.51100000000E-03 0. -1.
    9900012    2    1    2    0    0  0.39956211775E+02 -0.80260588020E+01  0.14923384511E+02  0.47787264009E+02  0.19999967923E+02 0.  0.
         12    1    1    2    0    0 -0.39956211775E+02  0.80260588020E+01 -0.14923384511E+02  0.43400735991E+02  0.00000000000E+00 0. -1.
         11    1    3    3    0    0  0.93939739145E+01  0.20070734160E+00  0.93650586686E+01  0.13266173279E+02  0.51100000000E-03 0. -1.
        -11    1    3    3    0    0  0.12328125522E+02 -0.25383438570E+01 -0.39399782097E+01  0.13188983925E+02  0.51100000000E-03 0.  1.
         12    1    3    3    0    0  0.18234112339E+02 -0.56884222866E+01  0.94983040520E+01  0.21332106805E+02  0.00000000000E+00 0. -1.
</event>
<event>
 7    1  0.4937359E-010  0.4778727E+02  0.7816164E-02  0.1312668E+00
        -11   -1    0    0    0    0  0.00000000000E+00  0.00000000000E+00  0.45593999997E+02  0.45594000000E+02  0.51100000000E-03 0.  1.
         11   -1    0    0    0    0 -0.00000000000E+00 -0.00000000000E+00 -0.45593999997E+02  0.45594000000E+02  0.51100000000E-03 0. -1.
    9900012    2    1    2    0    0  0.71060395808E+01 -0.97955158106E+01  0.41679437103E+02  0.47787269525E+02  0.19999993074E+02 0.  0.
         12    1    1    2    0    0 -0.71060395808E+01  0.97955158106E+01 -0.41679437103E+02  0.43400730475E+02  0.00000000000E+00 0. -1.
         11    1    3    3    0    0  0.26318601653E+01 -0.44034290039E+01  0.58735029208E+00  0.51635119394E+01  0.51100000000E-03 0. -1.
        -11    1    3    3    0    0  0.57607008826E+01 -0.68434385309E+01  0.37381233875E+02  0.38436635803E+02  0.51100000000E-03 0.  1.
        -12    1    3    3    0    0 -0.12865214671E+01  0.14513517241E+01  0.37108529363E+01  0.41871217832E+01  0.00000000000E+00 0.  1.
</event>
<event>
 7    1  0.4937359E-010  0.4778727E+02  0.7816164E-02  0.1312668E+00
        -11   -1    0    0    0    0  0.00000000000E+00  0.00000000000E+00  0.45593999997E+02  0.45594000000E+02  0.51100000000E-03 0. -1.
         11   -1    0    0    0    0 -0.00000000000E+00 -0.00000000000E+00 -0.45593999997E+02  0.45594000000E+02  0.51100000000E-03 0.  1.
    9900012    2    1    2    0    0  0.35178451616E+02  0.25271384684E+02 -0.27307833793E+01  0.47787268211E+02  0.19999987082E+02 0.  0.
         12    1    1    2    0    0 -0.35178451616E+02 -0.25271384684E+02  0.27307833793E+01  0.43400731789E+02  0.00000000000E+00 0. -1.
         11    1    3    3    0    0  0.89197332119E+01  0.84175128325E+00  0.27008617661E+01  0.93576086868E+01  0.51100000000E-03 0. -1.
        -11    1    3    3    0    0  0.99362748679E+01  0.17850794813E+02 -0.34663711341E+01  0.20721876430E+02  0.51100000000E-03 0.  1.
        -12    1    3    3    0    0  0.16322443536E+02  0.65788385879E+01 -0.19652740113E+01  0.17707783094E+02  0.00000000000E+00 0.  1.
</event>
<event>
 7    1  0.4937359E-010  0.4778727E+02  0.7816164E-02  0.1312668E+00
        -11   -1    0    0    0    0  0.00000000000E+00  0.00000000000E+00  0.45593999997E+02  0.45594000000E+02  0.51100000000E-03 0.  1.
         11   -1    0    0    0    0 -0.00000000000E+00 -0.00000000000E+00 -0.45593999997E+02  0.45594000000E+02  0.51100000000E-03 0. -1.
    9900012    2    1    2    0    0  0.22490933843E+02 -0.28861235890E+02  0.23341163063E+02  0.47787274944E+02  0.20000017782E+02 0.  0.
         12    1    1    2    0    0 -0.22490933843E+02  0.28861235890E+02 -0.23341163063E+02  0.43400725056E+02  0.00000000000E+00 0. -1.
         11    1    3    3    0    0  0.34743399640E+01 -0.11556650558E+02  0.12602116128E+02  0.17448224593E+02  0.51100000000E-03 0. -1.
        -11    1    3    3    0    0  0.37806136363E+01 -0.82031643070E+01  0.85849276998E+01  0.12461377451E+02  0.51100000000E-03 0.  1.
         12    1    3    3    0    0  0.15235980243E+02 -0.91014210251E+01  0.21541192352E+01  0.17877672900E+02  0.00000000000E+00 0. -1.
</event>
<event>
 7    1  0.4937359E-010  0.4778727E+02  0.7816164E-02  0.1312668E+00
        -11   -1    0    0    0    0  0.00000000000E+00  0.00000000000E+00  0.45593999997E+02  0.45594000000E+02  0.51100000000E-03 0. -1.
         11   -1    0    0    0    0 -0.00000000000E+00 -0.00000000000E+00 -0.45593999997E+02  0.45594000000E+02  0.51100000000E-03 0.  1.
    9900012    2    1    2    0    0  0.14052533493E+01 -0.39629210927E+02 -0.17640123815E+02  0.47787273463E+02  0.20000011029E+02 0.  0.
         12    1    1    2    0    0 -0.14052533493E+01  0.39629210927E+02  0.17640123815E+02  0.43400726537E+02  0.00000000000E+00 0. -1.
         11    1    3    3    0    0 -0.27620063292E+01 -0.17730885781E+02 -0.16345995699E+02  0.24273536314E+02  0.51100000000E-03 0.  1.
        -11    1    3    3    0    0  0.43097200649E+01 -0.84256725492E+01  0.19328605806E+01  0.96592750882E+01  0.51100000000E-03 0. -1.
        -12    1    3    3    0    0 -0.14246038641E+00 -0.13472652597E+02 -0.32269886971E+01  0.13854462061E+02  0.00000000000E+00 0.  1.
</event>
<event>
 7    1  0.4937359E-010  0.4778728E+02  0.7816164E-02  0.1312668E+00
        -11   -1    0    0    0    0  0.00000000000E+00  0.00000000000E+00  0.45593999997E+02  0.45594000000E+02  0.51100000000E-03 0.  1.
         11   -1    0    0    0    0 -0.00000000000E+00 -0.00000000000E+00 -0.45593999997E+02  0.45594000000E+02  0.51100000000E-03 0. -1.
    9900012    2    1    2    0    0 -0.38188994212E+02  0.14939283811E+02  0.14214128065E+02  0.47787275163E+02  0.20000018779E+02 0.  0.
         12    1    1    2    0    0  0.38188994212E+02 -0.14939283811E+02 -0.14214128065E+02  0.43400724837E+02  0.00000000000E+00 0. -1.
         11    1    3    3    0    0 -0.11938565264E+02  0.19757789291E+01 -0.34726372931E+01  0.12589370635E+02  0.51100000000E-03 0. -1.
        -11    1    3    3    0    0 -0.16113438931E+02  0.11281450104E+02  0.14508589117E+02  0.24442037334E+02  0.51100000000E-03 0.  1.
        -12    1    3    3    0    0 -0.10136990017E+02  0.16820547776E+01  0.31781762409E+01  0.10755867194E+02  0.00000000000E+00 0.  1.
</event>
<event>
 7    1  0.4937359E-010  0.4778728E+02  0.7816164E-02  0.1312668E+00
        -11   -1    0    0    0    0  0.00000000000E+00  0.00000000000E+00  0.45593999997E+02  0.45594000000E+02  0.51100000000E-03 0.  1.
         11   -1    0    0    0    0 -0.00000000000E+00 -0.00000000000E+00 -0.45593999997E+02  0.45594000000E+02  0.51100000000E-03 0. -1.
    9900012    2    1    2    0    0  0.41727800199E+02  0.39242198892E+01  0.11270043810E+02  0.47787277671E+02  0.20000030215E+02 0.  0.
         12    1    1    2    0    0 -0.41727800199E+02 -0.39242198892E+01 -0.11270043810E+02  0.43400722329E+02  0.00000000000E+00 0. -1.
         11    1    3    3    0    0  0.15800147444E+02  0.46882084738E+01 -0.34935410121E+01  0.16847218969E+02  0.51100000000E-03 0. -1.
        -11    1    3    3    0    0  0.18663675059E+02 -0.10276044754E+01  0.14517015968E+02  0.23667118340E+02  0.51100000000E-03 0.  1.
        -12    1    3    3    0    0  0.72639776965E+01  0.26361589080E+00  0.24656885434E+00  0.72729403623E+01  0.00000000000E+00 0.  1.
</event>
<event>
 7    1  0.4937359E-010  0.4778727E+02  0.7816164E-02  0.1312668E+00
        -11   -1    0    0    0    0  0.00000000000E+00  0.00000000000E+00  0.45593999997E+02  0.45594000000E+02  0.51100000000E-03 0.  1.
         11   -1    0    0    0    0 -0.00000000000E+00 -0.00000000000E+00 -0.45593999997E+02  0.45594000000E+02  0.51100000000E-03 0. -1.
    9900012    2    1    2    0    0  0.26818568017E+02  0.30070213612E+01  0.33990375666E+02  0.47787269523E+02  0.19999993065E+02 0.  0.
         12    1    1    2    0    0 -0.26818568017E+02 -0.30070213612E+01 -0.33990375666E+02  0.43400730477E+02  0.00000000000E+00 0. -1.
         11    1    3    3    0    0  0.63199383240E+01  0.39669177537E+01  0.96024309959E+01  0.12160786906E+02  0.51100000000E-03 0. -1.
        -11    1    3    3    0    0 -0.39498541128E+00 -0.45635446998E+01  0.60897644592E+01  0.76201827492E+01  0.51100000000E-03 0.  1.
        -12    1    3    3    0    0  0.20893615105E+02  0.36036483073E+01  0.18298180211E+02  0.28006299868E+02  0.00000000000E+00 0.  1.
</event>
<event>
 7    1  0.4937359E-010  0.4778728E+02  0.7816164E-02  0.1312668E+00
        -11   -1    0    0    0    0  0.00000000000E+00  0.00000000000E+00  0.45593999997E+02  0.45594000000E+02  0.51100000000E-03 0.  1.
         11   -1    0    0    0    0 -0.00000000000E+00 -0.00000000000E+00 -0.45593999997E+02  0.45594000000E+02  0.51100000000E-03 0. -1.
    9900012    2    1    2    0    0 -0.34681959164E+02  0.12983952025E+01  0.26059509961E+02  0.47787283636E+02  0.20000057409E+02 0.  0.
         12    1    1    2    0    0  0.34681959164E+02 -0.12983952025E+01 -0.26059509961E+02  0.43400716364E+02  0.00000000000E+00 0. -1.
         11    1    3    3    0    0 -0.68830342085E+01  0.39888868872E+01  0.11615567274E+02  0.14078664066E+02  0.51100000000E-03 0. -1.
        -11    1    3    3    0    0 -0.20238266608E+02 -0.66810281836E+01  0.13200704868E+02  0.25069546908E+02  0.51100000000E-03 0.  1.
        -12    1    3    3    0    0 -0.75606583470E+01  0.39905364988E+01  0.12432378187E+01  0.86390726622E+01  0.00000000000E+00 0.  1.
</event>
<event>
 7    1  0.4937359E-010  0.4778727E+02  0.7816164E-02  0.1312668E+00
        -11   -1    0    0    0    0  0.00000000000E+00  0.00000000000E+00  0.45593999997E+02  0.45594000000E+02  0.51100000000E-03 0.  1.
         11   -1    0    0    0    0 -0.00000000000E+00 -0.00000000000E+00 -0.45593999997E+02  0.45594000000E+02  0.51100000000E-03 0. -1.
    9900012    2    1    2    0    0 -0.22568005758E+02  0.29153970867E+01  0.36956851026E+02  0.47787271183E+02  0.20000000631E+02 0.  0.
         12    1    1    2    0    0  0.22568005758E+02 -0.29153970867E+01 -0.36956851026E+02  0.43400728817E+02  0.00000000000E+00 0. -1.
         11    1    3    3    0    0 -0.13094498249E+02 -0.73753387732E+01  0.24994205161E+02  0.29164564086E+02  0.51100000000E-03 0.  1.
        -11    1    3    3    0    0 -0.69889150896E+01  0.82328142477E+01  0.10561902215E+02  0.15105560010E+02  0.51100000000E-03 0. -1.
        -12    1    3    3    0    0 -0.24845924203E+01  0.20579216123E+01  0.14007436498E+01  0.35171470867E+01  0.00000000000E+00 0.  1.
</event>
<event>
 7    1  0.4937359E-010  0.4778727E+02  0.7816164E-02  0.1312668E+00
        -11   -1    0    0    0    0  0.00000000000E+00  0.00000000000E+00  0.45593999997E+02  0.45594000000E+02  0.51100000000E-03 0. -1.
         11   -1    0    0    0    0 -0.00000000000E+00 -0.00000000000E+00 -0.45593999997E+02  0.45594000000E+02  0.51100000000E-03 0.  1.
    9900012    2    1    2    0    0 -0.42471878337E+02 -0.87098669224E+01 -0.19752375234E+01  0.47787265046E+02  0.19999972652E+02 0.  0.
         12    1    1    2    0    0  0.42471878337E+02  0.87098669224E+01  0.19752375234E+01  0.43400734954E+02  0.00000000000E+00 0. -1.
         11    1    3    3    0    0 -0.17535991092E+02  0.29557878555E+01  0.25562231575E+01  0.17966133210E+02  0.51100000000E-03 0. -1.
        -11    1    3    3    0    0 -0.10606019280E+02 -0.10747587764E+02 -0.28132870984E+01  0.15359455467E+02  0.51100000000E-03 0.  1.
        -12    1    3    3    0    0 -0.14329867965E+02 -0.91806701434E+00 -0.17181735825E+01  0.14461676368E+02  0.00000000000E+00 0.  1.
</event>
<event>
 7    1  0.4937359E-010  0.4778727E+02  0.7816164E-02  0.1312668E+00
        -11   -1    0    0    0    0  0.00000000000E+00  0.00000000000E+00  0.45593999997E+02  0.45594000000E+02  0.51100000000E-03 0.  1.
         11   -1    0    0    0    0 -0.00000000000E+00 -0.00000000000E+00 -0.45593999997E+02  0.45594000000E+02  0.51100000000E-03 0. -1.
    9900012    2    1    2    0    0 -0.15367763338E+02  0.52756552598E+01  0.40244534048E+02  0.47787271789E+02  0.20000003396E+02 0.  0.
         12    1    1    2    0    0  0.15367763338E+02 -0.52756552598E+01 -0.40244534048E+02  0.43400728211E+02  0.00000000000E+00 0. -1.
         11    1    3    3    0    0 -0.43456943931E+01  0.29061122792E+01  0.37131885839E+01  0.64123566696E+01  0.51100000000E-03 0. -1.
        -11    1    3    3    0    0 -0.34065798763E+01  0.65499785800E+01  0.56552882720E+01  0.92999619114E+01  0.51100000000E-03 0.  1.
        -12    1    3    3    0    0 -0.76154890691E+01 -0.41804355994E+01  0.30876057192E+02  0.32074953208E+02  0.00000000000E+00 0.  1.
</event>
<event>
 7    1  0.4937359E-010  0.4778728E+02  0.7816164E-02  0.1312668E+00
        -11   -1    0    0    0    0  0.00000000000E+00  0.00000000000E+00  0.45593999997E+02  0.45594000000E+02  0.51100000000E-03 0.  1.
         11   -1    0    0    0    0 -0.00000000000E+00 -0.00000000000E+00 -0.45593999997E+02  0.45594000000E+02  0.51100000000E-03 0. -1.
    9900012    2    1    2    0    0  0.37309028570E+02  0.29510964335E+01  0.21976131286E+02  0.47787275015E+02  0.20000018102E+02 0.  0.
         12    1    1    2    0    0 -0.37309028570E+02 -0.29510964335E+01 -0.21976131286E+02  0.43400724985E+02  0.00000000000E+00 0. -1.
         11    1    3    3    0    0  0.44616559530E+00  0.15695804235E+01  0.21080934806E+01  0.26658403606E+01  0.51100000000E-03 0. -1.
        -11    1    3    3    0    0  0.85256396226E+01 -0.61559563535E+01  0.17707100845E+01  0.10663852215E+02  0.51100000000E-03 0.  1.
        -12    1    3    3    0    0  0.28337223352E+02  0.75374723635E+01  0.18097327721E+02  0.34457582439E+02  0.00000000000E+00 0.  1.
</event>
<event>
 7    1  0.4937359E-010  0.4778727E+02  0.7816164E-02  0.1312668E+00
        -11   -1    0    0    0    0  0.00000000000E+00  0.00000000000E+00  0.45593999997E+02  0.45594000000E+02  0.51100000000E-03 0. -1.
         11   -1    0    0    0    0 -0.00000000000E+00 -0.00000000000E+00 -0.45593999997E+02  0.45594000000E+02  0.51100000000E-03 0.  1.
    9900012    2    1    2    0    0  0.37523783663E+02  0.11188775713E+02  0.18718975891E+02  0.47787273039E+02  0.20000009093E+02 0.  0.
         12    1    1    2    0    0 -0.37523783663E+02 -0.11188775713E+02 -0.18718975891E+02  0.43400726961E+02  0.00000000000E+00 0. -1.
         11    1    3    3    0    0  0.90377895974E+01 -0.42580288947E+01  0.86229116513E+01  0.13197236699E+02  0.51100000000E-03 0. -1.
        -11    1    3    3    0    0  0.22491853562E+02  0.12386213849E+02  0.10732669899E+02  0.27829695894E+02  0.51100000000E-03 0.  1.
         12    1    3    3    0    0  0.59941405039E+01  0.30605907591E+01 -0.63660565948E+00  0.67603404457E+01  0.00000000000E+00 0. -1.
</event>
<event>
 7    1  0.4937359E-010  0.4778727E+02  0.7816164E-02  0.1312668E+00
        -11   -1    0    0    0    0  0.00000000000E+00  0.00000000000E+00  0.45593999997E+02  0.45594000000E+02  0.51100000000E-03 0.  1.
         11   -1    0    0    0    0 -0.00000000000E+00 -0.00000000000E+00 -0.45593999997E+02  0.45594000000E+02  0.51100000000E-03 0. -1.
    9900012    2    1    2    0    0 -0.12438579012E+02  0.40796909400E+02  0.80322590121E+01  0.47787271328E+02  0.20000001294E+02 0.  0.
         12    1    1    2    0    0  0.12438579012E+02 -0.40796909400E+02 -0.80322590121E+01  0.43400728672E+02  0.00000000000E+00 0. -1.
         11    1    3    3    0    0 -0.85687797018E+01  0.14012384237E+02 -0.45597811307E+01  0.17045893987E+02  0.51100000000E-03 0. -1.
        -11    1    3    3    0    0 -0.54365613703E+01  0.16854024257E+02  0.10087843277E+02  0.20380846779E+02  0.51100000000E-03 0.  1.
        -12    1    3    3    0    0  0.15667620603E+01  0.99305009058E+01  0.25041968659E+01  0.10360530562E+02  0.00000000000E+00 0.  1.
</event>
<event>
 7    1  0.4937359E-010  0.4778727E+02  0.7816164E-02  0.1312668E+00
        -11   -1    0    0    0    0  0.00000000000E+00  0.00000000000E+00  0.45593999997E+02  0.45594000000E+02  0.51100000000E-03 0.  1.
         11   -1    0    0    0    0 -0.00000000000E+00 -0.00000000000E+00 -0.45593999997E+02  0.45594000000E+02  0.51100000000E-03 0. -1.
    9900012    2    1    2    0    0  0.35747861698E+02  0.51659276311E+01  0.24062978537E+02  0.47787270049E+02  0.19999995460E+02 0.  0.
         12    1    1    2    0    0 -0.35747861698E+02 -0.51659276311E+01 -0.24062978537E+02  0.43400729951E+02  0.00000000000E+00 0. -1.
         11    1    3    3    0    0  0.88157493198E+01  0.88388002822E+01  0.85687394581E+01  0.15141503316E+02  0.51100000000E-03 0. -1.
        -11    1    3    3    0    0  0.18606821029E+02  0.19138974834E+01  0.98448935580E+01  0.21137613910E+02  0.51100000000E-03 0.  1.
         12    1    3    3    0    0  0.83252913492E+01 -0.55867701346E+01  0.56493455206E+01  0.11508152823E+02  0.00000000000E+00 0. -1.
</event>
<event>
 7    1  0.4937359E-010  0.4778727E+02  0.7816164E-02  0.1312668E+00
        -11   -1    0    0    0    0  0.00000000000E+00  0.00000000000E+00  0.45593999997E+02  0.45594000000E+02  0.51100000000E-03 0. -1.
         11   -1    0    0    0    0 -0.00000000000E+00 -0.00000000000E+00 -0.45593999997E+02  0.45594000000E+02  0.51100000000E-03 0.  1.
    9900012    2    1    2    0    0 -0.11648282114E+02 -0.29401756802E+02 -0.29723351743E+02  0.47787269383E+02  0.19999992424E+02 0.  0.
         12    1    1    2    0    0  0.11648282114E+02  0.29401756802E+02  0.29723351743E+02  0.43400730617E+02  0.00000000000E+00 0. -1.
         11    1    3    3    0    0 -0.20514253783E+01 -0.18630110960E+02 -0.26473346974E+02  0.32436514621E+02  0.51100000000E-03 0. -1.
        -11    1    3    3    0    0 -0.62945798623E+01 -0.52919567988E+01 -0.35246468828E+01  0.89470485811E+01  0.51100000000E-03 0.  1.
         12    1    3    3    0    0 -0.33022768735E+01 -0.54796890428E+01  0.27464211401E+00  0.64037061805E+01  0.00000000000E+00 0. -1.
</event>
<event>
 7    1  0.4937359E-010  0.4778727E+02  0.7816164E-02  0.1312668E+00
        -11   -1    0    0    0    0  0.00000000000E+00  0.00000000000E+00  0.45593999997E+02  0.45594000000E+02  0.51100000000E-03 0. -1.
         11   -1    0    0    0    0 -0.00000000000E+00 -0.00000000000E+00 -0.45593999997E+02  0.45594000000E+02  0.51100000000E-03 0.  1.
    9900012    2    1    2    0    0 -0.17173801319E+02  0.59745284448E+01 -0.39407977774E+02  0.47787272424E+02  0.20000006291E+02 0.  0.
         12    1    1    2    0    0  0.17173801319E+02 -0.59745284448E+01  0.39407977774E+02  0.43400727576E+02  0.00000000000E+00 0. -1.
         11    1    3    3    0    0 -0.45245944505E+01 -0.50324729039E+01 -0.61256849565E+01  0.91280750938E+01  0.51100000000E-03 0. -1.
        -11    1    3    3    0    0 -0.38676522429E+01  0.87031137362E+01 -0.23270869878E+02  0.25144309649E+02  0.51100000000E-03 0.  1.
        -12    1    3    3    0    0 -0.87815546254E+01  0.23038876125E+01 -0.10011422939E+02  0.13514887681E+02  0.00000000000E+00 0.  1.
</event>
<event>
 7    1  0.4937359E-010  0.4778726E+02  0.7816164E-02  0.1312668E+00
        -11   -1    0    0    0    0  0.00000000000E+00  0.00000000000E+00  0.45593999997E+02  0.45594000000E+02  0.51100000000E-03 0.  1.
         11   -1    0    0    0    0 -0.00000000000E+00 -0.00000000000E+00 -0.45593999997E+02  0.45594000000E+02  0.51100000000E-03 0. -1.
    9900012    2    1    2    0    0 -0.28154086276E+02 -0.21666444068E+02 -0.24930638321E+02  0.47787261531E+02  0.19999956623E+02 0.  0.
         12    1    1    2    0    0  0.28154086276E+02  0.21666444068E+02  0.24930638321E+02  0.43400738469E+02  0.00000000000E+00 0. -1.
         11    1    3    3    0    0 -0.75730530782E+01 -0.15378439770E+02 -0.17459402871E+02  0.24467903293E+02  0.51100000000E-03 0. -1.
        -11    1    3    3    0    0 -0.18370821265E+02 -0.69453846757E+01 -0.58229642435E+01  0.20484929951E+02  0.51100000000E-03 0.  1.
         12    1    3    3    0    0 -0.22102119329E+01  0.65738037686E+00 -0.16482712063E+01  0.28344282876E+01  0.00000000000E+00 0. -1.
</event>
<event>
 7    1  0.4937359E-010  0.4778727E+02  0.7816164E-02  0.1312668E+00
        -11   -1    0    0    0    0  0.00000000000E+00  0.00000000000E+00  0.45593999997E+02  0.45594000000E+02  0.51100000000E-03 0.  1.
         11   -1    0    0    0    0 -0.00000000000E+00 -0.00000000000E+00 -0.45593999997E+02  0.45594000000E+02  0.51100000000E-03 0. -1.
    9900012    2    1    2    0    0 -0.27334773597E+02  0.18339926922E+02  0.28285688595E+02  0.47787274817E+02  0.20000017200E+02 0.  0.
         12    1    1    2    0    0  0.27334773597E+02 -0.18339926922E+02 -0.28285688595E+02  0.43400725183E+02  0.00000000000E+00 0. -1.
         11    1    3    3    0    0 -0.13412137614E+02  0.73110374142E+01  0.18850107978E+02  0.24262383940E+02  0.51100000000E-03 0. -1.
        -11    1    3    3    0    0 -0.14376177591E+02  0.12752586112E+02  0.68852675707E+01  0.20413472131E+02  0.51100000000E-03 0.  1.
        -12    1    3    3    0    0  0.45354160692E+00 -0.17236966041E+01  0.25503130467E+01  0.31114187453E+01  0.00000000000E+00 0.  1.
</event>
<event>
 7    1  0.4937359E-010  0.4778727E+02  0.7816164E-02  0.1312668E+00
        -11   -1    0    0    0    0  0.00000000000E+00  0.00000000000E+00  0.45593999997E+02  0.45594000000E+02  0.51100000000E-03 0. -1.
         11   -1    0    0    0    0 -0.00000000000E+00 -0.00000000000E+00 -0.45593999997E+02  0.45594000000E+02  0.51100000000E-03 0.  1.
    9900012    2    1    2    0    0  0.13571862352E+02  0.24970202252E+02 -0.32801173464E+02  0.47787269260E+02  0.19999991863E+02 0.  0.
         12    1    1    2    0    0 -0.13571862352E+02 -0.24970202252E+02  0.32801173464E+02  0.43400730740E+02  0.00000000000E+00 0. -1.
         11    1    3    3    0    0  0.10081068258E+01 -0.70322408273E+00 -0.23822467266E+01  0.26806535044E+01  0.51100000000E-03 0. -1.
        -11    1    3    3    0    0  0.12840555397E+02  0.80146172545E+01 -0.17989297705E+02  0.23510184704E+02  0.51100000000E-03 0.  1.
        -12    1    3    3    0    0 -0.27679987056E+00  0.17658809080E+02 -0.12429629032E+02  0.21596431051E+02  0.00000000000E+00 0.  1.
</event>
<event>
 7    1  0.4937359E-010  0.4778727E+02  0.7816164E-02  0.1312668E+00
        -11   -1    0    0    0    0  0.00000000000E+00  0.00000000000E+00  0.45593999997E+02  0.45594000000E+02  0.51100000000E-03 0.  1.
         11   -1    0    0    0    0 -0.00000000000E+00 -0.00000000000E+00 -0.45593999997E+02  0.45594000000E+02  0.51100000000E-03 0. -1.
    9900012    2    1    2    0    0 -0.27923161473E+02 -0.16546179240E+02  0.28812227458E+02  0.47787269071E+02  0.19999991000E+02 0.  0.
         12    1    1    2    0    0  0.27923161473E+02  0.16546179240E+02 -0.28812227458E+02  0.43400730929E+02  0.00000000000E+00 0. -1.
         11    1    3    3    0    0 -0.12613616693E+01  0.23322735914E+01 -0.73411687543E+00  0.27512653841E+01  0.51100000000E-03 0. -1.
        -11    1    3    3    0    0 -0.26481139427E+02 -0.16895286682E+02  0.25255595301E+02  0.40305664015E+02  0.51100000000E-03 0.  1.
        -12    1    3    3    0    0 -0.18066037720E+00 -0.19831661496E+01  0.42907490323E+01  0.47303396715E+01  0.00000000000E+00 0.  1.
</event>
<event>
 7    1  0.4937359E-010  0.4778727E+02  0.7816164E-02  0.1312668E+00
        -11   -1    0    0    0    0  0.00000000000E+00  0.00000000000E+00  0.45593999997E+02  0.45594000000E+02  0.51100000000E-03 0. -1.
         11   -1    0    0    0    0 -0.00000000000E+00 -0.00000000000E+00 -0.45593999997E+02  0.45594000000E+02  0.51100000000E-03 0.  1.
    9900012    2    1    2    0    0  0.41297519355E+02 -0.16320879465E+01  0.13246682774E+02  0.47787269355E+02  0.19999992299E+02 0.  0.
         12    1    1    2    0    0 -0.41297519355E+02  0.16320879465E+01 -0.13246682774E+02  0.43400730645E+02  0.00000000000E+00 0. -1.
         11    1    3    3    0    0  0.20693961592E+02  0.78672319304E+01  0.80459890062E+01  0.23555706824E+02  0.51100000000E-03 0. -1.
        -11    1    3    3    0    0  0.69042271231E+01 -0.67844507450E+01  0.16231788592E+01  0.98148781933E+01  0.51100000000E-03 0.  1.
        -12    1    3    3    0    0  0.13699330640E+02 -0.27148691319E+01  0.35775149082E+01  0.14416684338E+02  0.00000000000E+00 0.  1.
</event>
<event>
 7    1  0.4937359E-010  0.4778727E+02  0.7816164E-02  0.1312668E+00
        -11   -1    0    0    0    0  0.00000000000E+00  0.00000000000E+00  0.45593999997E+02  0.45594000000E+02  0.51100000000E-03 0.  1.
         11   -1    0    0    0    0 -0.00000000000E+00 -0.00000000000E+00 -0.45593999997E+02  0.45594000000E+02  0.51100000000E-03 0. -1.
    9900012    2    1    2    0    0  0.15034301200E+02 -0.21597759411E+02  0.34512750070E+02  0.47787270265E+02  0.19999996444E+02 0.  0.
         12    1    1    2    0    0 -0.15034301200E+02  0.21597759411E+02 -0.34512750070E+02  0.43400729735E+02  0.00000000000E+00 0. -1.
         11    1    3    3    0    0 -0.16870503434E+01 -0.86835796383E+01  0.17004967830E+02  0.19168193064E+02  0.51100000000E-03 0. -1.
        -11    1    3    3    0    0  0.13058762402E+01 -0.13907173824E+01  0.57665761184E+01  0.60739450099E+01  0.51100000000E-03 0.  1.
         12    1    3    3    0    0  0.15415475303E+02 -0.11523462390E+02  0.11741206122E+02  0.22545132190E+02  0.00000000000E+00 0. -1.
</event>
<event>
 7    1  0.4937359E-010  0.4778727E+02  0.7816164E-02  0.1312668E+00
        -11   -1    0    0    0    0  0.00000000000E+00  0.00000000000E+00  0.45593999997E+02  0.45594000000E+02  0.51100000000E-03 0.  1.
         11   -1    0    0    0    0 -0.00000000000E+00 -0.00000000000E+00 -0.45593999997E+02  0.45594000000E+02  0.51100000000E-03 0. -1.
    9900012    2    1    2    0    0 -0.49165066251E+01 -0.33079260508E+02  0.27662495251E+02  0.47787272394E+02  0.20000006155E+02 0.  0.
         12    1    1    2    0    0  0.49165066251E+01  0.33079260508E+02 -0.27662495251E+02  0.43400727606E+02  0.00000000000E+00 0. -1.
         11    1    3    3    0    0 -0.10885322471E+02 -0.24889240540E+02  0.16695703425E+02  0.31885906810E+02  0.51100000000E-03 0. -1.
        -11    1    3    3    0    0  0.51891517658E+01 -0.89189847289E+01  0.10544860256E+02  0.14753632188E+02  0.51100000000E-03 0.  1.
        -12    1    3    3    0    0  0.77966408020E+00  0.72896476087E+00  0.42193156994E+00  0.11477333969E+01  0.00000000000E+00 0.  1.
</event>
<event>
 7    1  0.4937359E-010  0.4778727E+02  0.7816164E-02  0.1312668E+00
        -11   -1    0    0    0    0  0.00000000000E+00  0.00000000000E+00  0.45593999997E+02  0.45594000000E+02  0.51100000000E-03 0. -1.
         11   -1    0    0    0    0 -0.00000000000E+00 -0.00000000000E+00 -0.45593999997E+02  0.45594000000E+02  0.51100000000E-03 0.  1.
    9900012    2    1    2    0    0  0.25534292564E+02 -0.14451612708E+02 -0.31980835957E+02  0.47787273334E+02  0.20000010440E+02 0.  0.
         12    1    1    2    0    0 -0.25534292564E+02  0.14451612708E+02  0.31980835957E+02  0.43400726666E+02  0.00000000000E+00 0. -1.
         11    1    3    3    0    0  0.89334948829E+00 -0.14504751388E+01  0.66501382212E+00  0.18287140513E+01  0.51100000000E-03 0. -1.
        -11    1    3    3    0    0  0.66101505426E+01 -0.12442294203E+02 -0.16999010559E+02  0.22078748504E+02  0.51100000000E-03 0.  1.
        -12    1    3    3    0    0  0.18030792533E+02 -0.55884336550E+00 -0.15646839221E+02  0.23879810779E+02  0.00000000000E+00 0.  1.
</event>
<event>
 7    1  0.4937359E-010  0.4778727E+02  0.7816164E-02  0.1312668E+00
        -11   -1    0    0    0    0  0.00000000000E+00  0.00000000000E+00  0.45593999997E+02  0.45594000000E+02  0.51100000000E-03 0.  1.
         11   -1    0    0    0    0 -0.00000000000E+00 -0.00000000000E+00 -0.45593999997E+02  0.45594000000E+02  0.51100000000E-03 0. -1.
    9900012    2    1    2    0    0 -0.37431709982E+02  0.20000359246E+02  0.90816338153E+01  0.47787270111E+02  0.19999995744E+02 0.  0.
         12    1    1    2    0    0  0.37431709982E+02 -0.20000359246E+02 -0.90816338153E+01  0.43400729889E+02  0.00000000000E+00 0. -1.
         11    1    3    3    0    0 -0.27874257459E+02  0.18085084404E+02  0.33575387396E+01  0.33396370662E+02  0.51100000000E-03 0. -1.
        -11    1    3    3    0    0 -0.17850454000E+01  0.21669390667E+01  0.59842296307E+01  0.66100693289E+01  0.51100000000E-03 0.  1.
        -12    1    3    3    0    0 -0.77724071228E+01 -0.25166422402E+00 -0.26013455495E+00  0.77808301197E+01  0.00000000000E+00 0.  1.
</event>
<event>
 7    1  0.4937359E-010  0.4778725E+02  0.7816164E-02  0.1312668E+00
        -11   -1    0    0    0    0  0.00000000000E+00  0.00000000000E+00  0.45593999997E+02  0.45594000000E+02  0.51100000000E-03 0.  1.
         11   -1    0    0    0    0 -0.00000000000E+00 -0.00000000000E+00 -0.45593999997E+02  0.45594000000E+02  0.51100000000E-03 0. -1.
    9900012    2    1    2    0    0 -0.80927764980E+01  0.23140150666E+02  0.35814316417E+02  0.47787252717E+02  0.19999916438E+02 0.  0.
         12    1    1    2    0    0  0.80927764980E+01 -0.23140150666E+02 -0.35814316417E+02  0.43400747283E+02  0.00000000000E+00 0. -1.
         11    1    3    3    0    0 -0.77691574861E+01  0.28654677537E+01  0.49225677945E+01  0.96333995788E+01  0.51100000000E-03 0. -1.
        -11    1    3    3    0    0 -0.31102167054E+01  0.87043128245E+01  0.74796889030E+01  0.11890511177E+02  0.51100000000E-03 0.  1.
         12    1    3    3    0    0  0.27865976935E+01  0.11570370087E+02  0.23412059720E+02  0.26263341961E+02  0.00000000000E+00 0. -1.
</event>
