<event>
 7    1  0.3054835E-011  0.5052886E+02  0.7816164E-02  0.1300439E+00
        -11   -1    0    0    0    0  0.00000000000E+00  0.00000000000E+00  0.45593999997E+02  0.45594000000E+02  0.51100000000E-03 0.  1.
         11   -1    0    0    0    0 -0.00000000000E+00 -0.00000000000E+00 -0.45593999997E+02  0.45594000000E+02  0.51100000000E-03 0. -1.
    9900012    2    1    2    0    0 -0.14814378125E+02  0.29303340971E+02  0.23979446153E+02  0.50528862908E+02  0.30000009294E+02 0.  0.
         12    1    1    2    0    0  0.14814378125E+02 -0.29303340971E+02 -0.23979446153E+02  0.40659137092E+02  0.00000000000E+00 0. -1.
         11    1    3    3    0    0 -0.56174019791E+01  0.66894101042E+01 -0.13584590387E+01  0.88401823374E+01  0.51100000000E-03 0. -1.
        -11    1    3    3    0    0  0.78715287431E+00  0.14430702236E+02  0.24878128662E+02  0.28771271481E+02  0.51100000000E-03 0.  1.
        -12    1    3    3    0    0 -0.99841290206E+01  0.81832286306E+01  0.45977652998E+00  0.12917409089E+02  0.00000000000E+00 0.  1.
</event>
<event>
 7    1  0.3054835E-011  0.5052886E+02  0.7816164E-02  0.1300439E+00
        -11   -1    0    0    0    0  0.00000000000E+00  0.00000000000E+00  0.45593999997E+02  0.45594000000E+02  0.51100000000E-03 0. -1.
         11   -1    0    0    0    0 -0.00000000000E+00 -0.00000000000E+00 -0.45593999997E+02  0.45594000000E+02  0.51100000000E-03 0.  1.
    9900012    2    1    2    0    0 -0.38614551769E+02 -0.55482794203E+01  0.11458566636E+02  0.50528858812E+02  0.29999996844E+02 0.  0.
         12    1    1    2    0    0  0.38614551769E+02  0.55482794203E+01 -0.11458566636E+02  0.40659141188E+02  0.00000000000E+00 0. -1.
         11    1    3    3    0    0 -0.29677038228E+02 -0.82631410444E+01  0.51235116246E+01  0.31229096521E+02  0.51100000000E-03 0. -1.
        -11    1    3    3    0    0 -0.12828164127E+02  0.46204265804E+01  0.61658399742E+01  0.14964214630E+02  0.51100000000E-03 0.  1.
         12    1    3    3    0    0  0.38906505861E+01 -0.19055649562E+01  0.16921503742E+00  0.43355476602E+01  0.00000000000E+00 0. -1.
</event>
<event>
 7    1  0.3054835E-011  0.5052885E+02  0.7816164E-02  0.1300439E+00
        -11   -1    0    0    0    0  0.00000000000E+00  0.00000000000E+00  0.45593999997E+02  0.45594000000E+02  0.51100000000E-03 0.  1.
         11   -1    0    0    0    0 -0.00000000000E+00 -0.00000000000E+00 -0.45593999997E+02  0.45594000000E+02  0.51100000000E-03 0. -1.
    9900012    2    1    2    0    0  0.37289416813E+01  0.38480188930E+02  0.12591114306E+02  0.50528854588E+02  0.29999984006E+02 0.  0.
         12    1    1    2    0    0 -0.37289416813E+01 -0.38480188930E+02 -0.12591114306E+02  0.40659145412E+02  0.00000000000E+00 0. -1.
         11    1    3    3    0    0  0.36298467306E+01 -0.19843967762E+01 -0.25815188903E+01  0.48762544945E+01  0.51100000000E-03 0. -1.
        -11    1    3    3    0    0  0.29437113991E+01  0.39119441333E+02  0.11637211579E+02  0.40919687445E+02  0.51100000000E-03 0.  1.
         12    1    3    3    0    0 -0.28446164484E+01  0.13451443729E+01  0.35354216173E+01  0.47329126481E+01  0.00000000000E+00 0. -1.
</event>
<event>
 7    1  0.3054835E-011  0.5052893E+02  0.7816164E-02  0.1300439E+00
        -11   -1    0    0    0    0  0.00000000000E+00  0.00000000000E+00  0.45593999997E+02  0.45594000000E+02  0.51100000000E-03 0. -1.
         11   -1    0    0    0    0 -0.00000000000E+00 -0.00000000000E+00 -0.45593999997E+02  0.45594000000E+02  0.51100000000E-03 0.  1.
    9900012    2    1    2    0    0 -0.35154527894E+02 -0.19543478990E+02 -0.59474252251E+01  0.50528926359E+02  0.30000202161E+02 0.  0.
         12    1    1    2    0    0  0.35154527894E+02  0.19543478990E+02  0.59474252251E+01  0.40659073641E+02  0.00000000000E+00 0. -1.
         11    1    3    3    0    0 -0.25182291709E+02 -0.70291274010E+01 -0.70003647446E+00  0.26154282614E+02  0.51100000000E-03 0. -1.
        -11    1    3    3    0    0 -0.47595742929E+00 -0.13612162010E+02 -0.57892827503E+01  0.14799773143E+02  0.51100000000E-03 0.  1.
        -12    1    3    3    0    0 -0.94962787563E+01  0.10978104213E+01  0.54189399968E+00  0.95748706020E+01  0.00000000000E+00 0.  1.
</event>
<event>
 7    1  0.3054835E-011  0.5052890E+02  0.7816164E-02  0.1300439E+00
        -11   -1    0    0    0    0  0.00000000000E+00  0.00000000000E+00  0.45593999997E+02  0.45594000000E+02  0.51100000000E-03 0. -1.
         11   -1    0    0    0    0 -0.00000000000E+00 -0.00000000000E+00 -0.45593999997E+02  0.45594000000E+02  0.51100000000E-03 0.  1.
    9900012    2    1    2    0    0 -0.21073709117E+02  0.19718895363E+02 -0.28639600942E+02  0.50528895332E+02  0.30000107851E+02 0.  0.
         12    1    1    2    0    0  0.21073709117E+02 -0.19718895363E+02  0.28639600942E+02  0.40659104668E+02  0.00000000000E+00 0. -1.
         11    1    3    3    0    0  0.25059076861E+01  0.39817705420E-01 -0.31448793276E+01  0.40213710383E+01  0.51100000000E-03 0. -1.
        -11    1    3    3    0    0 -0.26388641103E+02  0.97051877081E+01 -0.15477454274E+02  0.32095212085E+02  0.51100000000E-03 0.  1.
        -12    1    3    3    0    0  0.28090242993E+01  0.99738899492E+01 -0.10017267341E+02  0.14412312209E+02  0.00000000000E+00 0.  1.
</event>
<event>
 7    1  0.3054835E-011  0.5052886E+02  0.7816164E-02  0.1300439E+00
        -11   -1    0    0    0    0  0.00000000000E+00  0.00000000000E+00  0.45593999997E+02  0.45594000000E+02  0.51100000000E-03 0. -1.
         11   -1    0    0    0    0 -0.00000000000E+00 -0.00000000000E+00 -0.45593999997E+02  0.45594000000E+02  0.51100000000E-03 0.  1.
    9900012    2    1    2    0    0 -0.24799387966E+02  0.12170719813E+02 -0.29833361775E+02  0.50528861556E+02  0.30000005185E+02 0.  0.
         12    1    1    2    0    0  0.24799387966E+02 -0.12170719813E+02  0.29833361775E+02  0.40659138444E+02  0.00000000000E+00 0. -1.
         11    1    3    3    0    0 -0.12687607071E+02 -0.51786611362E+01 -0.50999347053E+01  0.14622012126E+02  0.51100000000E-03 0. -1.
        -11    1    3    3    0    0 -0.11948793780E+02  0.11864389817E+02 -0.25298958807E+02  0.30390372414E+02  0.51100000000E-03 0.  1.
         12    1    3    3    0    0 -0.16298711535E+00  0.54849911321E+01  0.56553173730E+00  0.55164770157E+01  0.00000000000E+00 0. -1.
</event>
<event>
 7    1  0.3054835E-011  0.5052886E+02  0.7816164E-02  0.1300439E+00
        -11   -1    0    0    0    0  0.00000000000E+00  0.00000000000E+00  0.45593999997E+02  0.45594000000E+02  0.51100000000E-03 0. -1.
         11   -1    0    0    0    0 -0.00000000000E+00 -0.00000000000E+00 -0.45593999997E+02  0.45594000000E+02  0.51100000000E-03 0.  1.
    9900012    2    1    2    0    0 -0.26623254215E+01 -0.37125482500E+02 -0.16363863275E+02  0.50528862665E+02  0.30000008557E+02 0.  0.
         12    1    1    2    0    0  0.26623254215E+01  0.37125482500E+02  0.16363863275E+02  0.40659137335E+02  0.00000000000E+00 0. -1.
         11    1    3    3    0    0 -0.10809923735E+02 -0.19887270778E+02 -0.18597965829E+02  0.29295773132E+02  0.51100000000E-03 0. -1.
        -11    1    3    3    0    0  0.36772398376E+01 -0.36458208915E+01 -0.30149948707E+01  0.59920194532E+01  0.51100000000E-03 0.  1.
         12    1    3    3    0    0  0.44703584757E+01 -0.13592390831E+02  0.52490974255E+01  0.15241070080E+02  0.00000000000E+00 0. -1.
</event>
<event>
 7    1  0.3054835E-011  0.5052886E+02  0.7816164E-02  0.1300439E+00
        -11   -1    0    0    0    0  0.00000000000E+00  0.00000000000E+00  0.45593999997E+02  0.45594000000E+02  0.51100000000E-03 0.  1.
         11   -1    0    0    0    0 -0.00000000000E+00 -0.00000000000E+00 -0.45593999997E+02  0.45594000000E+02  0.51100000000E-03 0. -1.
    9900012    2    1    2    0    0 -0.62509728491E+01  0.32177529777E+02  0.24056128059E+02  0.50528863495E+02  0.30000011079E+02 0.  0.
         12    1    1    2    0    0  0.62509728491E+01 -0.32177529777E+02 -0.24056128059E+02  0.40659136505E+02  0.00000000000E+00 0. -1.
         11    1    3    3    0    0 -0.44004007403E+01  0.61040945308E+00 -0.22739389791E+01  0.49906838326E+01  0.51100000000E-03 0. -1.
        -11    1    3    3    0    0 -0.46573945503E+01  0.25696101653E+02  0.28521966362E+02  0.38671482122E+02  0.51100000000E-03 0.  1.
         12    1    3    3    0    0  0.28068224414E+01  0.58710186717E+01 -0.21918993235E+01  0.68666975400E+01  0.00000000000E+00 0. -1.
</event>
<event>
 7    1  0.3054835E-011  0.5052884E+02  0.7816164E-02  0.1300439E+00
        -11   -1    0    0    0    0  0.00000000000E+00  0.00000000000E+00  0.45593999997E+02  0.45594000000E+02  0.51100000000E-03 0.  1.
         11   -1    0    0    0    0 -0.00000000000E+00 -0.00000000000E+00 -0.45593999997E+02  0.45594000000E+02  0.51100000000E-03 0. -1.
    9900012    2    1    2    0    0  0.16137648795E+02 -0.24453492231E+02  0.28191672496E+02  0.50528838806E+02  0.29999936035E+02 0.  0.
         12    1    1    2    0    0 -0.16137648795E+02  0.24453492231E+02 -0.28191672496E+02  0.40659161194E+02  0.00000000000E+00 0. -1.
         11    1    3    3    0    0  0.59402304153E+01 -0.14037375300E+02  0.12977350909E+02  0.20018638304E+02  0.51100000000E-03 0. -1.
        -11    1    3    3    0    0 -0.61297978566E+01 -0.89279933663E+00  0.83584633821E+01  0.10403625464E+02  0.51100000000E-03 0.  1.
        -12    1    3    3    0    0  0.16327216236E+02 -0.95233175943E+01  0.68558582046E+01  0.20106575038E+02  0.00000000000E+00 0.  1.
</event>
<event>
 7    1  0.3054835E-011  0.5052886E+02  0.7816164E-02  0.1300439E+00
        -11   -1    0    0    0    0  0.00000000000E+00  0.00000000000E+00  0.45593999997E+02  0.45594000000E+02  0.51100000000E-03 0.  1.
         11   -1    0    0    0    0 -0.00000000000E+00 -0.00000000000E+00 -0.45593999997E+02  0.45594000000E+02  0.51100000000E-03 0. -1.
    9900012    2    1    2    0    0  0.24007565379E+02 -0.66968085332E+01  0.32124064178E+02  0.50528856634E+02  0.29999990224E+02 0.  0.
         12    1    1    2    0    0 -0.24007565379E+02  0.66968085332E+01 -0.32124064178E+02  0.40659143366E+02  0.00000000000E+00 0. -1.
         11    1    3    3    0    0 -0.91264637739E+00  0.26981204890E+01 -0.12571628817E+01  0.31133962734E+01  0.51100000000E-03 0. -1.
        -11    1    3    3    0    0  0.22154369631E+02 -0.46062153315E+01  0.34978195765E+02  0.41659422616E+02  0.51100000000E-03 0.  1.
        -12    1    3    3    0    0  0.27658421254E+01 -0.47887136907E+01 -0.15969687054E+01  0.57560377448E+01  0.00000000000E+00 0.  1.
</event>
<event>
 7    1  0.3054835E-011  0.5052886E+02  0.7816164E-02  0.1300439E+00
        -11   -1    0    0    0    0  0.00000000000E+00  0.00000000000E+00  0.45593999997E+02  0.45594000000E+02  0.51100000000E-03 0.  1.
         11   -1    0    0    0    0 -0.00000000000E+00 -0.00000000000E+00 -0.45593999997E+02  0.45594000000E+02  0.51100000000E-03 0. -1.
    9900012    2    1    2    0    0  0.11518785987E+02 -0.31905451415E+02  0.22417079926E+02  0.50528859170E+02  0.29999997934E+02 0.  0.
         12    1    1    2    0    0 -0.11518785987E+02  0.31905451415E+02 -0.22417079926E+02  0.40659140830E+02  0.00000000000E+00 0. -1.
         11    1    3    3    0    0  0.26122649102E+01  0.37585377972E+01 -0.30825752818E+01  0.55184060165E+01  0.51100000000E-03 0. -1.
        -11    1    3    3    0    0  0.75067695126E+01 -0.22871564088E+02  0.14659185248E+02  0.28184246393E+02  0.51100000000E-03 0.  1.
         12    1    3    3    0    0  0.13997515639E+01 -0.12792425125E+02  0.10840469960E+02  0.16826206761E+02  0.00000000000E+00 0. -1.
</event>
<event>
 7    1  0.3054835E-011  0.5052886E+02  0.7816164E-02  0.1300439E+00
        -11   -1    0    0    0    0  0.00000000000E+00  0.00000000000E+00  0.45593999997E+02  0.45594000000E+02  0.51100000000E-03 0.  1.
         11   -1    0    0    0    0 -0.00000000000E+00 -0.00000000000E+00 -0.45593999997E+02  0.45594000000E+02  0.51100000000E-03 0. -1.
    9900012    2    1    2    0    0  0.19003051290E+02  0.34136774570E+02  0.11257469713E+02  0.50528856370E+02  0.29999989422E+02 0.  0.
         12    1    1    2    0    0 -0.19003051290E+02 -0.34136774570E+02 -0.11257469713E+02  0.40659143630E+02  0.00000000000E+00 0. -1.
         11    1    3    3    0    0 -0.39678936406E+00  0.10344949240E+02 -0.79460970653E+01  0.13050512457E+02  0.51100000000E-03 0. -1.
        -11    1    3    3    0    0  0.65069951249E+01  0.14452137385E+02  0.12580067302E+02  0.20235200867E+02  0.51100000000E-03 0.  1.
         12    1    3    3    0    0  0.12892845529E+02  0.93396879457E+01  0.66234994769E+01  0.17243143045E+02  0.00000000000E+00 0. -1.
</event>
<event>
 7    1  0.3054835E-011  0.5052885E+02  0.7816164E-02  0.1300439E+00
        -11   -1    0    0    0    0  0.00000000000E+00  0.00000000000E+00  0.45593999997E+02  0.45594000000E+02  0.51100000000E-03 0. -1.
         11   -1    0    0    0    0 -0.00000000000E+00 -0.00000000000E+00 -0.45593999997E+02  0.45594000000E+02  0.51100000000E-03 0.  1.
    9900012    2    1    2    0    0  0.31513836717E+01  0.31575150240E+02 -0.25421358717E+02  0.50528845917E+02  0.29999957649E+02 0.  0.
         12    1    1    2    0    0 -0.31513836717E+01 -0.31575150240E+02  0.25421358717E+02  0.40659154083E+02  0.00000000000E+00 0. -1.
         11    1    3    3    0    0  0.41577377247E+01 -0.14800607527E+01 -0.28336345462E+01  0.52446971145E+01  0.51100000000E-03 0. -1.
        -11    1    3    3    0    0 -0.10619770859E+01  0.31971675785E+02 -0.11272952016E+02  0.33917477725E+02  0.51100000000E-03 0.  1.
        -12    1    3    3    0    0  0.55623032877E-01  0.10835352083E+01 -0.11314772154E+02  0.11366671077E+02  0.00000000000E+00 0.  1.
</event>
<event>
 7    1  0.3054835E-011  0.5052886E+02  0.7816164E-02  0.1300439E+00
        -11   -1    0    0    0    0  0.00000000000E+00  0.00000000000E+00  0.45593999997E+02  0.45594000000E+02  0.51100000000E-03 0.  1.
         11   -1    0    0    0    0 -0.00000000000E+00 -0.00000000000E+00 -0.45593999997E+02  0.45594000000E+02  0.51100000000E-03 0. -1.
    9900012    2    1    2    0    0  0.34343455258E+02 -0.15234128735E+02  0.15543946319E+02  0.50528857553E+02  0.29999993017E+02 0.  0.
         12    1    1    2    0    0 -0.34343455258E+02  0.15234128735E+02 -0.15543946319E+02  0.40659142447E+02  0.00000000000E+00 0. -1.
         11    1    3    3    0    0 -0.46115013332E+01 -0.15277555398E+00  0.51245695824E+01  0.68956869551E+01  0.51100000000E-03 0. -1.
        -11    1    3    3    0    0  0.20176324267E+02 -0.68804818538E+01  0.88519063378E+01  0.23082056615E+02  0.51100000000E-03 0.  1.
         12    1    3    3    0    0  0.18778632324E+02 -0.82008713274E+01  0.15674703989E+01  0.20551113983E+02  0.00000000000E+00 0. -1.
</event>
<event>
 7    1  0.3054835E-011  0.5052886E+02  0.7816164E-02  0.1300439E+00
        -11   -1    0    0    0    0  0.00000000000E+00  0.00000000000E+00  0.45593999997E+02  0.45594000000E+02  0.51100000000E-03 0.  1.
         11   -1    0    0    0    0 -0.00000000000E+00 -0.00000000000E+00 -0.45593999997E+02  0.45594000000E+02  0.51100000000E-03 0. -1.
    9900012    2    1    2    0    0  0.10829806489E+02  0.22395445523E+02  0.32160920804E+02  0.50528861842E+02  0.30000006055E+02 0.  0.
         12    1    1    2    0    0 -0.10829806489E+02 -0.22395445523E+02 -0.32160920804E+02  0.40659138158E+02  0.00000000000E+00 0. -1.
         11    1    3    3    0    0  0.17520818441E+02  0.15860091119E+02  0.13785622987E+02  0.27359915398E+02  0.51100000000E-03 0. -1.
        -11    1    3    3    0    0 -0.10342235297E+01  0.67083332655E+01  0.15276819329E+02  0.16716834706E+02  0.51100000000E-03 0.  1.
         12    1    3    3    0    0 -0.56567884227E+01 -0.17297886085E+00  0.30984784877E+01  0.64521117384E+01  0.00000000000E+00 0. -1.
</event>
<event>
 7    1  0.3363507E-011  0.5052885E+02  0.7816164E-02  0.1300439E+00
        -11   -1    0    0    0    0  0.00000000000E+00  0.00000000000E+00  0.45593999997E+02  0.45594000000E+02  0.51100000000E-03 0.  1.
         11   -1    0    0    0    0 -0.00000000000E+00 -0.00000000000E+00 -0.45593999997E+02  0.45594000000E+02  0.51100000000E-03 0. -1.
    9900012    2    1    2    0    0  0.28341699105E+02  0.19969309011E+02  0.21240077418E+02  0.50528854666E+02  0.29999984243E+02 0.  0.
         12    1    1    2    0    0 -0.28341699105E+02 -0.19969309011E+02 -0.21240077418E+02  0.40659145334E+02  0.00000000000E+00 0. -1.
         11    1    3    3    0    0 -0.31668122916E+01  0.53761016763E+01 -0.25970682881E+01  0.67583972419E+01  0.51100000000E-03 0. -1.
        -11    1    3    3    0    0  0.14560160124E+02  0.49863586464E+01  0.17452673386E+02  0.23269246743E+02  0.51100000000E-03 0.  1.
        -12    1    3    3    0    0  0.16948351273E+02  0.96068486885E+01  0.63844723199E+01  0.20501210681E+02  0.00000000000E+00 0.  1.
</event>
<event>
 7    1  0.3054835E-011  0.5052886E+02  0.7816164E-02  0.1300439E+00
        -11   -1    0    0    0    0  0.00000000000E+00  0.00000000000E+00  0.45593999997E+02  0.45594000000E+02  0.51100000000E-03 0.  1.
         11   -1    0    0    0    0 -0.00000000000E+00 -0.00000000000E+00 -0.45593999997E+02  0.45594000000E+02  0.51100000000E-03 0. -1.
    9900012    2    1    2    0    0 -0.37053200496E+02 -0.10804302986E+01  0.16705053963E+02  0.50528858045E+02  0.29999994513E+02 0.  0.
         12    1    1    2    0    0  0.37053200496E+02  0.10804302986E+01 -0.16705053963E+02  0.40659141955E+02  0.00000000000E+00 0. -1.
         11    1    3    3    0    0  0.31177125742E+01  0.42062259776E+01  0.20380501895E+01  0.56183732082E+01  0.51100000000E-03 0. -1.
        -11    1    3    3    0    0 -0.28748352510E+02 -0.74694820056E+01  0.57458587321E+01  0.30253525849E+02  0.51100000000E-03 0.  1.
         12    1    3    3    0    0 -0.11422560560E+02  0.21828257294E+01  0.89211450417E+01  0.14656958988E+02  0.00000000000E+00 0. -1.
</event>
<event>
 7    1  0.3054835E-011  0.5052886E+02  0.7816164E-02  0.1300439E+00
        -11   -1    0    0    0    0  0.00000000000E+00  0.00000000000E+00  0.45593999997E+02  0.45594000000E+02  0.51100000000E-03 0.  1.
         11   -1    0    0    0    0 -0.00000000000E+00 -0.00000000000E+00 -0.45593999997E+02  0.45594000000E+02  0.51100000000E-03 0. -1.
    9900012    2    1    2    0    0  0.31628496911E+02 -0.16572592559E+02  0.19446147766E+02  0.50528864447E+02  0.30000013974E+02 0.  0.
         12    1    1    2    0    0 -0.31628496911E+02  0.16572592559E+02 -0.19446147766E+02  0.40659135553E+02  0.00000000000E+00 0. -1.
         11    1    3    3    0    0 -0.25071627695E+01 -0.27321228263E+01  0.10557040539E+02  0.11189346071E+02  0.51100000000E-03 0. -1.
        -11    1    3    3    0    0  0.24118258348E+02 -0.13571835035E+02  0.96023208086E+01  0.29293167413E+02  0.51100000000E-03 0.  1.
         12    1    3    3    0    0  0.10017401333E+02 -0.26863469788E+00 -0.71321358184E+00  0.10046350963E+02  0.00000000000E+00 0. -1.
</event>
<event>
 7    1  0.3054835E-011  0.5052884E+02  0.7816164E-02  0.1300439E+00
        -11   -1    0    0    0    0  0.00000000000E+00  0.00000000000E+00  0.45593999997E+02  0.45594000000E+02  0.51100000000E-03 0.  1.
         11   -1    0    0    0    0 -0.00000000000E+00 -0.00000000000E+00 -0.45593999997E+02  0.45594000000E+02  0.51100000000E-03 0. -1.
    9900012    2    1    2    0    0  0.36924063937E+02 -0.18141646687E+01  0.16926008510E+02  0.50528837992E+02  0.29999933561E+02 0.  0.
         12    1    1    2    0    0 -0.36924063937E+02  0.18141646687E+01 -0.16926008510E+02  0.40659162008E+02  0.00000000000E+00 0. -1.
         11    1    3    3    0    0  0.47193102971E+01 -0.11929673353E+02  0.61871383167E+01  0.14243232667E+02  0.51100000000E-03 0. -1.
        -11    1    3    3    0    0  0.50435036086E+01  0.66272732996E+00  0.46436470721E+01  0.68876407104E+01  0.51100000000E-03 0.  1.
         12    1    3    3    0    0  0.27161250032E+02  0.94527813541E+01  0.60952231213E+01  0.29397964615E+02  0.00000000000E+00 0. -1.
</event>
<event>
 7    1  0.3054835E-011  0.5052889E+02  0.7816164E-02  0.1300439E+00
        -11   -1    0    0    0    0  0.00000000000E+00  0.00000000000E+00  0.45593999997E+02  0.45594000000E+02  0.51100000000E-03 0.  1.
         11   -1    0    0    0    0 -0.00000000000E+00 -0.00000000000E+00 -0.45593999997E+02  0.45594000000E+02  0.51100000000E-03 0. -1.
    9900012    2    1    2    0    0  0.29744209224E+02 -0.25796824398E+02 -0.10147373071E+02  0.50528888946E+02  0.30000088441E+02 0.  0.
         12    1    1    2    0    0 -0.29744209224E+02  0.25796824398E+02  0.10147373071E+02  0.40659111054E+02  0.00000000000E+00 0. -1.
         11    1    3    3    0    0  0.35692939691E+01 -0.19068932768E+02 -0.64830999395E+01  0.20454697295E+02  0.51100000000E-03 0. -1.
        -11    1    3    3    0    0  0.16880296738E+02 -0.99343119448E+01 -0.48295431302E+01  0.20173236203E+02  0.51100000000E-03 0.  1.
         12    1    3    3    0    0  0.92946185174E+01  0.32064203147E+01  0.11652699986E+01  0.99009554483E+01  0.00000000000E+00 0. -1.
</event>
<event>
 7    1  0.3054835E-011  0.5052886E+02  0.7816164E-02  0.1300439E+00
        -11   -1    0    0    0    0  0.00000000000E+00  0.00000000000E+00  0.45593999997E+02  0.45594000000E+02  0.51100000000E-03 0. -1.
         11   -1    0    0    0    0 -0.00000000000E+00 -0.00000000000E+00 -0.45593999997E+02  0.45594000000E+02  0.51100000000E-03 0.  1.
    9900012    2    1    2    0    0  0.31257316887E+02 -0.22546697257E+02 -0.12953457725E+02  0.50528862242E+02  0.30000007271E+02 0.  0.
         12    1    1    2    0    0 -0.31257316887E+02  0.22546697257E+02  0.12953457725E+02  0.40659137758E+02  0.00000000000E+00 0. -1.
         11    1    3    3    0    0  0.12592442024E+02 -0.14169715467E+02  0.89368138573E+00  0.18977594664E+02  0.51100000000E-03 0. -1.
        -11    1    3    3    0    0  0.14913882636E+02 -0.24043651416E+01 -0.17895548239E+02  0.23419127098E+02  0.51100000000E-03 0.  1.
         12    1    3    3    0    0  0.37509922271E+01 -0.59726166487E+01  0.40484091282E+01  0.81321404802E+01  0.00000000000E+00 0. -1.
</event>
<event>
 7    1  0.3054835E-011  0.5052892E+02  0.7816164E-02  0.1300439E+00
        -11   -1    0    0    0    0  0.00000000000E+00  0.00000000000E+00  0.45593999997E+02  0.45594000000E+02  0.51100000000E-03 0.  1.
         11   -1    0    0    0    0 -0.00000000000E+00 -0.00000000000E+00 -0.45593999997E+02  0.45594000000E+02  0.51100000000E-03 0. -1.
    9900012    2    1    2    0    0 -0.34211700366E+02 -0.19084078364E+02  0.10886609668E+02  0.50528920337E+02  0.30000183857E+02 0.  0.
         12    1    1    2    0    0  0.34211700366E+02  0.19084078364E+02 -0.10886609668E+02  0.40659079663E+02  0.00000000000E+00 0. -1.
         11    1    3    3    0    0  0.69065664010E+00  0.35325154628E+01 -0.29842406104E+01  0.46756137962E+01  0.51100000000E-03 0. -1.
        -11    1    3    3    0    0 -0.12429154920E+02 -0.75986850539E+01  0.11795360678E+02  0.18744450922E+02  0.51100000000E-03 0.  1.
         12    1    3    3    0    0 -0.22473202086E+02 -0.15017908773E+02  0.20754896002E+01  0.27108855619E+02  0.00000000000E+00 0. -1.
</event>
<event>
 7    1  0.3054835E-011  0.5052885E+02  0.7816164E-02  0.1300439E+00
        -11   -1    0    0    0    0  0.00000000000E+00  0.00000000000E+00  0.45593999997E+02  0.45594000000E+02  0.51100000000E-03 0. -1.
         11   -1    0    0    0    0 -0.00000000000E+00 -0.00000000000E+00 -0.45593999997E+02  0.45594000000E+02  0.51100000000E-03 0.  1.
    9900012    2    1    2    0    0  0.20163518674E+02  0.32606158234E+02 -0.13543908211E+02  0.50528849865E+02  0.29999969649E+02 0.  0.
         12    1    1    2    0    0 -0.20163518674E+02 -0.32606158234E+02  0.13543908211E+02  0.40659150135E+02  0.00000000000E+00 0. -1.
         11    1    3    3    0    0  0.18237029370E+02  0.20486489642E+02  0.25633542999E+00  0.27429021240E+02  0.51100000000E-03 0. -1.
        -11    1    3    3    0    0 -0.31338473107E+01  0.11841298522E+02 -0.56195797627E+01  0.13476536151E+02  0.51100000000E-03 0.  1.
        -12    1    3    3    0    0  0.50603366151E+01  0.27837006994E+00 -0.81806638781E+01  0.96232924740E+01  0.00000000000E+00 0.  1.
</event>
<event>
 7    1  0.3054835E-011  0.5052886E+02  0.7816164E-02  0.1300439E+00
        -11   -1    0    0    0    0  0.00000000000E+00  0.00000000000E+00  0.45593999997E+02  0.45594000000E+02  0.51100000000E-03 0.  1.
         11   -1    0    0    0    0 -0.00000000000E+00 -0.00000000000E+00 -0.45593999997E+02  0.45594000000E+02  0.51100000000E-03 0. -1.
    9900012    2    1    2    0    0 -0.78475461499E+01  0.21356161536E+02  0.33697122959E+02  0.50528859431E+02  0.29999998725E+02 0.  0.
         12    1    1    2    0    0  0.78475461499E+01 -0.21356161536E+02 -0.33697122959E+02  0.40659140569E+02  0.00000000000E+00 0. -1.
         11    1    3    3    0    0  0.37480511345E+01  0.39129294242E+01 -0.28358943753E+01  0.61156521447E+01  0.51100000000E-03 0. -1.
        -11    1    3    3    0    0 -0.44504118641E+01 -0.97398998245E-01  0.15420250489E+02  0.16049915194E+02  0.51100000000E-03 0.  1.
        -12    1    3    3    0    0 -0.71451854204E+01  0.17540631110E+02  0.21112766845E+02  0.28363292092E+02  0.00000000000E+00 0.  1.
</event>
<event>
 7    1  0.3054835E-011  0.5052886E+02  0.7816164E-02  0.1300439E+00
        -11   -1    0    0    0    0  0.00000000000E+00  0.00000000000E+00  0.45593999997E+02  0.45594000000E+02  0.51100000000E-03 0.  1.
         11   -1    0    0    0    0 -0.00000000000E+00 -0.00000000000E+00 -0.45593999997E+02  0.45594000000E+02  0.51100000000E-03 0. -1.
    9900012    2    1    2    0    0 -0.85072598437E+01 -0.10643518583E+02  0.38308061613E+02  0.50528861514E+02  0.30000005059E+02 0.  0.
         12    1    1    2    0    0  0.85072598437E+01  0.10643518583E+02 -0.38308061613E+02  0.40659138486E+02  0.00000000000E+00 0. -1.
         11    1    3    3    0    0 -0.23526305576E+01  0.36789016761E+01  0.13234744139E+01  0.45629785084E+01  0.51100000000E-03 0. -1.
        -11    1    3    3    0    0 -0.45841977255E+01 -0.75529215650E+01  0.37936463408E+02  0.38951723314E+02  0.51100000000E-03 0.  1.
        -12    1    3    3    0    0 -0.15704315605E+01 -0.67694986944E+01 -0.95187620958E+00  0.70141596916E+01  0.00000000000E+00 0.  1.
</event>
<event>
 7    1  0.3054835E-011  0.5052886E+02  0.7816164E-02  0.1300439E+00
        -11   -1    0    0    0    0  0.00000000000E+00  0.00000000000E+00  0.45593999997E+02  0.45594000000E+02  0.51100000000E-03 0.  1.
         11   -1    0    0    0    0 -0.00000000000E+00 -0.00000000000E+00 -0.45593999997E+02  0.45594000000E+02  0.51100000000E-03 0. -1.
    9900012    2    1    2    0    0 -0.85806116686E+01  0.27040929358E+02  0.29126052722E+02  0.50528859523E+02  0.29999999007E+02 0.  0.
         12    1    1    2    0    0  0.85806116686E+01 -0.27040929358E+02 -0.29126052722E+02  0.40659140477E+02  0.00000000000E+00 0. -1.
         11    1    3    3    0    0 -0.10803495347E+02 -0.20225323461E+01  0.75516813473E+01  0.13335443008E+02  0.51100000000E-03 0. -1.
        -11    1    3    3    0    0  0.17252085627E+01  0.29317516566E+02  0.20023122560E+02  0.35544599582E+02  0.51100000000E-03 0.  1.
         12    1    3    3    0    0  0.49767511538E+00 -0.25405486152E+00  0.15512488145E+01  0.16488169327E+01  0.00000000000E+00 0. -1.
</event>
<event>
 7    1  0.3054835E-011  0.5052888E+02  0.7816164E-02  0.1300439E+00
        -11   -1    0    0    0    0  0.00000000000E+00  0.00000000000E+00  0.45593999997E+02  0.45594000000E+02  0.51100000000E-03 0. -1.
         11   -1    0    0    0    0 -0.00000000000E+00 -0.00000000000E+00 -0.45593999997E+02  0.45594000000E+02  0.51100000000E-03 0.  1.
    9900012    2    1    2    0    0 -0.36103872407E+02  0.61874125846E+01 -0.17646266663E+02  0.50528875508E+02  0.30000047594E+02 0.  0.
         12    1    1    2    0    0  0.36103872407E+02 -0.61874125846E+01  0.17646266663E+02  0.40659124492E+02  0.00000000000E+00 0. -1.
         11    1    3    3    0    0 -0.19744029109E+02 -0.33993510363E+01 -0.17686125013E+02  0.26724170542E+02  0.51100000000E-03 0.  1.
        -11    1    3    3    0    0 -0.19940943835E+01  0.63811477149E+01 -0.48889391442E+01  0.82823417453E+01  0.51100000000E-03 0. -1.
         12    1    3    3    0    0 -0.14365748915E+02  0.32056159060E+01  0.49287974938E+01  0.15522363221E+02  0.00000000000E+00 0. -1.
</event>
<event>
 7    1  0.3054835E-011  0.5052884E+02  0.7816164E-02  0.1300439E+00
        -11   -1    0    0    0    0  0.00000000000E+00  0.00000000000E+00  0.45593999997E+02  0.45594000000E+02  0.51100000000E-03 0. -1.
         11   -1    0    0    0    0 -0.00000000000E+00 -0.00000000000E+00 -0.45593999997E+02  0.45594000000E+02  0.51100000000E-03 0.  1.
    9900012    2    1    2    0    0 -0.40132305040E+02 -0.43288055975E+01  0.48812370715E+01  0.50528844314E+02  0.29999952777E+02 0.  0.
         12    1    1    2    0    0  0.40132305040E+02  0.43288055975E+01 -0.48812370715E+01  0.40659155686E+02  0.00000000000E+00 0. -1.
         11    1    3    3    0    0 -0.34297871979E+00 -0.19389056196E+01  0.12543593162E+01  0.23346106654E+01  0.51100000000E-03 0. -1.
        -11    1    3    3    0    0 -0.38084401419E+02  0.59253533288E+01  0.67893614562E+01  0.39136004813E+02  0.51100000000E-03 0.  1.
        -12    1    3    3    0    0 -0.17049249017E+01 -0.83152533067E+01 -0.31624837008E+01  0.90582288353E+01  0.00000000000E+00 0.  1.
</event>
<event>
 7    1  0.3054835E-011  0.5052886E+02  0.7816164E-02  0.1300439E+00
        -11   -1    0    0    0    0  0.00000000000E+00  0.00000000000E+00  0.45593999997E+02  0.45594000000E+02  0.51100000000E-03 0. -1.
         11   -1    0    0    0    0 -0.00000000000E+00 -0.00000000000E+00 -0.45593999997E+02  0.45594000000E+02  0.51100000000E-03 0.  1.
    9900012    2    1    2    0    0 -0.36809385637E+02  0.15365065608E+02 -0.78834771851E+01  0.50528864192E+02  0.30000013198E+02 0.  0.
         12    1    1    2    0    0  0.36809385637E+02 -0.15365065608E+02  0.78834771851E+01  0.40659135808E+02  0.00000000000E+00 0. -1.
         11    1    3    3    0    0  0.16561399108E+01  0.48618292643E+01 -0.60366920905E+01  0.79260226379E+01  0.51100000000E-03 0. -1.
        -11    1    3    3    0    0 -0.32862417618E+02  0.14253542172E+02 -0.15448414803E+01  0.35853709593E+02  0.51100000000E-03 0.  1.
         12    1    3    3    0    0 -0.56031079298E+01 -0.37503058279E+01 -0.30194361427E+00  0.67491319606E+01  0.00000000000E+00 0. -1.
</event>
<event>
 7    1  0.3054835E-011  0.5052887E+02  0.7816164E-02  0.1300439E+00
        -11   -1    0    0    0    0  0.00000000000E+00  0.00000000000E+00  0.45593999997E+02  0.45594000000E+02  0.51100000000E-03 0.  1.
         11   -1    0    0    0    0 -0.00000000000E+00 -0.00000000000E+00 -0.45593999997E+02  0.45594000000E+02  0.51100000000E-03 0. -1.
    9900012    2    1    2    0    0 -0.27878321742E+02 -0.10590428283E+01  0.29577737124E+02  0.50528869067E+02  0.30000028016E+02 0.  0.
         12    1    1    2    0    0  0.27878321742E+02  0.10590428283E+01 -0.29577737124E+02  0.40659130933E+02  0.00000000000E+00 0. -1.
         11    1    3    3    0    0 -0.17943464915E+02  0.12086210806E+02  0.23228003687E+02  0.31742472814E+02  0.51100000000E-03 0. -1.
        -11    1    3    3    0    0 -0.73965229132E+01 -0.10219209429E+02  0.75859468289E+01  0.14720305096E+02  0.51100000000E-03 0.  1.
         12    1    3    3    0    0 -0.25383339134E+01 -0.29260442060E+01 -0.12362133913E+01  0.40660911573E+01  0.00000000000E+00 0. -1.
</event>
<event>
 7    1  0.3054835E-011  0.5052887E+02  0.7816164E-02  0.1300439E+00
        -11   -1    0    0    0    0  0.00000000000E+00  0.00000000000E+00  0.45593999997E+02  0.45594000000E+02  0.51100000000E-03 0.  1.
         11   -1    0    0    0    0 -0.00000000000E+00 -0.00000000000E+00 -0.45593999997E+02  0.45594000000E+02  0.51100000000E-03 0. -1.
    9900012    2    1    2    0    0  0.36662119793E+02  0.80228617468E+01 -0.15642484120E+02  0.50528872516E+02  0.30000038500E+02 0.  0.
         12    1    1    2    0    0 -0.36662119793E+02 -0.80228617468E+01  0.15642484120E+02  0.40659127484E+02  0.00000000000E+00 0. -1.
         11    1    3    3    0    0 -0.68916519178E+00  0.74437718994E+01 -0.43843675547E+01  0.86664507076E+01  0.51100000000E-03 0. -1.
        -11    1    3    3    0    0  0.15899060455E+02 -0.72591439752E+01 -0.51329433850E+01  0.18215993046E+02  0.51100000000E-03 0.  1.
         12    1    3    3    0    0  0.21452224530E+02  0.78382338226E+01 -0.61251731799E+01  0.23646428763E+02  0.00000000000E+00 0. -1.
</event>
<event>
 7    1  0.3054835E-011  0.5052889E+02  0.7816164E-02  0.1300439E+00
        -11   -1    0    0    0    0  0.00000000000E+00  0.00000000000E+00  0.45593999997E+02  0.45594000000E+02  0.51100000000E-03 0. -1.
         11   -1    0    0    0    0 -0.00000000000E+00 -0.00000000000E+00 -0.45593999997E+02  0.45594000000E+02  0.51100000000E-03 0.  1.
    9900012    2    1    2    0    0 -0.17346096922E+02 -0.36025276588E+02 -0.73794238105E+01  0.50528886293E+02  0.30000080376E+02 0.  0.
         12    1    1    2    0    0  0.17346096922E+02  0.36025276588E+02  0.73794238105E+01  0.40659113707E+02  0.00000000000E+00 0. -1.
         11    1    3    3    0    0 -0.21826569677E+00 -0.42095483530E+00 -0.20323034445E+01  0.20868877400E+01  0.51100000000E-03 0. -1.
        -11    1    3    3    0    0 -0.54731081900E+01 -0.17331621561E+01  0.83153689408E+01  0.10104658589E+02  0.51100000000E-03 0.  1.
        -12    1    3    3    0    0 -0.11654723035E+02 -0.33871159597E+02 -0.13662489307E+02  0.38337339964E+02  0.00000000000E+00 0.  1.
</event>
<event>
 7    1  0.3054835E-011  0.5052886E+02  0.7816164E-02  0.1300439E+00
        -11   -1    0    0    0    0  0.00000000000E+00  0.00000000000E+00  0.45593999997E+02  0.45594000000E+02  0.51100000000E-03 0.  1.
         11   -1    0    0    0    0 -0.00000000000E+00 -0.00000000000E+00 -0.45593999997E+02  0.45594000000E+02  0.51100000000E-03 0. -1.
    9900012    2    1    2    0    0  0.22272679836E+02  0.33784552508E+02 -0.39619847878E+01  0.50528861067E+02  0.30000003701E+02 0.  0.
         12    1    1    2    0    0 -0.22272679836E+02 -0.33784552508E+02  0.39619847878E+01  0.40659138933E+02  0.00000000000E+00 0. -1.
         11    1    3    3    0    0  0.19228198633E+02  0.76213021450E+01  0.18292830521E-01  0.20683524940E+02  0.51100000000E-03 0. -1.
        -11    1    3    3    0    0 -0.49649849767E+01  0.14265492398E+02 -0.63668368928E+00  0.15118224616E+02  0.51100000000E-03 0.  1.
        -12    1    3    3    0    0  0.80094661796E+01  0.11897757966E+02 -0.33435939290E+01  0.14727111511E+02  0.00000000000E+00 0.  1.
</event>
<event>
 7    1  0.3054835E-011  0.5052887E+02  0.7816164E-02  0.1300439E+00
        -11   -1    0    0    0    0  0.00000000000E+00  0.00000000000E+00  0.45593999997E+02  0.45594000000E+02  0.51100000000E-03 0. -1.
         11   -1    0    0    0    0 -0.00000000000E+00 -0.00000000000E+00 -0.45593999997E+02  0.45594000000E+02  0.51100000000E-03 0.  1.
    9900012    2    1    2    0    0 -0.25718725691E+02 -0.23973187117E+02 -0.20420534075E+02  0.50528871091E+02  0.30000034170E+02 0.  0.
         12    1    1    2    0    0  0.25718725691E+02  0.23973187117E+02  0.20420534075E+02  0.40659128909E+02  0.00000000000E+00 0. -1.
         11    1    3    3    0    0 -0.24405084467E+02 -0.22680254212E+02 -0.17664157321E+02  0.37709740560E+02  0.51100000000E-03 0. -1.
        -11    1    3    3    0    0  0.47872276295E+00  0.22889404974E+01 -0.67617718004E+01  0.71547174805E+01  0.51100000000E-03 0.  1.
         12    1    3    3    0    0 -0.17923639876E+01 -0.35818734016E+01  0.40053950471E+01  0.56644130510E+01  0.00000000000E+00 0. -1.
</event>
<event>
 7    1  0.3054835E-011  0.5052886E+02  0.7816164E-02  0.1300439E+00
        -11   -1    0    0    0    0  0.00000000000E+00  0.00000000000E+00  0.45593999997E+02  0.45594000000E+02  0.51100000000E-03 0.  1.
         11   -1    0    0    0    0 -0.00000000000E+00 -0.00000000000E+00 -0.45593999997E+02  0.45594000000E+02  0.51100000000E-03 0. -1.
    9900012    2    1    2    0    0 -0.11104430794E+02 -0.29189836846E+02  0.26034799676E+02  0.50528858931E+02  0.29999997206E+02 0.  0.
         12    1    1    2    0    0  0.11104430794E+02  0.29189836846E+02 -0.26034799676E+02  0.40659141069E+02  0.00000000000E+00 0. -1.
         11    1    3    3    0    0  0.47612702078E+00  0.10733729235E+01  0.52647523355E+01  0.53941119555E+01  0.51100000000E-03 0. -1.
        -11    1    3    3    0    0 -0.34839450146E+01 -0.20567100060E+02  0.41150238014E-01  0.20860133541E+02  0.51100000000E-03 0.  1.
        -12    1    3    3    0    0 -0.80966127998E+01 -0.96961097097E+01  0.20728897102E+02  0.24274613435E+02  0.00000000000E+00 0.  1.
</event>
<event>
 7    1  0.3054835E-011  0.5052887E+02  0.7816164E-02  0.1300439E+00
        -11   -1    0    0    0    0  0.00000000000E+00  0.00000000000E+00  0.45593999997E+02  0.45594000000E+02  0.51100000000E-03 0. -1.
         11   -1    0    0    0    0 -0.00000000000E+00 -0.00000000000E+00 -0.45593999997E+02  0.45594000000E+02  0.51100000000E-03 0.  1.
    9900012    2    1    2    0    0 -0.10012223667E+02  0.19527723207E+02 -0.34228467686E+02  0.50528873146E+02  0.30000040413E+02 0.  0.
         12    1    1    2    0    0  0.10012223667E+02 -0.19527723207E+02  0.34228467686E+02  0.40659126854E+02  0.00000000000E+00 0. -1.
         11    1    3    3    0    0  0.63707870979E+00 -0.23971985699E+01  0.33419190249E+01  0.41618329251E+01  0.51100000000E-03 0. -1.
        -11    1    3    3    0    0 -0.10929818820E+02  0.21385302921E+02 -0.28472423150E+02  0.37248771802E+02  0.51100000000E-03 0.  1.
         12    1    3    3    0    0  0.28051644336E+00  0.53961885575E+00 -0.90979635617E+01  0.91182684186E+01  0.00000000000E+00 0. -1.
</event>
<event>
 7    1  0.3054835E-011  0.5052891E+02  0.7816164E-02  0.1300439E+00
        -11   -1    0    0    0    0  0.00000000000E+00  0.00000000000E+00  0.45593999997E+02  0.45594000000E+02  0.51100000000E-03 0.  1.
         11   -1    0    0    0    0 -0.00000000000E+00 -0.00000000000E+00 -0.45593999997E+02  0.45594000000E+02  0.51100000000E-03 0. -1.
    9900012    2    1    2    0    0  0.21007530969E+02 -0.15466607415E+02  0.31187008966E+02  0.50528907160E+02  0.30000143802E+02 0.  0.
         12    1    1    2    0    0 -0.21007530969E+02  0.15466607415E+02 -0.31187008966E+02  0.40659092840E+02  0.00000000000E+00 0. -1.
         11    1    3    3    0    0  0.32224215626E+01 -0.11980802112E+02  0.58499303727E+01  0.13716606927E+02  0.51100000000E-03 0. -1.
        -11    1    3    3    0    0  0.11711584758E+01  0.37629001764E+01  0.15890746768E+02  0.16372136789E+02  0.51100000000E-03 0.  1.
        -12    1    3    3    0    0  0.16613950931E+02 -0.72487054795E+01  0.94463318250E+01  0.20440163444E+02  0.00000000000E+00 0.  1.
</event>
<event>
 7    1  0.3054835E-011  0.5052883E+02  0.7816164E-02  0.1300439E+00
        -11   -1    0    0    0    0  0.00000000000E+00  0.00000000000E+00  0.45593999997E+02  0.45594000000E+02  0.51100000000E-03 0.  1.
         11   -1    0    0    0    0 -0.00000000000E+00 -0.00000000000E+00 -0.45593999997E+02  0.45594000000E+02  0.51100000000E-03 0. -1.
    9900012    2    1    2    0    0 -0.61764029115E+01 -0.25967886123E+01  0.40103323401E+02  0.50528833606E+02  0.29999920229E+02 0.  0.
         12    1    1    2    0    0  0.61764029115E+01  0.25967886123E+01 -0.40103323401E+02  0.40659166394E+02  0.00000000000E+00 0. -1.
         11    1    3    3    0    0  0.10367010576E+02 -0.69197981276E+01  0.17551201745E+02  0.21526801838E+02  0.51100000000E-03 0. -1.
        -11    1    3    3    0    0 -0.11283768596E+02  0.46314203466E+01  0.19234424580E+02  0.22775789280E+02  0.51100000000E-03 0.  1.
         12    1    3    3    0    0 -0.52596448918E+01 -0.30841083132E+00  0.33176970759E+01  0.62262424877E+01  0.00000000000E+00 0. -1.
</event>
<event>
 7    1  0.3054835E-011  0.5052886E+02  0.7816164E-02  0.1300439E+00
        -11   -1    0    0    0    0  0.00000000000E+00  0.00000000000E+00  0.45593999997E+02  0.45594000000E+02  0.51100000000E-03 0.  1.
         11   -1    0    0    0    0 -0.00000000000E+00 -0.00000000000E+00 -0.45593999997E+02  0.45594000000E+02  0.51100000000E-03 0. -1.
    9900012    2    1    2    0    0  0.54886856005E+01 -0.14557765670E+02  0.37564764071E+02  0.50528859446E+02  0.29999998772E+02 0.  0.
         12    1    1    2    0    0 -0.54886856005E+01  0.14557765670E+02 -0.37564764071E+02  0.40659140554E+02  0.00000000000E+00 0. -1.
         11    1    3    3    0    0  0.23222404387E+01  0.14822853749E+01 -0.14857476290E+01  0.31300825653E+01  0.51100000000E-03 0. -1.
        -11    1    3    3    0    0 -0.21910419987E+01 -0.14632284546E+02  0.39156377996E+02  0.41858408403E+02  0.51100000000E-03 0.  1.
        -12    1    3    3    0    0  0.53574871605E+01 -0.14077664983E+01 -0.10586629583E+00  0.55403684770E+01  0.00000000000E+00 0.  1.
</event>
<event>
 7    1  0.3054835E-011  0.5052887E+02  0.7816164E-02  0.1300439E+00
        -11   -1    0    0    0    0  0.00000000000E+00  0.00000000000E+00  0.45593999997E+02  0.45594000000E+02  0.51100000000E-03 0.  1.
         11   -1    0    0    0    0 -0.00000000000E+00 -0.00000000000E+00 -0.45593999997E+02  0.45594000000E+02  0.51100000000E-03 0. -1.
    9900012    2    1    2    0    0 -0.39698755212E+02 -0.71180308500E+01 -0.51485268042E+01  0.50528869945E+02  0.30000030685E+02 0.  0.
         12    1    1    2    0    0  0.39698755212E+02  0.71180308500E+01  0.51485268042E+01  0.40659130055E+02  0.00000000000E+00 0. -1.
         11    1    3    3    0    0 -0.75098675691E+01  0.99953127140E+01  0.19913512932E+01  0.12659773592E+02  0.51100000000E-03 0. -1.
        -11    1    3    3    0    0 -0.10979360341E+02 -0.30075542238E+01  0.11417684279E+00  0.11384409186E+02  0.51100000000E-03 0.  1.
         12    1    3    3    0    0 -0.21209527302E+02 -0.14105789340E+02 -0.72540549401E+01  0.26484687168E+02  0.00000000000E+00 0. -1.
</event>
<event>
 7    1  0.3054835E-011  0.5052887E+02  0.7816164E-02  0.1300439E+00
        -11   -1    0    0    0    0  0.00000000000E+00  0.00000000000E+00  0.45593999997E+02  0.45594000000E+02  0.51100000000E-03 0. -1.
         11   -1    0    0    0    0 -0.00000000000E+00 -0.00000000000E+00 -0.45593999997E+02  0.45594000000E+02  0.51100000000E-03 0.  1.
    9900012    2    1    2    0    0  0.34272034535E+02 -0.20631851142E+02  0.72745751744E+01  0.50528867242E+02  0.30000022468E+02 0.  0.
         12    1    1    2    0    0 -0.34272034535E+02  0.20631851142E+02 -0.72745751744E+01  0.40659132758E+02  0.00000000000E+00 0. -1.
         11    1    3    3    0    0 -0.31216023448E+01  0.10553582124E+01  0.21611976048E+01  0.39406798276E+01  0.51100000000E-03 0. -1.
        -11    1    3    3    0    0  0.33673028873E+02 -0.20484174766E+02 -0.88936471940E+00  0.39424171002E+02  0.51100000000E-03 0.  1.
         12    1    3    3    0    0  0.37206080063E+01 -0.12030345880E+01  0.60027422891E+01  0.71640164116E+01  0.00000000000E+00 0. -1.
</event>
<event>
 7    1  0.3054835E-011  0.5052886E+02  0.7816164E-02  0.1300439E+00
        -11   -1    0    0    0    0  0.00000000000E+00  0.00000000000E+00  0.45593999997E+02  0.45594000000E+02  0.51100000000E-03 0.  1.
         11   -1    0    0    0    0 -0.00000000000E+00 -0.00000000000E+00 -0.45593999997E+02  0.45594000000E+02  0.51100000000E-03 0. -1.
    9900012    2    1    2    0    0  0.35822148485E+01  0.31357218021E+01  0.40379462453E+02  0.50528855857E+02  0.29999987863E+02 0.  0.
         12    1    1    2    0    0 -0.35822148485E+01 -0.31357218021E+01 -0.40379462453E+02  0.40659144143E+02  0.00000000000E+00 0. -1.
         11    1    3    3    0    0 -0.29294171121E+01 -0.15539772479E+01 -0.99653931016E+00  0.34625742969E+01  0.51100000000E-03 0. -1.
        -11    1    3    3    0    0  0.25974165608E+01  0.12648437256E+02  0.18768462365E+02  0.22781236086E+02  0.51100000000E-03 0.  1.
        -12    1    3    3    0    0  0.39142153998E+01 -0.79587382057E+01  0.22607539398E+02  0.24285045474E+02  0.00000000000E+00 0.  1.
</event>
<event>
 7    1  0.3054835E-011  0.5052887E+02  0.7816164E-02  0.1300439E+00
        -11   -1    0    0    0    0  0.00000000000E+00  0.00000000000E+00  0.45593999997E+02  0.45594000000E+02  0.51100000000E-03 0.  1.
         11   -1    0    0    0    0 -0.00000000000E+00 -0.00000000000E+00 -0.45593999997E+02  0.45594000000E+02  0.51100000000E-03 0. -1.
    9900012    2    1    2    0    0 -0.17721064741E+02 -0.28027457237E+02  0.23528507285E+02  0.50528866343E+02  0.30000019736E+02 0.  0.
         12    1    1    2    0    0  0.17721064741E+02  0.28027457237E+02 -0.23528507285E+02  0.40659133657E+02  0.00000000000E+00 0. -1.
         11    1    3    3    0    0 -0.55250312635E+00 -0.33319834554E+00  0.16481183486E+02  0.16493807632E+02  0.51100000000E-03 0. -1.
        -11    1    3    3    0    0 -0.60603845499E+01 -0.44258386005E+01  0.19224168718E+01  0.77467409342E+01  0.51100000000E-03 0.  1.
         12    1    3    3    0    0 -0.11108177064E+02 -0.23268420291E+02  0.51249069267E+01  0.26288317777E+02  0.00000000000E+00 0. -1.
</event>
<event>
 7    1  0.3054835E-011  0.5052886E+02  0.7816164E-02  0.1300439E+00
        -11   -1    0    0    0    0  0.00000000000E+00  0.00000000000E+00  0.45593999997E+02  0.45594000000E+02  0.51100000000E-03 0. -1.
         11   -1    0    0    0    0 -0.00000000000E+00 -0.00000000000E+00 -0.45593999997E+02  0.45594000000E+02  0.51100000000E-03 0.  1.
    9900012    2    1    2    0    0 -0.30141470062E+02  0.25338860425E+02 -0.10129147010E+02  0.50528859769E+02  0.29999999754E+02 0.  0.
         12    1    1    2    0    0  0.30141470062E+02 -0.25338860425E+02  0.10129147010E+02  0.40659140231E+02  0.00000000000E+00 0. -1.
         11    1    3    3    0    0  0.31408476602E+01  0.68330192393E+00  0.30223516622E+01  0.44120783510E+01  0.51100000000E-03 0. -1.
        -11    1    3    3    0    0 -0.22885365045E+02  0.24374453342E+02 -0.12503655136E+02  0.35695872324E+02  0.51100000000E-03 0.  1.
         12    1    3    3    0    0 -0.10396952677E+02  0.28110515907E+00 -0.64784353661E+00  0.10420909093E+02  0.00000000000E+00 0. -1.
</event>
<event>
 7    1  0.3054835E-011  0.5052886E+02  0.7816164E-02  0.1300439E+00
        -11   -1    0    0    0    0  0.00000000000E+00  0.00000000000E+00  0.45593999997E+02  0.45594000000E+02  0.51100000000E-03 0.  1.
         11   -1    0    0    0    0 -0.00000000000E+00 -0.00000000000E+00 -0.45593999997E+02  0.45594000000E+02  0.51100000000E-03 0. -1.
    9900012    2    1    2    0    0 -0.29758740318E+02 -0.17047963439E+02 -0.21839190870E+02  0.50528856618E+02  0.29999990176E+02 0.  0.
         12    1    1    2    0    0  0.29758740318E+02  0.17047963439E+02  0.21839190870E+02  0.40659143382E+02  0.00000000000E+00 0. -1.
         11    1    3    3    0    0 -0.25599168092E+02 -0.10332536175E+02 -0.26124448021E+02  0.38007440002E+02  0.51100000000E-03 0. -1.
        -11    1    3    3    0    0 -0.71492622120E+00  0.21033377190E+01  0.13918157188E+01  0.26215072607E+01  0.51100000000E-03 0.  1.
         12    1    3    3    0    0 -0.34446460043E+01 -0.88187649831E+01  0.28934414325E+01  0.98999093554E+01  0.00000000000E+00 0. -1.
</event>
<event>
 7    1  0.3054835E-011  0.5052889E+02  0.7816164E-02  0.1300439E+00
        -11   -1    0    0    0    0  0.00000000000E+00  0.00000000000E+00  0.45593999997E+02  0.45594000000E+02  0.51100000000E-03 0.  1.
         11   -1    0    0    0    0 -0.00000000000E+00 -0.00000000000E+00 -0.45593999997E+02  0.45594000000E+02  0.51100000000E-03 0. -1.
    9900012    2    1    2    0    0  0.24043786849E+02 -0.17101919601E+02  0.27974696428E+02  0.50528893021E+02  0.30000100827E+02 0.  0.
         12    1    1    2    0    0 -0.24043786849E+02  0.17101919601E+02 -0.27974696428E+02  0.40659106979E+02  0.00000000000E+00 0. -1.
         11    1    3    3    0    0  0.99494882446E+00  0.52066032095E+01  0.59783531553E-01  0.53011521839E+01  0.51100000000E-03 0. -1.
        -11    1    3    3    0    0  0.10863476772E+02 -0.20161333290E+02  0.15204848284E+02  0.27489668954E+02  0.51100000000E-03 0.  1.
        -12    1    3    3    0    0  0.12185361252E+02 -0.21471895205E+01  0.12710064612E+02  0.17738071883E+02  0.00000000000E+00 0.  1.
</event>
<event>
 7    1  0.3054835E-011  0.5052886E+02  0.7816164E-02  0.1300439E+00
        -11   -1    0    0    0    0  0.00000000000E+00  0.00000000000E+00  0.45593999997E+02  0.45594000000E+02  0.51100000000E-03 0.  1.
         11   -1    0    0    0    0 -0.00000000000E+00 -0.00000000000E+00 -0.45593999997E+02  0.45594000000E+02  0.51100000000E-03 0. -1.
    9900012    2    1    2    0    0  0.28921608335E+02 -0.77385485961E+01  0.27510385111E+02  0.50528857707E+02  0.29999993486E+02 0.  0.
         12    1    1    2    0    0 -0.28921608335E+02  0.77385485961E+01 -0.27510385111E+02  0.40659142293E+02  0.00000000000E+00 0. -1.
         11    1    3    3    0    0  0.27545950534E+02 -0.77120337897E+01  0.86929821117E+01  0.29896869306E+02  0.51100000000E-03 0. -1.
        -11    1    3    3    0    0  0.35662132769E+01 -0.17804924180E+01  0.43709750167E+01  0.59155264554E+01  0.51100000000E-03 0.  1.
         12    1    3    3    0    0 -0.21905554760E+01  0.17539776116E+01  0.14446427982E+02  0.14716461946E+02  0.00000000000E+00 0. -1.
</event>
<event>
 7    1  0.3054835E-011  0.5052885E+02  0.7816164E-02  0.1300439E+00
        -11   -1    0    0    0    0  0.00000000000E+00  0.00000000000E+00  0.45593999997E+02  0.45594000000E+02  0.51100000000E-03 0.  1.
         11   -1    0    0    0    0 -0.00000000000E+00 -0.00000000000E+00 -0.45593999997E+02  0.45594000000E+02  0.51100000000E-03 0. -1.
    9900012    2    1    2    0    0  0.13998599266E+02 -0.17306986331E+02  0.34024609391E+02  0.50528848490E+02  0.29999965471E+02 0.  0.
         12    1    1    2    0    0 -0.13998599266E+02  0.17306986331E+02 -0.34024609391E+02  0.40659151510E+02  0.00000000000E+00 0. -1.
         11    1    3    3    0    0  0.17346240340E+02 -0.97086137960E+01  0.10483707828E+02  0.22473481391E+02  0.51100000000E-03 0. -1.
        -11    1    3    3    0    0  0.42632384882E+01 -0.40001640007E+01  0.14832566785E+02  0.15943072230E+02  0.51100000000E-03 0.  1.
         12    1    3    3    0    0 -0.76108795623E+01 -0.35982085348E+01  0.87083347781E+01  0.12112294868E+02  0.00000000000E+00 0. -1.
</event>
<event>
 7    1  0.3054835E-011  0.5052886E+02  0.7816164E-02  0.1300439E+00
        -11   -1    0    0    0    0  0.00000000000E+00  0.00000000000E+00  0.45593999997E+02  0.45594000000E+02  0.51100000000E-03 0. -1.
         11   -1    0    0    0    0 -0.00000000000E+00 -0.00000000000E+00 -0.45593999997E+02  0.45594000000E+02  0.51100000000E-03 0.  1.
    9900012    2    1    2    0    0  0.39711904300E+02 -0.31589809504E+00 -0.87195346768E+01  0.50528863023E+02  0.30000009644E+02 0.  0.
         12    1    1    2    0    0 -0.39711904300E+02  0.31589809504E+00  0.87195346768E+01  0.40659136977E+02  0.00000000000E+00 0. -1.
         11    1    3    3    0    0 -0.60225665817E+00  0.55436480061E+01  0.22598277105E+01  0.60167738731E+01  0.51100000000E-03 0. -1.
        -11    1    3    3    0    0  0.18494828416E+02 -0.24347508311E+01  0.22136615708E+01  0.18785286465E+02  0.51100000000E-03 0.  1.
         12    1    3    3    0    0  0.21819332542E+02 -0.34247952700E+01 -0.13193023958E+02  0.25726802685E+02  0.00000000000E+00 0. -1.
</event>
<event>
 7    1  0.3054835E-011  0.5052884E+02  0.7816164E-02  0.1300439E+00
        -11   -1    0    0    0    0  0.00000000000E+00  0.00000000000E+00  0.45593999997E+02  0.45594000000E+02  0.51100000000E-03 0. -1.
         11   -1    0    0    0    0 -0.00000000000E+00 -0.00000000000E+00 -0.45593999997E+02  0.45594000000E+02  0.51100000000E-03 0.  1.
    9900012    2    1    2    0    0 -0.36021510996E+02 -0.18788959838E+02  0.16101892778E+01  0.50528843888E+02  0.29999951482E+02 0.  0.
         12    1    1    2    0    0  0.36021510996E+02  0.18788959838E+02 -0.16101892778E+01  0.40659156112E+02  0.00000000000E+00 0. -1.
         11    1    3    3    0    0 -0.45357115921E+01  0.12111679499E+01  0.95113719605E+01  0.10606875331E+02  0.51100000000E-03 0. -1.
        -11    1    3    3    0    0 -0.28286506636E+02 -0.21510074111E+02 -0.65479370956E+01  0.36134266651E+02  0.51100000000E-03 0.  1.
        -12    1    3    3    0    0 -0.31992927681E+01  0.15099463228E+01 -0.13532455872E+01  0.37877019066E+01  0.00000000000E+00 0.  1.
</event>
<event>
 7    1  0.3054835E-011  0.5052886E+02  0.7816164E-02  0.1300439E+00
        -11   -1    0    0    0    0  0.00000000000E+00  0.00000000000E+00  0.45593999997E+02  0.45594000000E+02  0.51100000000E-03 0.  1.
         11   -1    0    0    0    0 -0.00000000000E+00 -0.00000000000E+00 -0.45593999997E+02  0.45594000000E+02  0.51100000000E-03 0. -1.
    9900012    2    1    2    0    0  0.13029350481E+02  0.28997326196E+02  0.25348698418E+02  0.50528863119E+02  0.30000009936E+02 0.  0.
         12    1    1    2    0    0 -0.13029350481E+02 -0.28997326196E+02 -0.25348698418E+02  0.40659136881E+02  0.00000000000E+00 0. -1.
         11    1    3    3    0    0 -0.20552465103E+01  0.33816163275E+01  0.10250690164E+02  0.10987994189E+02  0.51100000000E-03 0. -1.
        -11    1    3    3    0    0  0.15491171806E+02  0.14037295991E+02  0.50907544212E+00  0.20911270663E+02  0.51100000000E-03 0.  1.
        -12    1    3    3    0    0 -0.40657481503E+00  0.11578413877E+02  0.14588932812E+02  0.18629598267E+02  0.00000000000E+00 0.  1.
</event>
<event>
 7    1  0.3054835E-011  0.5052886E+02  0.7816164E-02  0.1300439E+00
        -11   -1    0    0    0    0  0.00000000000E+00  0.00000000000E+00  0.45593999997E+02  0.45594000000E+02  0.51100000000E-03 0.  1.
         11   -1    0    0    0    0 -0.00000000000E+00 -0.00000000000E+00 -0.45593999997E+02  0.45594000000E+02  0.51100000000E-03 0. -1.
    9900012    2    1    2    0    0 -0.65896802498E+01 -0.32037837654E+02  0.24151986050E+02  0.50528863788E+02  0.30000011970E+02 0.  0.
         12    1    1    2    0    0  0.65896802498E+01  0.32037837654E+02 -0.24151986050E+02  0.40659136212E+02  0.00000000000E+00 0. -1.
         11    1    3    3    0    0 -0.16539241275E+02 -0.11684655944E+02  0.15086236082E+02  0.25252172300E+02  0.51100000000E-03 0. -1.
        -11    1    3    3    0    0  0.74233674378E+01 -0.10116255163E+02  0.74965634818E+01  0.14616547709E+02  0.51100000000E-03 0.  1.
         12    1    3    3    0    0  0.25261935871E+01 -0.10236926546E+02  0.15691864867E+01  0.10660143779E+02  0.00000000000E+00 0. -1.
</event>
<event>
 7    1  0.3054835E-011  0.5052883E+02  0.7816164E-02  0.1300439E+00
        -11   -1    0    0    0    0  0.00000000000E+00  0.00000000000E+00  0.45593999997E+02  0.45594000000E+02  0.51100000000E-03 0.  1.
         11   -1    0    0    0    0 -0.00000000000E+00 -0.00000000000E+00 -0.45593999997E+02  0.45594000000E+02  0.51100000000E-03 0. -1.
    9900012    2    1    2    0    0  0.18756914779E+02 -0.33741270301E+02  0.12762162386E+02  0.50528831756E+02  0.29999914605E+02 0.  0.
         12    1    1    2    0    0 -0.18756914779E+02  0.33741270301E+02 -0.12762162386E+02  0.40659168244E+02  0.00000000000E+00 0. -1.
         11    1    3    3    0    0 -0.58952461985E+01 -0.14065768339E+02  0.43798696785E+01  0.15867672337E+02  0.51100000000E-03 0. -1.
        -11    1    3    3    0    0  0.90135609701E+01 -0.59273949832E+01  0.86647194073E+01  0.13836750172E+02  0.51100000000E-03 0.  1.
         12    1    3    3    0    0  0.15638600007E+02 -0.13748106978E+02 -0.28242669993E+00  0.20824409247E+02  0.00000000000E+00 0. -1.
</event>
<event>
 7    1  0.3054835E-011  0.5052888E+02  0.7816164E-02  0.1300439E+00
        -11   -1    0    0    0    0  0.00000000000E+00  0.00000000000E+00  0.45593999997E+02  0.45594000000E+02  0.51100000000E-03 0.  1.
         11   -1    0    0    0    0 -0.00000000000E+00 -0.00000000000E+00 -0.45593999997E+02  0.45594000000E+02  0.51100000000E-03 0. -1.
    9900012    2    1    2    0    0  0.19072350720E+02  0.23330194758E+02  0.27296734570E+02  0.50528877191E+02  0.30000052709E+02 0.  0.
         12    1    1    2    0    0 -0.19072350720E+02 -0.23330194758E+02 -0.27296734570E+02  0.40659122809E+02  0.00000000000E+00 0. -1.
         11    1    3    3    0    0  0.14447048451E+02  0.48208809264E+01  0.83546639519E-01  0.15230399934E+02  0.51100000000E-03 0. -1.
        -11    1    3    3    0    0 -0.19567150706E+01  0.13838339213E+02  0.13778849791E+02  0.19626132270E+02  0.51100000000E-03 0.  1.
         12    1    3    3    0    0  0.65820173398E+01  0.46709746179E+01  0.13434338140E+02  0.15672344988E+02  0.00000000000E+00 0. -1.
</event>
<event>
 7    1  0.3054835E-011  0.5052888E+02  0.7816164E-02  0.1300439E+00
        -11   -1    0    0    0    0  0.00000000000E+00  0.00000000000E+00  0.45593999997E+02  0.45594000000E+02  0.51100000000E-03 0.  1.
         11   -1    0    0    0    0 -0.00000000000E+00 -0.00000000000E+00 -0.45593999997E+02  0.45594000000E+02  0.51100000000E-03 0. -1.
    9900012    2    1    2    0    0  0.29543176085E+02 -0.27537752064E+02 -0.46943869396E+01  0.50528876661E+02  0.30000051100E+02 0.  0.
         12    1    1    2    0    0 -0.29543176085E+02  0.27537752064E+02  0.46943869396E+01  0.40659123339E+02  0.00000000000E+00 0. -1.
         11    1    3    3    0    0  0.18947252837E+02 -0.31190511517E+01 -0.10243128123E+02  0.21763468110E+02  0.51100000000E-03 0. -1.
        -11    1    3    3    0    0  0.11808286195E+02 -0.18214532100E+02  0.56961787196E+01  0.22442175802E+02  0.51100000000E-03 0.  1.
         12    1    3    3    0    0 -0.12123629478E+01 -0.62041688129E+01 -0.14743753651E+00  0.63232327494E+01  0.00000000000E+00 0. -1.
</event>
<event>
 7    1  0.3054835E-011  0.5052886E+02  0.7816164E-02  0.1300439E+00
        -11   -1    0    0    0    0  0.00000000000E+00  0.00000000000E+00  0.45593999997E+02  0.45594000000E+02  0.51100000000E-03 0.  1.
         11   -1    0    0    0    0 -0.00000000000E+00 -0.00000000000E+00 -0.45593999997E+02  0.45594000000E+02  0.51100000000E-03 0. -1.
    9900012    2    1    2    0    0  0.76690038425E+00  0.96000912522E+00  0.40640568005E+02  0.50528861772E+02  0.30000005842E+02 0.  0.
         12    1    1    2    0    0 -0.76690038425E+00 -0.96000912522E+00 -0.40640568005E+02  0.40659138228E+02  0.00000000000E+00 0. -1.
         11    1    3    3    0    0  0.14445621291E+02  0.15102100714E+01  0.12942855195E+02  0.19454413633E+02  0.51100000000E-03 0. -1.
        -11    1    3    3    0    0 -0.32024203280E+01 -0.15106375562E+01  0.61740240607E+01  0.71173095441E+01  0.51100000000E-03 0.  1.
         12    1    3    3    0    0 -0.10476300579E+02  0.96043660999E+00  0.21523688749E+02  0.23957138595E+02  0.00000000000E+00 0. -1.
</event>
<event>
 7    1  0.3054835E-011  0.5052887E+02  0.7816164E-02  0.1300439E+00
        -11   -1    0    0    0    0  0.00000000000E+00  0.00000000000E+00  0.45593999997E+02  0.45594000000E+02  0.51100000000E-03 0.  1.
         11   -1    0    0    0    0 -0.00000000000E+00 -0.00000000000E+00 -0.45593999997E+02  0.45594000000E+02  0.51100000000E-03 0. -1.
    9900012    2    1    2    0    0  0.34031214195E+02  0.15295966996E+02  0.16157810353E+02  0.50528868414E+02  0.30000026032E+02 0.  0.
         12    1    1    2    0    0 -0.34031214195E+02 -0.15295966996E+02 -0.16157810353E+02  0.40659131586E+02  0.00000000000E+00 0. -1.
         11    1    3    3    0    0 -0.38674186681E+01 -0.22578330654E+01  0.22371702274E+01  0.50059632632E+01  0.51100000000E-03 0. -1.
        -11    1    3    3    0    0  0.35894096741E+02  0.12749038581E+02  0.11559485167E+02  0.39806354558E+02  0.51100000000E-03 0.  1.
         12    1    3    3    0    0  0.20045361219E+01  0.48047614806E+01  0.23611549581E+01  0.57165505932E+01  0.00000000000E+00 0. -1.
</event>
<event>
 7    1  0.3054835E-011  0.5052885E+02  0.7816164E-02  0.1300439E+00
        -11   -1    0    0    0    0  0.00000000000E+00  0.00000000000E+00  0.45593999997E+02  0.45594000000E+02  0.51100000000E-03 0.  1.
         11   -1    0    0    0    0 -0.00000000000E+00 -0.00000000000E+00 -0.45593999997E+02  0.45594000000E+02  0.51100000000E-03 0. -1.
    9900012    2    1    2    0    0 -0.57163961571E+01 -0.27203456062E+02  0.29672561783E+02  0.50528854295E+02  0.29999983115E+02 0.  0.
         12    1    1    2    0    0  0.57163961571E+01  0.27203456062E+02 -0.29672561783E+02  0.40659145705E+02  0.00000000000E+00 0. -1.
         11    1    3    3    0    0 -0.37445561563E+01 -0.26523482364E+02  0.18249171888E+02  0.32412175064E+02  0.51100000000E-03 0. -1.
        -11    1    3    3    0    0  0.50221233078E+01  0.19306332442E+01  0.85815220507E+01  0.10128750575E+02  0.51100000000E-03 0.  1.
        -12    1    3    3    0    0 -0.69939633087E+01 -0.26106069420E+01  0.28418678435E+01  0.79879286557E+01  0.00000000000E+00 0.  1.
</event>
<event>
 7    1  0.3054835E-011  0.5052886E+02  0.7816164E-02  0.1300439E+00
        -11   -1    0    0    0    0  0.00000000000E+00  0.00000000000E+00  0.45593999997E+02  0.45594000000E+02  0.51100000000E-03 0.  1.
         11   -1    0    0    0    0 -0.00000000000E+00 -0.00000000000E+00 -0.45593999997E+02  0.45594000000E+02  0.51100000000E-03 0. -1.
    9900012    2    1    2    0    0  0.20823567231E+02  0.21835818644E+02  0.27253294559E+02  0.50528855980E+02  0.29999988237E+02 0.  0.
         12    1    1    2    0    0 -0.20823567231E+02 -0.21835818644E+02 -0.27253294559E+02  0.40659144020E+02  0.00000000000E+00 0. -1.
         11    1    3    3    0    0  0.74596831120E+01  0.16020535741E+02 -0.16719798366E+01  0.17751055022E+02  0.51100000000E-03 0. -1.
        -11    1    3    3    0    0  0.66480589961E+01  0.33360194290E+00  0.14363670967E+02  0.15831077745E+02  0.51100000000E-03 0.  1.
         12    1    3    3    0    0  0.67158251233E+01  0.54816809608E+01  0.14561603429E+02  0.16946723213E+02  0.00000000000E+00 0. -1.
</event>
<event>
 7    1  0.3054835E-011  0.5052886E+02  0.7816164E-02  0.1300439E+00
        -11   -1    0    0    0    0  0.00000000000E+00  0.00000000000E+00  0.45593999997E+02  0.45594000000E+02  0.51100000000E-03 0.  1.
         11   -1    0    0    0    0 -0.00000000000E+00 -0.00000000000E+00 -0.45593999997E+02  0.45594000000E+02  0.51100000000E-03 0. -1.
    9900012    2    1    2    0    0 -0.13725620007E+02 -0.30384635964E+02  0.23271160920E+02  0.50528859849E+02  0.29999999997E+02 0.  0.
         12    1    1    2    0    0  0.13725620007E+02  0.30384635964E+02 -0.23271160920E+02  0.40659140151E+02  0.00000000000E+00 0. -1.
         11    1    3    3    0    0 -0.75829035655E+01 -0.11444815063E+01  0.88390820720E+01  0.11702121027E+02  0.51100000000E-03 0. -1.
        -11    1    3    3    0    0 -0.11868647319E+02 -0.16471248817E+02  0.25359342142E+01  0.20459662494E+02  0.51100000000E-03 0.  1.
        -12    1    3    3    0    0  0.57259308774E+01 -0.12768905641E+02  0.11896144634E+02  0.18367076328E+02  0.00000000000E+00 0.  1.
</event>
<event>
 7    1  0.3054835E-011  0.5052886E+02  0.7816164E-02  0.1300439E+00
        -11   -1    0    0    0    0  0.00000000000E+00  0.00000000000E+00  0.45593999997E+02  0.45594000000E+02  0.51100000000E-03 0.  1.
         11   -1    0    0    0    0 -0.00000000000E+00 -0.00000000000E+00 -0.45593999997E+02  0.45594000000E+02  0.51100000000E-03 0. -1.
    9900012    2    1    2    0    0 -0.29711911049E+02 -0.53495696298E+00  0.27750352630E+02  0.50528857016E+02  0.29999991386E+02 0.  0.
         12    1    1    2    0    0  0.29711911049E+02  0.53495696298E+00 -0.27750352630E+02  0.40659142984E+02  0.00000000000E+00 0. -1.
         11    1    3    3    0    0 -0.84670080887E+01 -0.24653233469E+01  0.14628103940E+01  0.89391196260E+01  0.51100000000E-03 0. -1.
        -11    1    3    3    0    0 -0.12888946770E+02  0.40380543775E+01  0.29458394008E+02  0.32407218482E+02  0.51100000000E-03 0.  1.
        -12    1    3    3    0    0 -0.83559561902E+01 -0.21076879935E+01 -0.31708517719E+01  0.91825189077E+01  0.00000000000E+00 0.  1.
</event>
<event>
 7    1  0.3054835E-011  0.5052886E+02  0.7816164E-02  0.1300439E+00
        -11   -1    0    0    0    0  0.00000000000E+00  0.00000000000E+00  0.45593999997E+02  0.45594000000E+02  0.51100000000E-03 0.  1.
         11   -1    0    0    0    0 -0.00000000000E+00 -0.00000000000E+00 -0.45593999997E+02  0.45594000000E+02  0.51100000000E-03 0. -1.
    9900012    2    1    2    0    0  0.16773350085E+02 -0.20361805336E+02  0.30938923517E+02  0.50528863536E+02  0.30000011204E+02 0.  0.
         12    1    1    2    0    0 -0.16773350085E+02  0.20361805336E+02 -0.30938923517E+02  0.40659136464E+02  0.00000000000E+00 0. -1.
         11    1    3    3    0    0 -0.31697249056E+01 -0.78431034628E+00  0.82858027641E+01  0.89059994613E+01  0.51100000000E-03 0. -1.
        -11    1    3    3    0    0  0.10349844468E+02 -0.10089141332E+02 -0.89670258394E+00  0.14481509905E+02  0.51100000000E-03 0.  1.
        -12    1    3    3    0    0  0.95932305222E+01 -0.94883536571E+01  0.23549823337E+02  0.27141354170E+02  0.00000000000E+00 0.  1.
</event>
<event>
 7    1  0.3054835E-011  0.5052880E+02  0.7816164E-02  0.1300439E+00
        -11   -1    0    0    0    0  0.00000000000E+00  0.00000000000E+00  0.45593999997E+02  0.45594000000E+02  0.51100000000E-03 0.  1.
         11   -1    0    0    0    0 -0.00000000000E+00 -0.00000000000E+00 -0.45593999997E+02  0.45594000000E+02  0.51100000000E-03 0. -1.
    9900012    2    1    2    0    0  0.33233157470E+02  0.18604235263E+02  0.14234119313E+02  0.50528800822E+02  0.29999820579E+02 0.  0.
         12    1    1    2    0    0 -0.33233157470E+02 -0.18604235263E+02 -0.14234119313E+02  0.40659199178E+02  0.00000000000E+00 0. -1.
         11    1    3    3    0    0  0.47689338195E+01  0.16313831927E+02  0.33068179324E+01  0.17315279005E+02  0.51100000000E-03 0. -1.
        -11    1    3    3    0    0  0.15384204964E+02 -0.34405161325E+00 -0.85703245654E+00  0.15411899259E+02  0.51100000000E-03 0.  1.
        -12    1    3    3    0    0  0.13080018687E+02  0.26344549490E+01  0.11784333837E+02  0.17801622558E+02  0.00000000000E+00 0.  1.
</event>
<event>
 7    1  0.3054835E-011  0.5052887E+02  0.7816164E-02  0.1300439E+00
        -11   -1    0    0    0    0  0.00000000000E+00  0.00000000000E+00  0.45593999997E+02  0.45594000000E+02  0.51100000000E-03 0. -1.
         11   -1    0    0    0    0 -0.00000000000E+00 -0.00000000000E+00 -0.45593999997E+02  0.45594000000E+02  0.51100000000E-03 0.  1.
    9900012    2    1    2    0    0 -0.17201010783E+02  0.36708392765E+02  0.31279118293E+01  0.50528871828E+02  0.30000036407E+02 0.  0.
         12    1    1    2    0    0  0.17201010783E+02 -0.36708392765E+02 -0.31279118293E+01  0.40659128172E+02  0.00000000000E+00 0. -1.
         11    1    3    3    0    0 -0.14853381675E+02  0.10282367675E+02  0.11471216974E+02  0.21399505866E+02  0.51100000000E-03 0. -1.
        -11    1    3    3    0    0 -0.15255291119E+01  0.18968488049E+02 -0.99239527260E+01  0.21461957411E+02  0.51100000000E-03 0.  1.
        -12    1    3    3    0    0 -0.82209999637E+00  0.74575370401E+01  0.15806475817E+01  0.76674085509E+01  0.00000000000E+00 0.  1.
</event>
<event>
 7    1  0.3054835E-011  0.5052888E+02  0.7816164E-02  0.1300439E+00
        -11   -1    0    0    0    0  0.00000000000E+00  0.00000000000E+00  0.45593999997E+02  0.45594000000E+02  0.51100000000E-03 0. -1.
         11   -1    0    0    0    0 -0.00000000000E+00 -0.00000000000E+00 -0.45593999997E+02  0.45594000000E+02  0.51100000000E-03 0.  1.
    9900012    2    1    2    0    0 -0.37206594000E+02 -0.66864691423E+01 -0.14970801987E+02  0.50528875332E+02  0.30000047059E+02 0.  0.
         12    1    1    2    0    0  0.37206594000E+02  0.66864691423E+01  0.14970801987E+02  0.40659124668E+02  0.00000000000E+00 0. -1.
         11    1    3    3    0    0 -0.78216255983E+01  0.33236754791E+01 -0.14861689907E+02  0.17120002127E+02  0.51100000000E-03 0. -1.
        -11    1    3    3    0    0 -0.19458065722E+02 -0.11230006394E+02  0.35779880184E+01  0.22749315677E+02  0.51100000000E-03 0.  1.
         12    1    3    3    0    0 -0.99269026791E+01  0.12198617730E+01 -0.36871000980E+01  0.10659557527E+02  0.00000000000E+00 0. -1.
</event>
<event>
 7    1  0.3054835E-011  0.5052888E+02  0.7816164E-02  0.1300439E+00
        -11   -1    0    0    0    0  0.00000000000E+00  0.00000000000E+00  0.45593999997E+02  0.45594000000E+02  0.51100000000E-03 0.  1.
         11   -1    0    0    0    0 -0.00000000000E+00 -0.00000000000E+00 -0.45593999997E+02  0.45594000000E+02  0.51100000000E-03 0. -1.
    9900012    2    1    2    0    0  0.15728833642E+02 -0.37459953127E+02 -0.15874006145E+01  0.50528878801E+02  0.30000057603E+02 0.  0.
         12    1    1    2    0    0 -0.15728833642E+02  0.37459953127E+02  0.15874006145E+01  0.40659121199E+02  0.00000000000E+00 0. -1.
         11    1    3    3    0    0  0.10160453290E+02 -0.79235788794E+00 -0.24457963971E+00  0.10194236683E+02  0.51100000000E-03 0. -1.
        -11    1    3    3    0    0  0.66925174708E+01 -0.37433200575E+02  0.51735742322E+00  0.38030276811E+02  0.51100000000E-03 0.  1.
         12    1    3    3    0    0 -0.11241371189E+01  0.76560533621E+00 -0.18601783981E+01  0.23043653065E+01  0.00000000000E+00 0. -1.
</event>
<event>
 7    1  0.3054835E-011  0.5052886E+02  0.7816164E-02  0.1300439E+00
        -11   -1    0    0    0    0  0.00000000000E+00  0.00000000000E+00  0.45593999997E+02  0.45594000000E+02  0.51100000000E-03 0. -1.
         11   -1    0    0    0    0 -0.00000000000E+00 -0.00000000000E+00 -0.45593999997E+02  0.45594000000E+02  0.51100000000E-03 0.  1.
    9900012    2    1    2    0    0 -0.28763844842E+02 -0.30484393958E+01 -0.28574706283E+02  0.50528860905E+02  0.30000003206E+02 0.  0.
         12    1    1    2    0    0  0.28763844842E+02  0.30484393958E+01  0.28574706283E+02  0.40659139095E+02  0.00000000000E+00 0. -1.
         11    1    3    3    0    0  0.26837267700E+01 -0.12307118862E+01  0.41261346596E+01  0.50736602777E+01  0.51100000000E-03 0. -1.
        -11    1    3    3    0    0 -0.12612150847E+02 -0.49476046244E+00 -0.11644334853E+02  0.17172701341E+02  0.51100000000E-03 0.  1.
         12    1    3    3    0    0 -0.18835420764E+02 -0.13229670472E+01 -0.21056506089E+02  0.28282499286E+02  0.00000000000E+00 0. -1.
</event>
<event>
 7    1  0.3054835E-011  0.5052886E+02  0.7816164E-02  0.1300439E+00
        -11   -1    0    0    0    0  0.00000000000E+00  0.00000000000E+00  0.45593999997E+02  0.45594000000E+02  0.51100000000E-03 0.  1.
         11   -1    0    0    0    0 -0.00000000000E+00 -0.00000000000E+00 -0.45593999997E+02  0.45594000000E+02  0.51100000000E-03 0. -1.
    9900012    2    1    2    0    0 -0.62263260572E+01  0.23501445708E+02  0.32589576044E+02  0.50528861381E+02  0.30000004654E+02 0.  0.
         12    1    1    2    0    0  0.62263260572E+01 -0.23501445708E+02 -0.32589576044E+02  0.40659138619E+02  0.00000000000E+00 0. -1.
         11    1    3    3    0    0  0.22517915916E+01  0.27623716471E+02  0.21305939005E+02  0.34958308229E+02  0.51100000000E-03 0. -1.
        -11    1    3    3    0    0 -0.29611561384E+01  0.35499619909E+00  0.60526288329E+01  0.67475020584E+01  0.51100000000E-03 0.  1.
         12    1    3    3    0    0 -0.55169615103E+01 -0.44772669627E+01  0.52310082056E+01  0.88230510940E+01  0.00000000000E+00 0. -1.
</event>
<event>
 7    1  0.3054835E-011  0.5052886E+02  0.7816164E-02  0.1300439E+00
        -11   -1    0    0    0    0  0.00000000000E+00  0.00000000000E+00  0.45593999997E+02  0.45594000000E+02  0.51100000000E-03 0.  1.
         11   -1    0    0    0    0 -0.00000000000E+00 -0.00000000000E+00 -0.45593999997E+02  0.45594000000E+02  0.51100000000E-03 0. -1.
    9900012    2    1    2    0    0  0.27105508302E+02  0.74380954408E+01  0.29379105703E+02  0.50528859626E+02  0.29999999318E+02 0.  0.
         12    1    1    2    0    0 -0.27105508302E+02 -0.74380954408E+01 -0.29379105703E+02  0.40659140374E+02  0.00000000000E+00 0. -1.
         11    1    3    3    0    0 -0.13814571976E+00 -0.12971670158E+01 -0.15736273479E+00  0.13139595877E+01  0.51100000000E-03 0. -1.
        -11    1    3    3    0    0 -0.19855013592E+01  0.25183018364E+01  0.16159172879E+02  0.16474311160E+02  0.51100000000E-03 0.  1.
        -12    1    3    3    0    0  0.29229155381E+02  0.62169606202E+01  0.13377295558E+02  0.32740588878E+02  0.00000000000E+00 0.  1.
</event>
<event>
 7    1  0.3054835E-011  0.5052886E+02  0.7816164E-02  0.1300439E+00
        -11   -1    0    0    0    0  0.00000000000E+00  0.00000000000E+00  0.45593999997E+02  0.45594000000E+02  0.51100000000E-03 0. -1.
         11   -1    0    0    0    0 -0.00000000000E+00 -0.00000000000E+00 -0.45593999997E+02  0.45594000000E+02  0.51100000000E-03 0.  1.
    9900012    2    1    2    0    0  0.65404262610E+01  0.29713636122E+02 -0.26971992601E+02  0.50528859181E+02  0.29999997967E+02 0.  0.
         12    1    1    2    0    0 -0.65404262610E+01 -0.29713636122E+02  0.26971992601E+02  0.40659140819E+02  0.00000000000E+00 0. -1.
         11    1    3    3    0    0  0.12142041517E+01 -0.30079885392E+01  0.10172630712E+01  0.33995751486E+01  0.51100000000E-03 0. -1.
        -11    1    3    3    0    0  0.81318692927E+01  0.27787798756E+02 -0.14262726511E+02  0.32275601089E+02  0.51100000000E-03 0.  1.
        -12    1    3    3    0    0 -0.28056471834E+01  0.49338259054E+01 -0.13726529161E+02  0.14853682943E+02  0.00000000000E+00 0.  1.
</event>
<event>
 7    1  0.3054835E-011  0.5052887E+02  0.7816164E-02  0.1300439E+00
        -11   -1    0    0    0    0  0.00000000000E+00  0.00000000000E+00  0.45593999997E+02  0.45594000000E+02  0.51100000000E-03 0.  1.
         11   -1    0    0    0    0 -0.00000000000E+00 -0.00000000000E+00 -0.45593999997E+02  0.45594000000E+02  0.51100000000E-03 0. -1.
    9900012    2    1    2    0    0 -0.37610390026E+02  0.97159153295E+01  0.12009358533E+02  0.50528866451E+02  0.30000020064E+02 0.  0.
         12    1    1    2    0    0  0.37610390026E+02 -0.97159153295E+01 -0.12009358533E+02  0.40659133549E+02  0.00000000000E+00 0. -1.
         11    1    3    3    0    0 -0.39345606695E+01 -0.81358760520E+01  0.25153324201E+01  0.93808392077E+01  0.51100000000E-03 0.  1.
        -11    1    3    3    0    0 -0.13348898377E+02  0.13800810325E+02  0.30387093522E+01  0.19439372631E+02  0.51100000000E-03 0. -1.
        -12    1    3    3    0    0 -0.20326930980E+02  0.40509810563E+01  0.64553167608E+01  0.21708654612E+02  0.00000000000E+00 0.  1.
</event>
<event>
 7    1  0.3054835E-011  0.5052888E+02  0.7816164E-02  0.1300439E+00
        -11   -1    0    0    0    0  0.00000000000E+00  0.00000000000E+00  0.45593999997E+02  0.45594000000E+02  0.51100000000E-03 0.  1.
         11   -1    0    0    0    0 -0.00000000000E+00 -0.00000000000E+00 -0.45593999997E+02  0.45594000000E+02  0.51100000000E-03 0. -1.
    9900012    2    1    2    0    0  0.59100464961E+01 -0.21049471601E+02  0.34280536269E+02  0.50528879606E+02  0.30000060051E+02 0.  0.
         12    1    1    2    0    0 -0.59100464961E+01  0.21049471601E+02 -0.34280536269E+02  0.40659120394E+02  0.00000000000E+00 0. -1.
         11    1    3    3    0    0 -0.56849079263E+01 -0.11043133815E+02  0.25424054783E+02  0.28295786691E+02  0.51100000000E-03 0. -1.
        -11    1    3    3    0    0  0.98353722182E+01 -0.71982624862E+01  0.12396155248E+02  0.17384308864E+02  0.51100000000E-03 0.  1.
         12    1    3    3    0    0  0.17595822042E+01 -0.28080753004E+01 -0.35396737623E+01  0.48487840507E+01  0.00000000000E+00 0. -1.
</event>
<event>
 7    1  0.3054835E-011  0.5052887E+02  0.7816164E-02  0.1300439E+00
        -11   -1    0    0    0    0  0.00000000000E+00  0.00000000000E+00  0.45593999997E+02  0.45594000000E+02  0.51100000000E-03 0. -1.
         11   -1    0    0    0    0 -0.00000000000E+00 -0.00000000000E+00 -0.45593999997E+02  0.45594000000E+02  0.51100000000E-03 0.  1.
    9900012    2    1    2    0    0  0.30241929778E+02  0.25451226311E+02 -0.95302475523E+01  0.50528869957E+02  0.30000030722E+02 0.  0.
         12    1    1    2    0    0 -0.30241929778E+02 -0.25451226311E+02  0.95302475523E+01  0.40659130043E+02  0.00000000000E+00 0. -1.
         11    1    3    3    0    0 -0.27262072830E+01  0.14247627663E+01  0.74353617710E+00  0.31646487005E+01  0.51100000000E-03 0. -1.
        -11    1    3    3    0    0  0.19804190531E+02  0.68938694948E+01 -0.14306506270E+02  0.25385183102E+02  0.51100000000E-03 0.  1.
        -12    1    3    3    0    0  0.13163946530E+02  0.17132594050E+02  0.40327225405E+01  0.21979038155E+02  0.00000000000E+00 0.  1.
</event>
<event>
 7    1  0.3054835E-011  0.5052887E+02  0.7816164E-02  0.1300439E+00
        -11   -1    0    0    0    0  0.00000000000E+00  0.00000000000E+00  0.45593999997E+02  0.45594000000E+02  0.51100000000E-03 0. -1.
         11   -1    0    0    0    0 -0.00000000000E+00 -0.00000000000E+00 -0.45593999997E+02  0.45594000000E+02  0.51100000000E-03 0.  1.
    9900012    2    1    2    0    0  0.38663766756E+02  0.66992262593E+00 -0.12563024404E+02  0.50528865254E+02  0.30000016426E+02 0.  0.
         12    1    1    2    0    0 -0.38663766756E+02 -0.66992262593E+00  0.12563024404E+02  0.40659134746E+02  0.00000000000E+00 0. -1.
         11    1    3    3    0    0  0.12536915606E+02 -0.11500744747E+02 -0.42741246079E+01  0.17541651122E+02  0.51100000000E-03 0.  1.
        -11    1    3    3    0    0  0.45115442600E+01  0.89543834841E+01 -0.17646485780E+01  0.10180815294E+02  0.51100000000E-03 0. -1.
        -12    1    3    3    0    0  0.21615306890E+02  0.32162838887E+01 -0.65242512176E+01  0.22806398838E+02  0.00000000000E+00 0.  1.
</event>
<event>
 7    1  0.3054835E-011  0.5052885E+02  0.7816164E-02  0.1300439E+00
        -11   -1    0    0    0    0  0.00000000000E+00  0.00000000000E+00  0.45593999997E+02  0.45594000000E+02  0.51100000000E-03 0.  1.
         11   -1    0    0    0    0 -0.00000000000E+00 -0.00000000000E+00 -0.45593999997E+02  0.45594000000E+02  0.51100000000E-03 0. -1.
    9900012    2    1    2    0    0 -0.95237059847E+00  0.24529806104E+02  0.32412153879E+02  0.50528854456E+02  0.29999983605E+02 0.  0.
         12    1    1    2    0    0  0.95237059847E+00 -0.24529806104E+02 -0.32412153879E+02  0.40659145544E+02  0.00000000000E+00 0. -1.
         11    1    3    3    0    0 -0.50271200573E+01  0.14242733339E+01 -0.32663429002E+01  0.61619385589E+01  0.51100000000E-03 0. -1.
        -11    1    3    3    0    0 -0.22552699262E+01  0.17848344524E+02  0.22187545388E+02  0.28564607739E+02  0.51100000000E-03 0.  1.
        -12    1    3    3    0    0  0.63300193851E+01  0.52571882465E+01  0.13490951392E+02  0.15802308158E+02  0.00000000000E+00 0.  1.
</event>
<event>
 7    1  0.3054835E-011  0.5052886E+02  0.7816164E-02  0.1300439E+00
        -11   -1    0    0    0    0  0.00000000000E+00  0.00000000000E+00  0.45593999997E+02  0.45594000000E+02  0.51100000000E-03 0.  1.
         11   -1    0    0    0    0 -0.00000000000E+00 -0.00000000000E+00 -0.45593999997E+02  0.45594000000E+02  0.51100000000E-03 0. -1.
    9900012    2    1    2    0    0 -0.44174061126E+01  0.10725740132E+02  0.38969353481E+02  0.50528862172E+02  0.30000007059E+02 0.  0.
         12    1    1    2    0    0  0.44174061126E+01 -0.10725740132E+02 -0.38969353481E+02  0.40659137828E+02  0.00000000000E+00 0. -1.
         11    1    3    3    0    0 -0.13243880804E+01 -0.90095353057E+01  0.20476880291E+02  0.22410451957E+02  0.51100000000E-03 0.  1.
        -11    1    3    3    0    0 -0.52126705977E+01  0.11249082438E+02  0.11654014455E+02  0.17015576500E+02  0.51100000000E-03 0. -1.
        -12    1    3    3    0    0  0.21196525655E+01  0.84861929997E+01  0.68384587356E+01  0.11102833715E+02  0.00000000000E+00 0.  1.
</event>
<event>
 7    1  0.3054835E-011  0.5052886E+02  0.7816164E-02  0.1300439E+00
        -11   -1    0    0    0    0  0.00000000000E+00  0.00000000000E+00  0.45593999997E+02  0.45594000000E+02  0.51100000000E-03 0.  1.
         11   -1    0    0    0    0 -0.00000000000E+00 -0.00000000000E+00 -0.45593999997E+02  0.45594000000E+02  0.51100000000E-03 0. -1.
    9900012    2    1    2    0    0 -0.51938501609E+01  0.10557739441E+02  0.38919453086E+02  0.50528858714E+02  0.29999996548E+02 0.  0.
         12    1    1    2    0    0  0.51938501609E+01 -0.10557739441E+02 -0.38919453086E+02  0.40659141286E+02  0.00000000000E+00 0. -1.
         11    1    3    3    0    0 -0.22944605504E+01 -0.35897508684E+01  0.24354908088E+01  0.49073899636E+01  0.51100000000E-03 0. -1.
        -11    1    3    3    0    0 -0.48212398015E+01  0.20335312987E+02  0.28416632368E+02  0.35274272536E+02  0.51100000000E-03 0.  1.
        -12    1    3    3    0    0  0.19218501910E+01 -0.61878226781E+01  0.80673299088E+01  0.10347196215E+02  0.00000000000E+00 0.  1.
</event>
<event>
 7    1  0.3054835E-011  0.5052889E+02  0.7816164E-02  0.1300439E+00
        -11   -1    0    0    0    0  0.00000000000E+00  0.00000000000E+00  0.45593999997E+02  0.45594000000E+02  0.51100000000E-03 0. -1.
         11   -1    0    0    0    0 -0.00000000000E+00 -0.00000000000E+00 -0.45593999997E+02  0.45594000000E+02  0.51100000000E-03 0.  1.
    9900012    2    1    2    0    0 -0.28681002921E+02 -0.10747740726E+02 -0.26740414015E+02  0.50528885389E+02  0.30000077627E+02 0.  0.
         12    1    1    2    0    0  0.28681002921E+02  0.10747740726E+02  0.26740414015E+02  0.40659114611E+02  0.00000000000E+00 0. -1.
         11    1    3    3    0    0 -0.30476840471E+01  0.73499027480E+01 -0.98973517254E+00  0.80180436784E+01  0.51100000000E-03 0. -1.
        -11    1    3    3    0    0 -0.10909444701E+02 -0.22652162025E+01 -0.14034428549E+02  0.17919608620E+02  0.51100000000E-03 0.  1.
         12    1    3    3    0    0 -0.14723874173E+02 -0.15832427271E+02 -0.11716250293E+02  0.24591233091E+02  0.00000000000E+00 0. -1.
</event>
<event>
 7    1  0.3054835E-011  0.5052886E+02  0.7816164E-02  0.1300439E+00
        -11   -1    0    0    0    0  0.00000000000E+00  0.00000000000E+00  0.45593999997E+02  0.45594000000E+02  0.51100000000E-03 0. -1.
         11   -1    0    0    0    0 -0.00000000000E+00 -0.00000000000E+00 -0.45593999997E+02  0.45594000000E+02  0.51100000000E-03 0.  1.
    9900012    2    1    2    0    0  0.54667528744E+01 -0.18351203586E+02 -0.35868001218E+02  0.50528861158E+02  0.30000003975E+02 0.  0.
         12    1    1    2    0    0 -0.54667528744E+01  0.18351203586E+02  0.35868001218E+02  0.40659138842E+02  0.00000000000E+00 0. -1.
         11    1    3    3    0    0 -0.54161379711E+01 -0.15095295900E+02 -0.23613842852E+02  0.28544983505E+02  0.51100000000E-03 0. -1.
        -11    1    3    3    0    0  0.44863546375E+01  0.54423063648E+01 -0.71425606603E+01  0.10038040125E+02  0.51100000000E-03 0.  1.
         12    1    3    3    0    0  0.63965362080E+01 -0.86982140507E+01 -0.51115977055E+01  0.11945837528E+02  0.00000000000E+00 0. -1.
</event>
<event>
 7    1  0.3054835E-011  0.5052895E+02  0.7816164E-02  0.1300438E+00
        -11   -1    0    0    0    0  0.00000000000E+00  0.00000000000E+00  0.45593999997E+02  0.45594000000E+02  0.51100000000E-03 0. -1.
         11   -1    0    0    0    0 -0.00000000000E+00 -0.00000000000E+00 -0.45593999997E+02  0.45594000000E+02  0.51100000000E-03 0.  1.
    9900012    2    1    2    0    0  0.21872036654E+02  0.34143461719E+02 -0.29993519544E+01  0.50528953311E+02  0.30000284083E+02 0.  0.
         12    1    1    2    0    0 -0.21872036654E+02 -0.34143461719E+02  0.29993519544E+01  0.40659046689E+02  0.00000000000E+00 0. -1.
         11    1    3    3    0    0  0.80973707917E+01  0.30205629645E+02  0.72114277840E+01  0.32092867851E+02  0.51100000000E-03 0. -1.
        -11    1    3    3    0    0  0.50949092106E+01  0.30375576344E+01 -0.69090233718E+01  0.91060123249E+01  0.51100000000E-03 0.  1.
         12    1    3    3    0    0  0.86797566515E+01  0.90027443923E+00 -0.33017563666E+01  0.93300731347E+01  0.00000000000E+00 0. -1.
</event>
<event>
 7    1  0.3054835E-011  0.5052887E+02  0.7816164E-02  0.1300439E+00
        -11   -1    0    0    0    0  0.00000000000E+00  0.00000000000E+00  0.45593999997E+02  0.45594000000E+02  0.51100000000E-03 0.  1.
         11   -1    0    0    0    0 -0.00000000000E+00 -0.00000000000E+00 -0.45593999997E+02  0.45594000000E+02  0.51100000000E-03 0. -1.
    9900012    2    1    2    0    0 -0.86911845078E+01  0.34568287317E+02  0.19561735981E+02  0.50528871987E+02  0.30000036891E+02 0.  0.
         12    1    1    2    0    0  0.86911845078E+01 -0.34568287317E+02 -0.19561735981E+02  0.40659128013E+02  0.00000000000E+00 0. -1.
         11    1    3    3    0    0 -0.57336351092E+01 -0.30121653659E+00  0.71644302168E+01  0.91811961944E+01  0.51100000000E-03 0. -1.
        -11    1    3    3    0    0  0.76946780384E+01  0.15339218429E+02  0.62997419485E+01  0.18280766970E+02  0.51100000000E-03 0.  1.
         12    1    3    3    0    0 -0.10652227437E+02  0.19530285425E+02  0.60975638161E+01  0.23066908823E+02  0.00000000000E+00 0. -1.
</event>
<event>
 7    1  0.3054835E-011  0.5052886E+02  0.7816164E-02  0.1300439E+00
        -11   -1    0    0    0    0  0.00000000000E+00  0.00000000000E+00  0.45593999997E+02  0.45594000000E+02  0.51100000000E-03 0.  1.
         11   -1    0    0    0    0 -0.00000000000E+00 -0.00000000000E+00 -0.45593999997E+02  0.45594000000E+02  0.51100000000E-03 0. -1.
    9900012    2    1    2    0    0  0.27653253093E+02  0.23896165641E+01  0.29711166162E+02  0.50528855043E+02  0.29999985388E+02 0.  0.
         12    1    1    2    0    0 -0.27653253093E+02 -0.23896165641E+01 -0.29711166162E+02  0.40659144957E+02  0.00000000000E+00 0. -1.
         11    1    3    3    0    0  0.10099955139E+02 -0.12518814115E+02  0.12326686153E+02  0.20265166972E+02  0.51100000000E-03 0. -1.
        -11    1    3    3    0    0  0.70102787337E+00  0.51905666793E+01  0.27176265938E+01  0.59007556377E+01  0.51100000000E-03 0.  1.
         12    1    3    3    0    0  0.16852270081E+02  0.97178639999E+01  0.14666853415E+02  0.24362932433E+02  0.00000000000E+00 0. -1.
</event>
<event>
 7    1  0.3054835E-011  0.5052886E+02  0.7816164E-02  0.1300439E+00
        -11   -1    0    0    0    0  0.00000000000E+00  0.00000000000E+00  0.45593999997E+02  0.45594000000E+02  0.51100000000E-03 0. -1.
         11   -1    0    0    0    0 -0.00000000000E+00 -0.00000000000E+00 -0.45593999997E+02  0.45594000000E+02  0.51100000000E-03 0.  1.
    9900012    2    1    2    0    0  0.30561837437E+02  0.24755536147E+02  0.10310343519E+02  0.50528860056E+02  0.30000000628E+02 0.  0.
         12    1    1    2    0    0 -0.30561837437E+02 -0.24755536147E+02 -0.10310343519E+02  0.40659139944E+02  0.00000000000E+00 0. -1.
         11    1    3    3    0    0  0.11630138377E+02  0.13631372180E+02  0.10123123143E+02  0.20580380186E+02  0.51100000000E-03 0.  1.
        -11    1    3    3    0    0  0.12570324597E+02  0.59503862396E+01 -0.98095545811E+01  0.17019033998E+02  0.51100000000E-03 0. -1.
        -12    1    3    3    0    0  0.63613744638E+01  0.51737777272E+01  0.99967749566E+01  0.12929445873E+02  0.00000000000E+00 0.  1.
</event>
<event>
 7    1  0.3054835E-011  0.5052885E+02  0.7816164E-02  0.1300439E+00
        -11   -1    0    0    0    0  0.00000000000E+00  0.00000000000E+00  0.45593999997E+02  0.45594000000E+02  0.51100000000E-03 0.  1.
         11   -1    0    0    0    0 -0.00000000000E+00 -0.00000000000E+00 -0.45593999997E+02  0.45594000000E+02  0.51100000000E-03 0. -1.
    9900012    2    1    2    0    0  0.20244162905E+01 -0.39512653684E+02 -0.93711491694E+01  0.50528849748E+02  0.29999969293E+02 0.  0.
         12    1    1    2    0    0 -0.20244162905E+01  0.39512653684E+02  0.93711491694E+01  0.40659150252E+02  0.00000000000E+00 0. -1.
         11    1    3    3    0    0  0.72451681864E+01 -0.27366230063E+02 -0.12836482851E+02  0.31083408793E+02  0.51100000000E-03 0. -1.
        -11    1    3    3    0    0  0.31453968574E+01 -0.81473195910E+01  0.49742541100E+01  0.10050648841E+02  0.51100000000E-03 0.  1.
         12    1    3    3    0    0 -0.83661487533E+01 -0.39991040300E+01 -0.15089204281E+01  0.93947921139E+01  0.00000000000E+00 0. -1.
</event>
<event>
 7    1  0.3054835E-011  0.5052889E+02  0.7816164E-02  0.1300439E+00
        -11   -1    0    0    0    0  0.00000000000E+00  0.00000000000E+00  0.45593999997E+02  0.45594000000E+02  0.51100000000E-03 0.  1.
         11   -1    0    0    0    0 -0.00000000000E+00 -0.00000000000E+00 -0.45593999997E+02  0.45594000000E+02  0.51100000000E-03 0. -1.
    9900012    2    1    2    0    0  0.35025428761E+02  0.16841178309E+02  0.11948122805E+02  0.50528885581E+02  0.30000078213E+02 0.  0.
         12    1    1    2    0    0 -0.35025428761E+02 -0.16841178309E+02 -0.11948122805E+02  0.40659114419E+02  0.00000000000E+00 0. -1.
         11    1    3    3    0    0  0.31024326608E+01 -0.48149326205E+01 -0.44739976550E+01  0.72681029047E+01  0.51100000000E-03 0. -1.
        -11    1    3    3    0    0  0.28407946632E+02  0.15919027875E+02  0.16555963425E+02  0.36531175803E+02  0.51100000000E-03 0.  1.
        -12    1    3    3    0    0  0.35150494678E+01  0.57370830549E+01 -0.13384296489E+00  0.67296068740E+01  0.00000000000E+00 0.  1.
</event>
<event>
 7    1  0.3054835E-011  0.5052881E+02  0.7816164E-02  0.1300439E+00
        -11   -1    0    0    0    0  0.00000000000E+00  0.00000000000E+00  0.45593999997E+02  0.45594000000E+02  0.51100000000E-03 0.  1.
         11   -1    0    0    0    0 -0.00000000000E+00 -0.00000000000E+00 -0.45593999997E+02  0.45594000000E+02  0.51100000000E-03 0. -1.
    9900012    2    1    2    0    0  0.13129129441E+02  0.27627483895E+02  0.26786530623E+02  0.50528805110E+02  0.29999833613E+02 0.  0.
         12    1    1    2    0    0 -0.13129129441E+02 -0.27627483895E+02 -0.26786530623E+02  0.40659194890E+02  0.00000000000E+00 0. -1.
         11    1    3    3    0    0 -0.34690703290E+01  0.16562187791E+02  0.14254073808E+02  0.22125079294E+02  0.51100000000E-03 0. -1.
        -11    1    3    3    0    0  0.76628994188E+01 -0.19529728710E+01  0.94391292140E+01  0.12313865807E+02  0.51100000000E-03 0.  1.
         12    1    3    3    0    0  0.89353003507E+01  0.13018268975E+02  0.30933276010E+01  0.16089860009E+02  0.00000000000E+00 0. -1.
</event>
<event>
 7    1  0.3054835E-011  0.5052887E+02  0.7816164E-02  0.1300439E+00
        -11   -1    0    0    0    0  0.00000000000E+00  0.00000000000E+00  0.45593999997E+02  0.45594000000E+02  0.51100000000E-03 0.  1.
         11   -1    0    0    0    0 -0.00000000000E+00 -0.00000000000E+00 -0.45593999997E+02  0.45594000000E+02  0.51100000000E-03 0. -1.
    9900012    2    1    2    0    0 -0.40595521089E+01  0.15483112165E+01  0.40426322630E+02  0.50528870738E+02  0.30000033096E+02 0.  0.
         12    1    1    2    0    0  0.40595521089E+01 -0.15483112165E+01 -0.40426322630E+02  0.40659129262E+02  0.00000000000E+00 0. -1.
         11    1    3    3    0    0 -0.57949283053E+01 -0.39443848591E+01  0.16185975241E+02  0.17638740339E+02  0.51100000000E-03 0. -1.
        -11    1    3    3    0    0  0.93139498273E+01  0.59709235873E+01  0.22539434463E+02  0.25108319260E+02  0.51100000000E-03 0.  1.
        -12    1    3    3    0    0 -0.75785736310E+01 -0.47822751176E+00  0.17009129257E+01  0.77818111398E+01  0.00000000000E+00 0.  1.
</event>
<event>
 7    1  0.3054835E-011  0.5052886E+02  0.7816164E-02  0.1300439E+00
        -11   -1    0    0    0    0  0.00000000000E+00  0.00000000000E+00  0.45593999997E+02  0.45594000000E+02  0.51100000000E-03 0. -1.
         11   -1    0    0    0    0 -0.00000000000E+00 -0.00000000000E+00 -0.45593999997E+02  0.45594000000E+02  0.51100000000E-03 0.  1.
    9900012    2    1    2    0    0  0.26779469259E+02 -0.27231023341E+02 -0.13946219058E+02  0.50528860413E+02  0.30000001711E+02 0.  0.
         12    1    1    2    0    0 -0.26779469259E+02  0.27231023341E+02  0.13946219058E+02  0.40659139587E+02  0.00000000000E+00 0. -1.
         11    1    3    3    0    0 -0.54519573550E+01 -0.44858360668E+01 -0.59168542829E+00  0.70849598535E+01  0.51100000000E-03 0. -1.
        -11    1    3    3    0    0  0.14478680978E+02 -0.17721900266E+02 -0.70193644673E+01  0.23936779852E+02  0.51100000000E-03 0.  1.
         12    1    3    3    0    0  0.17752745636E+02 -0.50232870083E+01 -0.63351691624E+01  0.19507120708E+02  0.00000000000E+00 0. -1.
</event>
<event>
 7    1  0.3054835E-011  0.5052886E+02  0.7816164E-02  0.1300439E+00
        -11   -1    0    0    0    0  0.00000000000E+00  0.00000000000E+00  0.45593999997E+02  0.45594000000E+02  0.51100000000E-03 0.  1.
         11   -1    0    0    0    0 -0.00000000000E+00 -0.00000000000E+00 -0.45593999997E+02  0.45594000000E+02  0.51100000000E-03 0. -1.
    9900012    2    1    2    0    0 -0.28598648985E+02  0.12762823933E+02  0.25930549331E+02  0.50528858505E+02  0.29999995912E+02 0.  0.
         12    1    1    2    0    0  0.28598648985E+02 -0.12762823933E+02 -0.25930549331E+02  0.40659141495E+02  0.00000000000E+00 0. -1.
         11    1    3    3    0    0 -0.26079786379E+02  0.81232363037E+01  0.12222491933E+02  0.29925432911E+02  0.51100000000E-03 0. -1.
        -11    1    3    3    0    0 -0.43734726745E+01  0.19502413293E+01  0.15942102070E+02  0.16645759915E+02  0.51100000000E-03 0.  1.
         12    1    3    3    0    0  0.18546100690E+01  0.26893462996E+01 -0.22340446717E+01  0.39576656784E+01  0.00000000000E+00 0. -1.
</event>
<event>
 7    1  0.3054835E-011  0.5052886E+02  0.7816164E-02  0.1300439E+00
        -11   -1    0    0    0    0  0.00000000000E+00  0.00000000000E+00  0.45593999997E+02  0.45594000000E+02  0.51100000000E-03 0. -1.
         11   -1    0    0    0    0 -0.00000000000E+00 -0.00000000000E+00 -0.45593999997E+02  0.45594000000E+02  0.51100000000E-03 0.  1.
    9900012    2    1    2    0    0  0.27539729848E+01 -0.19396193471E+02 -0.35628206098E+02  0.50528858861E+02  0.29999996995E+02 0.  0.
         12    1    1    2    0    0 -0.27539729848E+01  0.19396193471E+02  0.35628206098E+02  0.40659141139E+02  0.00000000000E+00 0. -1.
         11    1    3    3    0    0  0.16784681627E+01 -0.13864594977E+02 -0.94980700082E+01  0.16889570254E+02  0.51100000000E-03 0. -1.
        -11    1    3    3    0    0  0.60388277867E+01  0.35690398477E+01 -0.20865215815E+02  0.22012785324E+02  0.51100000000E-03 0.  1.
        -12    1    3    3    0    0 -0.49633229645E+01 -0.91006383419E+01 -0.52649202753E+01  0.11626503283E+02  0.00000000000E+00 0.  1.
</event>
<event>
 7    1  0.3054835E-011  0.5052893E+02  0.7816164E-02  0.1300439E+00
        -11   -1    0    0    0    0  0.00000000000E+00  0.00000000000E+00  0.45593999997E+02  0.45594000000E+02  0.51100000000E-03 0.  1.
         11   -1    0    0    0    0 -0.00000000000E+00 -0.00000000000E+00 -0.45593999997E+02  0.45594000000E+02  0.51100000000E-03 0. -1.
    9900012    2    1    2    0    0  0.85861787690E+01 -0.23437946530E+01  0.39672965840E+02  0.50528928961E+02  0.30000210069E+02 0.  0.
         12    1    1    2    0    0 -0.85861787690E+01  0.23437946530E+01 -0.39672965840E+02  0.40659071039E+02  0.00000000000E+00 0. -1.
         11    1    3    3    0    0  0.33603800094E+01  0.59237241011E+01  0.33024881994E+02  0.33719808599E+02  0.51100000000E-03 0.  1.
        -11    1    3    3    0    0  0.76831963267E+01 -0.95775842160E+01  0.67708401677E+01  0.14021622661E+02  0.51100000000E-03 0. -1.
         12    1    3    3    0    0 -0.24573975671E+01  0.13100654619E+01 -0.12275632143E+00  0.27874977007E+01  0.00000000000E+00 0. -1.
</event>
<event>
 7    1  0.3054835E-011  0.5052886E+02  0.7816164E-02  0.1300439E+00
        -11   -1    0    0    0    0  0.00000000000E+00  0.00000000000E+00  0.45593999997E+02  0.45594000000E+02  0.51100000000E-03 0.  1.
         11   -1    0    0    0    0 -0.00000000000E+00 -0.00000000000E+00 -0.45593999997E+02  0.45594000000E+02  0.51100000000E-03 0. -1.
    9900012    2    1    2    0    0 -0.17913496940E+02 -0.13281884982E+02  0.33997994963E+02  0.50528862001E+02  0.30000006538E+02 0.  0.
         12    1    1    2    0    0  0.17913496940E+02  0.13281884982E+02 -0.33997994963E+02  0.40659137999E+02  0.00000000000E+00 0. -1.
         11    1    3    3    0    0 -0.36170186702E+01 -0.18461878165E+02  0.13474260338E+02  0.23140429153E+02  0.51100000000E-03 0. -1.
        -11    1    3    3    0    0 -0.59111886825E+01  0.73609545965E+01  0.99040456477E+01  0.13682687041E+02  0.51100000000E-03 0.  1.
         12    1    3    3    0    0 -0.83852895872E+01 -0.21809614134E+01  0.10619688977E+02  0.13705745807E+02  0.00000000000E+00 0. -1.
</event>
<event>
 7    1  0.3054835E-011  0.5052886E+02  0.7816164E-02  0.1300439E+00
        -11   -1    0    0    0    0  0.00000000000E+00  0.00000000000E+00  0.45593999997E+02  0.45594000000E+02  0.51100000000E-03 0. -1.
         11   -1    0    0    0    0 -0.00000000000E+00 -0.00000000000E+00 -0.45593999997E+02  0.45594000000E+02  0.51100000000E-03 0.  1.
    9900012    2    1    2    0    0 -0.27467768931E+02  0.17042550233E+01 -0.29929637530E+02  0.50528855667E+02  0.29999987284E+02 0.  0.
         12    1    1    2    0    0  0.27467768931E+02 -0.17042550233E+01  0.29929637530E+02  0.40659144333E+02  0.00000000000E+00 0. -1.
         11    1    3    3    0    0 -0.10554031078E+02  0.11162924484E+02 -0.22241557566E+02  0.27031191951E+02  0.51100000000E-03 0. -1.
        -11    1    3    3    0    0 -0.15744327368E+02 -0.36551887457E+01 -0.66951970388E+01  0.17494853891E+02  0.51100000000E-03 0.  1.
        -12    1    3    3    0    0 -0.11694104849E+01 -0.58034807149E+01 -0.99288292535E+00  0.60028098249E+01  0.00000000000E+00 0.  1.
</event>
<event>
 7    1  0.3054835E-011  0.5052885E+02  0.7816164E-02  0.1300439E+00
        -11   -1    0    0    0    0  0.00000000000E+00  0.00000000000E+00  0.45593999997E+02  0.45594000000E+02  0.51100000000E-03 0. -1.
         11   -1    0    0    0    0 -0.00000000000E+00 -0.00000000000E+00 -0.45593999997E+02  0.45594000000E+02  0.51100000000E-03 0.  1.
    9900012    2    1    2    0    0  0.11856368347E+02 -0.38593509373E+02 -0.48097541448E+01  0.50528853784E+02  0.29999981562E+02 0.  0.
         12    1    1    2    0    0 -0.11856368347E+02  0.38593509373E+02  0.48097541448E+01  0.40659146216E+02  0.00000000000E+00 0. -1.
         11    1    3    3    0    0  0.33566312845E+00 -0.37487416385E+01  0.10069438607E+02  0.10749852451E+02  0.51100000000E-03 0. -1.
        -11    1    3    3    0    0  0.66088433349E+01 -0.16310211500E+02 -0.55293994040E+01  0.18446519115E+02  0.51100000000E-03 0.  1.
         12    1    3    3    0    0  0.49118618836E+01 -0.18534556234E+02 -0.93497933476E+01  0.21332482218E+02  0.00000000000E+00 0. -1.
</event>
<event>
 7    1  0.3054835E-011  0.5052885E+02  0.7816164E-02  0.1300439E+00
        -11   -1    0    0    0    0  0.00000000000E+00  0.00000000000E+00  0.45593999997E+02  0.45594000000E+02  0.51100000000E-03 0.  1.
         11   -1    0    0    0    0 -0.00000000000E+00 -0.00000000000E+00 -0.45593999997E+02  0.45594000000E+02  0.51100000000E-03 0. -1.
    9900012    2    1    2    0    0  0.18254359224E+02 -0.40300488111E+01  0.36106831565E+02  0.50528853308E+02  0.29999980114E+02 0.  0.
         12    1    1    2    0    0 -0.18254359224E+02  0.40300488111E+01 -0.36106831565E+02  0.40659146692E+02  0.00000000000E+00 0. -1.
         11    1    3    3    0    0  0.84209100851E+01 -0.10797831889E+02  0.15253016121E+02  0.20497790154E+02  0.51100000000E-03 0.  1.
        -11    1    3    3    0    0  0.12085496118E+02  0.11029371128E+02  0.13371518810E+02  0.21130635566E+02  0.51100000000E-03 0. -1.
         12    1    3    3    0    0 -0.22520469792E+01 -0.42615880505E+01  0.74822966344E+01  0.89004275872E+01  0.00000000000E+00 0. -1.
</event>
<event>
 7    1  0.3054835E-011  0.5052886E+02  0.7816164E-02  0.1300439E+00
        -11   -1    0    0    0    0  0.00000000000E+00  0.00000000000E+00  0.45593999997E+02  0.45594000000E+02  0.51100000000E-03 0.  1.
         11   -1    0    0    0    0 -0.00000000000E+00 -0.00000000000E+00 -0.45593999997E+02  0.45594000000E+02  0.51100000000E-03 0. -1.
    9900012    2    1    2    0    0 -0.24547276282E+02 -0.20178342532E+02  0.25365952304E+02  0.50528858144E+02  0.29999994814E+02 0.  0.
         12    1    1    2    0    0  0.24547276282E+02  0.20178342532E+02 -0.25365952304E+02  0.40659141856E+02  0.00000000000E+00 0. -1.
         11    1    3    3    0    0  0.31199450792E+00  0.24845241199E+01  0.44629081805E+00  0.25434968902E+01  0.51100000000E-03 0. -1.
        -11    1    3    3    0    0 -0.28200325725E+02 -0.24277748622E+02  0.23510041358E+02  0.44015786873E+02  0.51100000000E-03 0.  1.
        -12    1    3    3    0    0  0.33410549353E+01  0.16148819699E+01  0.14096201279E+01  0.39695743805E+01  0.00000000000E+00 0.  1.
</event>
<event>
 7    1  0.3054835E-011  0.5052886E+02  0.7816164E-02  0.1300439E+00
        -11   -1    0    0    0    0  0.00000000000E+00  0.00000000000E+00  0.45593999997E+02  0.45594000000E+02  0.51100000000E-03 0.  1.
         11   -1    0    0    0    0 -0.00000000000E+00 -0.00000000000E+00 -0.45593999997E+02  0.45594000000E+02  0.51100000000E-03 0. -1.
    9900012    2    1    2    0    0 -0.74085270706E+01  0.25911871232E+02  0.30444285198E+02  0.50528857789E+02  0.29999993736E+02 0.  0.
         12    1    1    2    0    0  0.74085270706E+01 -0.25911871232E+02 -0.30444285198E+02  0.40659142211E+02  0.00000000000E+00 0. -1.
         11    1    3    3    0    0 -0.76635448093E+01  0.19519676865E+02  0.52849016782E+01  0.21625861601E+02  0.51100000000E-03 0. -1.
        -11    1    3    3    0    0  0.60566474872E+01  0.24654562563E+01  0.77700896065E+01  0.10155577093E+02  0.51100000000E-03 0.  1.
         12    1    3    3    0    0 -0.58016297486E+01  0.39267381098E+01  0.17389293914E+02  0.18747419095E+02  0.00000000000E+00 0. -1.
</event>
<event>
 7    1  0.3054835E-011  0.5052886E+02  0.7816164E-02  0.1300439E+00
        -11   -1    0    0    0    0  0.00000000000E+00  0.00000000000E+00  0.45593999997E+02  0.45594000000E+02  0.51100000000E-03 0.  1.
         11   -1    0    0    0    0 -0.00000000000E+00 -0.00000000000E+00 -0.45593999997E+02  0.45594000000E+02  0.51100000000E-03 0. -1.
    9900012    2    1    2    0    0  0.15234444341E+02  0.14792357732E+01  0.37668147653E+02  0.50528858587E+02  0.29999996161E+02 0.  0.
         12    1    1    2    0    0 -0.15234444341E+02 -0.14792357732E+01 -0.37668147653E+02  0.40659141413E+02  0.00000000000E+00 0. -1.
         11    1    3    3    0    0 -0.52638018776E+01 -0.70236529266E+01  0.88718084663E+01  0.12479915719E+02  0.51100000000E-03 0. -1.
        -11    1    3    3    0    0  0.15526646627E+02  0.81523267784E+01  0.14011960223E+02  0.22447098185E+02  0.51100000000E-03 0.  1.
        -12    1    3    3    0    0  0.49715995922E+01  0.35056192138E+00  0.14784378963E+02  0.15601844683E+02  0.00000000000E+00 0.  1.
</event>
<event>
 7    1  0.3054835E-011  0.5052886E+02  0.7816164E-02  0.1300439E+00
        -11   -1    0    0    0    0  0.00000000000E+00  0.00000000000E+00  0.45593999997E+02  0.45594000000E+02  0.51100000000E-03 0. -1.
         11   -1    0    0    0    0 -0.00000000000E+00 -0.00000000000E+00 -0.45593999997E+02  0.45594000000E+02  0.51100000000E-03 0.  1.
    9900012    2    1    2    0    0  0.57643359632E+01 -0.22833443293E+02 -0.33144708954E+02  0.50528862855E+02  0.30000009134E+02 0.  0.
         12    1    1    2    0    0 -0.57643359632E+01  0.22833443293E+02  0.33144708954E+02  0.40659137145E+02  0.00000000000E+00 0. -1.
         11    1    3    3    0    0 -0.41623474365E+01 -0.19302826587E+02 -0.31077841676E+02  0.36820598772E+02  0.51100000000E-03 0. -1.
        -11    1    3    3    0    0  0.18007908016E+01 -0.49814650316E+01 -0.84318044662E+00  0.53636549944E+01  0.51100000000E-03 0.  1.
         12    1    3    3    0    0  0.81258925981E+01  0.14508483260E+01 -0.12236868317E+01  0.83446090887E+01  0.00000000000E+00 0. -1.
</event>
<event>
 7    1  0.3054835E-011  0.5052886E+02  0.7816164E-02  0.1300439E+00
        -11   -1    0    0    0    0  0.00000000000E+00  0.00000000000E+00  0.45593999997E+02  0.45594000000E+02  0.51100000000E-03 0. -1.
         11   -1    0    0    0    0 -0.00000000000E+00 -0.00000000000E+00 -0.45593999997E+02  0.45594000000E+02  0.51100000000E-03 0.  1.
    9900012    2    1    2    0    0  0.19839843080E+02 -0.14011519357E+02 -0.32607106336E+02  0.50528862875E+02  0.30000009195E+02 0.  0.
         12    1    1    2    0    0 -0.19839843080E+02  0.14011519357E+02  0.32607106336E+02  0.40659137125E+02  0.00000000000E+00 0. -1.
         11    1    3    3    0    0 -0.57830435909E+00  0.40883631371E+01 -0.36270407601E+01  0.54958688129E+01  0.51100000000E-03 0. -1.
        -11    1    3    3    0    0  0.18970366696E+02 -0.97748956136E+01 -0.29678127307E+02  0.36554269758E+02  0.51100000000E-03 0.  1.
        -12    1    3    3    0    0  0.14477807434E+01 -0.83249868806E+01  0.69806173121E+00  0.84787243040E+01  0.00000000000E+00 0.  1.
</event>
<event>
 7    1  0.3054835E-011  0.5052886E+02  0.7816164E-02  0.1300439E+00
        -11   -1    0    0    0    0  0.00000000000E+00  0.00000000000E+00  0.45593999997E+02  0.45594000000E+02  0.51100000000E-03 0.  1.
         11   -1    0    0    0    0 -0.00000000000E+00 -0.00000000000E+00 -0.45593999997E+02  0.45594000000E+02  0.51100000000E-03 0. -1.
    9900012    2    1    2    0    0  0.77078926933E+01  0.37005190211E+02  0.14978974274E+02  0.50528863479E+02  0.30000011031E+02 0.  0.
         12    1    1    2    0    0 -0.77078926933E+01 -0.37005190211E+02 -0.14978974274E+02  0.40659136521E+02  0.00000000000E+00 0. -1.
         11    1    3    3    0    0  0.37163387433E+00  0.10874768576E+02 -0.44460950313E+00  0.10890196564E+02  0.51100000000E-03 0. -1.
        -11    1    3    3    0    0  0.85838634130E+01  0.13139754691E+02  0.20341231252E+02  0.25692441564E+02  0.51100000000E-03 0.  1.
        -12    1    3    3    0    0 -0.12476045939E+01  0.12990666944E+02 -0.49176474747E+01  0.13946225352E+02  0.00000000000E+00 0.  1.
</event>
<event>
 7    1  0.3054835E-011  0.5052886E+02  0.7816164E-02  0.1300439E+00
        -11   -1    0    0    0    0  0.00000000000E+00  0.00000000000E+00  0.45593999997E+02  0.45594000000E+02  0.51100000000E-03 0. -1.
         11   -1    0    0    0    0 -0.00000000000E+00 -0.00000000000E+00 -0.45593999997E+02  0.45594000000E+02  0.51100000000E-03 0.  1.
    9900012    2    1    2    0    0  0.14642239842E+02  0.35618331593E+02 -0.13042415340E+02  0.50528864115E+02  0.30000012962E+02 0.  0.
         12    1    1    2    0    0 -0.14642239842E+02 -0.35618331593E+02  0.13042415340E+02  0.40659135885E+02  0.00000000000E+00 0. -1.
         11    1    3    3    0    0  0.31574432622E+01  0.24469479062E+02 -0.15067724120E+02  0.28909534136E+02  0.51100000000E-03 0.  1.
        -11    1    3    3    0    0 -0.14644369453E+01  0.57367338179E+01  0.44111035330E+01  0.73832597884E+01  0.51100000000E-03 0. -1.
         12    1    3    3    0    0  0.12949233525E+02  0.54121187124E+01 -0.23857947532E+01  0.14236070190E+02  0.00000000000E+00 0. -1.
</event>
<event>
 7    1  0.3054835E-011  0.5052886E+02  0.7816164E-02  0.1300439E+00
        -11   -1    0    0    0    0  0.00000000000E+00  0.00000000000E+00  0.45593999997E+02  0.45594000000E+02  0.51100000000E-03 0.  1.
         11   -1    0    0    0    0 -0.00000000000E+00 -0.00000000000E+00 -0.45593999997E+02  0.45594000000E+02  0.51100000000E-03 0. -1.
    9900012    2    1    2    0    0  0.10384304261E+02 -0.38036516102E+01  0.39126254531E+02  0.50528864075E+02  0.30000012841E+02 0.  0.
         12    1    1    2    0    0 -0.10384304261E+02  0.38036516102E+01 -0.39126254531E+02  0.40659135925E+02  0.00000000000E+00 0. -1.
         11    1    3    3    0    0 -0.14096290795E+01  0.15956600144E+01 -0.17849632306E+01  0.27783590515E+01  0.51100000000E-03 0. -1.
        -11    1    3    3    0    0  0.16837398207E+02 -0.81546218696E+01  0.33526926703E+02  0.38393367274E+02  0.51100000000E-03 0.  1.
        -12    1    3    3    0    0 -0.50434648672E+01  0.27553102450E+01  0.73842910592E+01  0.93571377493E+01  0.00000000000E+00 0.  1.
</event>
<event>
 7    1  0.3054835E-011  0.5052895E+02  0.7816164E-02  0.1300438E+00
        -11   -1    0    0    0    0  0.00000000000E+00  0.00000000000E+00  0.45593999997E+02  0.45594000000E+02  0.51100000000E-03 0. -1.
         11   -1    0    0    0    0 -0.00000000000E+00 -0.00000000000E+00 -0.45593999997E+02  0.45594000000E+02  0.51100000000E-03 0.  1.
    9900012    2    1    2    0    0 -0.39769612288E+02 -0.81027421119E+01  0.24252812200E+01  0.50528948360E+02  0.30000269033E+02 0.  0.
         12    1    1    2    0    0  0.39769612288E+02  0.81027421119E+01 -0.24252812200E+01  0.40659051640E+02  0.00000000000E+00 0. -1.
         11    1    3    3    0    0  0.29778744073E+00 -0.10951155226E+01  0.98338218707E+00  0.15016644614E+01  0.51100000000E-03 0. -1.
        -11    1    3    3    0    0 -0.10848200275E+02  0.83728526459E+01  0.72454929236E+01  0.15501137978E+02  0.51100000000E-03 0.  1.
        -12    1    3    3    0    0 -0.29219199454E+02 -0.15380479235E+02 -0.58035938907E+01  0.33526145920E+02  0.00000000000E+00 0.  1.
</event>
<event>
 7    1  0.3054835E-011  0.5052883E+02  0.7816164E-02  0.1300439E+00
        -11   -1    0    0    0    0  0.00000000000E+00  0.00000000000E+00  0.45593999997E+02  0.45594000000E+02  0.51100000000E-03 0. -1.
         11   -1    0    0    0    0 -0.00000000000E+00 -0.00000000000E+00 -0.45593999997E+02  0.45594000000E+02  0.51100000000E-03 0.  1.
    9900012    2    1    2    0    0 -0.16934901255E+02 -0.36847026574E+02  0.29451771225E+01  0.50528827405E+02  0.29999901380E+02 0.  0.
         12    1    1    2    0    0  0.16934901255E+02  0.36847026574E+02 -0.29451771225E+01  0.40659172595E+02  0.00000000000E+00 0. -1.
         11    1    3    3    0    0 -0.38412208282E+01 -0.13095314436E+02  0.13273016982E+02  0.19037206142E+02  0.51100000000E-03 0. -1.
        -11    1    3    3    0    0 -0.12084277907E+02 -0.22136222382E+02 -0.48367399644E+01  0.25679489240E+02  0.51100000000E-03 0.  1.
         12    1    3    3    0    0 -0.10094025198E+01 -0.16154897554E+01 -0.54910998948E+01  0.58121320228E+01  0.00000000000E+00 0. -1.
</event>
<event>
 7    1  0.3054835E-011  0.5052889E+02  0.7816164E-02  0.1300439E+00
        -11   -1    0    0    0    0  0.00000000000E+00  0.00000000000E+00  0.45593999997E+02  0.45594000000E+02  0.51100000000E-03 0.  1.
         11   -1    0    0    0    0 -0.00000000000E+00 -0.00000000000E+00 -0.45593999997E+02  0.45594000000E+02  0.51100000000E-03 0. -1.
    9900012    2    1    2    0    0 -0.31636662749E+02  0.18457216446E+02  0.17652640197E+02  0.50528893090E+02  0.30000101035E+02 0.  0.
         12    1    1    2    0    0  0.31636662749E+02 -0.18457216446E+02 -0.17652640197E+02  0.40659106910E+02  0.00000000000E+00 0. -1.
         11    1    3    3    0    0 -0.68701515720E+01  0.16440061653E+02 -0.27504386359E+01  0.18028852507E+02  0.51100000000E-03 0. -1.
        -11    1    3    3    0    0 -0.14953097834E+02  0.35042360592E+01  0.12917329830E+02  0.20068189140E+02  0.51100000000E-03 0.  1.
         12    1    3    3    0    0 -0.98134133438E+01 -0.14870812664E+01  0.74857490026E+01  0.12431851442E+02  0.00000000000E+00 0. -1.
</event>
<event>
 7    1  0.3054835E-011  0.5052886E+02  0.7816164E-02  0.1300439E+00
        -11   -1    0    0    0    0  0.00000000000E+00  0.00000000000E+00  0.45593999997E+02  0.45594000000E+02  0.51100000000E-03 0.  1.
         11   -1    0    0    0    0 -0.00000000000E+00 -0.00000000000E+00 -0.45593999997E+02  0.45594000000E+02  0.51100000000E-03 0. -1.
    9900012    2    1    2    0    0  0.14706973378E+02  0.25555039281E+02  0.27996623287E+02  0.50528855714E+02  0.29999987428E+02 0.  0.
         12    1    1    2    0    0 -0.14706973378E+02 -0.25555039281E+02 -0.27996623287E+02  0.40659144286E+02  0.00000000000E+00 0. -1.
         11    1    3    3    0    0  0.46924133551E+01 -0.46756741079E+01  0.95111071566E+01  0.11590592352E+02  0.51100000000E-03 0. -1.
        -11    1    3    3    0    0 -0.20477139174E+01  0.98985000276E+01  0.25399211269E+01  0.10422314267E+02  0.51100000000E-03 0.  1.
         12    1    3    3    0    0  0.12062273941E+02  0.20332213361E+02  0.15945595004E+02  0.28515949095E+02  0.00000000000E+00 0. -1.
</event>
<event>
 7    1  0.3054835E-011  0.5052886E+02  0.7816164E-02  0.1300439E+00
        -11   -1    0    0    0    0  0.00000000000E+00  0.00000000000E+00  0.45593999997E+02  0.45594000000E+02  0.51100000000E-03 0.  1.
         11   -1    0    0    0    0 -0.00000000000E+00 -0.00000000000E+00 -0.45593999997E+02  0.45594000000E+02  0.51100000000E-03 0. -1.
    9900012    2    1    2    0    0  0.53483848961E+01  0.21840922594E+02  0.33875279817E+02  0.50528859534E+02  0.29999999041E+02 0.  0.
         12    1    1    2    0    0 -0.53483848961E+01 -0.21840922594E+02 -0.33875279817E+02  0.40659140466E+02  0.00000000000E+00 0. -1.
         11    1    3    3    0    0 -0.75438431665E+01  0.14756337343E+02  0.18182662809E+02  0.24602200889E+02  0.51100000000E-03 0. -1.
        -11    1    3    3    0    0  0.14538103292E+02  0.92499903689E+01  0.15538049191E+02  0.23202365011E+02  0.51100000000E-03 0.  1.
         12    1    3    3    0    0 -0.16458752299E+01 -0.21654051181E+01  0.15456781679E+00  0.27242936346E+01  0.00000000000E+00 0. -1.
</event>
<event>
 7    1  0.3054835E-011  0.5052887E+02  0.7816164E-02  0.1300439E+00
        -11   -1    0    0    0    0  0.00000000000E+00  0.00000000000E+00  0.45593999997E+02  0.45594000000E+02  0.51100000000E-03 0.  1.
         11   -1    0    0    0    0 -0.00000000000E+00 -0.00000000000E+00 -0.45593999997E+02  0.45594000000E+02  0.51100000000E-03 0. -1.
    9900012    2    1    2    0    0  0.28595766011E+02  0.27838066711E+01  0.28769731248E+02  0.50528870036E+02  0.30000030962E+02 0.  0.
         12    1    1    2    0    0 -0.28595766011E+02 -0.27838066711E+01 -0.28769731248E+02  0.40659129964E+02  0.00000000000E+00 0. -1.
         11    1    3    3    0    0  0.10106519702E+02 -0.10907757478E+02  0.44081755982E+01  0.15509768730E+02  0.51100000000E-03 0. -1.
        -11    1    3    3    0    0  0.63062010787E+01  0.39699703433E+01  0.15228599023E+02  0.16954027989E+02  0.51100000000E-03 0.  1.
         12    1    3    3    0    0  0.12183045230E+02  0.97215938062E+01  0.91329566265E+01  0.18065073317E+02  0.00000000000E+00 0. -1.
</event>
<event>
 7    1  0.3054835E-011  0.5052894E+02  0.7816164E-02  0.1300439E+00
        -11   -1    0    0    0    0  0.00000000000E+00  0.00000000000E+00  0.45593999997E+02  0.45594000000E+02  0.51100000000E-03 0. -1.
         11   -1    0    0    0    0 -0.00000000000E+00 -0.00000000000E+00 -0.45593999997E+02  0.45594000000E+02  0.51100000000E-03 0.  1.
    9900012    2    1    2    0    0 -0.37306880549E+02  0.76892483050E+01 -0.14220796783E+02  0.50528942744E+02  0.30000251965E+02 0.  0.
         12    1    1    2    0    0  0.37306880549E+02 -0.76892483050E+01  0.14220796783E+02  0.40659057256E+02  0.00000000000E+00 0. -1.
         11    1    3    3    0    0  0.34393418754E+01 -0.92653497096E+00 -0.29788571486E+01  0.46433963606E+01  0.51100000000E-03 0. -1.
        -11    1    3    3    0    0 -0.36184998165E+02  0.12345773041E+02 -0.11679167425E+02  0.39977182945E+02  0.51100000000E-03 0.  1.
        -12    1    3    3    0    0 -0.45612242587E+01 -0.37299897650E+01  0.43722779033E+00  0.59083634388E+01  0.00000000000E+00 0.  1.
</event>
<event>
 7    1  0.3054835E-011  0.5052885E+02  0.7816164E-02  0.1300439E+00
        -11   -1    0    0    0    0  0.00000000000E+00  0.00000000000E+00  0.45593999997E+02  0.45594000000E+02  0.51100000000E-03 0.  1.
         11   -1    0    0    0    0 -0.00000000000E+00 -0.00000000000E+00 -0.45593999997E+02  0.45594000000E+02  0.51100000000E-03 0. -1.
    9900012    2    1    2    0    0  0.17349530783E+02 -0.27959862056E+02  0.23883180091E+02  0.50528851019E+02  0.29999973158E+02 0.  0.
         12    1    1    2    0    0 -0.17349530783E+02  0.27959862056E+02 -0.23883180091E+02  0.40659148981E+02  0.00000000000E+00 0. -1.
         11    1    3    3    0    0 -0.26787342371E+01 -0.16323245778E+02  0.19175060753E+01  0.16652351175E+02  0.51100000000E-03 0. -1.
        -11    1    3    3    0    0  0.52088450238E+01 -0.66795131745E+01  0.13934463045E+02  0.16306968552E+02  0.51100000000E-03 0.  1.
         12    1    3    3    0    0  0.14819419996E+02 -0.49571031035E+01  0.80312109711E+01  0.17569531293E+02  0.00000000000E+00 0. -1.
</event>
<event>
 7    1  0.3054835E-011  0.5052884E+02  0.7816164E-02  0.1300439E+00
        -11   -1    0    0    0    0  0.00000000000E+00  0.00000000000E+00  0.45593999997E+02  0.45594000000E+02  0.51100000000E-03 0. -1.
         11   -1    0    0    0    0 -0.00000000000E+00 -0.00000000000E+00 -0.45593999997E+02  0.45594000000E+02  0.51100000000E-03 0.  1.
    9900012    2    1    2    0    0  0.15353262968E+02 -0.29307084636E+02 -0.23633432475E+02  0.50528843292E+02  0.29999949670E+02 0.  0.
         12    1    1    2    0    0 -0.15353262968E+02  0.29307084636E+02  0.23633432475E+02  0.40659156708E+02  0.00000000000E+00 0. -1.
         11    1    3    3    0    0  0.90758371967E+00  0.18505059678E+01  0.86725986431E+00  0.22361172774E+01  0.51100000000E-03 0. -1.
        -11    1    3    3    0    0  0.75161104345E+01 -0.33144698928E+02 -0.17430152111E+02  0.38195198467E+02  0.51100000000E-03 0.  1.
        -12    1    3    3    0    0  0.69295688142E+01  0.19871083238E+01 -0.70705402288E+01  0.10097527547E+02  0.00000000000E+00 0.  1.
</event>
<event>
 7    1  0.3054835E-011  0.5052878E+02  0.7816164E-02  0.1300439E+00
        -11   -1    0    0    0    0  0.00000000000E+00  0.00000000000E+00  0.45593999997E+02  0.45594000000E+02  0.51100000000E-03 0. -1.
         11   -1    0    0    0    0 -0.00000000000E+00 -0.00000000000E+00 -0.45593999997E+02  0.45594000000E+02  0.51100000000E-03 0.  1.
    9900012    2    1    2    0    0  0.38818451379E+02  0.76491048739E+01 -0.93696790001E+01  0.50528783856E+02  0.29999769009E+02 0.  0.
         12    1    1    2    0    0 -0.38818451379E+02 -0.76491048739E+01  0.93696790001E+01  0.40659216144E+02  0.00000000000E+00 0. -1.
         11    1    3    3    0    0  0.87098788769E+01  0.10018884453E+02 -0.37165059450E+01  0.13785951271E+02  0.51100000000E-03 0. -1.
        -11    1    3    3    0    0  0.27327100475E+02 -0.92190414570E+01 -0.54298471793E+01  0.29346965540E+02  0.51100000000E-03 0.  1.
        -12    1    3    3    0    0  0.27814720274E+01  0.68492618778E+01 -0.22332587575E+00  0.73958670457E+01  0.00000000000E+00 0.  1.
</event>
<event>
 7    1  0.3054835E-011  0.5052887E+02  0.7816164E-02  0.1300439E+00
        -11   -1    0    0    0    0  0.00000000000E+00  0.00000000000E+00  0.45593999997E+02  0.45594000000E+02  0.51100000000E-03 0. -1.
         11   -1    0    0    0    0 -0.00000000000E+00 -0.00000000000E+00 -0.45593999997E+02  0.45594000000E+02  0.51100000000E-03 0.  1.
    9900012    2    1    2    0    0 -0.15113407397E+02  0.16663662025E+02 -0.33868458496E+02  0.50528865772E+02  0.30000018002E+02 0.  0.
         12    1    1    2    0    0  0.15113407397E+02 -0.16663662025E+02  0.33868458496E+02  0.40659134228E+02  0.00000000000E+00 0. -1.
         11    1    3    3    0    0  0.10460919794E+01 -0.16825650898E+01 -0.47345832700E+00  0.20370313594E+01  0.51100000000E-03 0. -1.
        -11    1    3    3    0    0 -0.17126196722E+02  0.15508117957E+02 -0.37112059823E+02  0.43716282108E+02  0.51100000000E-03 0.  1.
        -12    1    3    3    0    0  0.96669734524E+00  0.28381091571E+01  0.37170596542E+01  0.47755523050E+01  0.00000000000E+00 0.  1.
</event>
<event>
 7    1  0.3054835E-011  0.5052885E+02  0.7816164E-02  0.1300439E+00
        -11   -1    0    0    0    0  0.00000000000E+00  0.00000000000E+00  0.45593999997E+02  0.45594000000E+02  0.51100000000E-03 0.  1.
         11   -1    0    0    0    0 -0.00000000000E+00 -0.00000000000E+00 -0.45593999997E+02  0.45594000000E+02  0.51100000000E-03 0. -1.
    9900012    2    1    2    0    0 -0.29069834286E+02  0.12643266990E+02  0.25460935499E+02  0.50528847253E+02  0.29999961710E+02 0.  0.
         12    1    1    2    0    0  0.29069834286E+02 -0.12643266990E+02 -0.25460935499E+02  0.40659152747E+02  0.00000000000E+00 0. -1.
         11    1    3    3    0    0 -0.35455510966E+01  0.23879649838E+01  0.92141569241E+01  0.10157460186E+02  0.51100000000E-03 0. -1.
        -11    1    3    3    0    0 -0.59187198629E+01  0.74465574584E+01 -0.54753402316E+01  0.10975509724E+02  0.51100000000E-03 0.  1.
        -12    1    3    3    0    0 -0.19605563327E+02  0.28087445475E+01  0.21722118807E+02  0.29395877343E+02  0.00000000000E+00 0.  1.
</event>
<event>
 7    1  0.3054835E-011  0.5052890E+02  0.7816164E-02  0.1300439E+00
        -11   -1    0    0    0    0  0.00000000000E+00  0.00000000000E+00  0.45593999997E+02  0.45594000000E+02  0.51100000000E-03 0.  1.
         11   -1    0    0    0    0 -0.00000000000E+00 -0.00000000000E+00 -0.45593999997E+02  0.45594000000E+02  0.51100000000E-03 0. -1.
    9900012    2    1    2    0    0 -0.10355462574E+02 -0.10576858281E+02  0.37868945022E+02  0.50528898518E+02  0.30000117535E+02 0.  0.
         12    1    1    2    0    0  0.10355462574E+02  0.10576858281E+02 -0.37868945022E+02  0.40659101482E+02  0.00000000000E+00 0. -1.
         11    1    3    3    0    0  0.92231174538E+01 -0.70424805766E+01  0.14669896157E+02  0.18704766285E+02  0.51100000000E-03 0. -1.
        -11    1    3    3    0    0 -0.93291408382E+01 -0.21260156226E+01  0.17668288227E+02  0.20092815142E+02  0.51100000000E-03 0.  1.
         12    1    3    3    0    0 -0.10249439190E+02 -0.14083620819E+01  0.55307606381E+01  0.11731317091E+02  0.00000000000E+00 0. -1.
</event>
<event>
 7    1  0.3054835E-011  0.5052886E+02  0.7816164E-02  0.1300439E+00
        -11   -1    0    0    0    0  0.00000000000E+00  0.00000000000E+00  0.45593999997E+02  0.45594000000E+02  0.51100000000E-03 0.  1.
         11   -1    0    0    0    0 -0.00000000000E+00 -0.00000000000E+00 -0.45593999997E+02  0.45594000000E+02  0.51100000000E-03 0. -1.
    9900012    2    1    2    0    0  0.31136556523E+02 -0.17103809738E+02 -0.19777260200E+02  0.50528862273E+02  0.30000007365E+02 0.  0.
         12    1    1    2    0    0 -0.31136556523E+02  0.17103809738E+02  0.19777260200E+02  0.40659137727E+02  0.00000000000E+00 0. -1.
         11    1    3    3    0    0  0.27722675779E+02 -0.59506357123E+01 -0.16767311312E+02  0.32940849209E+02  0.51100000000E-03 0. -1.
        -11    1    3    3    0    0  0.64201342413E+01 -0.12454425706E+02 -0.29094098257E+01  0.14310678151E+02  0.51100000000E-03 0.  1.
         12    1    3    3    0    0 -0.30062534973E+01  0.13012516808E+01 -0.10053906238E+00  0.32773349127E+01  0.00000000000E+00 0. -1.
</event>
<event>
 7    1  0.3054835E-011  0.5052886E+02  0.7816164E-02  0.1300439E+00
        -11   -1    0    0    0    0  0.00000000000E+00  0.00000000000E+00  0.45593999997E+02  0.45594000000E+02  0.51100000000E-03 0.  1.
         11   -1    0    0    0    0 -0.00000000000E+00 -0.00000000000E+00 -0.45593999997E+02  0.45594000000E+02  0.51100000000E-03 0. -1.
    9900012    2    1    2    0    0  0.10815353540E+02  0.45551051392E-01  0.39194283993E+02  0.50528857795E+02  0.29999993753E+02 0.  0.
         12    1    1    2    0    0 -0.10815353540E+02 -0.45551051392E-01 -0.39194283993E+02  0.40659142205E+02  0.00000000000E+00 0. -1.
         11    1    3    3    0    0  0.23051077650E+01 -0.97971186180E+01  0.21240692248E+02  0.23504554079E+02  0.51100000000E-03 0. -1.
        -11    1    3    3    0    0  0.10494967865E+02  0.11754886443E+02  0.10139663016E+02  0.18738582447E+02  0.51100000000E-03 0.  1.
        -12    1    3    3    0    0 -0.19847220899E+01 -0.19122167735E+01  0.78139287288E+01  0.82857212687E+01  0.00000000000E+00 0.  1.
</event>
<event>
 7    1  0.3054835E-011  0.5052886E+02  0.7816164E-02  0.1300439E+00
        -11   -1    0    0    0    0  0.00000000000E+00  0.00000000000E+00  0.45593999997E+02  0.45594000000E+02  0.51100000000E-03 0.  1.
         11   -1    0    0    0    0 -0.00000000000E+00 -0.00000000000E+00 -0.45593999997E+02  0.45594000000E+02  0.51100000000E-03 0. -1.
    9900012    2    1    2    0    0  0.73570722429E+01 -0.10137245442E+02  0.38681714301E+02  0.50528864761E+02  0.30000014927E+02 0.  0.
         12    1    1    2    0    0 -0.73570722429E+01  0.10137245442E+02 -0.38681714301E+02  0.40659135239E+02  0.00000000000E+00 0. -1.
         11    1    3    3    0    0 -0.62647701151E+01  0.59294535359E+01  0.50912016020E+01  0.10016291621E+02  0.51100000000E-03 0. -1.
        -11    1    3    3    0    0  0.29851132556E+01 -0.81946243425E+01  0.18428571966E+02  0.20388110119E+02  0.51100000000E-03 0.  1.
         12    1    3    3    0    0  0.10636729102E+02 -0.78720746358E+01  0.15161940733E+02  0.20124463020E+02  0.00000000000E+00 0. -1.
</event>
<event>
 7    1  0.3054835E-011  0.5052886E+02  0.7816164E-02  0.1300439E+00
        -11   -1    0    0    0    0  0.00000000000E+00  0.00000000000E+00  0.45593999997E+02  0.45594000000E+02  0.51100000000E-03 0.  1.
         11   -1    0    0    0    0 -0.00000000000E+00 -0.00000000000E+00 -0.45593999997E+02  0.45594000000E+02  0.51100000000E-03 0. -1.
    9900012    2    1    2    0    0  0.18652922279E+01  0.30889591115E+02  0.26372700621E+02  0.50528862130E+02  0.30000006929E+02 0.  0.
         12    1    1    2    0    0 -0.18652922279E+01 -0.30889591115E+02 -0.26372700621E+02  0.40659137870E+02  0.00000000000E+00 0. -1.
         11    1    3    3    0    0 -0.14563153726E+01 -0.31946292873E+01  0.46794461543E+01  0.58501048982E+01  0.51100000000E-03 0. -1.
        -11    1    3    3    0    0  0.45043646399E+01  0.36026506998E+02  0.18472601407E+02  0.40736169558E+02  0.51100000000E-03 0.  1.
        -12    1    3    3    0    0 -0.11827570394E+01 -0.19422865957E+01  0.32206530593E+01  0.39425876734E+01  0.00000000000E+00 0.  1.
</event>
<event>
 7    1  0.3054835E-011  0.5052886E+02  0.7816164E-02  0.1300439E+00
        -11   -1    0    0    0    0  0.00000000000E+00  0.00000000000E+00  0.45593999997E+02  0.45594000000E+02  0.51100000000E-03 0. -1.
         11   -1    0    0    0    0 -0.00000000000E+00 -0.00000000000E+00 -0.45593999997E+02  0.45594000000E+02  0.51100000000E-03 0.  1.
    9900012    2    1    2    0    0  0.30877960411E+02 -0.23308911596E+02  0.12506471337E+02  0.50528860508E+02  0.30000002001E+02 0.  0.
         12    1    1    2    0    0 -0.30877960411E+02  0.23308911596E+02 -0.12506471337E+02  0.40659139492E+02  0.00000000000E+00 0. -1.
         11    1    3    3    0    0 -0.13323746815E+01 -0.49606892325E+01 -0.11971208854E+00  0.51378975465E+01  0.51100000000E-03 0. -1.
        -11    1    3    3    0    0  0.14929826167E+02 -0.38171156719E+01  0.16395165546E+02  0.22500478550E+02  0.51100000000E-03 0.  1.
        -12    1    3    3    0    0  0.17280508925E+02 -0.14531106691E+02 -0.37689821205E+01  0.22890484412E+02  0.00000000000E+00 0.  1.
</event>
<event>
 7    1  0.3054835E-011  0.5052887E+02  0.7816164E-02  0.1300439E+00
        -11   -1    0    0    0    0  0.00000000000E+00  0.00000000000E+00  0.45593999997E+02  0.45594000000E+02  0.51100000000E-03 0. -1.
         11   -1    0    0    0    0 -0.00000000000E+00 -0.00000000000E+00 -0.45593999997E+02  0.45594000000E+02  0.51100000000E-03 0.  1.
    9900012    2    1    2    0    0 -0.30616653271E+02 -0.48613020944E+00 -0.26749755670E+02  0.50528865620E+02  0.30000017540E+02 0.  0.
         12    1    1    2    0    0  0.30616653271E+02  0.48613020944E+00  0.26749755670E+02  0.40659134380E+02  0.00000000000E+00 0. -1.
         11    1    3    3    0    0 -0.42531829627E+01 -0.47012018138E+01 -0.59864390585E+01  0.87194218083E+01  0.51100000000E-03 0. -1.
        -11    1    3    3    0    0 -0.35360970355E+01  0.10208172011E+02 -0.68796561236E+00  0.10825158428E+02  0.51100000000E-03 0.  1.
        -12    1    3    3    0    0 -0.22827373272E+02 -0.59931004064E+01 -0.20075351000E+02  0.30984285384E+02  0.00000000000E+00 0.  1.
</event>
<event>
 7    1  0.3054835E-011  0.5052892E+02  0.7816164E-02  0.1300439E+00
        -11   -1    0    0    0    0  0.00000000000E+00  0.00000000000E+00  0.45593999997E+02  0.45594000000E+02  0.51100000000E-03 0.  1.
         11   -1    0    0    0    0 -0.00000000000E+00 -0.00000000000E+00 -0.45593999997E+02  0.45594000000E+02  0.51100000000E-03 0. -1.
    9900012    2    1    2    0    0  0.91701326094E+01  0.39249188230E+02 -0.53451698348E+01  0.50528917997E+02  0.30000176743E+02 0.  0.
         12    1    1    2    0    0 -0.91701326094E+01 -0.39249188230E+02  0.53451698348E+01  0.40659082003E+02  0.00000000000E+00 0. -1.
         11    1    3    3    0    0  0.16872912586E+02  0.28215053591E+02 -0.78049137419E+01  0.33789067863E+02  0.51100000000E-03 0. -1.
        -11    1    3    3    0    0 -0.43804852781E+01 -0.35626503222E+00  0.20962053570E+01  0.48692559190E+01  0.51100000000E-03 0.  1.
         12    1    3    3    0    0 -0.33222946988E+01  0.11390399671E+02  0.36353855014E+00  0.11870594214E+02  0.00000000000E+00 0. -1.
</event>
<event>
 7    1  0.3054835E-011  0.5052886E+02  0.7816164E-02  0.1300439E+00
        -11   -1    0    0    0    0  0.00000000000E+00  0.00000000000E+00  0.45593999997E+02  0.45594000000E+02  0.51100000000E-03 0. -1.
         11   -1    0    0    0    0 -0.00000000000E+00 -0.00000000000E+00 -0.45593999997E+02  0.45594000000E+02  0.51100000000E-03 0.  1.
    9900012    2    1    2    0    0 -0.15263933436E+02  0.97886781466E+01 -0.36391756180E+02  0.50528858326E+02  0.29999995369E+02 0.  0.
         12    1    1    2    0    0  0.15263933436E+02 -0.97886781466E+01  0.36391756180E+02  0.40659141674E+02  0.00000000000E+00 0. -1.
         11    1    3    3    0    0 -0.16918345432E+02  0.29890126842E+01 -0.26436245240E+02  0.31528394689E+02  0.51100000000E-03 0.  1.
        -11    1    3    3    0    0  0.58148659974E+01  0.26128124977E+01  0.10989096345E+01  0.64689302332E+01  0.51100000000E-03 0. -1.
         12    1    3    3    0    0 -0.41604540011E+01  0.41868529648E+01 -0.11054420574E+02  0.12531533405E+02  0.00000000000E+00 0. -1.
</event>
<event>
 7    1  0.3054835E-011  0.5052886E+02  0.7816164E-02  0.1300439E+00
        -11   -1    0    0    0    0  0.00000000000E+00  0.00000000000E+00  0.45593999997E+02  0.45594000000E+02  0.51100000000E-03 0.  1.
         11   -1    0    0    0    0 -0.00000000000E+00 -0.00000000000E+00 -0.45593999997E+02  0.45594000000E+02  0.51100000000E-03 0. -1.
    9900012    2    1    2    0    0  0.26914915188E+02 -0.21614411319E+02  0.21484176340E+02  0.50528864873E+02  0.30000015269E+02 0.  0.
         12    1    1    2    0    0 -0.26914915188E+02  0.21614411319E+02 -0.21484176340E+02  0.40659135127E+02  0.00000000000E+00 0. -1.
         11    1    3    3    0    0  0.11602764157E+02 -0.17629369421E+01  0.10564669221E+02  0.15790640226E+02  0.51100000000E-03 0. -1.
        -11    1    3    3    0    0  0.66066853107E+01 -0.50699263534E+01 -0.62921450450E+01  0.10437601906E+02  0.51100000000E-03 0.  1.
        -12    1    3    3    0    0  0.87054657204E+01 -0.14781548023E+02  0.17211652164E+02  0.24300622741E+02  0.00000000000E+00 0.  1.
</event>
<event>
 7    1  0.3054835E-011  0.5052886E+02  0.7816164E-02  0.1300439E+00
        -11   -1    0    0    0    0  0.00000000000E+00  0.00000000000E+00  0.45593999997E+02  0.45594000000E+02  0.51100000000E-03 0. -1.
         11   -1    0    0    0    0 -0.00000000000E+00 -0.00000000000E+00 -0.45593999997E+02  0.45594000000E+02  0.51100000000E-03 0.  1.
    9900012    2    1    2    0    0 -0.36567551698E+02 -0.17755659901E+02  0.84641126783E+00  0.50528859481E+02  0.29999998878E+02 0.  0.
         12    1    1    2    0    0  0.36567551698E+02  0.17755659901E+02 -0.84641126783E+00  0.40659140519E+02  0.00000000000E+00 0. -1.
         11    1    3    3    0    0 -0.21851322395E+02 -0.12641887132E+02  0.14171069136E+02  0.28950247001E+02  0.51100000000E-03 0. -1.
        -11    1    3    3    0    0 -0.46916887416E+01  0.31325766768E+00 -0.73049761932E+01  0.86875054566E+01  0.51100000000E-03 0.  1.
         12    1    3    3    0    0 -0.10024540561E+02 -0.54270304368E+01 -0.60196816751E+01  0.12891107024E+02  0.00000000000E+00 0. -1.
</event>
<event>
 7    1  0.3054835E-011  0.5052880E+02  0.7816164E-02  0.1300439E+00
        -11   -1    0    0    0    0  0.00000000000E+00  0.00000000000E+00  0.45593999997E+02  0.45594000000E+02  0.51100000000E-03 0.  1.
         11   -1    0    0    0    0 -0.00000000000E+00 -0.00000000000E+00 -0.45593999997E+02  0.45594000000E+02  0.51100000000E-03 0. -1.
    9900012    2    1    2    0    0  0.14029666911E+02  0.37689580199E+02 -0.59862122549E+01  0.50528797519E+02  0.29999810539E+02 0.  0.
         12    1    1    2    0    0 -0.14029666911E+02 -0.37689580199E+02  0.59862122549E+01  0.40659202481E+02  0.00000000000E+00 0. -1.
         11    1    3    3    0    0  0.59199301763E+01  0.11095046840E+02 -0.11311717486E+02  0.16914508282E+02  0.51100000000E-03 0. -1.
        -11    1    3    3    0    0 -0.16574397063E+01  0.18717002358E+02  0.85718990092E+01  0.20653104768E+02  0.51100000000E-03 0.  1.
         12    1    3    3    0    0  0.97671764414E+01  0.78775310003E+01 -0.32463937780E+01  0.12961184470E+02  0.00000000000E+00 0. -1.
</event>
<event>
 7    1  0.3054835E-011  0.5052886E+02  0.7816164E-02  0.1300439E+00
        -11   -1    0    0    0    0  0.00000000000E+00  0.00000000000E+00  0.45593999997E+02  0.45594000000E+02  0.51100000000E-03 0. -1.
         11   -1    0    0    0    0 -0.00000000000E+00 -0.00000000000E+00 -0.45593999997E+02  0.45594000000E+02  0.51100000000E-03 0.  1.
    9900012    2    1    2    0    0  0.38754047627E+02 -0.12458943344E+01  0.12236715477E+02  0.50528859997E+02  0.30000000446E+02 0.  0.
         12    1    1    2    0    0 -0.38754047627E+02  0.12458943344E+01 -0.12236715477E+02  0.40659140003E+02  0.00000000000E+00 0. -1.
         11    1    3    3    0    0  0.37270281667E+01  0.46179121796E+01 -0.11663973620E+01  0.60478372102E+01  0.51100000000E-03 0. -1.
        -11    1    3    3    0    0  0.36144217057E+02 -0.77006451529E+01  0.68508762091E+01  0.37585088367E+02  0.51100000000E-03 0.  1.
        -12    1    3    3    0    0 -0.11171975973E+01  0.18368386389E+01  0.65522366304E+01  0.68959344195E+01  0.00000000000E+00 0.  1.
</event>
<event>
 7    1  0.3054835E-011  0.5052887E+02  0.7816164E-02  0.1300439E+00
        -11   -1    0    0    0    0  0.00000000000E+00  0.00000000000E+00  0.45593999997E+02  0.45594000000E+02  0.51100000000E-03 0. -1.
         11   -1    0    0    0    0 -0.00000000000E+00 -0.00000000000E+00 -0.45593999997E+02  0.45594000000E+02  0.51100000000E-03 0.  1.
    9900012    2    1    2    0    0 -0.38089017310E+02  0.13905627383E+02  0.30042488594E+01  0.50528865433E+02  0.30000016969E+02 0.  0.
         12    1    1    2    0    0  0.38089017310E+02 -0.13905627383E+02 -0.30042488594E+01  0.40659134567E+02  0.00000000000E+00 0. -1.
         11    1    3    3    0    0 -0.10003387676E+01 -0.44170262013E+01  0.66865201981E+01  0.80759117587E+01  0.51100000000E-03 0. -1.
        -11    1    3    3    0    0 -0.27050631960E+02  0.90911766797E+01 -0.39706534008E+01  0.28812363172E+02  0.51100000000E-03 0.  1.
         12    1    3    3    0    0 -0.10038046583E+02  0.92314769045E+01  0.28838206216E+00  0.13640590502E+02  0.00000000000E+00 0. -1.
</event>
<event>
 7    1  0.3054835E-011  0.5052886E+02  0.7816164E-02  0.1300439E+00
        -11   -1    0    0    0    0  0.00000000000E+00  0.00000000000E+00  0.45593999997E+02  0.45594000000E+02  0.51100000000E-03 0.  1.
         11   -1    0    0    0    0 -0.00000000000E+00 -0.00000000000E+00 -0.45593999997E+02  0.45594000000E+02  0.51100000000E-03 0. -1.
    9900012    2    1    2    0    0 -0.39672753639E+02  0.88371534510E+01  0.10690155598E+01  0.50528862568E+02  0.30000008263E+02 0.  0.
         12    1    1    2    0    0  0.39672753639E+02 -0.88371534510E+01 -0.10690155598E+01  0.40659137432E+02  0.00000000000E+00 0. -1.
         11    1    3    3    0    0 -0.32478721397E+01 -0.46138802474E+01 -0.31368549483E+01  0.64557279683E+01  0.51100000000E-03 0. -1.
        -11    1    3    3    0    0 -0.27979869327E+02  0.16939850987E+02 -0.24027809236E+01  0.32796417418E+02  0.51100000000E-03 0.  1.
         12    1    3    3    0    0 -0.84450121723E+01 -0.34888172886E+01  0.66086514317E+01  0.11276717182E+02  0.00000000000E+00 0. -1.
</event>
<event>
 7    1  0.3054835E-011  0.5052888E+02  0.7816164E-02  0.1300439E+00
        -11   -1    0    0    0    0  0.00000000000E+00  0.00000000000E+00  0.45593999997E+02  0.45594000000E+02  0.51100000000E-03 0. -1.
         11   -1    0    0    0    0 -0.00000000000E+00 -0.00000000000E+00 -0.45593999997E+02  0.45594000000E+02  0.51100000000E-03 0.  1.
    9900012    2    1    2    0    0 -0.13205954246E+02 -0.28369726101E+02  0.25960079884E+02  0.50528876373E+02  0.30000050223E+02 0.  0.
         12    1    1    2    0    0  0.13205954246E+02  0.28369726101E+02 -0.25960079884E+02  0.40659123627E+02  0.00000000000E+00 0. -1.
         11    1    3    3    0    0 -0.15721448517E+02 -0.66590519919E+01  0.60630948675E+01  0.18118168686E+02  0.51100000000E-03 0.  1.
        -11    1    3    3    0    0  0.62654572623E+01 -0.72300205830E+01  0.34282719476E+01  0.10162785108E+02  0.51100000000E-03 0. -1.
        -12    1    3    3    0    0 -0.37499629913E+01 -0.14480653526E+02  0.16468713069E+02  0.22247922580E+02  0.00000000000E+00 0.  1.
</event>
<event>
 7    1  0.3054835E-011  0.5052886E+02  0.7816164E-02  0.1300439E+00
        -11   -1    0    0    0    0  0.00000000000E+00  0.00000000000E+00  0.45593999997E+02  0.45594000000E+02  0.51100000000E-03 0. -1.
         11   -1    0    0    0    0 -0.00000000000E+00 -0.00000000000E+00 -0.45593999997E+02  0.45594000000E+02  0.51100000000E-03 0.  1.
    9900012    2    1    2    0    0 -0.30150184120E+02 -0.20684870658E+02 -0.17783920331E+02  0.50528864508E+02  0.30000014158E+02 0.  0.
         12    1    1    2    0    0  0.30150184120E+02  0.20684870658E+02  0.17783920331E+02  0.40659135492E+02  0.00000000000E+00 0. -1.
         11    1    3    3    0    0 -0.46055143258E+01 -0.10051612603E+02  0.30561249070E+01  0.11471075706E+02  0.51100000000E-03 0. -1.
        -11    1    3    3    0    0 -0.14383202335E+02 -0.96115667062E+01 -0.21775566883E+02  0.27810682071E+02  0.51100000000E-03 0.  1.
        -12    1    3    3    0    0 -0.11161467460E+02 -0.10216913485E+01  0.93552164501E+00  0.11247106731E+02  0.00000000000E+00 0.  1.
</event>
<event>
 7    1  0.3054835E-011  0.5052886E+02  0.7816164E-02  0.1300439E+00
        -11   -1    0    0    0    0  0.00000000000E+00  0.00000000000E+00  0.45593999997E+02  0.45594000000E+02  0.51100000000E-03 0.  1.
         11   -1    0    0    0    0 -0.00000000000E+00 -0.00000000000E+00 -0.45593999997E+02  0.45594000000E+02  0.51100000000E-03 0. -1.
    9900012    2    1    2    0    0  0.27782704696E+02 -0.18200744321E+02  0.23452502799E+02  0.50528860049E+02  0.30000000605E+02 0.  0.
         12    1    1    2    0    0 -0.27782704696E+02  0.18200744321E+02 -0.23452502799E+02  0.40659139951E+02  0.00000000000E+00 0. -1.
         11    1    3    3    0    0  0.11050356957E+02  0.17956430547E+01  0.16411667841E+02  0.19866493512E+02  0.51100000000E-03 0. -1.
        -11    1    3    3    0    0  0.17904047511E+02 -0.20206634434E+02  0.38674689871E+01  0.27273069300E+02  0.51100000000E-03 0.  1.
        -12    1    3    3    0    0 -0.11716997722E+01  0.21024705840E+00  0.31733659702E+01  0.33892972373E+01  0.00000000000E+00 0.  1.
</event>
<event>
 7    1  0.3054835E-011  0.5052886E+02  0.7816164E-02  0.1300439E+00
        -11   -1    0    0    0    0  0.00000000000E+00  0.00000000000E+00  0.45593999997E+02  0.45594000000E+02  0.51100000000E-03 0.  1.
         11   -1    0    0    0    0 -0.00000000000E+00 -0.00000000000E+00 -0.45593999997E+02  0.45594000000E+02  0.51100000000E-03 0. -1.
    9900012    2    1    2    0    0 -0.31130643599E+02  0.13378789939E+02  0.22473463550E+02  0.50528861358E+02  0.30000004585E+02 0.  0.
         12    1    1    2    0    0  0.31130643599E+02 -0.13378789939E+02 -0.22473463550E+02  0.40659138642E+02  0.00000000000E+00 0. -1.
         11    1    3    3    0    0 -0.13369860391E+02  0.16047769466E+02  0.24184539372E+02  0.31955844796E+02  0.51100000000E-03 0.  1.
        -11    1    3    3    0    0 -0.10533269151E+02 -0.33134398554E+01 -0.23477189501E+01  0.11288951555E+02  0.51100000000E-03 0. -1.
        -12    1    3    3    0    0 -0.72275140576E+01  0.64446032845E+00  0.63664312834E+00  0.72840650080E+01  0.00000000000E+00 0.  1.
</event>
<event>
 7    1  0.3054835E-011  0.5052886E+02  0.7816164E-02  0.1300439E+00
        -11   -1    0    0    0    0  0.00000000000E+00  0.00000000000E+00  0.45593999997E+02  0.45594000000E+02  0.51100000000E-03 0. -1.
         11   -1    0    0    0    0 -0.00000000000E+00 -0.00000000000E+00 -0.45593999997E+02  0.45594000000E+02  0.51100000000E-03 0.  1.
    9900012    2    1    2    0    0  0.16336722893E+02  0.41370545460E+00 -0.37230446946E+02  0.50528857770E+02  0.29999993678E+02 0.  0.
         12    1    1    2    0    0 -0.16336722893E+02 -0.41370545460E+00  0.37230446946E+02  0.40659142230E+02  0.00000000000E+00 0. -1.
         11    1    3    3    0    0 -0.54843750590E+01 -0.55682708016E+01 -0.13790002257E+02  0.15850809822E+02  0.51100000000E-03 0. -1.
        -11    1    3    3    0    0  0.16711603676E+02 -0.93303053566E+00 -0.17575448288E+02  0.24270241577E+02  0.51100000000E-03 0.  1.
         12    1    3    3    0    0  0.51094942758E+01  0.69150067919E+01 -0.58649964011E+01  0.10407806372E+02  0.00000000000E+00 0. -1.
</event>
<event>
 7    1  0.3054835E-011  0.5052886E+02  0.7816164E-02  0.1300439E+00
        -11   -1    0    0    0    0  0.00000000000E+00  0.00000000000E+00  0.45593999997E+02  0.45594000000E+02  0.51100000000E-03 0. -1.
         11   -1    0    0    0    0 -0.00000000000E+00 -0.00000000000E+00 -0.45593999997E+02  0.45594000000E+02  0.51100000000E-03 0.  1.
    9900012    2    1    2    0    0  0.23043028543E+02 -0.74966152932E+01 -0.32649426096E+02  0.50528862900E+02  0.30000009272E+02 0.  0.
         12    1    1    2    0    0 -0.23043028543E+02  0.74966152932E+01  0.32649426096E+02  0.40659137100E+02  0.00000000000E+00 0. -1.
         11    1    3    3    0    0  0.85212545311E+01  0.10068881466E+02 -0.63614922245E+01  0.14644546300E+02  0.51100000000E-03 0. -1.
        -11    1    3    3    0    0  0.49903786266E+00 -0.23425990291E+01 -0.77056044383E+01  0.80692719015E+01  0.51100000000E-03 0.  1.
         12    1    3    3    0    0  0.14022736149E+02 -0.15222897730E+02 -0.18582329433E+02  0.27815044698E+02  0.00000000000E+00 0. -1.
</event>
<event>
 7    1  0.3054835E-011  0.5052893E+02  0.7816164E-02  0.1300439E+00
        -11   -1    0    0    0    0  0.00000000000E+00  0.00000000000E+00  0.45593999997E+02  0.45594000000E+02  0.51100000000E-03 0. -1.
         11   -1    0    0    0    0 -0.00000000000E+00 -0.00000000000E+00 -0.45593999997E+02  0.45594000000E+02  0.51100000000E-03 0.  1.
    9900012    2    1    2    0    0  0.40118903518E+01 -0.13697357815E+02 -0.38071608636E+02  0.50528926481E+02  0.30000202530E+02 0.  0.
         12    1    1    2    0    0 -0.40118903518E+01  0.13697357815E+02  0.38071608636E+02  0.40659073519E+02  0.00000000000E+00 0. -1.
         11    1    3    3    0    0 -0.24019170335E+01 -0.55234415339E+01 -0.18725704056E+01  0.63074663693E+01  0.51100000000E-03 0. -1.
        -11    1    3    3    0    0  0.11283306258E+02 -0.12375810607E+02 -0.33070187409E+02  0.37069003005E+02  0.51100000000E-03 0.  1.
        -12    1    3    3    0    0 -0.48694988728E+01  0.42018943254E+01 -0.31288508217E+01  0.71524571064E+01  0.00000000000E+00 0.  1.
</event>
<event>
 7    1  0.3054835E-011  0.5052886E+02  0.7816164E-02  0.1300439E+00
        -11   -1    0    0    0    0  0.00000000000E+00  0.00000000000E+00  0.45593999997E+02  0.45594000000E+02  0.51100000000E-03 0.  1.
         11   -1    0    0    0    0 -0.00000000000E+00 -0.00000000000E+00 -0.45593999997E+02  0.45594000000E+02  0.51100000000E-03 0. -1.
    9900012    2    1    2    0    0 -0.60041109487E+01 -0.38399276164E+02 -0.11942007118E+02  0.50528864591E+02  0.30000014410E+02 0.  0.
         12    1    1    2    0    0  0.60041109487E+01  0.38399276164E+02  0.11942007118E+02  0.40659135409E+02  0.00000000000E+00 0. -1.
         11    1    3    3    0    0  0.41457137230E+01 -0.12988320875E+01 -0.32457119542E+01  0.54229653710E+01  0.51100000000E-03 0. -1.
        -11    1    3    3    0    0 -0.15625640329E+02 -0.21673867868E+02 -0.32778813060E+00  0.26721239293E+02  0.51100000000E-03 0.  1.
        -12    1    3    3    0    0  0.54758156573E+01 -0.15426576209E+02 -0.83685070331E+01  0.18384659926E+02  0.00000000000E+00 0.  1.
</event>
<event>
 7    1  0.3054835E-011  0.5052886E+02  0.7816164E-02  0.1300439E+00
        -11   -1    0    0    0    0  0.00000000000E+00  0.00000000000E+00  0.45593999997E+02  0.45594000000E+02  0.51100000000E-03 0.  1.
         11   -1    0    0    0    0 -0.00000000000E+00 -0.00000000000E+00 -0.45593999997E+02  0.45594000000E+02  0.51100000000E-03 0. -1.
    9900012    2    1    2    0    0 -0.21908439252E+01 -0.27025770359E+02  0.30298084539E+02  0.50528856043E+02  0.29999988428E+02 0.  0.
         12    1    1    2    0    0  0.21908439252E+01  0.27025770359E+02 -0.30298084539E+02  0.40659143957E+02  0.00000000000E+00 0. -1.
         11    1    3    3    0    0 -0.45969653628E+01 -0.23550997139E+02  0.47473907098E+01  0.24460565725E+02  0.51100000000E-03 0. -1.
        -11    1    3    3    0    0  0.63348581024E+00 -0.30610175447E+01  0.19525609595E+02  0.19774239885E+02  0.51100000000E-03 0.  1.
         12    1    3    3    0    0  0.17726356274E+01 -0.41375567499E+00  0.60250842339E+01  0.62940504329E+01  0.00000000000E+00 0. -1.
</event>
<event>
 7    1  0.3054835E-011  0.5052886E+02  0.7816164E-02  0.1300439E+00
        -11   -1    0    0    0    0  0.00000000000E+00  0.00000000000E+00  0.45593999997E+02  0.45594000000E+02  0.51100000000E-03 0.  1.
         11   -1    0    0    0    0 -0.00000000000E+00 -0.00000000000E+00 -0.45593999997E+02  0.45594000000E+02  0.51100000000E-03 0. -1.
    9900012    2    1    2    0    0  0.23934040790E+02 -0.70788935062E+01  0.32096989005E+02  0.50528859023E+02  0.29999997486E+02 0.  0.
         12    1    1    2    0    0 -0.23934040790E+02  0.70788935062E+01 -0.32096989005E+02  0.40659140977E+02  0.00000000000E+00 0. -1.
         11    1    3    3    0    0 -0.31238253575E+01 -0.30523165012E+01 -0.28881373237E-01  0.43675800259E+01  0.51100000000E-03 0. -1.
        -11    1    3    3    0    0  0.12007600631E+02  0.69724360961E+01  0.18205149230E+02  0.22895955904E+02  0.51100000000E-03 0.  1.
         12    1    3    3    0    0  0.15050265517E+02 -0.10999013101E+02  0.13920721148E+02  0.23265323093E+02  0.00000000000E+00 0. -1.
</event>
<event>
 7    1  0.3054835E-011  0.5052886E+02  0.7816164E-02  0.1300439E+00
        -11   -1    0    0    0    0  0.00000000000E+00  0.00000000000E+00  0.45593999997E+02  0.45594000000E+02  0.51100000000E-03 0.  1.
         11   -1    0    0    0    0 -0.00000000000E+00 -0.00000000000E+00 -0.45593999997E+02  0.45594000000E+02  0.51100000000E-03 0. -1.
    9900012    2    1    2    0    0 -0.20088171194E+02 -0.35303128508E+02 -0.18221057446E+01  0.50528861129E+02  0.30000003888E+02 0.  0.
         12    1    1    2    0    0  0.20088171194E+02  0.35303128508E+02  0.18221057446E+01  0.40659138871E+02  0.00000000000E+00 0. -1.
         11    1    3    3    0    0 -0.24728113022E+02 -0.22643946646E+02 -0.18991994527E+01  0.33583252555E+02  0.51100000000E-03 0. -1.
        -11    1    3    3    0    0 -0.29565661012E+01 -0.40020014288E+01  0.18176823919E+01  0.52972887486E+01  0.51100000000E-03 0.  1.
         12    1    3    3    0    0  0.75965079300E+01 -0.86571804338E+01 -0.17405886838E+01  0.11648319826E+02  0.00000000000E+00 0. -1.
</event>
<event>
 7    1  0.3054835E-011  0.5052886E+02  0.7816164E-02  0.1300439E+00
        -11   -1    0    0    0    0  0.00000000000E+00  0.00000000000E+00  0.45593999997E+02  0.45594000000E+02  0.51100000000E-03 0.  1.
         11   -1    0    0    0    0 -0.00000000000E+00 -0.00000000000E+00 -0.45593999997E+02  0.45594000000E+02  0.51100000000E-03 0. -1.
    9900012    2    1    2    0    0 -0.35023819155E+02  0.60170030941E+01  0.19755841788E+02  0.50528861800E+02  0.30000005927E+02 0.  0.
         12    1    1    2    0    0  0.35023819155E+02 -0.60170030941E+01 -0.19755841788E+02  0.40659138200E+02  0.00000000000E+00 0. -1.
         11    1    3    3    0    0 -0.26432468156E+02 -0.45247106148E+01  0.68716163313E+01  0.27683343191E+02  0.51100000000E-03 0. -1.
        -11    1    3    3    0    0 -0.10817613501E+02  0.11981777447E+02  0.11726791818E+02  0.19952478525E+02  0.51100000000E-03 0.  1.
         12    1    3    3    0    0  0.22262625025E+01 -0.14400637385E+01  0.11574336387E+01  0.28930400843E+01  0.00000000000E+00 0. -1.
</event>
<event>
 7    1  0.3054835E-011  0.5052886E+02  0.7816164E-02  0.1300439E+00
        -11   -1    0    0    0    0  0.00000000000E+00  0.00000000000E+00  0.45593999997E+02  0.45594000000E+02  0.51100000000E-03 0.  1.
         11   -1    0    0    0    0 -0.00000000000E+00 -0.00000000000E+00 -0.45593999997E+02  0.45594000000E+02  0.51100000000E-03 0. -1.
    9900012    2    1    2    0    0 -0.44208988429E+01  0.17339732733E+02  0.36509657335E+02  0.50528858881E+02  0.29999997055E+02 0.  0.
         12    1    1    2    0    0  0.44208988429E+01 -0.17339732733E+02 -0.36509657335E+02  0.40659141119E+02  0.00000000000E+00 0. -1.
         11    1    3    3    0    0 -0.11849677450E+02 -0.17754078785E+01  0.17887296857E+02  0.21529568457E+02  0.51100000000E-03 0. -1.
        -11    1    3    3    0    0  0.39450031925E+01  0.87995797490E+01  0.14379745454E+02  0.17313946215E+02  0.51100000000E-03 0.  1.
         12    1    3    3    0    0  0.34837754150E+01  0.10315560863E+02  0.42426150232E+01  0.11685344209E+02  0.00000000000E+00 0. -1.
</event>
<event>
 7    1  0.3054835E-011  0.5052886E+02  0.7816164E-02  0.1300439E+00
        -11   -1    0    0    0    0  0.00000000000E+00  0.00000000000E+00  0.45593999997E+02  0.45594000000E+02  0.51100000000E-03 0.  1.
         11   -1    0    0    0    0 -0.00000000000E+00 -0.00000000000E+00 -0.45593999997E+02  0.45594000000E+02  0.51100000000E-03 0. -1.
    9900012    2    1    2    0    0 -0.10756752351E+02 -0.86073973380E+01  0.38254023100E+02  0.50528864576E+02  0.30000014367E+02 0.  0.
         12    1    1    2    0    0  0.10756752351E+02  0.86073973380E+01 -0.38254023100E+02  0.40659135424E+02  0.00000000000E+00 0. -1.
         11    1    3    3    0    0 -0.30296514793E+01 -0.12268783855E+02  0.12809007576E+02  0.17993680021E+02  0.51100000000E-03 0. -1.
        -11    1    3    3    0    0 -0.15947623894E+01  0.60118181040E+01 -0.37650599613E-01  0.62198586659E+01  0.51100000000E-03 0.  1.
        -12    1    3    3    0    0 -0.61323384824E+01 -0.23504315873E+01  0.25482666124E+02  0.26315325890E+02  0.00000000000E+00 0.  1.
</event>
<event>
 7    1  0.3054835E-011  0.5052886E+02  0.7816164E-02  0.1300439E+00
        -11   -1    0    0    0    0  0.00000000000E+00  0.00000000000E+00  0.45593999997E+02  0.45594000000E+02  0.51100000000E-03 0. -1.
         11   -1    0    0    0    0 -0.00000000000E+00 -0.00000000000E+00 -0.45593999997E+02  0.45594000000E+02  0.51100000000E-03 0.  1.
    9900012    2    1    2    0    0 -0.19213005302E+02 -0.10818854953E+02  0.34161065842E+02  0.50528860625E+02  0.30000002357E+02 0.  0.
         12    1    1    2    0    0  0.19213005302E+02  0.10818854953E+02 -0.34161065842E+02  0.40659139375E+02  0.00000000000E+00 0. -1.
         11    1    3    3    0    0 -0.23590637296E+00 -0.39594768934E+01  0.29370161300E+02  0.29636792744E+02  0.51100000000E-03 0. -1.
        -11    1    3    3    0    0 -0.11193407918E+02 -0.40490065486E+01  0.15463741896E+01  0.12003254069E+02  0.51100000000E-03 0.  1.
         12    1    3    3    0    0 -0.77836910108E+01 -0.28103715111E+01  0.32445303520E+01  0.88888138121E+01  0.00000000000E+00 0. -1.
</event>
<event>
 7    1  0.3054835E-011  0.5052885E+02  0.7816164E-02  0.1300439E+00
        -11   -1    0    0    0    0  0.00000000000E+00  0.00000000000E+00  0.45593999997E+02  0.45594000000E+02  0.51100000000E-03 0.  1.
         11   -1    0    0    0    0 -0.00000000000E+00 -0.00000000000E+00 -0.45593999997E+02  0.45594000000E+02  0.51100000000E-03 0. -1.
    9900012    2    1    2    0    0  0.17927754241E+02  0.18265704323E+02  0.31593137213E+02  0.50528847949E+02  0.29999963826E+02 0.  0.
         12    1    1    2    0    0 -0.17927754241E+02 -0.18265704323E+02 -0.31593137213E+02  0.40659152051E+02  0.00000000000E+00 0. -1.
         11    1    3    3    0    0 -0.49394726691E+01  0.92182420652E+01  0.49417340686E+01  0.11566983742E+02  0.51100000000E-03 0. -1.
        -11    1    3    3    0    0  0.13301922787E+02  0.89699386838E+01  0.24288085535E+02  0.29108624994E+02  0.51100000000E-03 0.  1.
        -12    1    3    3    0    0  0.95653041228E+01  0.77523573698E-01  0.23633176097E+01  0.98532392131E+01  0.00000000000E+00 0.  1.
</event>
<event>
 7    1  0.3054835E-011  0.5052886E+02  0.7816164E-02  0.1300439E+00
        -11   -1    0    0    0    0  0.00000000000E+00  0.00000000000E+00  0.45593999997E+02  0.45594000000E+02  0.51100000000E-03 0.  1.
         11   -1    0    0    0    0 -0.00000000000E+00 -0.00000000000E+00 -0.45593999997E+02  0.45594000000E+02  0.51100000000E-03 0. -1.
    9900012    2    1    2    0    0 -0.68090514837E+00  0.39984828631E+02  0.73427297606E+01  0.50528857943E+02  0.29999994202E+02 0.  0.
         12    1    1    2    0    0  0.68090514837E+00 -0.39984828631E+02 -0.73427297606E+01  0.40659142057E+02  0.00000000000E+00 0. -1.
         11    1    3    3    0    0 -0.11077020192E+02  0.68480104338E+01  0.45355287883E+01  0.13790092273E+02  0.51100000000E-03 0. -1.
        -11    1    3    3    0    0  0.29852225777E+01  0.11416592657E+02 -0.45369986695E+01  0.12642566944E+02  0.51100000000E-03 0.  1.
         12    1    3    3    0    0  0.74108924660E+01  0.21720225540E+02  0.73441996418E+01  0.24096198726E+02  0.00000000000E+00 0. -1.
</event>
<event>
 7    1  0.3054835E-011  0.5052886E+02  0.7816164E-02  0.1300439E+00
        -11   -1    0    0    0    0  0.00000000000E+00  0.00000000000E+00  0.45593999997E+02  0.45594000000E+02  0.51100000000E-03 0. -1.
         11   -1    0    0    0    0 -0.00000000000E+00 -0.00000000000E+00 -0.45593999997E+02  0.45594000000E+02  0.51100000000E-03 0.  1.
    9900012    2    1    2    0    0  0.26940472089E+02 -0.12185266942E+02 -0.27908700085E+02  0.50528864406E+02  0.30000013849E+02 0.  0.
         12    1    1    2    0    0 -0.26940472089E+02  0.12185266942E+02  0.27908700085E+02  0.40659135594E+02  0.00000000000E+00 0. -1.
         11    1    3    3    0    0 -0.37556134453E+01 -0.14214559290E+01 -0.91244286088E+00  0.41179754181E+01  0.51100000000E-03 0. -1.
        -11    1    3    3    0    0  0.28374874359E+02 -0.13327189438E+02 -0.28747751794E+02  0.42534464927E+02  0.51100000000E-03 0.  1.
        -12    1    3    3    0    0  0.23212111753E+01  0.25633784248E+01  0.17514945700E+01  0.38764240606E+01  0.00000000000E+00 0.  1.
</event>
<event>
 7    1  0.3054835E-011  0.5052885E+02  0.7816164E-02  0.1300439E+00
        -11   -1    0    0    0    0  0.00000000000E+00  0.00000000000E+00  0.45593999997E+02  0.45594000000E+02  0.51100000000E-03 0.  1.
         11   -1    0    0    0    0 -0.00000000000E+00 -0.00000000000E+00 -0.45593999997E+02  0.45594000000E+02  0.51100000000E-03 0. -1.
    9900012    2    1    2    0    0 -0.26946464875E+02 -0.24347538534E+02  0.18282552593E+02  0.50528851814E+02  0.29999975574E+02 0.  0.
         12    1    1    2    0    0  0.26946464875E+02  0.24347538534E+02 -0.18282552593E+02  0.40659148186E+02  0.00000000000E+00 0. -1.
         11    1    3    3    0    0  0.53162712643E+01 -0.26227247360E+01 -0.25280557540E+00  0.59334084738E+01  0.51100000000E-03 0. -1.
        -11    1    3    3    0    0 -0.10915546846E+02 -0.35613747616E+01  0.10187741300E+02  0.15350004111E+02  0.51100000000E-03 0.  1.
         12    1    3    3    0    0 -0.21347189293E+02 -0.18163439036E+02  0.83476168683E+01  0.29245439229E+02  0.00000000000E+00 0. -1.
</event>
<event>
 7    1  0.3054835E-011  0.5052887E+02  0.7816164E-02  0.1300439E+00
        -11   -1    0    0    0    0  0.00000000000E+00  0.00000000000E+00  0.45593999997E+02  0.45594000000E+02  0.51100000000E-03 0.  1.
         11   -1    0    0    0    0 -0.00000000000E+00 -0.00000000000E+00 -0.45593999997E+02  0.45594000000E+02  0.51100000000E-03 0. -1.
    9900012    2    1    2    0    0 -0.22316236279E+02 -0.26782262060E+02  0.20925117576E+02  0.50528874231E+02  0.30000043713E+02 0.  0.
         12    1    1    2    0    0  0.22316236279E+02  0.26782262060E+02 -0.20925117576E+02  0.40659125769E+02  0.00000000000E+00 0. -1.
         11    1    3    3    0    0  0.23865572423E+01  0.18234988815E+01 -0.26027005025E+01  0.39742739976E+01  0.51100000000E-03 0. -1.
        -11    1    3    3    0    0 -0.15630115280E+02 -0.25952732891E+02  0.14922551198E+02  0.33771694993E+02  0.51100000000E-03 0.  1.
         12    1    3    3    0    0 -0.90726782412E+01 -0.26530280509E+01  0.86052668807E+01  0.12782905241E+02  0.00000000000E+00 0. -1.
</event>
<event>
 7    1  0.3054835E-011  0.5052886E+02  0.7816164E-02  0.1300439E+00
        -11   -1    0    0    0    0  0.00000000000E+00  0.00000000000E+00  0.45593999997E+02  0.45594000000E+02  0.51100000000E-03 0.  1.
         11   -1    0    0    0    0 -0.00000000000E+00 -0.00000000000E+00 -0.45593999997E+02  0.45594000000E+02  0.51100000000E-03 0. -1.
    9900012    2    1    2    0    0 -0.27862326344E+02 -0.20361210918E+02 -0.21500643396E+02  0.50528858275E+02  0.29999995212E+02 0.  0.
         12    1    1    2    0    0  0.27862326344E+02  0.20361210918E+02  0.21500643396E+02  0.40659141725E+02  0.00000000000E+00 0. -1.
         11    1    3    3    0    0 -0.15383113662E+02  0.13904492496E+01 -0.18129658136E+02  0.23817179502E+02  0.51100000000E-03 0. -1.
        -11    1    3    3    0    0 -0.10245080147E+02 -0.19740884268E+02 -0.56407431845E+01  0.22945199124E+02  0.51100000000E-03 0.  1.
        -12    1    3    3    0    0 -0.22341325353E+01 -0.20107758995E+01  0.22697579247E+01  0.37664796482E+01  0.00000000000E+00 0.  1.
</event>
<event>
 7    1  0.3054835E-011  0.5052886E+02  0.7816164E-02  0.1300439E+00
        -11   -1    0    0    0    0  0.00000000000E+00  0.00000000000E+00  0.45593999997E+02  0.45594000000E+02  0.51100000000E-03 0. -1.
         11   -1    0    0    0    0 -0.00000000000E+00 -0.00000000000E+00 -0.45593999997E+02  0.45594000000E+02  0.51100000000E-03 0.  1.
    9900012    2    1    2    0    0  0.26226772474E+02  0.31045238703E+02 -0.12309056113E+01  0.50528861185E+02  0.30000004059E+02 0.  0.
         12    1    1    2    0    0 -0.26226772474E+02 -0.31045238703E+02  0.12309056113E+01  0.40659138815E+02  0.00000000000E+00 0. -1.
         11    1    3    3    0    0  0.17677145756E+02  0.47693235309E+01 -0.69252022806E+01  0.19575146382E+02  0.51100000000E-03 0. -1.
        -11    1    3    3    0    0 -0.26343047132E+01  0.12016856030E+02  0.24477830643E+01  0.12543366070E+02  0.51100000000E-03 0.  1.
        -12    1    3    3    0    0  0.11183931431E+02  0.14259059142E+02  0.32465136050E+01  0.18410348733E+02  0.00000000000E+00 0.  1.
</event>
<event>
 7    1  0.3054835E-011  0.5052886E+02  0.7816164E-02  0.1300439E+00
        -11   -1    0    0    0    0  0.00000000000E+00  0.00000000000E+00  0.45593999997E+02  0.45594000000E+02  0.51100000000E-03 0.  1.
         11   -1    0    0    0    0 -0.00000000000E+00 -0.00000000000E+00 -0.45593999997E+02  0.45594000000E+02  0.51100000000E-03 0. -1.
    9900012    2    1    2    0    0 -0.42904187181E+01  0.34312319314E+02  0.21387437861E+02  0.50528862679E+02  0.30000008598E+02 0.  0.
         12    1    1    2    0    0  0.42904187181E+01 -0.34312319314E+02 -0.21387437861E+02  0.40659137321E+02  0.00000000000E+00 0. -1.
         11    1    3    3    0    0 -0.55594329874E+00 -0.71026925041E+00  0.68736996860E+01  0.69326259811E+01  0.51100000000E-03 0. -1.
        -11    1    3    3    0    0  0.64059139625E+01  0.24205380407E+02  0.38504684403E+01  0.25333027490E+02  0.51100000000E-03 0.  1.
        -12    1    3    3    0    0 -0.10140389382E+02  0.10817208157E+02  0.10663269735E+02  0.18263209208E+02  0.00000000000E+00 0.  1.
</event>
<event>
 7    1  0.3054835E-011  0.5052886E+02  0.7816164E-02  0.1300439E+00
        -11   -1    0    0    0    0  0.00000000000E+00  0.00000000000E+00  0.45593999997E+02  0.45594000000E+02  0.51100000000E-03 0.  1.
         11   -1    0    0    0    0 -0.00000000000E+00 -0.00000000000E+00 -0.45593999997E+02  0.45594000000E+02  0.51100000000E-03 0. -1.
    9900012    2    1    2    0    0 -0.69863828765E+01 -0.90282056977E+01  0.39023679532E+02  0.50528860707E+02  0.30000002606E+02 0.  0.
         12    1    1    2    0    0  0.69863828765E+01  0.90282056977E+01 -0.39023679532E+02  0.40659139293E+02  0.00000000000E+00 0. -1.
         11    1    3    3    0    0  0.69655387686E+01 -0.13463833716E+02  0.13029141053E+02  0.19988798501E+02  0.51100000000E-03 0. -1.
        -11    1    3    3    0    0 -0.62856305317E+01 -0.10783757925E+01  0.81271605035E+01  0.10330671984E+02  0.51100000000E-03 0.  1.
         12    1    3    3    0    0 -0.76662911134E+01  0.55140038103E+01  0.17867377975E+02  0.20209390223E+02  0.00000000000E+00 0. -1.
</event>
<event>
 7    1  0.3054835E-011  0.5052886E+02  0.7816164E-02  0.1300439E+00
        -11   -1    0    0    0    0  0.00000000000E+00  0.00000000000E+00  0.45593999997E+02  0.45594000000E+02  0.51100000000E-03 0.  1.
         11   -1    0    0    0    0 -0.00000000000E+00 -0.00000000000E+00 -0.45593999997E+02  0.45594000000E+02  0.51100000000E-03 0. -1.
    9900012    2    1    2    0    0  0.38624648988E+02  0.11936103152E+02  0.43395094640E+01  0.50528863139E+02  0.30000009998E+02 0.  0.
         12    1    1    2    0    0 -0.38624648988E+02 -0.11936103152E+02 -0.43395094640E+01  0.40659136861E+02  0.00000000000E+00 0. -1.
         11    1    3    3    0    0  0.37938655620E+02  0.92184330073E+01  0.31027585979E+01  0.39165650876E+02  0.51100000000E-03 0.  1.
        -11    1    3    3    0    0 -0.34275726319E+01  0.40311333487E+01 -0.23115366368E+01  0.57742092192E+01  0.51100000000E-03 0. -1.
         12    1    3    3    0    0  0.41135659995E+01 -0.13134632043E+01  0.35482875029E+01  0.55890030438E+01  0.00000000000E+00 0. -1.
</event>
<event>
 7    1  0.3054835E-011  0.5052886E+02  0.7816164E-02  0.1300439E+00
        -11   -1    0    0    0    0  0.00000000000E+00  0.00000000000E+00  0.45593999997E+02  0.45594000000E+02  0.51100000000E-03 0.  1.
         11   -1    0    0    0    0 -0.00000000000E+00 -0.00000000000E+00 -0.45593999997E+02  0.45594000000E+02  0.51100000000E-03 0. -1.
    9900012    2    1    2    0    0 -0.10931549660E+02 -0.14025292520E+01  0.39136939810E+02  0.50528856822E+02  0.29999990795E+02 0.  0.
         12    1    1    2    0    0  0.10931549660E+02  0.14025292520E+01 -0.39136939810E+02  0.40659143178E+02  0.00000000000E+00 0. -1.
         11    1    3    3    0    0 -0.58023904923E+01 -0.12958653972E+02  0.24238369486E+02  0.28090799273E+02  0.51100000000E-03 0. -1.
        -11    1    3    3    0    0 -0.39647329729E+01  0.14760110353E+01 -0.21279361776E+00  0.42359175521E+01  0.51100000000E-03 0.  1.
         12    1    3    3    0    0 -0.11644261949E+01  0.10080113685E+02  0.15111363943E+02  0.18202139997E+02  0.00000000000E+00 0. -1.
</event>
<event>
 7    1  0.3054835E-011  0.5052886E+02  0.7816164E-02  0.1300439E+00
        -11   -1    0    0    0    0  0.00000000000E+00  0.00000000000E+00  0.45593999997E+02  0.45594000000E+02  0.51100000000E-03 0.  1.
         11   -1    0    0    0    0 -0.00000000000E+00 -0.00000000000E+00 -0.45593999997E+02  0.45594000000E+02  0.51100000000E-03 0. -1.
    9900012    2    1    2    0    0  0.26489116898E+02 -0.40369281021E+01  0.30580961671E+02  0.50528864258E+02  0.30000013398E+02 0.  0.
         12    1    1    2    0    0 -0.26489116898E+02  0.40369281021E+01 -0.30580961671E+02  0.40659135742E+02  0.00000000000E+00 0. -1.
         11    1    3    3    0    0  0.11347599668E+01  0.13962398499E+01  0.20268366466E+02  0.20348067362E+02  0.51100000000E-03 0. -1.
        -11    1    3    3    0    0  0.22767780564E+02 -0.20158978661E+01  0.50755319804E+01  0.23413600773E+02  0.51100000000E-03 0.  1.
        -12    1    3    3    0    0  0.25865763675E+01 -0.34172700859E+01  0.52370632249E+01  0.67671961229E+01  0.00000000000E+00 0.  1.
</event>
<event>
 7    1  0.3054835E-011  0.5052885E+02  0.7816164E-02  0.1300439E+00
        -11   -1    0    0    0    0  0.00000000000E+00  0.00000000000E+00  0.45593999997E+02  0.45594000000E+02  0.51100000000E-03 0. -1.
         11   -1    0    0    0    0 -0.00000000000E+00 -0.00000000000E+00 -0.45593999997E+02  0.45594000000E+02  0.51100000000E-03 0.  1.
    9900012    2    1    2    0    0 -0.54781259224E+01 -0.21990800458E+02 -0.33757383448E+02  0.50528854588E+02  0.29999984006E+02 0.  0.
         12    1    1    2    0    0  0.54781259224E+01  0.21990800458E+02  0.33757383448E+02  0.40659145412E+02  0.00000000000E+00 0. -1.
         11    1    3    3    0    0 -0.72860084263E+01 -0.11642434754E+02 -0.50480233295E+01  0.14632660236E+02  0.51100000000E-03 0. -1.
        -11    1    3    3    0    0 -0.92532315445E+00 -0.77580116826E+01 -0.30670808143E+02  0.31650299219E+02  0.51100000000E-03 0.  1.
        -12    1    3    3    0    0  0.27332056583E+01 -0.25903540207E+01  0.19614480253E+01  0.42458951329E+01  0.00000000000E+00 0.  1.
</event>
<event>
 7    1  0.3054835E-011  0.5052886E+02  0.7816164E-02  0.1300439E+00
        -11   -1    0    0    0    0  0.00000000000E+00  0.00000000000E+00  0.45593999997E+02  0.45594000000E+02  0.51100000000E-03 0.  1.
         11   -1    0    0    0    0 -0.00000000000E+00 -0.00000000000E+00 -0.45593999997E+02  0.45594000000E+02  0.51100000000E-03 0. -1.
    9900012    2    1    2    0    0  0.13274374335E+02  0.27130378011E+01  0.38335310846E+02  0.50528860243E+02  0.30000001194E+02 0.  0.
         12    1    1    2    0    0 -0.13274374335E+02 -0.27130378011E+01 -0.38335310846E+02  0.40659139757E+02  0.00000000000E+00 0. -1.
         11    1    3    3    0    0  0.93689311778E-01  0.71589666885E+01  0.35017741696E+02  0.35742157399E+02  0.51100000000E-03 0.  1.
        -11    1    3    3    0    0  0.73150726690E+01 -0.43519090204E+01  0.24440111448E+01  0.88556530540E+01  0.51100000000E-03 0. -1.
        -12    1    3    3    0    0  0.58656123542E+01 -0.94019866967E-01  0.87355800525E+00  0.59310497902E+01  0.00000000000E+00 0.  1.
</event>
<event>
 7    1  0.3054835E-011  0.5052878E+02  0.7816164E-02  0.1300439E+00
        -11   -1    0    0    0    0  0.00000000000E+00  0.00000000000E+00  0.45593999997E+02  0.45594000000E+02  0.51100000000E-03 0. -1.
         11   -1    0    0    0    0 -0.00000000000E+00 -0.00000000000E+00 -0.45593999997E+02  0.45594000000E+02  0.51100000000E-03 0.  1.
    9900012    2    1    2    0    0  0.30382808066E+01 -0.11557828062E+02 -0.38863315704E+02  0.50528783981E+02  0.29999769388E+02 0.  0.
         12    1    1    2    0    0 -0.30382808066E+01  0.11557828062E+02  0.38863315704E+02  0.40659216019E+02  0.00000000000E+00 0. -1.
         11    1    3    3    0    0  0.23464047809E+01 -0.10630335206E+02 -0.23366323670E+01  0.11134158840E+02  0.51100000000E-03 0. -1.
        -11    1    3    3    0    0  0.57631606708E+01  0.36254111219E+01 -0.25822238496E+02  0.26704786611E+02  0.51100000000E-03 0.  1.
        -12    1    3    3    0    0 -0.50712846451E+01 -0.45529039781E+01 -0.10704444841E+02  0.12689838531E+02  0.00000000000E+00 0.  1.
</event>
<event>
 7    1  0.3054835E-011  0.5052891E+02  0.7816164E-02  0.1300439E+00
        -11   -1    0    0    0    0  0.00000000000E+00  0.00000000000E+00  0.45593999997E+02  0.45594000000E+02  0.51100000000E-03 0.  1.
         11   -1    0    0    0    0 -0.00000000000E+00 -0.00000000000E+00 -0.45593999997E+02  0.45594000000E+02  0.51100000000E-03 0. -1.
    9900012    2    1    2    0    0 -0.20468025922E+01 -0.20817439911E+02  0.34865547142E+02  0.50528910206E+02  0.30000153063E+02 0.  0.
         12    1    1    2    0    0  0.20468025922E+01  0.20817439911E+02 -0.34865547142E+02  0.40659089794E+02  0.00000000000E+00 0. -1.
         11    1    3    3    0    0 -0.74685325714E+01  0.10841861224E+01 -0.24745104039E-01  0.75468570213E+01  0.51100000000E-03 0. -1.
        -11    1    3    3    0    0  0.17261744460E+01 -0.13035372155E+02  0.28661076475E+02  0.31533441144E+02  0.51100000000E-03 0.  1.
        -12    1    3    3    0    0  0.36955555332E+01 -0.88662538781E+01  0.62292157716E+01  0.11448612041E+02  0.00000000000E+00 0.  1.
</event>
<event>
 7    1  0.3054835E-011  0.5052885E+02  0.7816164E-02  0.1300439E+00
        -11   -1    0    0    0    0  0.00000000000E+00  0.00000000000E+00  0.45593999997E+02  0.45594000000E+02  0.51100000000E-03 0.  1.
         11   -1    0    0    0    0 -0.00000000000E+00 -0.00000000000E+00 -0.45593999997E+02  0.45594000000E+02  0.51100000000E-03 0. -1.
    9900012    2    1    2    0    0  0.45699980290E+01 -0.10273792205E+02  0.39073400115E+02  0.50528852385E+02  0.29999977309E+02 0.  0.
         12    1    1    2    0    0 -0.45699980290E+01  0.10273792205E+02 -0.39073400115E+02  0.40659147615E+02  0.00000000000E+00 0. -1.
         11    1    3    3    0    0 -0.25162900116E+01 -0.61803231521E+01  0.50129979381E+01  0.83461523037E+01  0.51100000000E-03 0. -1.
        -11    1    3    3    0    0  0.98901205157E+01 -0.31161293136E+01  0.36744778193E+02  0.38179883059E+02  0.51100000000E-03 0.  1.
        -12    1    3    3    0    0 -0.28038324751E+01 -0.97733973937E+00 -0.26843760162E+01  0.40028170219E+01  0.00000000000E+00 0.  1.
</event>
<event>
 7    1  0.3054835E-011  0.5052889E+02  0.7816164E-02  0.1300439E+00
        -11   -1    0    0    0    0  0.00000000000E+00  0.00000000000E+00  0.45593999997E+02  0.45594000000E+02  0.51100000000E-03 0.  1.
         11   -1    0    0    0    0 -0.00000000000E+00 -0.00000000000E+00 -0.45593999997E+02  0.45594000000E+02  0.51100000000E-03 0. -1.
    9900012    2    1    2    0    0  0.14720663222E+02  0.31067676491E+02  0.21708637240E+02  0.50528888118E+02  0.30000085923E+02 0.  0.
         12    1    1    2    0    0 -0.14720663222E+02 -0.31067676491E+02 -0.21708637240E+02  0.40659111882E+02  0.00000000000E+00 0. -1.
         11    1    3    3    0    0 -0.23594209086E+00 -0.53340898005E+01  0.52652430979E+01  0.74987310800E+01  0.51100000000E-03 0. -1.
        -11    1    3    3    0    0  0.13597293169E+02  0.35764321824E+02  0.15759280360E+02  0.41380285339E+02  0.51100000000E-03 0.  1.
        -12    1    3    3    0    0  0.13593121445E+01  0.63744446750E+00  0.68411378153E+00  0.16498716984E+01  0.00000000000E+00 0.  1.
</event>
<event>
 7    1  0.3054835E-011  0.5052886E+02  0.7816164E-02  0.1300439E+00
        -11   -1    0    0    0    0  0.00000000000E+00  0.00000000000E+00  0.45593999997E+02  0.45594000000E+02  0.51100000000E-03 0. -1.
         11   -1    0    0    0    0 -0.00000000000E+00 -0.00000000000E+00 -0.45593999997E+02  0.45594000000E+02  0.51100000000E-03 0.  1.
    9900012    2    1    2    0    0  0.36581608278E+02  0.12442842819E+02 -0.12654135854E+02  0.50528861349E+02  0.30000004557E+02 0.  0.
         12    1    1    2    0    0 -0.36581608278E+02 -0.12442842819E+02  0.12654135854E+02  0.40659138651E+02  0.00000000000E+00 0. -1.
         11    1    3    3    0    0  0.13355315937E+02 -0.83955951865E+01 -0.69331657552E+01  0.17231345565E+02  0.51100000000E-03 0. -1.
        -11    1    3    3    0    0  0.11111207125E+02  0.47047204326E+01 -0.51338108893E+01  0.13112945231E+02  0.51100000000E-03 0.  1.
         12    1    3    3    0    0  0.12115085216E+02  0.16133717573E+02 -0.58715920969E+00  0.20184570553E+02  0.00000000000E+00 0. -1.
</event>
<event>
 7    1  0.3054835E-011  0.5052886E+02  0.7816164E-02  0.1300439E+00
        -11   -1    0    0    0    0  0.00000000000E+00  0.00000000000E+00  0.45593999997E+02  0.45594000000E+02  0.51100000000E-03 0. -1.
         11   -1    0    0    0    0 -0.00000000000E+00 -0.00000000000E+00 -0.45593999997E+02  0.45594000000E+02  0.51100000000E-03 0.  1.
    9900012    2    1    2    0    0  0.39539785780E+02  0.74116854808E+01  0.59023647086E+01  0.50528860186E+02  0.30000001023E+02 0.  0.
         12    1    1    2    0    0 -0.39539785780E+02 -0.74116854808E+01 -0.59023647086E+01  0.40659139814E+02  0.00000000000E+00 0. -1.
         11    1    3    3    0    0  0.49116380137E+01  0.49031220595E+01 -0.86410893605E+01  0.11083014910E+02  0.51100000000E-03 0. -1.
        -11    1    3    3    0    0  0.19807267766E+02  0.22568458366E+01  0.14451588946E+02  0.24622543183E+02  0.51100000000E-03 0.  1.
         12    1    3    3    0    0  0.14820880000E+02  0.25171758470E+00  0.91865123457E-01  0.14823302093E+02  0.00000000000E+00 0. -1.
</event>
<event>
 7    1  0.3054835E-011  0.5052886E+02  0.7816164E-02  0.1300439E+00
        -11   -1    0    0    0    0  0.00000000000E+00  0.00000000000E+00  0.45593999997E+02  0.45594000000E+02  0.51100000000E-03 0.  1.
         11   -1    0    0    0    0 -0.00000000000E+00 -0.00000000000E+00 -0.45593999997E+02  0.45594000000E+02  0.51100000000E-03 0. -1.
    9900012    2    1    2    0    0  0.15673185777E+02  0.33103641242E+02  0.17654052178E+02  0.50528863583E+02  0.30000011346E+02 0.  0.
         12    1    1    2    0    0 -0.15673185777E+02 -0.33103641242E+02 -0.17654052178E+02  0.40659136417E+02  0.00000000000E+00 0. -1.
         11    1    3    3    0    0  0.12699011453E+02  0.28294317364E+01  0.25756369152E+01  0.13262898688E+02  0.51100000000E-03 0. -1.
        -11    1    3    3    0    0 -0.29196121328E+01  0.19459546749E+02  0.28013804341E+01  0.19875759791E+02  0.51100000000E-03 0.  1.
        -12    1    3    3    0    0  0.58937864565E+01  0.10814662757E+02  0.12277034829E+02  0.17390205103E+02  0.00000000000E+00 0.  1.
</event>
<event>
 7    1  0.3054835E-011  0.5052885E+02  0.7816164E-02  0.1300439E+00
        -11   -1    0    0    0    0  0.00000000000E+00  0.00000000000E+00  0.45593999997E+02  0.45594000000E+02  0.51100000000E-03 0.  1.
         11   -1    0    0    0    0 -0.00000000000E+00 -0.00000000000E+00 -0.45593999997E+02  0.45594000000E+02  0.51100000000E-03 0. -1.
    9900012    2    1    2    0    0 -0.53433491018E+01 -0.22346231856E+02  0.33544909973E+02  0.50528850441E+02  0.29999971402E+02 0.  0.
         12    1    1    2    0    0  0.53433491018E+01  0.22346231856E+02 -0.33544909973E+02  0.40659149559E+02  0.00000000000E+00 0. -1.
         11    1    3    3    0    0 -0.80906784072E+01 -0.81888981595E+00  0.10735531306E+01  0.82025711947E+01  0.51100000000E-03 0. -1.
        -11    1    3    3    0    0  0.36431324595E+01 -0.13675747004E+02  0.31282246445E+02  0.34334784303E+02  0.51100000000E-03 0.  1.
        -12    1    3    3    0    0 -0.89580315417E+00 -0.78515950355E+01  0.11891103967E+01  0.79914949432E+01  0.00000000000E+00 0.  1.
</event>
<event>
 7    1  0.3054835E-011  0.5052886E+02  0.7816164E-02  0.1300439E+00
        -11   -1    0    0    0    0  0.00000000000E+00  0.00000000000E+00  0.45593999997E+02  0.45594000000E+02  0.51100000000E-03 0.  1.
         11   -1    0    0    0    0 -0.00000000000E+00 -0.00000000000E+00 -0.45593999997E+02  0.45594000000E+02  0.51100000000E-03 0. -1.
    9900012    2    1    2    0    0  0.37470076232E+01 -0.40028527067E+02  0.60698406614E+01  0.50528855753E+02  0.29999987545E+02 0.  0.
         12    1    1    2    0    0 -0.37470076232E+01  0.40028527067E+02 -0.60698406614E+01  0.40659144247E+02  0.00000000000E+00 0. -1.
         11    1    3    3    0    0 -0.41385106289E-01 -0.25394301680E+02 -0.72011898671E+00  0.25404543730E+02  0.51100000000E-03 0. -1.
        -11    1    3    3    0    0  0.11137515420E+02 -0.81981975641E+01  0.66716536547E+01  0.15354662347E+02  0.51100000000E-03 0.  1.
         12    1    3    3    0    0 -0.73491226910E+01 -0.64360278230E+01  0.11830599342E+00  0.97696496751E+01  0.00000000000E+00 0. -1.
</event>
<event>
 7    1  0.3054835E-011  0.5052883E+02  0.7816164E-02  0.1300439E+00
        -11   -1    0    0    0    0  0.00000000000E+00  0.00000000000E+00  0.45593999997E+02  0.45594000000E+02  0.51100000000E-03 0.  1.
         11   -1    0    0    0    0 -0.00000000000E+00 -0.00000000000E+00 -0.45593999997E+02  0.45594000000E+02  0.51100000000E-03 0. -1.
    9900012    2    1    2    0    0  0.16575486801E+01  0.38968430440E+02  0.11483993711E+02  0.50528829446E+02  0.29999907584E+02 0.  0.
         12    1    1    2    0    0 -0.16575486801E+01 -0.38968430440E+02 -0.11483993711E+02  0.40659170554E+02  0.00000000000E+00 0. -1.
         11    1    3    3    0    0  0.85573967436E+01  0.30687481071E+01 -0.29032653811E+01  0.95433329663E+01  0.51100000000E-03 0. -1.
        -11    1    3    3    0    0 -0.68831461729E+01  0.36155924919E+02  0.15432053325E+02  0.39909608844E+02  0.51100000000E-03 0.  1.
        -12    1    3    3    0    0 -0.16701890618E-01 -0.25624258614E+00 -0.10447942328E+01  0.10758876359E+01  0.00000000000E+00 0.  1.
</event>
<event>
 7    1  0.3054835E-011  0.5052884E+02  0.7816164E-02  0.1300439E+00
        -11   -1    0    0    0    0  0.00000000000E+00  0.00000000000E+00  0.45593999997E+02  0.45594000000E+02  0.51100000000E-03 0.  1.
         11   -1    0    0    0    0 -0.00000000000E+00 -0.00000000000E+00 -0.45593999997E+02  0.45594000000E+02  0.51100000000E-03 0. -1.
    9900012    2    1    2    0    0  0.56827367937E+01  0.71421787700E+01  0.39621498241E+02  0.50528839434E+02  0.29999937943E+02 0.  0.
         12    1    1    2    0    0 -0.56827367937E+01 -0.71421787700E+01 -0.39621498241E+02  0.40659160566E+02  0.00000000000E+00 0. -1.
         11    1    3    3    0    0  0.28558618697E+01  0.34551840990E+01 -0.39750519685E+01  0.59912671940E+01  0.51100000000E-03 0. -1.
        -11    1    3    3    0    0 -0.89038862701E+00  0.42166428069E+01  0.12647674956E+02  0.13361757015E+02  0.51100000000E-03 0.  1.
         12    1    3    3    0    0  0.37172635510E+01 -0.52964813588E+00  0.30948875254E+02  0.31175815225E+02  0.00000000000E+00 0. -1.
</event>
<event>
 7    1  0.3054835E-011  0.5052886E+02  0.7816164E-02  0.1300439E+00
        -11   -1    0    0    0    0  0.00000000000E+00  0.00000000000E+00  0.45593999997E+02  0.45594000000E+02  0.51100000000E-03 0.  1.
         11   -1    0    0    0    0 -0.00000000000E+00 -0.00000000000E+00 -0.45593999997E+02  0.45594000000E+02  0.51100000000E-03 0. -1.
    9900012    2    1    2    0    0 -0.34961729086E+02  0.19938559436E+02  0.57703395957E+01  0.50528862379E+02  0.30000007687E+02 0.  0.
         12    1    1    2    0    0  0.34961729086E+02 -0.19938559436E+02 -0.57703395957E+01  0.40659137621E+02  0.00000000000E+00 0. -1.
         11    1    3    3    0    0 -0.94073349901E+01  0.35491391543E+01 -0.87376106490E+01  0.13320667418E+02  0.51100000000E-03 0. -1.
        -11    1    3    3    0    0 -0.13417891202E+02  0.64479758324E-01  0.89206382708E+01  0.16112782173E+02  0.51100000000E-03 0.  1.
        -12    1    3    3    0    0 -0.12136502894E+02  0.16324940523E+02  0.55873119740E+01  0.21095412787E+02  0.00000000000E+00 0.  1.
</event>
<event>
 7    1  0.3054835E-011  0.5052886E+02  0.7816164E-02  0.1300439E+00
        -11   -1    0    0    0    0  0.00000000000E+00  0.00000000000E+00  0.45593999997E+02  0.45594000000E+02  0.51100000000E-03 0.  1.
         11   -1    0    0    0    0 -0.00000000000E+00 -0.00000000000E+00 -0.45593999997E+02  0.45594000000E+02  0.51100000000E-03 0. -1.
    9900012    2    1    2    0    0 -0.18248933686E+02 -0.24002930468E+02  0.27276395501E+02  0.50528855847E+02  0.29999987831E+02 0.  0.
         12    1    1    2    0    0  0.18248933686E+02  0.24002930468E+02 -0.27276395501E+02  0.40659144153E+02  0.00000000000E+00 0. -1.
         11    1    3    3    0    0 -0.20154252549E+02 -0.11416597175E+02  0.40067692483E+01  0.23507164587E+02  0.51100000000E-03 0. -1.
        -11    1    3    3    0    0 -0.12015274403E+00 -0.10390933700E+02  0.20324169525E+02  0.22826690670E+02  0.51100000000E-03 0.  1.
         12    1    3    3    0    0  0.20254716065E+01 -0.21953995937E+01  0.29454567283E+01  0.41950005892E+01  0.00000000000E+00 0. -1.
</event>
<event>
 7    1  0.3054835E-011  0.5052886E+02  0.7816164E-02  0.1300439E+00
        -11   -1    0    0    0    0  0.00000000000E+00  0.00000000000E+00  0.45593999997E+02  0.45594000000E+02  0.51100000000E-03 0.  1.
         11   -1    0    0    0    0 -0.00000000000E+00 -0.00000000000E+00 -0.45593999997E+02  0.45594000000E+02  0.51100000000E-03 0. -1.
    9900012    2    1    2    0    0  0.19899670140E+01 -0.25478391747E+01  0.40530409798E+02  0.50528861155E+02  0.30000003967E+02 0.  0.
         12    1    1    2    0    0 -0.19899670140E+01  0.25478391747E+01 -0.40530409798E+02  0.40659138845E+02  0.00000000000E+00 0. -1.
         11    1    3    3    0    0 -0.19894019101E+01 -0.14739597734E+02  0.14738480444E+02  0.20938869773E+02  0.51100000000E-03 0. -1.
        -11    1    3    3    0    0  0.15156137535E+01  0.26055071898E+01  0.13377190143E+02  0.13712584335E+02  0.51100000000E-03 0.  1.
         12    1    3    3    0    0  0.24637551706E+01  0.95862513691E+01  0.12414739211E+02  0.15877407047E+02  0.00000000000E+00 0. -1.
</event>
<event>
 7    1  0.3054835E-011  0.5052886E+02  0.7816164E-02  0.1300439E+00
        -11   -1    0    0    0    0  0.00000000000E+00  0.00000000000E+00  0.45593999997E+02  0.45594000000E+02  0.51100000000E-03 0.  1.
         11   -1    0    0    0    0 -0.00000000000E+00 -0.00000000000E+00 -0.45593999997E+02  0.45594000000E+02  0.51100000000E-03 0. -1.
    9900012    2    1    2    0    0  0.30601295575E+02 -0.21398056840E+02  0.16088790104E+02  0.50528864564E+02  0.30000014327E+02 0.  0.
         12    1    1    2    0    0 -0.30601295575E+02  0.21398056840E+02 -0.16088790104E+02  0.40659135436E+02  0.00000000000E+00 0. -1.
         11    1    3    3    0    0  0.16577929755E+02  0.44208399588E+01  0.76355092696E+01  0.18779578882E+02  0.51100000000E-03 0. -1.
        -11    1    3    3    0    0  0.11493348771E+02 -0.15729937742E+02  0.87211856825E+01  0.21344486110E+02  0.51100000000E-03 0.  1.
         12    1    3    3    0    0  0.25300170490E+01 -0.10088959057E+02 -0.26790484800E+00  0.10404799572E+02  0.00000000000E+00 0. -1.
</event>
<event>
 7    1  0.3054835E-011  0.5052885E+02  0.7816164E-02  0.1300439E+00
        -11   -1    0    0    0    0  0.00000000000E+00  0.00000000000E+00  0.45593999997E+02  0.45594000000E+02  0.51100000000E-03 0.  1.
         11   -1    0    0    0    0 -0.00000000000E+00 -0.00000000000E+00 -0.45593999997E+02  0.45594000000E+02  0.51100000000E-03 0. -1.
    9900012    2    1    2    0    0  0.51514158331E+01 -0.32589925165E+02  0.23759754799E+02  0.50528852746E+02  0.29999978405E+02 0.  0.
         12    1    1    2    0    0 -0.51514158331E+01  0.32589925165E+02 -0.23759754799E+02  0.40659147254E+02  0.00000000000E+00 0. -1.
         11    1    3    3    0    0  0.27470166904E+01 -0.29647941524E+01 -0.65900721003E+01  0.77307926897E+01  0.51100000000E-03 0. -1.
        -11    1    3    3    0    0  0.19843677373E+01 -0.25895993178E+02  0.28675361924E+02  0.38688713597E+02  0.51100000000E-03 0.  1.
         12    1    3    3    0    0  0.42003140543E+00 -0.37291378343E+01  0.16744649749E+01  0.41093464591E+01  0.00000000000E+00 0. -1.
</event>
<event>
 7    1  0.3054835E-011  0.5052885E+02  0.7816164E-02  0.1300439E+00
        -11   -1    0    0    0    0  0.00000000000E+00  0.00000000000E+00  0.45593999997E+02  0.45594000000E+02  0.51100000000E-03 0.  1.
         11   -1    0    0    0    0 -0.00000000000E+00 -0.00000000000E+00 -0.45593999997E+02  0.45594000000E+02  0.51100000000E-03 0. -1.
    9900012    2    1    2    0    0 -0.30783851072E+02  0.18559614270E+02  0.19001615116E+02  0.50528854095E+02  0.29999982507E+02 0.  0.
         12    1    1    2    0    0  0.30783851072E+02 -0.18559614270E+02 -0.19001615116E+02  0.40659145905E+02  0.00000000000E+00 0. -1.
         11    1    3    3    0    0  0.18782695386E+01 -0.19766606075E+01 -0.25707531840E+01  0.37475132836E+01  0.51100000000E-03 0. -1.
        -11    1    3    3    0    0 -0.57209438550E+01  0.99051862393E+01  0.11223078185E+02  0.16024961692E+02  0.51100000000E-03 0.  1.
         12    1    3    3    0    0 -0.26941176756E+02  0.10631088638E+02  0.10349290115E+02  0.30756379119E+02  0.00000000000E+00 0. -1.
</event>
<event>
 7    1  0.3054835E-011  0.5052890E+02  0.7816164E-02  0.1300439E+00
        -11   -1    0    0    0    0  0.00000000000E+00  0.00000000000E+00  0.45593999997E+02  0.45594000000E+02  0.51100000000E-03 0.  1.
         11   -1    0    0    0    0 -0.00000000000E+00 -0.00000000000E+00 -0.45593999997E+02  0.45594000000E+02  0.51100000000E-03 0. -1.
    9900012    2    1    2    0    0 -0.13707260591E+02  0.37225565421E+02 -0.89180137079E+01  0.50528896686E+02  0.30000111967E+02 0.  0.
         12    1    1    2    0    0  0.13707260591E+02 -0.37225565421E+02  0.89180137079E+01  0.40659103314E+02  0.00000000000E+00 0. -1.
         11    1    3    3    0    0 -0.64594592854E+01  0.53074940326E+01  0.95175448470E+01  0.12667981976E+02  0.51100000000E-03 0. -1.
        -11    1    3    3    0    0 -0.13630471075E+01  0.14903965452E+02 -0.69083670217E+01  0.16483677344E+02  0.51100000000E-03 0.  1.
         12    1    3    3    0    0 -0.58847541982E+01  0.17014105936E+02 -0.11527191533E+02  0.21377237366E+02  0.00000000000E+00 0. -1.
</event>
<event>
 7    1  0.3054835E-011  0.5052888E+02  0.7816164E-02  0.1300439E+00
        -11   -1    0    0    0    0  0.00000000000E+00  0.00000000000E+00  0.45593999997E+02  0.45594000000E+02  0.51100000000E-03 0.  1.
         11   -1    0    0    0    0 -0.00000000000E+00 -0.00000000000E+00 -0.45593999997E+02  0.45594000000E+02  0.51100000000E-03 0. -1.
    9900012    2    1    2    0    0  0.31408349047E+02 -0.12202130942E+02  0.22754944622E+02  0.50528881783E+02  0.30000066668E+02 0.  0.
         12    1    1    2    0    0 -0.31408349047E+02  0.12202130942E+02 -0.22754944622E+02  0.40659118217E+02  0.00000000000E+00 0. -1.
         11    1    3    3    0    0  0.88977619531E+01 -0.55270045363E+01 -0.51341635359E+01  0.11665229633E+02  0.51100000000E-03 0. -1.
        -11    1    3    3    0    0  0.13587410436E+02  0.26160103681E+01  0.17530686776E+02  0.22333522152E+02  0.51100000000E-03 0.  1.
        -12    1    3    3    0    0  0.89231766578E+01 -0.92911367741E+01  0.10358421383E+02  0.16530129998E+02  0.00000000000E+00 0.  1.
</event>
<event>
 7    1  0.3054835E-011  0.5052885E+02  0.7816164E-02  0.1300439E+00
        -11   -1    0    0    0    0  0.00000000000E+00  0.00000000000E+00  0.45593999997E+02  0.45594000000E+02  0.51100000000E-03 0.  1.
         11   -1    0    0    0    0 -0.00000000000E+00 -0.00000000000E+00 -0.45593999997E+02  0.45594000000E+02  0.51100000000E-03 0. -1.
    9900012    2    1    2    0    0  0.58942903571E+01 -0.23946789566E+02  0.32326068572E+02  0.50528854673E+02  0.29999984265E+02 0.  0.
         12    1    1    2    0    0 -0.58942903571E+01  0.23946789566E+02 -0.32326068572E+02  0.40659145327E+02  0.00000000000E+00 0. -1.
         11    1    3    3    0    0  0.73466757957E+01 -0.23502652001E+02  0.84913328437E+01  0.26047092545E+02  0.51100000000E-03 0. -1.
        -11    1    3    3    0    0  0.10600868531E+01  0.18617242240E+01  0.10633283182E+02  0.10846958685E+02  0.51100000000E-03 0.  1.
         12    1    3    3    0    0 -0.25124722917E+01 -0.23058617897E+01  0.13201452546E+02  0.13634803444E+02  0.00000000000E+00 0. -1.
</event>
<event>
 7    1  0.3054835E-011  0.5052886E+02  0.7816164E-02  0.1300439E+00
        -11   -1    0    0    0    0  0.00000000000E+00  0.00000000000E+00  0.45593999997E+02  0.45594000000E+02  0.51100000000E-03 0.  1.
         11   -1    0    0    0    0 -0.00000000000E+00 -0.00000000000E+00 -0.45593999997E+02  0.45594000000E+02  0.51100000000E-03 0. -1.
    9900012    2    1    2    0    0 -0.28851633667E+02 -0.94389776442E+00  0.28633164072E+02  0.50528858432E+02  0.29999995690E+02 0.  0.
         12    1    1    2    0    0  0.28851633667E+02  0.94389776442E+00 -0.28633164072E+02  0.40659141568E+02  0.00000000000E+00 0. -1.
         11    1    3    3    0    0  0.12051532049E+01 -0.10749516726E+01 -0.41756723178E+01  0.44770699025E+01  0.51100000000E-03 0. -1.
        -11    1    3    3    0    0 -0.24110250671E+02  0.36718219006E+01  0.20195847403E+02  0.31664786689E+02  0.51100000000E-03 0.  1.
         12    1    3    3    0    0 -0.59465362008E+01 -0.35407679924E+01  0.12612988987E+02  0.14387001840E+02  0.00000000000E+00 0. -1.
</event>
<event>
 7    1  0.3054835E-011  0.5052886E+02  0.7816164E-02  0.1300439E+00
        -11   -1    0    0    0    0  0.00000000000E+00  0.00000000000E+00  0.45593999997E+02  0.45594000000E+02  0.51100000000E-03 0.  1.
         11   -1    0    0    0    0 -0.00000000000E+00 -0.00000000000E+00 -0.45593999997E+02  0.45594000000E+02  0.51100000000E-03 0. -1.
    9900012    2    1    2    0    0 -0.23380369650E+02 -0.15849642830E+02  0.29245737624E+02  0.50528855494E+02  0.29999986760E+02 0.  0.
         12    1    1    2    0    0  0.23380369650E+02  0.15849642830E+02 -0.29245737624E+02  0.40659144506E+02  0.00000000000E+00 0. -1.
         11    1    3    3    0    0 -0.29362923394E+01  0.14123899674E+01 -0.37745586728E+01  0.49863765961E+01  0.51100000000E-03 0. -1.
        -11    1    3    3    0    0 -0.22643256108E+02 -0.17241521681E+02  0.32648845776E+02  0.43312056610E+02  0.51100000000E-03 0.  1.
        -12    1    3    3    0    0  0.21991787982E+01 -0.20511116681E-01  0.37145052090E+00  0.22304222878E+01  0.00000000000E+00 0.  1.
</event>
<event>
 7    1  0.3054835E-011  0.5052886E+02  0.7816164E-02  0.1300439E+00
        -11   -1    0    0    0    0  0.00000000000E+00  0.00000000000E+00  0.45593999997E+02  0.45594000000E+02  0.51100000000E-03 0.  1.
         11   -1    0    0    0    0 -0.00000000000E+00 -0.00000000000E+00 -0.45593999997E+02  0.45594000000E+02  0.51100000000E-03 0. -1.
    9900012    2    1    2    0    0  0.35798025370E+02 -0.10606999529E+02  0.16098398611E+02  0.50528862070E+02  0.30000006746E+02 0.  0.
         12    1    1    2    0    0 -0.35798025370E+02  0.10606999529E+02 -0.16098398611E+02  0.40659137930E+02  0.00000000000E+00 0. -1.
         11    1    3    3    0    0  0.15830934200E+02 -0.77236612353E+01 -0.41511325931E+01  0.18097108128E+02  0.51100000000E-03 0. -1.
        -11    1    3    3    0    0  0.38882056946E+01  0.40441834728E+01  0.11640439598E+02  0.12921818672E+02  0.51100000000E-03 0.  1.
         12    1    3    3    0    0  0.16078885476E+02 -0.69275217665E+01  0.86090916055E+01  0.19509935270E+02  0.00000000000E+00 0. -1.
</event>
<event>
 7    1  0.3054835E-011  0.5052886E+02  0.7816164E-02  0.1300439E+00
        -11   -1    0    0    0    0  0.00000000000E+00  0.00000000000E+00  0.45593999997E+02  0.45594000000E+02  0.51100000000E-03 0. -1.
         11   -1    0    0    0    0 -0.00000000000E+00 -0.00000000000E+00 -0.45593999997E+02  0.45594000000E+02  0.51100000000E-03 0.  1.
    9900012    2    1    2    0    0  0.32428711530E+02  0.13522622327E+01 -0.24489097466E+02  0.50528857863E+02  0.29999993961E+02 0.  0.
         12    1    1    2    0    0 -0.32428711530E+02 -0.13522622327E+01  0.24489097466E+02  0.40659142137E+02  0.00000000000E+00 0. -1.
         11    1    3    3    0    0 -0.72424790851E+00 -0.56793164660E+01  0.16561256979E+00  0.57277044563E+01  0.51100000000E-03 0. -1.
        -11    1    3    3    0    0  0.29099897938E+02  0.40109578071E+01 -0.26358154784E+02  0.39467000981E+02  0.51100000000E-03 0.  1.
        -12    1    3    3    0    0  0.40530614999E+01  0.30206208915E+01  0.17034447487E+01  0.53341524260E+01  0.00000000000E+00 0.  1.
</event>
<event>
 7    1  0.3054835E-011  0.5052878E+02  0.7816164E-02  0.1300439E+00
        -11   -1    0    0    0    0  0.00000000000E+00  0.00000000000E+00  0.45593999997E+02  0.45594000000E+02  0.51100000000E-03 0. -1.
         11   -1    0    0    0    0 -0.00000000000E+00 -0.00000000000E+00 -0.45593999997E+02  0.45594000000E+02  0.51100000000E-03 0.  1.
    9900012    2    1    2    0    0 -0.10290615606E+02 -0.24611480521E+02 -0.30684688606E+02  0.50528783851E+02  0.29999768992E+02 0.  0.
         12    1    1    2    0    0  0.10290615606E+02  0.24611480521E+02  0.30684688606E+02  0.40659216149E+02  0.00000000000E+00 0. -1.
         11    1    3    3    0    0 -0.10881131407E+01  0.56989628998E+00  0.31901654630E+01  0.34184686529E+01  0.51100000000E-03 0. -1.
        -11    1    3    3    0    0 -0.14305538443E+02 -0.13771818462E+02 -0.24202406259E+02  0.31306035886E+02  0.51100000000E-03 0.  1.
         12    1    3    3    0    0  0.51030359783E+01 -0.11409558350E+02 -0.96724478105E+01  0.15804279312E+02  0.00000000000E+00 0. -1.
</event>
<event>
 7    1  0.3054835E-011  0.5052883E+02  0.7816164E-02  0.1300439E+00
        -11   -1    0    0    0    0  0.00000000000E+00  0.00000000000E+00  0.45593999997E+02  0.45594000000E+02  0.51100000000E-03 0. -1.
         11   -1    0    0    0    0 -0.00000000000E+00 -0.00000000000E+00 -0.45593999997E+02  0.45594000000E+02  0.51100000000E-03 0.  1.
    9900012    2    1    2    0    0 -0.73171241663E+00  0.77555048300E+01 -0.39905944960E+02  0.50528834964E+02  0.29999924358E+02 0.  0.
         12    1    1    2    0    0  0.73171241663E+00 -0.77555048300E+01  0.39905944960E+02  0.40659165036E+02  0.00000000000E+00 0. -1.
         11    1    3    3    0    0  0.27808343775E+01 -0.55721201523E+01 -0.18755879076E+01  0.65037983584E+01  0.51100000000E-03 0. -1.
        -11    1    3    3    0    0 -0.27152558976E+01  0.70529412014E+01 -0.36816866892E+02  0.37584548449E+02  0.51100000000E-03 0.  1.
        -12    1    3    3    0    0 -0.79729089653E+00  0.62746837809E+01 -0.12134901609E+01  0.64404881566E+01  0.00000000000E+00 0.  1.
</event>
<event>
 7    1  0.3054835E-011  0.5052885E+02  0.7816164E-02  0.1300439E+00
        -11   -1    0    0    0    0  0.00000000000E+00  0.00000000000E+00  0.45593999997E+02  0.45594000000E+02  0.51100000000E-03 0.  1.
         11   -1    0    0    0    0 -0.00000000000E+00 -0.00000000000E+00 -0.45593999997E+02  0.45594000000E+02  0.51100000000E-03 0. -1.
    9900012    2    1    2    0    0 -0.23236386894E+02 -0.23544923231E+02  0.23640508848E+02  0.50528846733E+02  0.29999960128E+02 0.  0.
         12    1    1    2    0    0  0.23236386894E+02  0.23544923231E+02 -0.23640508848E+02  0.40659153267E+02  0.00000000000E+00 0. -1.
         11    1    3    3    0    0 -0.87202968133E+01 -0.15733229632E+02  0.20729004443E+01  0.18107319174E+02  0.51100000000E-03 0.  1.
        -11    1    3    3    0    0 -0.84251802514E+00  0.52359318541E+01  0.44810007611E+01  0.69429235258E+01  0.51100000000E-03 0. -1.
        -12    1    3    3    0    0 -0.13673572055E+02 -0.13047625453E+02  0.17086607643E+02  0.25478604033E+02  0.00000000000E+00 0.  1.
</event>
<event>
 7    1  0.3054835E-011  0.5052886E+02  0.7816164E-02  0.1300439E+00
        -11   -1    0    0    0    0  0.00000000000E+00  0.00000000000E+00  0.45593999997E+02  0.45594000000E+02  0.51100000000E-03 0.  1.
         11   -1    0    0    0    0 -0.00000000000E+00 -0.00000000000E+00 -0.45593999997E+02  0.45594000000E+02  0.51100000000E-03 0. -1.
    9900012    2    1    2    0    0  0.15840916456E+01 -0.94419535626E+01  0.39515896412E+02  0.50528857084E+02  0.29999991593E+02 0.  0.
         12    1    1    2    0    0 -0.15840916456E+01  0.94419535626E+01 -0.39515896412E+02  0.40659142916E+02  0.00000000000E+00 0. -1.
         11    1    3    3    0    0 -0.34630457375E+01 -0.37936147039E+01  0.32592562493E+02  0.32994837905E+02  0.51100000000E-03 0.  1.
        -11    1    3    3    0    0  0.23835351914E+01  0.24571266225E+01 -0.29258781711E+01  0.45032737626E+01  0.51100000000E-03 0. -1.
         12    1    3    3    0    0  0.26636021917E+01 -0.81054654812E+01  0.98492120903E+01  0.13030745416E+02  0.00000000000E+00 0. -1.
</event>
<event>
 7    1  0.3054835E-011  0.5052885E+02  0.7816164E-02  0.1300439E+00
        -11   -1    0    0    0    0  0.00000000000E+00  0.00000000000E+00  0.45593999997E+02  0.45594000000E+02  0.51100000000E-03 0.  1.
         11   -1    0    0    0    0 -0.00000000000E+00 -0.00000000000E+00 -0.45593999997E+02  0.45594000000E+02  0.51100000000E-03 0. -1.
    9900012    2    1    2    0    0 -0.22636009529E+01  0.85498914308E+00  0.40587081771E+02  0.50528854628E+02  0.29999984127E+02 0.  0.
         12    1    1    2    0    0  0.22636009529E+01 -0.85498914308E+00 -0.40587081771E+02  0.40659145372E+02  0.00000000000E+00 0. -1.
         11    1    3    3    0    0  0.23527584393E+01  0.12074966851E+02  0.62092013896E+01  0.13780220568E+02  0.51100000000E-03 0. -1.
        -11    1    3    3    0    0 -0.46013550064E+01 -0.88701986951E+01  0.31421390736E+02  0.32972059214E+02  0.51100000000E-03 0.  1.
        -12    1    3    3    0    0 -0.15004385852E-01 -0.23497790133E+01  0.29564896452E+01  0.37765748457E+01  0.00000000000E+00 0.  1.
</event>
<event>
 7    1  0.3054835E-011  0.5052886E+02  0.7816164E-02  0.1300439E+00
        -11   -1    0    0    0    0  0.00000000000E+00  0.00000000000E+00  0.45593999997E+02  0.45594000000E+02  0.51100000000E-03 0. -1.
         11   -1    0    0    0    0 -0.00000000000E+00 -0.00000000000E+00 -0.45593999997E+02  0.45594000000E+02  0.51100000000E-03 0.  1.
    9900012    2    1    2    0    0  0.37732510293E+02  0.67462304700E+01 -0.13561408681E+02  0.50528858789E+02  0.29999996776E+02 0.  0.
         12    1    1    2    0    0 -0.37732510293E+02 -0.67462304700E+01  0.13561408681E+02  0.40659141211E+02  0.00000000000E+00 0. -1.
         11    1    3    3    0    0  0.63664343264E+01 -0.76048568474E+01  0.42396409744E+01  0.10786097049E+02  0.51100000000E-03 0. -1.
        -11    1    3    3    0    0  0.18389344932E+01 -0.11414308078E+01 -0.14467205184E+01  0.26033718287E+01  0.51100000000E-03 0.  1.
         12    1    3    3    0    0  0.29527141473E+02  0.15492518125E+02 -0.16354329137E+02  0.37139389911E+02  0.00000000000E+00 0. -1.
</event>
<event>
 7    1  0.3054835E-011  0.5052886E+02  0.7816164E-02  0.1300439E+00
        -11   -1    0    0    0    0  0.00000000000E+00  0.00000000000E+00  0.45593999997E+02  0.45594000000E+02  0.51100000000E-03 0. -1.
         11   -1    0    0    0    0 -0.00000000000E+00 -0.00000000000E+00 -0.45593999997E+02  0.45594000000E+02  0.51100000000E-03 0.  1.
    9900012    2    1    2    0    0  0.39487430900E+02 -0.14533204764E+01 -0.95810327358E+01  0.50528861694E+02  0.30000005606E+02 0.  0.
         12    1    1    2    0    0 -0.39487430900E+02  0.14533204764E+01  0.95810327358E+01  0.40659138306E+02  0.00000000000E+00 0. -1.
         11    1    3    3    0    0  0.17557027765E+02 -0.14226988648E+02 -0.86277799186E+01  0.24188737390E+02  0.51100000000E-03 0. -1.
        -11    1    3    3    0    0  0.97469986989E+01  0.58509041855E+01 -0.39041034183E+01  0.12019945390E+02  0.51100000000E-03 0.  1.
         12    1    3    3    0    0  0.12183404436E+02  0.69227639861E+01  0.29508506011E+01  0.14320178914E+02  0.00000000000E+00 0. -1.
</event>
<event>
 7    1  0.3054835E-011  0.5052886E+02  0.7816164E-02  0.1300439E+00
        -11   -1    0    0    0    0  0.00000000000E+00  0.00000000000E+00  0.45593999997E+02  0.45594000000E+02  0.51100000000E-03 0. -1.
         11   -1    0    0    0    0 -0.00000000000E+00 -0.00000000000E+00 -0.45593999997E+02  0.45594000000E+02  0.51100000000E-03 0.  1.
    9900012    2    1    2    0    0 -0.34020353925E+02 -0.18265581748E+02  0.12733802744E+02  0.50528859698E+02  0.29999999539E+02 0.  0.
         12    1    1    2    0    0  0.34020353925E+02  0.18265581748E+02 -0.12733802744E+02  0.40659140302E+02  0.00000000000E+00 0. -1.
         11    1    3    3    0    0 -0.45316883496E+01 -0.14706568070E+02 -0.38269939558E+01  0.15857655145E+02  0.51100000000E-03 0. -1.
        -11    1    3    3    0    0 -0.24941920190E+02 -0.43861303545E+00  0.13588673106E+02  0.28406756260E+02  0.51100000000E-03 0.  1.
        -12    1    3    3    0    0 -0.45467453852E+01 -0.31204006429E+01  0.29721235933E+01  0.62644482937E+01  0.00000000000E+00 0.  1.
</event>
<event>
 7    1  0.3054835E-011  0.5052885E+02  0.7816164E-02  0.1300439E+00
        -11   -1    0    0    0    0  0.00000000000E+00  0.00000000000E+00  0.45593999997E+02  0.45594000000E+02  0.51100000000E-03 0. -1.
         11   -1    0    0    0    0 -0.00000000000E+00 -0.00000000000E+00 -0.45593999997E+02  0.45594000000E+02  0.51100000000E-03 0.  1.
    9900012    2    1    2    0    0  0.38221039639E+02  0.25834526266E+01 -0.13625125965E+02  0.50528853967E+02  0.29999982118E+02 0.  0.
         12    1    1    2    0    0 -0.38221039639E+02 -0.25834526266E+01  0.13625125965E+02  0.40659146033E+02  0.00000000000E+00 0. -1.
         11    1    3    3    0    0 -0.20650602559E+00 -0.39986258585E+01 -0.28401061768E+01  0.49089567987E+01  0.51100000000E-03 0. -1.
        -11    1    3    3    0    0  0.31526713743E+02  0.11449849753E+02 -0.22558905634E+01  0.33617283967E+02  0.51100000000E-03 0.  1.
        -12    1    3    3    0    0  0.69008319217E+01 -0.48677712683E+01 -0.85291292248E+01  0.12002613202E+02  0.00000000000E+00 0.  1.
</event>
<event>
 7    1  0.3054835E-011  0.5052886E+02  0.7816164E-02  0.1300439E+00
        -11   -1    0    0    0    0  0.00000000000E+00  0.00000000000E+00  0.45593999997E+02  0.45594000000E+02  0.51100000000E-03 0.  1.
         11   -1    0    0    0    0 -0.00000000000E+00 -0.00000000000E+00 -0.45593999997E+02  0.45594000000E+02  0.51100000000E-03 0. -1.
    9900012    2    1    2    0    0  0.19023900769E+02  0.29721701116E+02  0.20195973977E+02  0.50528859790E+02  0.29999999818E+02 0.  0.
         12    1    1    2    0    0 -0.19023900769E+02 -0.29721701116E+02 -0.20195973977E+02  0.40659140210E+02  0.00000000000E+00 0. -1.
         11    1    3    3    0    0  0.13118056862E+02  0.88509490334E+01  0.20107141077E+02  0.25587493765E+02  0.51100000000E-03 0. -1.
        -11    1    3    3    0    0 -0.29911511395E+01  0.91331403122E+01  0.27015042330E+01  0.99829535952E+01  0.51100000000E-03 0.  1.
         12    1    3    3    0    0  0.88969950468E+01  0.11737611770E+02 -0.26126713326E+01  0.14958412430E+02  0.00000000000E+00 0. -1.
</event>
<event>
 7    1  0.3054835E-011  0.5052886E+02  0.7816164E-02  0.1300439E+00
        -11   -1    0    0    0    0  0.00000000000E+00  0.00000000000E+00  0.45593999997E+02  0.45594000000E+02  0.51100000000E-03 0.  1.
         11   -1    0    0    0    0 -0.00000000000E+00 -0.00000000000E+00 -0.45593999997E+02  0.45594000000E+02  0.51100000000E-03 0. -1.
    9900012    2    1    2    0    0  0.37899854764E+02  0.97522782832E+01 -0.11029951972E+02  0.50528858797E+02  0.29999996799E+02 0.  0.
         12    1    1    2    0    0 -0.37899854764E+02 -0.97522782832E+01  0.11029951972E+02  0.40659141203E+02  0.00000000000E+00 0. -1.
         11    1    3    3    0    0 -0.22216716030E+01  0.55921022037E+01 -0.27389067948E+01  0.66112814537E+01  0.51100000000E-03 0. -1.
        -11    1    3    3    0    0  0.27827056213E+02  0.97455088037E+01 -0.73182203955E+01  0.30378879989E+02  0.51100000000E-03 0.  1.
         12    1    3    3    0    0  0.12294470154E+02 -0.55853327242E+01 -0.97282478122E+00  0.13538697355E+02  0.00000000000E+00 0. -1.
</event>
<event>
 7    1  0.3054835E-011  0.5052886E+02  0.7816164E-02  0.1300439E+00
        -11   -1    0    0    0    0  0.00000000000E+00  0.00000000000E+00  0.45593999997E+02  0.45594000000E+02  0.51100000000E-03 0.  1.
         11   -1    0    0    0    0 -0.00000000000E+00 -0.00000000000E+00 -0.45593999997E+02  0.45594000000E+02  0.51100000000E-03 0. -1.
    9900012    2    1    2    0    0 -0.82023974446E+01 -0.24338421557E+01  0.39748743383E+02  0.50528861888E+02  0.30000006196E+02 0.  0.
         12    1    1    2    0    0  0.82023974446E+01  0.24338421557E+01 -0.39748743383E+02  0.40659138112E+02  0.00000000000E+00 0. -1.
         11    1    3    3    0    0  0.10700177844E+02 -0.28481745200E+01  0.21687370493E+02  0.24350522441E+02  0.51100000000E-03 0. -1.
        -11    1    3    3    0    0 -0.12001537131E+02  0.80800693211E+00  0.11851157842E+02  0.16886080397E+02  0.51100000000E-03 0.  1.
         12    1    3    3    0    0 -0.69010381578E+01 -0.39367456780E+00  0.62102150478E+01  0.92922590505E+01  0.00000000000E+00 0. -1.
</event>
<event>
 7    1  0.3054835E-011  0.5052886E+02  0.7816164E-02  0.1300439E+00
        -11   -1    0    0    0    0  0.00000000000E+00  0.00000000000E+00  0.45593999997E+02  0.45594000000E+02  0.51100000000E-03 0.  1.
         11   -1    0    0    0    0 -0.00000000000E+00 -0.00000000000E+00 -0.45593999997E+02  0.45594000000E+02  0.51100000000E-03 0. -1.
    9900012    2    1    2    0    0  0.17531846954E+02 -0.21144477721E+02  0.29978503664E+02  0.50528864771E+02  0.30000014957E+02 0.  0.
         12    1    1    2    0    0 -0.17531846954E+02  0.21144477721E+02 -0.29978503664E+02  0.40659135229E+02  0.00000000000E+00 0. -1.
         11    1    3    3    0    0  0.11879632426E+02 -0.24800389030E+02  0.19206788632E+02  0.33542297065E+02  0.51100000000E-03 0. -1.
        -11    1    3    3    0    0 -0.24611397732E+01  0.43406044199E+01  0.39340146321E+01  0.63540953015E+01  0.51100000000E-03 0.  1.
         12    1    3    3    0    0  0.81133543009E+01 -0.68469311091E+00  0.68377004000E+01  0.10632472404E+02  0.00000000000E+00 0. -1.
</event>
<event>
 7    1  0.3054835E-011  0.5052886E+02  0.7816164E-02  0.1300439E+00
        -11   -1    0    0    0    0  0.00000000000E+00  0.00000000000E+00  0.45593999997E+02  0.45594000000E+02  0.51100000000E-03 0.  1.
         11   -1    0    0    0    0 -0.00000000000E+00 -0.00000000000E+00 -0.45593999997E+02  0.45594000000E+02  0.51100000000E-03 0. -1.
    9900012    2    1    2    0    0 -0.34188176266E+02  0.21553504815E+02 -0.44475794863E+01  0.50528856754E+02  0.29999990590E+02 0.  0.
         12    1    1    2    0    0  0.34188176266E+02 -0.21553504815E+02  0.44475794863E+01  0.40659143246E+02  0.00000000000E+00 0. -1.
         11    1    3    3    0    0 -0.13799827956E+01 -0.39022168775E+01  0.44649062641E+01  0.60882704673E+01  0.51100000000E-03 0. -1.
        -11    1    3    3    0    0 -0.21648622083E+02  0.14626234797E+02 -0.11726950319E+02  0.28637579271E+02  0.51100000000E-03 0.  1.
        -12    1    3    3    0    0 -0.11159571387E+02  0.10829486895E+02  0.28144645683E+01  0.15803007016E+02  0.00000000000E+00 0.  1.
</event>
<event>
 7    1  0.3054835E-011  0.5052886E+02  0.7816164E-02  0.1300439E+00
        -11   -1    0    0    0    0  0.00000000000E+00  0.00000000000E+00  0.45593999997E+02  0.45594000000E+02  0.51100000000E-03 0.  1.
         11   -1    0    0    0    0 -0.00000000000E+00 -0.00000000000E+00 -0.45593999997E+02  0.45594000000E+02  0.51100000000E-03 0. -1.
    9900012    2    1    2    0    0 -0.25518947760E+02  0.15990123098E+02  0.27317846580E+02  0.50528862365E+02  0.30000007643E+02 0.  0.
         12    1    1    2    0    0  0.25518947760E+02 -0.15990123098E+02 -0.27317846580E+02  0.40659137635E+02  0.00000000000E+00 0. -1.
         11    1    3    3    0    0 -0.10676782207E+02 -0.59455388459E+01  0.69522854326E+01  0.14059778927E+02  0.51100000000E-03 0. -1.
        -11    1    3    3    0    0 -0.17178259507E+02  0.18658666777E+02  0.14087872593E+02  0.29012180201E+02  0.51100000000E-03 0.  1.
        -12    1    3    3    0    0  0.23360939543E+01  0.32769951671E+01  0.62776885546E+01  0.74569032363E+01  0.00000000000E+00 0.  1.
</event>
<event>
 7    1  0.3054835E-011  0.5052887E+02  0.7816164E-02  0.1300439E+00
        -11   -1    0    0    0    0  0.00000000000E+00  0.00000000000E+00  0.45593999997E+02  0.45594000000E+02  0.51100000000E-03 0. -1.
         11   -1    0    0    0    0 -0.00000000000E+00 -0.00000000000E+00 -0.45593999997E+02  0.45594000000E+02  0.51100000000E-03 0.  1.
    9900012    2    1    2    0    0 -0.13551404208E+02 -0.28345619824E+02 -0.25807941609E+02  0.50528873481E+02  0.30000041434E+02 0.  0.
         12    1    1    2    0    0  0.13551404208E+02  0.28345619824E+02  0.25807941609E+02  0.40659126519E+02  0.00000000000E+00 0. -1.
         11    1    3    3    0    0 -0.23964677070E+01 -0.28959250637E+02 -0.19239496795E+02  0.34850243789E+02  0.51100000000E-03 0.  1.
        -11    1    3    3    0    0 -0.52390781254E+01  0.42723595717E+01 -0.11409554051E+01  0.68558570151E+01  0.51100000000E-03 0. -1.
        -12    1    3    3    0    0 -0.59158583751E+01 -0.36587287579E+01 -0.54274894083E+01  0.88227726773E+01  0.00000000000E+00 0.  1.
</event>
<event>
 7    1  0.3054835E-011  0.5052886E+02  0.7816164E-02  0.1300439E+00
        -11   -1    0    0    0    0  0.00000000000E+00  0.00000000000E+00  0.45593999997E+02  0.45594000000E+02  0.51100000000E-03 0.  1.
         11   -1    0    0    0    0 -0.00000000000E+00 -0.00000000000E+00 -0.45593999997E+02  0.45594000000E+02  0.51100000000E-03 0. -1.
    9900012    2    1    2    0    0  0.10950661581E+02 -0.21506293329E+02  0.32721983674E+02  0.50528857641E+02  0.29999993285E+02 0.  0.
         12    1    1    2    0    0 -0.10950661581E+02  0.21506293329E+02 -0.32721983674E+02  0.40659142359E+02  0.00000000000E+00 0. -1.
         11    1    3    3    0    0  0.73336151701E+01  0.39228443014E+00 -0.64671857756E-01  0.73443843342E+01  0.51100000000E-03 0. -1.
        -11    1    3    3    0    0 -0.28474377922E+01 -0.75069770442E+01  0.23598992847E+02  0.24927395973E+02  0.51100000000E-03 0.  1.
        -12    1    3    3    0    0  0.64644842033E+01 -0.14391600715E+02  0.91876626843E+01  0.18257077334E+02  0.00000000000E+00 0.  1.
</event>
<event>
 7    1  0.3054835E-011  0.5052886E+02  0.7816164E-02  0.1300439E+00
        -11   -1    0    0    0    0  0.00000000000E+00  0.00000000000E+00  0.45593999997E+02  0.45594000000E+02  0.51100000000E-03 0.  1.
         11   -1    0    0    0    0 -0.00000000000E+00 -0.00000000000E+00 -0.45593999997E+02  0.45594000000E+02  0.51100000000E-03 0. -1.
    9900012    2    1    2    0    0 -0.14106326194E+02 -0.20811448715E+02  0.31954044801E+02  0.50528858156E+02  0.29999994852E+02 0.  0.
         12    1    1    2    0    0  0.14106326194E+02  0.20811448715E+02 -0.31954044801E+02  0.40659141844E+02  0.00000000000E+00 0. -1.
         11    1    3    3    0    0 -0.93207583387E+00  0.14850960045E+01 -0.10747371894E+01  0.20565348988E+01  0.51100000000E-03 0. -1.
        -11    1    3    3    0    0  0.97279934589E+00 -0.16213913248E+02  0.27822267894E+02  0.32216702383E+02  0.51100000000E-03 0.  1.
        -12    1    3    3    0    0 -0.14147049706E+02 -0.60826314713E+01  0.52065140967E+01  0.16255620875E+02  0.00000000000E+00 0.  1.
</event>
<event>
 7    1  0.3054835E-011  0.5052897E+02  0.7816164E-02  0.1300438E+00
        -11   -1    0    0    0    0  0.00000000000E+00  0.00000000000E+00  0.45593999997E+02  0.45594000000E+02  0.51100000000E-03 0.  1.
         11   -1    0    0    0    0 -0.00000000000E+00 -0.00000000000E+00 -0.45593999997E+02  0.45594000000E+02  0.51100000000E-03 0. -1.
    9900012    2    1    2    0    0 -0.15553020484E+02 -0.15205686801E+02  0.34351820569E+02  0.50528967379E+02  0.30000326844E+02 0.  0.
         12    1    1    2    0    0  0.15553020484E+02  0.15205686801E+02 -0.34351820569E+02  0.40659032621E+02  0.00000000000E+00 0. -1.
         11    1    3    3    0    0 -0.42164446724E+01 -0.11658782431E+02  0.37840457048E+01  0.12962430930E+02  0.51100000000E-03 0. -1.
        -11    1    3    3    0    0 -0.12243290201E+02 -0.80301595076E+01  0.29402457025E+02  0.32846401569E+02  0.51100000000E-03 0.  1.
        -12    1    3    3    0    0  0.90671438979E+00  0.44832551383E+01  0.11653178387E+01  0.47201348799E+01  0.00000000000E+00 0.  1.
</event>
<event>
 7    1  0.3054835E-011  0.5052884E+02  0.7816164E-02  0.1300439E+00
        -11   -1    0    0    0    0  0.00000000000E+00  0.00000000000E+00  0.45593999997E+02  0.45594000000E+02  0.51100000000E-03 0. -1.
         11   -1    0    0    0    0 -0.00000000000E+00 -0.00000000000E+00 -0.45593999997E+02  0.45594000000E+02  0.51100000000E-03 0.  1.
    9900012    2    1    2    0    0  0.39082489730E+02 -0.10505364307E+02 -0.39196025477E+01  0.50528843997E+02  0.29999951814E+02 0.  0.
         12    1    1    2    0    0 -0.39082489730E+02  0.10505364307E+02  0.39196025477E+01  0.40659156003E+02  0.00000000000E+00 0. -1.
         11    1    3    3    0    0  0.98608537428E+01  0.27156999290E+01  0.63591597386E+01  0.12043686125E+02  0.51100000000E-03 0. -1.
        -11    1    3    3    0    0  0.12037700789E+02 -0.13692482301E+02 -0.10976086445E+02  0.21280619957E+02  0.51100000000E-03 0.  1.
         12    1    3    3    0    0  0.17183935199E+02  0.47141806488E+00  0.69732415835E+00  0.17204537915E+02  0.00000000000E+00 0. -1.
</event>
<event>
 7    1  0.3054835E-011  0.5052886E+02  0.7816164E-02  0.1300439E+00
        -11   -1    0    0    0    0  0.00000000000E+00  0.00000000000E+00  0.45593999997E+02  0.45594000000E+02  0.51100000000E-03 0.  1.
         11   -1    0    0    0    0 -0.00000000000E+00 -0.00000000000E+00 -0.45593999997E+02  0.45594000000E+02  0.51100000000E-03 0. -1.
    9900012    2    1    2    0    0  0.39835385519E+02  0.57142797429E+00 -0.81228600438E+01  0.50528864191E+02  0.30000013196E+02 0.  0.
         12    1    1    2    0    0 -0.39835385519E+02 -0.57142797429E+00  0.81228600438E+01  0.40659135809E+02  0.00000000000E+00 0. -1.
         11    1    3    3    0    0  0.50714743859E+01  0.90826518804E+01 -0.25156214857E+01  0.10702465573E+02  0.51100000000E-03 0. -1.
        -11    1    3    3    0    0  0.16189218826E+02 -0.11905614759E+02 -0.58932391678E+01  0.20941937282E+02  0.51100000000E-03 0.  1.
        -12    1    3    3    0    0  0.18574692308E+02  0.33943908533E+01  0.28600060969E+00  0.18884461336E+02  0.00000000000E+00 0.  1.
</event>
<event>
 7    1  0.3054835E-011  0.5052887E+02  0.7816164E-02  0.1300439E+00
        -11   -1    0    0    0    0  0.00000000000E+00  0.00000000000E+00  0.45593999997E+02  0.45594000000E+02  0.51100000000E-03 0.  1.
         11   -1    0    0    0    0 -0.00000000000E+00 -0.00000000000E+00 -0.45593999997E+02  0.45594000000E+02  0.51100000000E-03 0. -1.
    9900012    2    1    2    0    0 -0.11427550014E+02  0.90553745869E+01  0.37954922918E+02  0.50528869636E+02  0.30000029746E+02 0.  0.
         12    1    1    2    0    0  0.11427550014E+02 -0.90553745869E+01 -0.37954922918E+02  0.40659130364E+02  0.00000000000E+00 0. -1.
         11    1    3    3    0    0  0.73697480308E+01  0.76326732376E+01  0.16415166236E+02  0.19545551146E+02  0.51100000000E-03 0. -1.
        -11    1    3    3    0    0 -0.19441207193E+01 -0.10620444206E+01 -0.12396430449E+01  0.25385544828E+01  0.51100000000E-03 0.  1.
         12    1    3    3    0    0 -0.16853177326E+02  0.24847457699E+01  0.22779399727E+02  0.28444764007E+02  0.00000000000E+00 0. -1.
</event>
<event>
 7    1  0.3054835E-011  0.5052886E+02  0.7816164E-02  0.1300439E+00
        -11   -1    0    0    0    0  0.00000000000E+00  0.00000000000E+00  0.45593999997E+02  0.45594000000E+02  0.51100000000E-03 0. -1.
         11   -1    0    0    0    0 -0.00000000000E+00 -0.00000000000E+00 -0.45593999997E+02  0.45594000000E+02  0.51100000000E-03 0.  1.
    9900012    2    1    2    0    0 -0.24518624413E+02 -0.26274370533E+02 -0.19017364474E+02  0.50528860295E+02  0.30000001353E+02 0.  0.
         12    1    1    2    0    0  0.24518624413E+02  0.26274370533E+02  0.19017364474E+02  0.40659139705E+02  0.00000000000E+00 0. -1.
         11    1    3    3    0    0 -0.62300538364E+01 -0.90042171662E+01  0.79406871875E+01  0.13525679682E+02  0.51100000000E-03 0. -1.
        -11    1    3    3    0    0 -0.10923402940E+02 -0.10609928036E+02 -0.18484165911E+02  0.23949022828E+02  0.51100000000E-03 0.  1.
         12    1    3    3    0    0 -0.73651676372E+01 -0.66602253303E+01 -0.84738857506E+01  0.13054157786E+02  0.00000000000E+00 0. -1.
</event>
<event>
 7    1  0.3054835E-011  0.5052886E+02  0.7816164E-02  0.1300439E+00
        -11   -1    0    0    0    0  0.00000000000E+00  0.00000000000E+00  0.45593999997E+02  0.45594000000E+02  0.51100000000E-03 0.  1.
         11   -1    0    0    0    0 -0.00000000000E+00 -0.00000000000E+00 -0.45593999997E+02  0.45594000000E+02  0.51100000000E-03 0. -1.
    9900012    2    1    2    0    0  0.52818472897E+00  0.18295582650E+02  0.36306451822E+02  0.50528858746E+02  0.29999996644E+02 0.  0.
         12    1    1    2    0    0 -0.52818472897E+00 -0.18295582650E+02 -0.36306451822E+02  0.40659141254E+02  0.00000000000E+00 0. -1.
         11    1    3    3    0    0  0.81795429208E+01  0.14693737835E+02  0.58597603715E+01  0.17808639640E+02  0.51100000000E-03 0. -1.
        -11    1    3    3    0    0 -0.23834766442E+01  0.49791392241E+01  0.21911299460E+02  0.22595969389E+02  0.51100000000E-03 0.  1.
         12    1    3    3    0    0 -0.52678815476E+01 -0.13772944096E+01  0.85353919909E+01  0.10124249717E+02  0.00000000000E+00 0. -1.
</event>
<event>
 7    1  0.3054835E-011  0.5052885E+02  0.7816164E-02  0.1300439E+00
        -11   -1    0    0    0    0  0.00000000000E+00  0.00000000000E+00  0.45593999997E+02  0.45594000000E+02  0.51100000000E-03 0.  1.
         11   -1    0    0    0    0 -0.00000000000E+00 -0.00000000000E+00 -0.45593999997E+02  0.45594000000E+02  0.51100000000E-03 0. -1.
    9900012    2    1    2    0    0  0.39742889459E+02 -0.71137519761E+01  0.48024457340E+01  0.50528853246E+02  0.29999979927E+02 0.  0.
         12    1    1    2    0    0 -0.39742889459E+02  0.71137519761E+01 -0.48024457340E+01  0.40659146754E+02  0.00000000000E+00 0. -1.
         11    1    3    3    0    0  0.11267784108E+02 -0.82885191214E+01 -0.20088230868E+01  0.14131449974E+02  0.51100000000E-03 0. -1.
        -11    1    3    3    0    0  0.92488459972E+01  0.66709744319E+00  0.13199631446E+02  0.16131225677E+02  0.51100000000E-03 0.  1.
        -12    1    3    3    0    0  0.19226259354E+02  0.50766970208E+00 -0.63883626251E+01  0.20266177595E+02  0.00000000000E+00 0.  1.
</event>
<event>
 7    1  0.3054835E-011  0.5052885E+02  0.7816164E-02  0.1300439E+00
        -11   -1    0    0    0    0  0.00000000000E+00  0.00000000000E+00  0.45593999997E+02  0.45594000000E+02  0.51100000000E-03 0.  1.
         11   -1    0    0    0    0 -0.00000000000E+00 -0.00000000000E+00 -0.45593999997E+02  0.45594000000E+02  0.51100000000E-03 0. -1.
    9900012    2    1    2    0    0 -0.30324537396E+02 -0.17254633706E+01 -0.27029833732E+02  0.50528847234E+02  0.29999961652E+02 0.  0.
         12    1    1    2    0    0  0.30324537396E+02  0.17254633706E+01  0.27029833732E+02  0.40659152766E+02  0.00000000000E+00 0. -1.
         11    1    3    3    0    0  0.33462698210E+01 -0.54661785575E+00 -0.75205260566E+01  0.82495227271E+01  0.51100000000E-03 0. -1.
        -11    1    3    3    0    0 -0.25735087850E+02  0.43310510195E+01 -0.19567624783E+02  0.32618165023E+02  0.51100000000E-03 0.  1.
        -12    1    3    3    0    0 -0.79357193671E+01 -0.55098965344E+01  0.58317107616E-01  0.96611594841E+01  0.00000000000E+00 0.  1.
</event>
<event>
 7    1  0.3054835E-011  0.5052886E+02  0.7816164E-02  0.1300439E+00
        -11   -1    0    0    0    0  0.00000000000E+00  0.00000000000E+00  0.45593999997E+02  0.45594000000E+02  0.51100000000E-03 0. -1.
         11   -1    0    0    0    0 -0.00000000000E+00 -0.00000000000E+00 -0.45593999997E+02  0.45594000000E+02  0.51100000000E-03 0.  1.
    9900012    2    1    2    0    0  0.39840756112E+02  0.58572405652E+01 -0.56189206144E+01  0.50528863468E+02  0.30000010998E+02 0.  0.
         12    1    1    2    0    0 -0.39840756112E+02 -0.58572405652E+01  0.56189206144E+01  0.40659136532E+02  0.00000000000E+00 0. -1.
         11    1    3    3    0    0  0.92007043036E+01 -0.71167342122E+00 -0.14741533017E+02  0.17391728916E+02  0.51100000000E-03 0. -1.
        -11    1    3    3    0    0  0.22279078522E+02  0.22285737401E+01  0.72284923176E+01  0.23528174221E+02  0.51100000000E-03 0.  1.
         12    1    3    3    0    0  0.83609732864E+01  0.43403402463E+01  0.18941200849E+01  0.96089603311E+01  0.00000000000E+00 0. -1.
</event>
<event>
 7    1  0.3054835E-011  0.5052886E+02  0.7816164E-02  0.1300439E+00
        -11   -1    0    0    0    0  0.00000000000E+00  0.00000000000E+00  0.45593999997E+02  0.45594000000E+02  0.51100000000E-03 0. -1.
         11   -1    0    0    0    0 -0.00000000000E+00 -0.00000000000E+00 -0.45593999997E+02  0.45594000000E+02  0.51100000000E-03 0.  1.
    9900012    2    1    2    0    0  0.27858774268E+01  0.40423671018E+02 -0.33662440748E+01  0.50528857231E+02  0.29999992038E+02 0.  0.
         12    1    1    2    0    0 -0.27858774268E+01 -0.40423671018E+02  0.33662440748E+01  0.40659142769E+02  0.00000000000E+00 0. -1.
         11    1    3    3    0    0 -0.66752569615E+01  0.23826320459E+02 -0.10230823946E+02  0.26775405898E+02  0.51100000000E-03 0. -1.
        -11    1    3    3    0    0  0.56189718530E+01  0.14278718504E+02 -0.24449270730E+00  0.15346479197E+02  0.51100000000E-03 0.  1.
         12    1    3    3    0    0  0.38421625353E+01  0.23186320541E+01  0.71090725789E+01  0.84069721352E+01  0.00000000000E+00 0. -1.
</event>
<event>
 7    1  0.3054835E-011  0.5052886E+02  0.7816164E-02  0.1300439E+00
        -11   -1    0    0    0    0  0.00000000000E+00  0.00000000000E+00  0.45593999997E+02  0.45594000000E+02  0.51100000000E-03 0.  1.
         11   -1    0    0    0    0 -0.00000000000E+00 -0.00000000000E+00 -0.45593999997E+02  0.45594000000E+02  0.51100000000E-03 0. -1.
    9900012    2    1    2    0    0  0.28509999206E+02  0.21327774375E+02  0.19633438964E+02  0.50528856624E+02  0.29999990194E+02 0.  0.
         12    1    1    2    0    0 -0.28509999206E+02 -0.21327774375E+02 -0.19633438964E+02  0.40659143376E+02  0.00000000000E+00 0. -1.
         11    1    3    3    0    0  0.15730005712E+02 -0.42591410244E+01  0.11574380373E+01  0.16337473031E+02  0.51100000000E-03 0. -1.
        -11    1    3    3    0    0  0.65754984948E+01  0.10109826872E+02  0.85910242209E+01  0.14807142779E+02  0.51100000000E-03 0.  1.
         12    1    3    3    0    0  0.62044949999E+01  0.15477088527E+02  0.98849767059E+01  0.19384240815E+02  0.00000000000E+00 0. -1.
</event>
<event>
 7    1  0.3054835E-011  0.5052886E+02  0.7816164E-02  0.1300439E+00
        -11   -1    0    0    0    0  0.00000000000E+00  0.00000000000E+00  0.45593999997E+02  0.45594000000E+02  0.51100000000E-03 0.  1.
         11   -1    0    0    0    0 -0.00000000000E+00 -0.00000000000E+00 -0.45593999997E+02  0.45594000000E+02  0.51100000000E-03 0. -1.
    9900012    2    1    2    0    0  0.19018827859E+02 -0.32944012447E+02  0.14357628472E+02  0.50528864931E+02  0.30000015443E+02 0.  0.
         12    1    1    2    0    0 -0.19018827859E+02  0.32944012447E+02 -0.14357628472E+02  0.40659135069E+02  0.00000000000E+00 0. -1.
         11    1    3    3    0    0 -0.20347472861E+01 -0.22916169425E+01  0.62030158229E+01  0.69187506306E+01  0.51100000000E-03 0. -1.
        -11    1    3    3    0    0  0.21343871974E+02 -0.33571222035E+02  0.67217774066E+01  0.40345633116E+02  0.51100000000E-03 0.  1.
        -12    1    3    3    0    0 -0.29029682856E+00  0.29188265308E+01  0.14328352427E+01  0.32644811836E+01  0.00000000000E+00 0.  1.
</event>
<event>
 7    1  0.3054835E-011  0.5052886E+02  0.7816164E-02  0.1300439E+00
        -11   -1    0    0    0    0  0.00000000000E+00  0.00000000000E+00  0.45593999997E+02  0.45594000000E+02  0.51100000000E-03 0.  1.
         11   -1    0    0    0    0 -0.00000000000E+00 -0.00000000000E+00 -0.45593999997E+02  0.45594000000E+02  0.51100000000E-03 0. -1.
    9900012    2    1    2    0    0 -0.21454325874E+01  0.54265797785E+01  0.40238224089E+02  0.50528864164E+02  0.30000013113E+02 0.  0.
         12    1    1    2    0    0  0.21454325874E+01 -0.54265797785E+01 -0.40238224089E+02  0.40659135836E+02  0.00000000000E+00 0. -1.
         11    1    3    3    0    0 -0.47325705866E+01 -0.11090014690E+02  0.13780779898E+02  0.18311077113E+02  0.51100000000E-03 0. -1.
        -11    1    3    3    0    0  0.24762195361E+00  0.14575709633E+02  0.24769135534E+02  0.28740610698E+02  0.51100000000E-03 0.  1.
         12    1    3    3    0    0  0.23395160456E+01  0.19408848354E+01  0.16883086573E+01  0.34771763536E+01  0.00000000000E+00 0. -1.
</event>
<event>
 7    1  0.4868841E-011  0.5052887E+02  0.7816164E-02  0.1300439E+00
        -11   -1    0    0    0    0  0.00000000000E+00  0.00000000000E+00  0.45593999997E+02  0.45594000000E+02  0.51100000000E-03 0.  1.
         11   -1    0    0    0    0 -0.00000000000E+00 -0.00000000000E+00 -0.45593999997E+02  0.45594000000E+02  0.51100000000E-03 0. -1.
    9900012    2    1    2    0    0  0.34256679140E+02 -0.72791274002E+01  0.20655737003E+02  0.50528865325E+02  0.30000016642E+02 0.  0.
         12    1    1    2    0    0 -0.34256679140E+02  0.72791274002E+01 -0.20655737003E+02  0.40659134675E+02  0.00000000000E+00 0. -1.
         11    1    3    3    0    0  0.10246930501E+01  0.15731685562E+01  0.10720908650E+02  0.10884058880E+02  0.51100000000E-03 0. -1.
        -11    1    3    3    0    0  0.26548121172E+02 -0.97947137452E+01  0.14199828111E+02  0.31660294910E+02  0.51100000000E-03 0.  1.
         12    1    3    3    0    0  0.66838649172E+01  0.94241778881E+00 -0.42649997585E+01  0.79845115355E+01  0.00000000000E+00 0. -1.
</event>
<event>
 7    1  0.3054835E-011  0.5052886E+02  0.7816164E-02  0.1300439E+00
        -11   -1    0    0    0    0  0.00000000000E+00  0.00000000000E+00  0.45593999997E+02  0.45594000000E+02  0.51100000000E-03 0. -1.
         11   -1    0    0    0    0 -0.00000000000E+00 -0.00000000000E+00 -0.45593999997E+02  0.45594000000E+02  0.51100000000E-03 0.  1.
    9900012    2    1    2    0    0 -0.36100055181E+01 -0.23184401372E+02 -0.33205677339E+02  0.50528860629E+02  0.30000002369E+02 0.  0.
         12    1    1    2    0    0  0.36100055181E+01  0.23184401372E+02  0.33205677339E+02  0.40659139371E+02  0.00000000000E+00 0. -1.
         11    1    3    3    0    0 -0.52779984178E+01 -0.20810895576E+02 -0.31266972035E+02  0.37928540473E+02  0.51100000000E-03 0.  1.
        -11    1    3    3    0    0 -0.13924451674E+01  0.19978601437E+01  0.39582554261E+01  0.46473793666E+01  0.51100000000E-03 0. -1.
         12    1    3    3    0    0  0.30604380671E+01 -0.43713659403E+01 -0.58969607302E+01  0.79529407894E+01  0.00000000000E+00 0. -1.
</event>
<event>
 7    1  0.3054835E-011  0.5052886E+02  0.7816164E-02  0.1300439E+00
        -11   -1    0    0    0    0  0.00000000000E+00  0.00000000000E+00  0.45593999997E+02  0.45594000000E+02  0.51100000000E-03 0. -1.
         11   -1    0    0    0    0 -0.00000000000E+00 -0.00000000000E+00 -0.45593999997E+02  0.45594000000E+02  0.51100000000E-03 0.  1.
    9900012    2    1    2    0    0  0.14074658482E+02 -0.14621613929E+02 -0.35231772199E+02  0.50528863541E+02  0.30000011220E+02 0.  0.
         12    1    1    2    0    0 -0.14074658482E+02  0.14621613929E+02  0.35231772199E+02  0.40659136459E+02  0.00000000000E+00 0. -1.
         11    1    3    3    0    0  0.53221449357E+01  0.59629068773E+01 -0.52252705183E+01  0.95490804476E+01  0.51100000000E-03 0. -1.
        -11    1    3    3    0    0  0.12894266631E+02 -0.10381814598E+02 -0.21089938023E+02  0.26810999093E+02  0.51100000000E-03 0.  1.
         12    1    3    3    0    0 -0.41417530846E+01 -0.10202706209E+02 -0.89165636580E+01  0.14168784001E+02  0.00000000000E+00 0. -1.
</event>
<event>
 7    1  0.3054835E-011  0.5052888E+02  0.7816164E-02  0.1300439E+00
        -11   -1    0    0    0    0  0.00000000000E+00  0.00000000000E+00  0.45593999997E+02  0.45594000000E+02  0.51100000000E-03 0.  1.
         11   -1    0    0    0    0 -0.00000000000E+00 -0.00000000000E+00 -0.45593999997E+02  0.45594000000E+02  0.51100000000E-03 0. -1.
    9900012    2    1    2    0    0  0.82323117514E+01  0.18578322930E+02  0.35217031274E+02  0.50528876406E+02  0.30000050324E+02 0.  0.
         12    1    1    2    0    0 -0.82323117514E+01 -0.18578322930E+02 -0.35217031274E+02  0.40659123594E+02  0.00000000000E+00 0. -1.
         11    1    3    3    0    0  0.90523240761E+01  0.12647735511E+01  0.59435222102E+01  0.10902737264E+02  0.51100000000E-03 0.  1.
        -11    1    3    3    0    0  0.27528767559E+00  0.17427255296E+02  0.95545940489E+01  0.19876500652E+02  0.51100000000E-03 0. -1.
        -12    1    3    3    0    0 -0.10953000004E+01 -0.11370591786E+00  0.19718915015E+02  0.19749638490E+02  0.00000000000E+00 0.  1.
</event>
<event>
 7    1  0.3054835E-011  0.5052880E+02  0.7816164E-02  0.1300439E+00
        -11   -1    0    0    0    0  0.00000000000E+00  0.00000000000E+00  0.45593999997E+02  0.45594000000E+02  0.51100000000E-03 0.  1.
         11   -1    0    0    0    0 -0.00000000000E+00 -0.00000000000E+00 -0.45593999997E+02  0.45594000000E+02  0.51100000000E-03 0. -1.
    9900012    2    1    2    0    0 -0.36681591162E+02  0.11893358007E+02  0.12891059921E+02  0.50528800293E+02  0.29999818971E+02 0.  0.
         12    1    1    2    0    0  0.36681591162E+02 -0.11893358007E+02 -0.12891059921E+02  0.40659199707E+02  0.00000000000E+00 0. -1.
         11    1    3    3    0    0 -0.50496833262E+01  0.87610208704E+01 -0.14273996482E-03  0.10112110990E+02  0.51100000000E-03 0. -1.
        -11    1    3    3    0    0 -0.33962844730E+02  0.29472800198E+01  0.80316273625E+01  0.35023825035E+02  0.51100000000E-03 0.  1.
        -12    1    3    3    0    0  0.23309368943E+01  0.18505711687E+00  0.48595752988E+01  0.53928642692E+01  0.00000000000E+00 0.  1.
</event>
<event>
 7    1  0.3054835E-011  0.5052884E+02  0.7816164E-02  0.1300439E+00
        -11   -1    0    0    0    0  0.00000000000E+00  0.00000000000E+00  0.45593999997E+02  0.45594000000E+02  0.51100000000E-03 0.  1.
         11   -1    0    0    0    0 -0.00000000000E+00 -0.00000000000E+00 -0.45593999997E+02  0.45594000000E+02  0.51100000000E-03 0. -1.
    9900012    2    1    2    0    0 -0.51211970288E+01  0.36685600270E+02  0.16766263994E+02  0.50528837017E+02  0.29999930597E+02 0.  0.
         12    1    1    2    0    0  0.51211970288E+01 -0.36685600270E+02 -0.16766263994E+02  0.40659162983E+02  0.00000000000E+00 0. -1.
         11    1    3    3    0    0 -0.73858711886E+01  0.56923830998E+01 -0.20196283478E+01  0.95411329251E+01  0.51100000000E-03 0. -1.
        -11    1    3    3    0    0  0.47554081209E+00  0.33314257930E+02  0.18314212494E+02  0.38019420038E+02  0.51100000000E-03 0.  1.
        -12    1    3    3    0    0  0.17891333478E+01 -0.23210407600E+01  0.47167984785E+00  0.29682840539E+01  0.00000000000E+00 0.  1.
</event>
<event>
 7    1  0.3054835E-011  0.5052892E+02  0.7816164E-02  0.1300439E+00
        -11   -1    0    0    0    0  0.00000000000E+00  0.00000000000E+00  0.45593999997E+02  0.45594000000E+02  0.51100000000E-03 0. -1.
         11   -1    0    0    0    0 -0.00000000000E+00 -0.00000000000E+00 -0.45593999997E+02  0.45594000000E+02  0.51100000000E-03 0.  1.
    9900012    2    1    2    0    0  0.36698105765E+02  0.16727979425E+02  0.51559865408E+01  0.50528924020E+02  0.30000195050E+02 0.  0.
         12    1    1    2    0    0 -0.36698105765E+02 -0.16727979425E+02 -0.51559865408E+01  0.40659075980E+02  0.00000000000E+00 0. -1.
         11    1    3    3    0    0  0.26357221818E+02  0.15635512607E+02  0.11165231242E+02  0.32616480273E+02  0.51100000000E-03 0. -1.
        -11    1    3    3    0    0  0.21774572798E+01 -0.39062836404E+01 -0.69813158932E+01  0.82909073054E+01  0.51100000000E-03 0.  1.
         12    1    3    3    0    0  0.81634266675E+01  0.49987504579E+01  0.97207119202E+00  0.96215364416E+01  0.00000000000E+00 0. -1.
</event>
<event>
 7    1  0.3054835E-011  0.5052886E+02  0.7816164E-02  0.1300439E+00
        -11   -1    0    0    0    0  0.00000000000E+00  0.00000000000E+00  0.45593999997E+02  0.45594000000E+02  0.51100000000E-03 0.  1.
         11   -1    0    0    0    0 -0.00000000000E+00 -0.00000000000E+00 -0.45593999997E+02  0.45594000000E+02  0.51100000000E-03 0. -1.
    9900012    2    1    2    0    0 -0.15613573408E+02  0.99557296129E+01  0.36197584445E+02  0.50528863925E+02  0.30000012387E+02 0.  0.
         12    1    1    2    0    0  0.15613573408E+02 -0.99557296129E+01 -0.36197584445E+02  0.40659136075E+02  0.00000000000E+00 0. -1.
         11    1    3    3    0    0 -0.10475882558E+02 -0.63899208199E+01  0.67412810053E+01  0.14000716885E+02  0.51100000000E-03 0. -1.
        -11    1    3    3    0    0  0.34560900720E+01  0.93387715041E+01  0.98670662996E+01  0.14018423928E+02  0.51100000000E-03 0.  1.
         12    1    3    3    0    0 -0.85937809225E+01  0.70068789287E+01  0.19589237140E+02  0.22509723112E+02  0.00000000000E+00 0. -1.
</event>
<event>
 7    1  0.3054835E-011  0.5052886E+02  0.7816164E-02  0.1300439E+00
        -11   -1    0    0    0    0  0.00000000000E+00  0.00000000000E+00  0.45593999997E+02  0.45594000000E+02  0.51100000000E-03 0.  1.
         11   -1    0    0    0    0 -0.00000000000E+00 -0.00000000000E+00 -0.45593999997E+02  0.45594000000E+02  0.51100000000E-03 0. -1.
    9900012    2    1    2    0    0  0.19092145253E+02 -0.14849878102E+02  0.32682360558E+02  0.50528861032E+02  0.30000003592E+02 0.  0.
         12    1    1    2    0    0 -0.19092145253E+02  0.14849878102E+02 -0.32682360558E+02  0.40659138968E+02  0.00000000000E+00 0. -1.
         11    1    3    3    0    0  0.91157006732E+01 -0.23070302772E+02  0.17444313754E+02  0.30325549482E+02  0.51100000000E-03 0. -1.
        -11    1    3    3    0    0  0.80857247699E+00  0.15490396025E+01  0.10397831953E+01  0.20333377720E+01  0.51100000000E-03 0.  1.
         12    1    3    3    0    0  0.91678721026E+01  0.66713850671E+01  0.14198263608E+02  0.18169973778E+02  0.00000000000E+00 0. -1.
</event>
<event>
 7    1  0.3054835E-011  0.5052886E+02  0.7816164E-02  0.1300439E+00
        -11   -1    0    0    0    0  0.00000000000E+00  0.00000000000E+00  0.45593999997E+02  0.45594000000E+02  0.51100000000E-03 0.  1.
         11   -1    0    0    0    0 -0.00000000000E+00 -0.00000000000E+00 -0.45593999997E+02  0.45594000000E+02  0.51100000000E-03 0. -1.
    9900012    2    1    2    0    0  0.40844395933E+01  0.39277143533E+02  0.96844854778E+01  0.50528856995E+02  0.29999991323E+02 0.  0.
         12    1    1    2    0    0 -0.40844395933E+01 -0.39277143533E+02 -0.96844854778E+01  0.40659143005E+02  0.00000000000E+00 0. -1.
         11    1    3    3    0    0 -0.31328622173E+01  0.91956545804E+01  0.10211728701E+02  0.14094477364E+02  0.51100000000E-03 0.  1.
        -11    1    3    3    0    0  0.49198422270E+01  0.31697599168E+02  0.26585252462E+01  0.32187115393E+02  0.51100000000E-03 0. -1.
        -12    1    3    3    0    0  0.22974595836E+01 -0.16161102155E+01 -0.31857684698E+01  0.42472642383E+01  0.00000000000E+00 0.  1.
</event>
<event>
 7    1  0.3054835E-011  0.5052886E+02  0.7816164E-02  0.1300439E+00
        -11   -1    0    0    0    0  0.00000000000E+00  0.00000000000E+00  0.45593999997E+02  0.45594000000E+02  0.51100000000E-03 0. -1.
         11   -1    0    0    0    0 -0.00000000000E+00 -0.00000000000E+00 -0.45593999997E+02  0.45594000000E+02  0.51100000000E-03 0.  1.
    9900012    2    1    2    0    0  0.10086686395E+01 -0.38114677261E+02  0.14121605263E+02  0.50528858711E+02  0.29999996538E+02 0.  0.
         12    1    1    2    0    0 -0.10086686395E+01  0.38114677261E+02 -0.14121605263E+02  0.40659141289E+02  0.00000000000E+00 0. -1.
         11    1    3    3    0    0  0.11071183527E+02 -0.13646474817E+02 -0.27242796613E+01  0.17782549861E+02  0.51100000000E-03 0. -1.
        -11    1    3    3    0    0 -0.24342383779E+01 -0.29856622565E+01 -0.77987725101E+00  0.39303822179E+01  0.51100000000E-03 0.  1.
         12    1    3    3    0    0 -0.76282765093E+01 -0.21482540188E+02  0.17625762175E+02  0.28815926633E+02  0.00000000000E+00 0. -1.
</event>
<event>
 7    1  0.3054835E-011  0.5052887E+02  0.7816164E-02  0.1300439E+00
        -11   -1    0    0    0    0  0.00000000000E+00  0.00000000000E+00  0.45593999997E+02  0.45594000000E+02  0.51100000000E-03 0.  1.
         11   -1    0    0    0    0 -0.00000000000E+00 -0.00000000000E+00 -0.45593999997E+02  0.45594000000E+02  0.51100000000E-03 0. -1.
    9900012    2    1    2    0    0 -0.27250572738E+02 -0.29985316708E+02  0.33841087486E+01  0.50528866652E+02  0.30000020675E+02 0.  0.
         12    1    1    2    0    0  0.27250572738E+02  0.29985316708E+02 -0.33841087486E+01  0.40659133348E+02  0.00000000000E+00 0. -1.
         11    1    3    3    0    0  0.41154285453E+01 -0.31473807249E+01 -0.41151322846E+01  0.66164243757E+01  0.51100000000E-03 0. -1.
        -11    1    3    3    0    0 -0.29028659908E+02 -0.26302112696E+02  0.36032408282E+01  0.39337610160E+02  0.51100000000E-03 0.  1.
         12    1    3    3    0    0 -0.23373413752E+01 -0.53582328653E+00  0.38960002049E+01  0.45748321167E+01  0.00000000000E+00 0. -1.
</event>
<event>
 7    1  0.3054835E-011  0.5052887E+02  0.7816164E-02  0.1300439E+00
        -11   -1    0    0    0    0  0.00000000000E+00  0.00000000000E+00  0.45593999997E+02  0.45594000000E+02  0.51100000000E-03 0.  1.
         11   -1    0    0    0    0 -0.00000000000E+00 -0.00000000000E+00 -0.45593999997E+02  0.45594000000E+02  0.51100000000E-03 0. -1.
    9900012    2    1    2    0    0  0.63396809014E+01 -0.21660252457E+02  0.33820217379E+02  0.50528865799E+02  0.30000018083E+02 0.  0.
         12    1    1    2    0    0 -0.63396809014E+01  0.21660252457E+02 -0.33820217379E+02  0.40659134201E+02  0.00000000000E+00 0. -1.
         11    1    3    3    0    0  0.13895075473E+01 -0.24175364383E+01 -0.44482771881E+01  0.52499889389E+01  0.51100000000E-03 0. -1.
        -11    1    3    3    0    0  0.63351366152E+01 -0.18620254642E+02  0.38934792390E+02  0.43620704918E+02  0.51100000000E-03 0.  1.
        -12    1    3    3    0    0 -0.13849632612E+01 -0.62246137657E+00 -0.66629782317E+00  0.16581719420E+01  0.00000000000E+00 0.  1.
</event>
<event>
 7    1  0.3054835E-011  0.5052881E+02  0.7816164E-02  0.1300439E+00
        -11   -1    0    0    0    0  0.00000000000E+00  0.00000000000E+00  0.45593999997E+02  0.45594000000E+02  0.51100000000E-03 0.  1.
         11   -1    0    0    0    0 -0.00000000000E+00 -0.00000000000E+00 -0.45593999997E+02  0.45594000000E+02  0.51100000000E-03 0. -1.
    9900012    2    1    2    0    0 -0.66529245424E+01  0.31594311183E+02  0.24712503541E+02  0.50528809952E+02  0.29999848330E+02 0.  0.
         12    1    1    2    0    0  0.66529245424E+01 -0.31594311183E+02 -0.24712503541E+02  0.40659190048E+02  0.00000000000E+00 0. -1.
         11    1    3    3    0    0 -0.84698768467E+01  0.10051108767E+02  0.20993564075E+02  0.24768797591E+02  0.51100000000E-03 0.  1.
        -11    1    3    3    0    0 -0.14628920624E+01  0.22103812008E+02  0.34822111673E+01  0.22424191252E+02  0.51100000000E-03 0. -1.
         12    1    3    3    0    0  0.32798443667E+01 -0.56060959185E+00  0.23672829885E+00  0.33358211090E+01  0.00000000000E+00 0. -1.
</event>
<event>
 7    1  0.3054835E-011  0.5052886E+02  0.7816164E-02  0.1300439E+00
        -11   -1    0    0    0    0  0.00000000000E+00  0.00000000000E+00  0.45593999997E+02  0.45594000000E+02  0.51100000000E-03 0.  1.
         11   -1    0    0    0    0 -0.00000000000E+00 -0.00000000000E+00 -0.45593999997E+02  0.45594000000E+02  0.51100000000E-03 0. -1.
    9900012    2    1    2    0    0  0.13494534093E+00 -0.46038210784E+01  0.40397430096E+02  0.50528859120E+02  0.29999997780E+02 0.  0.
         12    1    1    2    0    0 -0.13494534093E+00  0.46038210784E+01 -0.40397430096E+02  0.40659140880E+02  0.00000000000E+00 0. -1.
         11    1    3    3    0    0 -0.32058393849E+00  0.11400829875E+02  0.71154585882E+01  0.13442895784E+02  0.51100000000E-03 0. -1.
        -11    1    3    3    0    0  0.19110329274E+01 -0.83383421564E+01  0.17043552551E+02  0.19069941809E+02  0.51100000000E-03 0.  1.
         12    1    3    3    0    0 -0.14555036480E+01 -0.76663087966E+01  0.16238418956E+02  0.18016021526E+02  0.00000000000E+00 0. -1.
</event>
<event>
 7    1  0.3054835E-011  0.5052886E+02  0.7816164E-02  0.1300439E+00
        -11   -1    0    0    0    0  0.00000000000E+00  0.00000000000E+00  0.45593999997E+02  0.45594000000E+02  0.51100000000E-03 0.  1.
         11   -1    0    0    0    0 -0.00000000000E+00 -0.00000000000E+00 -0.45593999997E+02  0.45594000000E+02  0.51100000000E-03 0. -1.
    9900012    2    1    2    0    0  0.23037238902E+02 -0.43463926088E+01  0.33219876239E+02  0.50528859794E+02  0.29999999831E+02 0.  0.
         12    1    1    2    0    0 -0.23037238902E+02  0.43463926088E+01 -0.33219876239E+02  0.40659140206E+02  0.00000000000E+00 0. -1.
         11    1    3    3    0    0  0.32657602529E+01  0.50624390748E+01 -0.59753120527E-01  0.60247033215E+01  0.51100000000E-03 0.  1.
        -11    1    3    3    0    0  0.18771412963E+02 -0.86017269395E+01  0.13471428183E+02  0.24654310547E+02  0.51100000000E-03 0. -1.
         12    1    3    3    0    0  0.10000656859E+01 -0.80710474417E+00  0.19808201176E+02  0.19849845926E+02  0.00000000000E+00 0. -1.
</event>
<event>
 7    1  0.3054835E-011  0.5052886E+02  0.7816164E-02  0.1300439E+00
        -11   -1    0    0    0    0  0.00000000000E+00  0.00000000000E+00  0.45593999997E+02  0.45594000000E+02  0.51100000000E-03 0.  1.
         11   -1    0    0    0    0 -0.00000000000E+00 -0.00000000000E+00 -0.45593999997E+02  0.45594000000E+02  0.51100000000E-03 0. -1.
    9900012    2    1    2    0    0 -0.22472760959E+02 -0.33727149647E+02  0.32588798320E+01  0.50528857040E+02  0.29999991459E+02 0.  0.
         12    1    1    2    0    0  0.22472760959E+02  0.33727149647E+02 -0.32588798320E+01  0.40659142960E+02  0.00000000000E+00 0. -1.
         11    1    3    3    0    0 -0.56154495318E+01  0.87887083802E-01 -0.37919160292E+01  0.67764020702E+01  0.51100000000E-03 0. -1.
        -11    1    3    3    0    0 -0.19254842072E+02 -0.35295205179E+02  0.56336207135E+01  0.40598499165E+02  0.51100000000E-03 0.  1.
        -12    1    3    3    0    0  0.23975306442E+01  0.14801684473E+01  0.14171751477E+01  0.31539558053E+01  0.00000000000E+00 0.  1.
</event>
<event>
 7    1  0.3054835E-011  0.5052885E+02  0.7816164E-02  0.1300439E+00
        -11   -1    0    0    0    0  0.00000000000E+00  0.00000000000E+00  0.45593999997E+02  0.45594000000E+02  0.51100000000E-03 0. -1.
         11   -1    0    0    0    0 -0.00000000000E+00 -0.00000000000E+00 -0.45593999997E+02  0.45594000000E+02  0.51100000000E-03 0.  1.
    9900012    2    1    2    0    0 -0.19093916252E+02 -0.11006375061E+01 -0.35880042530E+02  0.50528849828E+02  0.29999969537E+02 0.  0.
         12    1    1    2    0    0  0.19093916252E+02  0.11006375061E+01  0.35880042530E+02  0.40659150172E+02  0.00000000000E+00 0. -1.
         11    1    3    3    0    0 -0.18751639815E+01 -0.14506157601E+01  0.20329927354E+01  0.31230731282E+01  0.51100000000E-03 0. -1.
        -11    1    3    3    0    0 -0.12663179586E+02 -0.91421284995E+01 -0.31278427189E+02  0.34961044584E+02  0.51100000000E-03 0.  1.
        -12    1    3    3    0    0 -0.45555726837E+01  0.94921067535E+01 -0.66346080769E+01  0.12444732116E+02  0.00000000000E+00 0.  1.
</event>
<event>
 7    1  0.3054835E-011  0.5052886E+02  0.7816164E-02  0.1300439E+00
        -11   -1    0    0    0    0  0.00000000000E+00  0.00000000000E+00  0.45593999997E+02  0.45594000000E+02  0.51100000000E-03 0.  1.
         11   -1    0    0    0    0 -0.00000000000E+00 -0.00000000000E+00 -0.45593999997E+02  0.45594000000E+02  0.51100000000E-03 0. -1.
    9900012    2    1    2    0    0 -0.10000678255E+02  0.13806496321E+02  0.36912503143E+02  0.50528858414E+02  0.29999995635E+02 0.  0.
         12    1    1    2    0    0  0.10000678255E+02 -0.13806496321E+02 -0.36912503143E+02  0.40659141586E+02  0.00000000000E+00 0. -1.
         11    1    3    3    0    0 -0.48576859792E+01 -0.82749945786E-02 -0.43430662451E+01  0.65160882605E+01  0.51100000000E-03 0. -1.
        -11    1    3    3    0    0 -0.27695712745E+01  0.98013870807E+01  0.22698581739E+02  0.24878973592E+02  0.51100000000E-03 0.  1.
         12    1    3    3    0    0 -0.23734210015E+01  0.40133842349E+01  0.18556987649E+02  0.19133796562E+02  0.00000000000E+00 0. -1.
</event>
<event>
 7    1  0.3054835E-011  0.5052887E+02  0.7816164E-02  0.1300439E+00
        -11   -1    0    0    0    0  0.00000000000E+00  0.00000000000E+00  0.45593999997E+02  0.45594000000E+02  0.51100000000E-03 0. -1.
         11   -1    0    0    0    0 -0.00000000000E+00 -0.00000000000E+00 -0.45593999997E+02  0.45594000000E+02  0.51100000000E-03 0.  1.
    9900012    2    1    2    0    0 -0.67643224940E+01 -0.35985014843E+02 -0.17677326497E+02  0.50528865428E+02  0.30000016956E+02 0.  0.
         12    1    1    2    0    0  0.67643224940E+01  0.35985014843E+02  0.17677326497E+02  0.40659134572E+02  0.00000000000E+00 0. -1.
         11    1    3    3    0    0  0.51837795536E+01  0.14447011420E+01  0.56127804056E+00  0.54105235560E+01  0.51100000000E-03 0. -1.
        -11    1    3    3    0    0 -0.99104987628E+01 -0.13342637538E+02 -0.10821085021E+02  0.19832797168E+02  0.51100000000E-03 0.  1.
         12    1    3    3    0    0 -0.20376032848E+01 -0.24087078447E+02 -0.74175195160E+01  0.25285544705E+02  0.00000000000E+00 0. -1.
</event>
<event>
 7    1  0.3054835E-011  0.5052886E+02  0.7816164E-02  0.1300439E+00
        -11   -1    0    0    0    0  0.00000000000E+00  0.00000000000E+00  0.45593999997E+02  0.45594000000E+02  0.51100000000E-03 0. -1.
         11   -1    0    0    0    0 -0.00000000000E+00 -0.00000000000E+00 -0.45593999997E+02  0.45594000000E+02  0.51100000000E-03 0.  1.
    9900012    2    1    2    0    0 -0.37152215444E+02 -0.70419181621E+01 -0.14942887453E+02  0.50528860693E+02  0.30000002562E+02 0.  0.
         12    1    1    2    0    0  0.37152215444E+02  0.70419181621E+01  0.14942887453E+02  0.40659139307E+02  0.00000000000E+00 0. -1.
         11    1    3    3    0    0 -0.11810859836E+02  0.49774711851E+01 -0.13241527089E+02  0.18428501550E+02  0.51100000000E-03 0. -1.
        -11    1    3    3    0    0 -0.58780372472E+01 -0.10563516678E+02 -0.32596335709E+01  0.12520559803E+02  0.51100000000E-03 0.  1.
         12    1    3    3    0    0 -0.19463318360E+02 -0.14558726688E+01  0.15582732070E+01  0.19579799340E+02  0.00000000000E+00 0. -1.
</event>
<event>
 7    1  0.3054835E-011  0.5052885E+02  0.7816164E-02  0.1300439E+00
        -11   -1    0    0    0    0  0.00000000000E+00  0.00000000000E+00  0.45593999997E+02  0.45594000000E+02  0.51100000000E-03 0.  1.
         11   -1    0    0    0    0 -0.00000000000E+00 -0.00000000000E+00 -0.45593999997E+02  0.45594000000E+02  0.51100000000E-03 0. -1.
    9900012    2    1    2    0    0 -0.19272061964E+02 -0.17237317298E+02  0.31378803500E+02  0.50528846184E+02  0.29999958460E+02 0.  0.
         12    1    1    2    0    0  0.19272061964E+02  0.17237317298E+02 -0.31378803500E+02  0.40659153816E+02  0.00000000000E+00 0. -1.
         11    1    3    3    0    0 -0.94377117769E+01  0.25803826660E+01  0.41935341119E+01  0.10644928694E+02  0.51100000000E-03 0. -1.
        -11    1    3    3    0    0 -0.69943799107E+01 -0.75767936260E+01  0.25113740903E+02  0.27148280505E+02  0.51100000000E-03 0.  1.
        -12    1    3    3    0    0 -0.28399702768E+01 -0.12240906338E+02  0.20715284850E+01  0.12735636985E+02  0.00000000000E+00 0.  1.
</event>
<event>
 7    1  0.3054835E-011  0.5052886E+02  0.7816164E-02  0.1300439E+00
        -11   -1    0    0    0    0  0.00000000000E+00  0.00000000000E+00  0.45593999997E+02  0.45594000000E+02  0.51100000000E-03 0.  1.
         11   -1    0    0    0    0 -0.00000000000E+00 -0.00000000000E+00 -0.45593999997E+02  0.45594000000E+02  0.51100000000E-03 0. -1.
    9900012    2    1    2    0    0 -0.64489812217E+01  0.20528609748E+02  0.34498584531E+02  0.50528861893E+02  0.30000006210E+02 0.  0.
         12    1    1    2    0    0  0.64489812217E+01 -0.20528609748E+02 -0.34498584531E+02  0.40659138107E+02  0.00000000000E+00 0. -1.
         11    1    3    3    0    0 -0.19024211821E+01  0.25914699176E+01  0.27120299120E+02  0.27310172963E+02  0.51100000000E-03 0. -1.
        -11    1    3    3    0    0 -0.55285993111E+01  0.54828114186E+01 -0.14513449330E+01  0.79204187875E+01  0.51100000000E-03 0.  1.
         12    1    3    3    0    0  0.98203927152E+00  0.12454328412E+02  0.88296303441E+01  0.15298270142E+02  0.00000000000E+00 0. -1.
</event>
<event>
 7    1  0.3054835E-011  0.5052888E+02  0.7816164E-02  0.1300439E+00
        -11   -1    0    0    0    0  0.00000000000E+00  0.00000000000E+00  0.45593999997E+02  0.45594000000E+02  0.51100000000E-03 0. -1.
         11   -1    0    0    0    0 -0.00000000000E+00 -0.00000000000E+00 -0.45593999997E+02  0.45594000000E+02  0.51100000000E-03 0.  1.
    9900012    2    1    2    0    0  0.30534626179E+02 -0.21120702240E+02 -0.16574582985E+02  0.50528877283E+02  0.30000052989E+02 0.  0.
         12    1    1    2    0    0 -0.30534626179E+02  0.21120702240E+02  0.16574582985E+02  0.40659122717E+02  0.00000000000E+00 0. -1.
         11    1    3    3    0    0  0.24098076978E+02 -0.18922113616E+02 -0.17810091039E+02  0.35439568857E+02  0.51100000000E-03 0.  1.
        -11    1    3    3    0    0 -0.38056125304E+01  0.15020288754E+01  0.92559759582E+00  0.41947000661E+01  0.51100000000E-03 0. -1.
         12    1    3    3    0    0  0.10242161731E+02 -0.37006174993E+01  0.30991045754E+00  0.10894608359E+02  0.00000000000E+00 0. -1.
</event>
<event>
 7    1  0.3054835E-011  0.5052886E+02  0.7816164E-02  0.1300439E+00
        -11   -1    0    0    0    0  0.00000000000E+00  0.00000000000E+00  0.45593999997E+02  0.45594000000E+02  0.51100000000E-03 0.  1.
         11   -1    0    0    0    0 -0.00000000000E+00 -0.00000000000E+00 -0.45593999997E+02  0.45594000000E+02  0.51100000000E-03 0. -1.
    9900012    2    1    2    0    0  0.45186967179E+01  0.32333434429E+01  0.40277693298E+02  0.50528859487E+02  0.29999998896E+02 0.  0.
         12    1    1    2    0    0 -0.45186967179E+01 -0.32333434429E+01 -0.40277693298E+02  0.40659140513E+02  0.00000000000E+00 0. -1.
         11    1    3    3    0    0  0.16328405053E+02  0.40911111038E+01  0.28579715775E+02  0.33168571806E+02  0.51100000000E-03 0. -1.
        -11    1    3    3    0    0 -0.26872519872E+01  0.65439325786E+00  0.57079839390E+01  0.63427623862E+01  0.51100000000E-03 0.  1.
         12    1    3    3    0    0 -0.91224563481E+01 -0.15121609187E+01  0.59899935847E+01  0.11017525294E+02  0.00000000000E+00 0. -1.
</event>
<event>
 7    1  0.3054835E-011  0.5052896E+02  0.7816164E-02  0.1300438E+00
        -11   -1    0    0    0    0  0.00000000000E+00  0.00000000000E+00  0.45593999997E+02  0.45594000000E+02  0.51100000000E-03 0.  1.
         11   -1    0    0    0    0 -0.00000000000E+00 -0.00000000000E+00 -0.45593999997E+02  0.45594000000E+02  0.51100000000E-03 0. -1.
    9900012    2    1    2    0    0 -0.17079631037E+02  0.89959619802E+01  0.35784299046E+02  0.50528964270E+02  0.30000317394E+02 0.  0.
         12    1    1    2    0    0  0.17079631037E+02 -0.89959619802E+01 -0.35784299046E+02  0.40659035730E+02  0.00000000000E+00 0. -1.
         11    1    3    3    0    0  0.56648200710E+01 -0.26493897375E+01  0.70031887913E+01  0.93890418002E+01  0.51100000000E-03 0. -1.
        -11    1    3    3    0    0 -0.53034141903E+01  0.62799507957E+01  0.18384416388E+02  0.20138290649E+02  0.51100000000E-03 0.  1.
         12    1    3    3    0    0 -0.17441036917E+02  0.53654009220E+01  0.10396693866E+02  0.21001631821E+02  0.00000000000E+00 0. -1.
</event>
<event>
 7    1  0.3054835E-011  0.5052886E+02  0.7816164E-02  0.1300439E+00
        -11   -1    0    0    0    0  0.00000000000E+00  0.00000000000E+00  0.45593999997E+02  0.45594000000E+02  0.51100000000E-03 0.  1.
         11   -1    0    0    0    0 -0.00000000000E+00 -0.00000000000E+00 -0.45593999997E+02  0.45594000000E+02  0.51100000000E-03 0. -1.
    9900012    2    1    2    0    0  0.18349045740E+02  0.15896732255E+02  0.32615524250E+02  0.50528855911E+02  0.29999988028E+02 0.  0.
         12    1    1    2    0    0 -0.18349045740E+02 -0.15896732255E+02 -0.32615524250E+02  0.40659144089E+02  0.00000000000E+00 0. -1.
         11    1    3    3    0    0  0.95585481209E+01  0.18049424766E+02  0.64818958459E+01  0.21428078555E+02  0.51100000000E-03 0. -1.
        -11    1    3    3    0    0  0.46496977980E+01 -0.48287305869E+01  0.86975693359E+01  0.10981076509E+02  0.51100000000E-03 0.  1.
        -12    1    3    3    0    0  0.41407998207E+01  0.26760380760E+01  0.17436059068E+02  0.18119700846E+02  0.00000000000E+00 0.  1.
</event>
<event>
 7    1  0.3054835E-011  0.5052886E+02  0.7816164E-02  0.1300439E+00
        -11   -1    0    0    0    0  0.00000000000E+00  0.00000000000E+00  0.45593999997E+02  0.45594000000E+02  0.51100000000E-03 0.  1.
         11   -1    0    0    0    0 -0.00000000000E+00 -0.00000000000E+00 -0.45593999997E+02  0.45594000000E+02  0.51100000000E-03 0. -1.
    9900012    2    1    2    0    0 -0.22508327945E+02  0.31615107066E+02  0.12125420052E+02  0.50528860399E+02  0.30000001670E+02 0.  0.
         12    1    1    2    0    0  0.22508327945E+02 -0.31615107066E+02 -0.12125420052E+02  0.40659139601E+02  0.00000000000E+00 0. -1.
         11    1    3    3    0    0  0.92268541073E+00  0.13742007685E+02  0.82572378749E+01  0.16058521139E+02  0.51100000000E-03 0. -1.
        -11    1    3    3    0    0 -0.10832635665E+02  0.68869147877E+00  0.70257071098E+01  0.12929843466E+02  0.51100000000E-03 0.  1.
        -12    1    3    3    0    0 -0.12598377690E+02  0.17184407902E+02 -0.31575249327E+01  0.21540495795E+02  0.00000000000E+00 0.  1.
</event>
<event>
 7    1  0.3054835E-011  0.5052886E+02  0.7816164E-02  0.1300439E+00
        -11   -1    0    0    0    0  0.00000000000E+00  0.00000000000E+00  0.45593999997E+02  0.45594000000E+02  0.51100000000E-03 0. -1.
         11   -1    0    0    0    0 -0.00000000000E+00 -0.00000000000E+00 -0.45593999997E+02  0.45594000000E+02  0.51100000000E-03 0.  1.
    9900012    2    1    2    0    0  0.11520083765E+02 -0.19598409618E+02 -0.33709873165E+02  0.50528861564E+02  0.30000005210E+02 0.  0.
         12    1    1    2    0    0 -0.11520083765E+02  0.19598409618E+02  0.33709873165E+02  0.40659138436E+02  0.00000000000E+00 0. -1.
         11    1    3    3    0    0  0.11872898042E+02 -0.74914442475E+01 -0.51914111161E+01  0.14967905481E+02  0.51100000000E-03 0. -1.
        -11    1    3    3    0    0  0.16337891026E+01 -0.98342412977E+01 -0.30407532280E+02  0.31999993568E+02  0.51100000000E-03 0.  1.
        -12    1    3    3    0    0 -0.19866033797E+01 -0.22727240730E+01  0.18890702306E+01  0.35609625155E+01  0.00000000000E+00 0.  1.
</event>
<event>
 7    1  0.3054835E-011  0.5052885E+02  0.7816164E-02  0.1300439E+00
        -11   -1    0    0    0    0  0.00000000000E+00  0.00000000000E+00  0.45593999997E+02  0.45594000000E+02  0.51100000000E-03 0. -1.
         11   -1    0    0    0    0 -0.00000000000E+00 -0.00000000000E+00 -0.45593999997E+02  0.45594000000E+02  0.51100000000E-03 0.  1.
    9900012    2    1    2    0    0 -0.82639206317E+01 -0.23976872443E+00 -0.39809756911E+02  0.50528848280E+02  0.29999964833E+02 0.  0.
         12    1    1    2    0    0  0.82639206317E+01  0.23976872443E+00  0.39809756911E+02  0.40659151720E+02  0.00000000000E+00 0. -1.
         11    1    3    3    0    0 -0.13847891194E+02  0.41011452800E+01 -0.73807997631E+01  0.16219114912E+02  0.51100000000E-03 0. -1.
        -11    1    3    3    0    0 -0.91555769801E+00 -0.40386527771E+01 -0.18177350798E+02  0.18643096428E+02  0.51100000000E-03 0.  1.
         12    1    3    3    0    0  0.64995282600E+01 -0.30226122732E+00 -0.14251606350E+02  0.15666636940E+02  0.00000000000E+00 0. -1.
</event>
<event>
 7    1  0.3054835E-011  0.5052887E+02  0.7816164E-02  0.1300439E+00
        -11   -1    0    0    0    0  0.00000000000E+00  0.00000000000E+00  0.45593999997E+02  0.45594000000E+02  0.51100000000E-03 0. -1.
         11   -1    0    0    0    0 -0.00000000000E+00 -0.00000000000E+00 -0.45593999997E+02  0.45594000000E+02  0.51100000000E-03 0.  1.
    9900012    2    1    2    0    0  0.25797360692E+02  0.96646720521E+01 -0.29904104716E+02  0.50528865928E+02  0.30000018476E+02 0.  0.
         12    1    1    2    0    0 -0.25797360692E+02 -0.96646720521E+01  0.29904104716E+02  0.40659134072E+02  0.00000000000E+00 0. -1.
         11    1    3    3    0    0  0.37547612693E+01  0.51426470070E+01  0.47692307949E+01  0.79555397720E+01  0.51100000000E-03 0. -1.
        -11    1    3    3    0    0  0.75905131656E+01  0.22200754731E+01 -0.21406198603E+02  0.22820384837E+02  0.51100000000E-03 0.  1.
        -12    1    3    3    0    0  0.14452086257E+02  0.23019495720E+01 -0.13267136909E+02  0.19752941320E+02  0.00000000000E+00 0.  1.
</event>
<event>
 7    1  0.3054835E-011  0.5052886E+02  0.7816164E-02  0.1300439E+00
        -11   -1    0    0    0    0  0.00000000000E+00  0.00000000000E+00  0.45593999997E+02  0.45594000000E+02  0.51100000000E-03 0.  1.
         11   -1    0    0    0    0 -0.00000000000E+00 -0.00000000000E+00 -0.45593999997E+02  0.45594000000E+02  0.51100000000E-03 0. -1.
    9900012    2    1    2    0    0 -0.34403080545E+02 -0.84398238200E+01  0.19959041689E+02  0.50528856844E+02  0.29999990862E+02 0.  0.
         12    1    1    2    0    0  0.34403080545E+02  0.84398238200E+01 -0.19959041689E+02  0.40659143156E+02  0.00000000000E+00 0. -1.
         11    1    3    3    0    0 -0.42290974845E+01 -0.11444176143E+02 -0.10692635170E+01  0.12247357178E+02  0.51100000000E-03 0. -1.
        -11    1    3    3    0    0 -0.26363954091E+02 -0.93987895634E+00  0.18631666112E+02  0.32296755722E+02  0.51100000000E-03 0.  1.
        -12    1    3    3    0    0 -0.38100289691E+01  0.39442312791E+01  0.23966390930E+01  0.59847439436E+01  0.00000000000E+00 0.  1.
</event>
<event>
 7    1  0.3054835E-011  0.5052886E+02  0.7816164E-02  0.1300439E+00
        -11   -1    0    0    0    0  0.00000000000E+00  0.00000000000E+00  0.45593999997E+02  0.45594000000E+02  0.51100000000E-03 0.  1.
         11   -1    0    0    0    0 -0.00000000000E+00 -0.00000000000E+00 -0.45593999997E+02  0.45594000000E+02  0.51100000000E-03 0. -1.
    9900012    2    1    2    0    0  0.64455617464E+01  0.32358972942E+02  0.23759579924E+02  0.50528855466E+02  0.29999986674E+02 0.  0.
         12    1    1    2    0    0 -0.64455617464E+01 -0.32358972942E+02 -0.23759579924E+02  0.40659144534E+02  0.00000000000E+00 0. -1.
         11    1    3    3    0    0 -0.74439759665E+01  0.13077879069E+02  0.88755613109E+00  0.15074198329E+02  0.51100000000E-03 0. -1.
        -11    1    3    3    0    0  0.14584431474E+02  0.20018074524E+02  0.18360389675E+02  0.30830712907E+02  0.51100000000E-03 0.  1.
        -12    1    3    3    0    0 -0.69489376069E+00 -0.73698065133E+00  0.45116341182E+01  0.46239442293E+01  0.00000000000E+00 0.  1.
</event>
<event>
 7    1  0.3054835E-011  0.5052886E+02  0.7816164E-02  0.1300439E+00
        -11   -1    0    0    0    0  0.00000000000E+00  0.00000000000E+00  0.45593999997E+02  0.45594000000E+02  0.51100000000E-03 0.  1.
         11   -1    0    0    0    0 -0.00000000000E+00 -0.00000000000E+00 -0.45593999997E+02  0.45594000000E+02  0.51100000000E-03 0. -1.
    9900012    2    1    2    0    0  0.39894530822E+02 -0.81153578608E-01  0.78476566321E+01  0.50528857239E+02  0.29999992064E+02 0.  0.
         12    1    1    2    0    0 -0.39894530822E+02  0.81153578608E-01 -0.78476566321E+01  0.40659142761E+02  0.00000000000E+00 0. -1.
         11    1    3    3    0    0  0.96228203100E+00  0.26742735947E+01  0.41255857794E+01  0.50098088038E+01  0.51100000000E-03 0. -1.
        -11    1    3    3    0    0  0.38462791563E+02 -0.37553905390E+01  0.93689413237E+01  0.39765139943E+02  0.51100000000E-03 0.  1.
        -12    1    3    3    0    0  0.46945722864E+00  0.99996336578E+00 -0.56468704710E+01  0.57539084924E+01  0.00000000000E+00 0.  1.
</event>
<event>
 7    1  0.3054835E-011  0.5052887E+02  0.7816164E-02  0.1300439E+00
        -11   -1    0    0    0    0  0.00000000000E+00  0.00000000000E+00  0.45593999997E+02  0.45594000000E+02  0.51100000000E-03 0. -1.
         11   -1    0    0    0    0 -0.00000000000E+00 -0.00000000000E+00 -0.45593999997E+02  0.45594000000E+02  0.51100000000E-03 0.  1.
    9900012    2    1    2    0    0 -0.33104557206E+02  0.19122401595E+02 -0.13841499242E+02  0.50528867547E+02  0.30000023396E+02 0.  0.
         12    1    1    2    0    0  0.33104557206E+02 -0.19122401595E+02  0.13841499242E+02  0.40659132453E+02  0.00000000000E+00 0. -1.
         11    1    3    3    0    0 -0.20102882866E+02  0.16440003240E+02  0.20092322940E+00  0.25969982219E+02  0.51100000000E-03 0. -1.
        -11    1    3    3    0    0 -0.65916122762E+01  0.45485825180E+01 -0.15748731094E+02  0.17668092332E+02  0.51100000000E-03 0.  1.
        -12    1    3    3    0    0 -0.64100620640E+01 -0.18661841630E+01  0.17063086229E+01  0.68907929958E+01  0.00000000000E+00 0.  1.
</event>
<event>
 7    1  0.3054835E-011  0.5052887E+02  0.7816164E-02  0.1300439E+00
        -11   -1    0    0    0    0  0.00000000000E+00  0.00000000000E+00  0.45593999997E+02  0.45594000000E+02  0.51100000000E-03 0.  1.
         11   -1    0    0    0    0 -0.00000000000E+00 -0.00000000000E+00 -0.45593999997E+02  0.45594000000E+02  0.51100000000E-03 0. -1.
    9900012    2    1    2    0    0  0.22426701203E+02 -0.30363847870E+02  0.15107777044E+02  0.50528866813E+02  0.30000021166E+02 0.  0.
         12    1    1    2    0    0 -0.22426701203E+02  0.30363847870E+02 -0.15107777044E+02  0.40659133187E+02  0.00000000000E+00 0. -1.
         11    1    3    3    0    0  0.38898097441E+01 -0.13335410241E+02  0.14576890503E+02  0.20135777192E+02  0.51100000000E-03 0. -1.
        -11    1    3    3    0    0  0.12877175177E+02 -0.10610095532E+02 -0.78284292791E+01  0.18430411633E+02  0.51100000000E-03 0.  1.
        -12    1    3    3    0    0  0.56597162818E+01 -0.64183420960E+01  0.83593158203E+01  0.11962677988E+02  0.00000000000E+00 0.  1.
</event>
<event>
 7    1  0.3054835E-011  0.5052886E+02  0.7816164E-02  0.1300439E+00
        -11   -1    0    0    0    0  0.00000000000E+00  0.00000000000E+00  0.45593999997E+02  0.45594000000E+02  0.51100000000E-03 0.  1.
         11   -1    0    0    0    0 -0.00000000000E+00 -0.00000000000E+00 -0.45593999997E+02  0.45594000000E+02  0.51100000000E-03 0. -1.
    9900012    2    1    2    0    0 -0.20684967663E+02  0.19420605284E+02  0.29122805438E+02  0.50528860887E+02  0.30000003153E+02 0.  0.
         12    1    1    2    0    0  0.20684967663E+02 -0.19420605284E+02 -0.29122805438E+02  0.40659139113E+02  0.00000000000E+00 0. -1.
         11    1    3    3    0    0 -0.50485104449E+01 -0.19977963393E+01  0.10817419596E+02  0.12103520765E+02  0.51100000000E-03 0. -1.
        -11    1    3    3    0    0 -0.92177131361E+01  0.24596333453E+02  0.11980420395E+02  0.28869990092E+02  0.51100000000E-03 0.  1.
         12    1    3    3    0    0 -0.64187440818E+01 -0.31779318302E+01  0.63249654468E+01  0.95553500307E+01  0.00000000000E+00 0. -1.
</event>
<event>
 7    1  0.3054835E-011  0.5052879E+02  0.7816164E-02  0.1300439E+00
        -11   -1    0    0    0    0  0.00000000000E+00  0.00000000000E+00  0.45593999997E+02  0.45594000000E+02  0.51100000000E-03 0.  1.
         11   -1    0    0    0    0 -0.00000000000E+00 -0.00000000000E+00 -0.45593999997E+02  0.45594000000E+02  0.51100000000E-03 0. -1.
    9900012    2    1    2    0    0  0.32391392864E+02  0.24005469774E+02  0.52636752444E+01  0.50528792091E+02  0.29999794038E+02 0.  0.
         12    1    1    2    0    0 -0.32391392864E+02 -0.24005469774E+02 -0.52636752444E+01  0.40659207909E+02  0.00000000000E+00 0. -1.
         11    1    3    3    0    0  0.13079292532E+02  0.24745349073E+02 -0.26646774734E+01  0.28115844290E+02  0.51100000000E-03 0. -1.
        -11    1    3    3    0    0  0.14869967368E+02 -0.31708595878E+01  0.33122359159E+01  0.15560886449E+02  0.51100000000E-03 0.  1.
         12    1    3    3    0    0  0.44421329642E+01  0.24309802892E+01  0.46161168019E+01  0.68520613517E+01  0.00000000000E+00 0. -1.
</event>
<event>
 7    1  0.3054835E-011  0.5052885E+02  0.7816164E-02  0.1300439E+00
        -11   -1    0    0    0    0  0.00000000000E+00  0.00000000000E+00  0.45593999997E+02  0.45594000000E+02  0.51100000000E-03 0. -1.
         11   -1    0    0    0    0 -0.00000000000E+00 -0.00000000000E+00 -0.45593999997E+02  0.45594000000E+02  0.51100000000E-03 0.  1.
    9900012    2    1    2    0    0  0.14346430076E+02  0.21959711466E+02 -0.31066338752E+02  0.50528851128E+02  0.29999973488E+02 0.  0.
         12    1    1    2    0    0 -0.14346430076E+02 -0.21959711466E+02  0.31066338752E+02  0.40659148872E+02  0.00000000000E+00 0. -1.
         11    1    3    3    0    0  0.11726284585E+02  0.17187421491E+02 -0.57513034966E+01  0.21586817733E+02  0.51100000000E-03 0. -1.
        -11    1    3    3    0    0  0.28833302525E+01  0.76029448132E+01 -0.24739457082E+02  0.26041488056E+02  0.51100000000E-03 0.  1.
        -12    1    3    3    0    0 -0.26318476141E+00 -0.28306548379E+01 -0.57557817264E+00  0.29005453389E+01  0.00000000000E+00 0.  1.
</event>
<event>
 7    1  0.3054835E-011  0.5052887E+02  0.7816164E-02  0.1300439E+00
        -11   -1    0    0    0    0  0.00000000000E+00  0.00000000000E+00  0.45593999997E+02  0.45594000000E+02  0.51100000000E-03 0. -1.
         11   -1    0    0    0    0 -0.00000000000E+00 -0.00000000000E+00 -0.45593999997E+02  0.45594000000E+02  0.51100000000E-03 0.  1.
    9900012    2    1    2    0    0  0.30659301430E+02  0.22981042658E+02 -0.13603080462E+02  0.50528869612E+02  0.30000029672E+02 0.  0.
         12    1    1    2    0    0 -0.30659301430E+02 -0.22981042658E+02  0.13603080462E+02  0.40659130388E+02  0.00000000000E+00 0. -1.
         11    1    3    3    0    0  0.18116530472E+02  0.12171820100E+02  0.37610595053E+01  0.22147402776E+02  0.51100000000E-03 0. -1.
        -11    1    3    3    0    0  0.15282429681E+02  0.86587475516E+01 -0.17632380225E+02  0.24888298431E+02  0.51100000000E-03 0.  1.
         12    1    3    3    0    0 -0.27396587221E+01  0.21504750069E+01  0.26824025759E+00  0.34931684049E+01  0.00000000000E+00 0. -1.
</event>
<event>
 7    1  0.3054835E-011  0.5052886E+02  0.7816164E-02  0.1300439E+00
        -11   -1    0    0    0    0  0.00000000000E+00  0.00000000000E+00  0.45593999997E+02  0.45594000000E+02  0.51100000000E-03 0.  1.
         11   -1    0    0    0    0 -0.00000000000E+00 -0.00000000000E+00 -0.45593999997E+02  0.45594000000E+02  0.51100000000E-03 0. -1.
    9900012    2    1    2    0    0  0.80265416981E+01  0.26811845559E+02  0.29493483187E+02  0.50528856079E+02  0.29999988538E+02 0.  0.
         12    1    1    2    0    0 -0.80265416981E+01 -0.26811845559E+02 -0.29493483187E+02  0.40659143921E+02  0.00000000000E+00 0. -1.
         11    1    3    3    0    0 -0.30168665876E+01 -0.65862687192E-01  0.28199668886E+00  0.30307332932E+01  0.51100000000E-03 0. -1.
        -11    1    3    3    0    0  0.13990305398E+02  0.26658727517E+02  0.31638691965E+02  0.43674056687E+02  0.51100000000E-03 0.  1.
        -12    1    3    3    0    0 -0.29468971124E+01  0.21898072955E+00 -0.24272054673E+01  0.38240660992E+01  0.00000000000E+00 0.  1.
</event>
<event>
 7    1  0.3054835E-011  0.5052886E+02  0.7816164E-02  0.1300439E+00
        -11   -1    0    0    0    0  0.00000000000E+00  0.00000000000E+00  0.45593999997E+02  0.45594000000E+02  0.51100000000E-03 0. -1.
         11   -1    0    0    0    0 -0.00000000000E+00 -0.00000000000E+00 -0.45593999997E+02  0.45594000000E+02  0.51100000000E-03 0.  1.
    9900012    2    1    2    0    0 -0.11937859976E+02 -0.21511568155E+02 -0.32371367947E+02  0.50528861691E+02  0.30000005594E+02 0.  0.
         12    1    1    2    0    0  0.11937859976E+02  0.21511568155E+02  0.32371367947E+02  0.40659138309E+02  0.00000000000E+00 0. -1.
         11    1    3    3    0    0 -0.11462124265E+02 -0.78801210869E+00  0.52486327560E+00  0.11501162440E+02  0.51100000000E-03 0. -1.
        -11    1    3    3    0    0  0.11855152876E+01 -0.10177580032E+02 -0.14437506131E+02  0.17703959030E+02  0.51100000000E-03 0.  1.
         12    1    3    3    0    0 -0.16612509985E+01 -0.10545976015E+02 -0.18458725092E+02  0.21323740221E+02  0.00000000000E+00 0. -1.
</event>
<event>
 7    1  0.3054835E-011  0.5052890E+02  0.7816164E-02  0.1300439E+00
        -11   -1    0    0    0    0  0.00000000000E+00  0.00000000000E+00  0.45593999997E+02  0.45594000000E+02  0.51100000000E-03 0.  1.
         11   -1    0    0    0    0 -0.00000000000E+00 -0.00000000000E+00 -0.45593999997E+02  0.45594000000E+02  0.51100000000E-03 0. -1.
    9900012    2    1    2    0    0  0.32050290148E+02 -0.51693093450E+01  0.24478969227E+02  0.50528895336E+02  0.30000107863E+02 0.  0.
         12    1    1    2    0    0 -0.32050290148E+02  0.51693093450E+01 -0.24478969227E+02  0.40659104664E+02  0.00000000000E+00 0. -1.
         11    1    3    3    0    0  0.20378101782E+01 -0.11540004264E+02  0.51437014530E+01  0.12797735489E+02  0.51100000000E-03 0.  1.
        -11    1    3    3    0    0  0.23216497596E+02  0.84825750306E+01  0.17775983439E+02  0.30445778480E+02  0.51100000000E-03 0. -1.
         12    1    3    3    0    0  0.67959823741E+01 -0.21118801116E+01  0.15592843350E+01  0.72853813677E+01  0.00000000000E+00 0. -1.
</event>
<event>
 7    1  0.3054835E-011  0.5052886E+02  0.7816164E-02  0.1300439E+00
        -11   -1    0    0    0    0  0.00000000000E+00  0.00000000000E+00  0.45593999997E+02  0.45594000000E+02  0.51100000000E-03 0.  1.
         11   -1    0    0    0    0 -0.00000000000E+00 -0.00000000000E+00 -0.45593999997E+02  0.45594000000E+02  0.51100000000E-03 0. -1.
    9900012    2    1    2    0    0  0.29030842444E+02 -0.19642934188E+02 -0.20604156916E+02  0.50528856394E+02  0.29999989496E+02 0.  0.
         12    1    1    2    0    0 -0.29030842444E+02  0.19642934188E+02  0.20604156916E+02  0.40659143606E+02  0.00000000000E+00 0. -1.
         11    1    3    3    0    0  0.13674012438E+01 -0.29968607431E+01 -0.23943396120E+01  0.40723240187E+01  0.51100000000E-03 0. -1.
        -11    1    3    3    0    0  0.28611368109E+02 -0.19587802489E+02 -0.77230022347E+01  0.35523754801E+02  0.51100000000E-03 0.  1.
        -12    1    3    3    0    0 -0.94792690877E+00  0.29417290434E+01 -0.10486815070E+02  0.10932777575E+02  0.00000000000E+00 0.  1.
</event>
<event>
 7    1  0.3054835E-011  0.5052886E+02  0.7816164E-02  0.1300439E+00
        -11   -1    0    0    0    0  0.00000000000E+00  0.00000000000E+00  0.45593999997E+02  0.45594000000E+02  0.51100000000E-03 0.  1.
         11   -1    0    0    0    0 -0.00000000000E+00 -0.00000000000E+00 -0.45593999997E+02  0.45594000000E+02  0.51100000000E-03 0. -1.
    9900012    2    1    2    0    0 -0.74262640723E+01 -0.12669004099E+02  0.37914540346E+02  0.50528862865E+02  0.30000009164E+02 0.  0.
         12    1    1    2    0    0  0.74262640723E+01  0.12669004099E+02 -0.37914540346E+02  0.40659137135E+02  0.00000000000E+00 0. -1.
         11    1    3    3    0    0  0.85232444847E+01 -0.42290623013E+01  0.71270023092E+01  0.11888011889E+02  0.51100000000E-03 0. -1.
        -11    1    3    3    0    0 -0.12516339072E+02 -0.12151607079E+02  0.27641475218E+02  0.32685951889E+02  0.51100000000E-03 0.  1.
        -12    1    3    3    0    0 -0.34331694853E+01  0.37116652822E+01  0.31460628187E+01  0.59548990874E+01  0.00000000000E+00 0.  1.
</event>
<event>
 7    1  0.3054835E-011  0.5052888E+02  0.7816164E-02  0.1300439E+00
        -11   -1    0    0    0    0  0.00000000000E+00  0.00000000000E+00  0.45593999997E+02  0.45594000000E+02  0.51100000000E-03 0.  1.
         11   -1    0    0    0    0 -0.00000000000E+00 -0.00000000000E+00 -0.45593999997E+02  0.45594000000E+02  0.51100000000E-03 0. -1.
    9900012    2    1    2    0    0 -0.28466615148E+02 -0.55516624551E+01  0.28495523763E+02  0.50528880377E+02  0.30000062394E+02 0.  0.
         12    1    1    2    0    0  0.28466615148E+02  0.55516624551E+01 -0.28495523763E+02  0.40659119623E+02  0.00000000000E+00 0. -1.
         11    1    3    3    0    0 -0.11056920646E+02 -0.15535830500E+02  0.10717836406E+02  0.21874403786E+02  0.51100000000E-03 0. -1.
        -11    1    3    3    0    0 -0.13876941131E+02  0.44210277484E+01  0.73368034306E+01  0.16307779320E+02  0.51100000000E-03 0.  1.
         12    1    3    3    0    0 -0.35327533699E+01  0.55631402967E+01  0.10440883926E+02  0.12346697271E+02  0.00000000000E+00 0. -1.
</event>
<event>
 7    1  0.3054835E-011  0.5052889E+02  0.7816164E-02  0.1300439E+00
        -11   -1    0    0    0    0  0.00000000000E+00  0.00000000000E+00  0.45593999997E+02  0.45594000000E+02  0.51100000000E-03 0.  1.
         11   -1    0    0    0    0 -0.00000000000E+00 -0.00000000000E+00 -0.45593999997E+02  0.45594000000E+02  0.51100000000E-03 0. -1.
    9900012    2    1    2    0    0  0.47514043940E+01 -0.20904487477E+02  0.34548362985E+02  0.50528894927E+02  0.30000106621E+02 0.  0.
         12    1    1    2    0    0 -0.47514043940E+01  0.20904487477E+02 -0.34548362985E+02  0.40659105073E+02  0.00000000000E+00 0. -1.
         11    1    3    3    0    0  0.29196650178E+01 -0.48930114443E+00 -0.30634273617E+01  0.42600993988E+01  0.51100000000E-03 0. -1.
        -11    1    3    3    0    0  0.28762028031E+01 -0.15369602187E+02  0.38010299656E+02  0.41100852718E+02  0.51100000000E-03 0.  1.
        -12    1    3    3    0    0 -0.10444634270E+01 -0.50455841457E+01 -0.39850930961E+00  0.51679428104E+01  0.00000000000E+00 0.  1.
</event>
<event>
 7    1  0.3054835E-011  0.5052888E+02  0.7816164E-02  0.1300439E+00
        -11   -1    0    0    0    0  0.00000000000E+00  0.00000000000E+00  0.45593999997E+02  0.45594000000E+02  0.51100000000E-03 0. -1.
         11   -1    0    0    0    0 -0.00000000000E+00 -0.00000000000E+00 -0.45593999997E+02  0.45594000000E+02  0.51100000000E-03 0.  1.
    9900012    2    1    2    0    0 -0.20692025969E+02  0.18364518943E+02 -0.29795115101E+02  0.50528875826E+02  0.30000048562E+02 0.  0.
         12    1    1    2    0    0  0.20692025969E+02 -0.18364518943E+02  0.29795115101E+02  0.40659124174E+02  0.00000000000E+00 0. -1.
         11    1    3    3    0    0 -0.21775769869E+01  0.10257706151E+01 -0.21543227449E+02  0.21677285256E+02  0.51100000000E-03 0.  1.
        -11    1    3    3    0    0 -0.93910468526E+01  0.15495290834E+02 -0.37103463484E+01  0.18494930908E+02  0.51100000000E-03 0. -1.
         12    1    3    3    0    0 -0.91234021295E+01  0.18434574935E+01 -0.45415413033E+01  0.10356659662E+02  0.00000000000E+00 0. -1.
</event>
<event>
 7    1  0.3054835E-011  0.5052885E+02  0.7816164E-02  0.1300439E+00
        -11   -1    0    0    0    0  0.00000000000E+00  0.00000000000E+00  0.45593999997E+02  0.45594000000E+02  0.51100000000E-03 0.  1.
         11   -1    0    0    0    0 -0.00000000000E+00 -0.00000000000E+00 -0.45593999997E+02  0.45594000000E+02  0.51100000000E-03 0. -1.
    9900012    2    1    2    0    0  0.30019107426E+02 -0.27082072886E+02 -0.43105816610E+01  0.50528848549E+02  0.29999965650E+02 0.  0.
         12    1    1    2    0    0 -0.30019107426E+02  0.27082072886E+02  0.43105816610E+01  0.40659151451E+02  0.00000000000E+00 0. -1.
         11    1    3    3    0    0  0.58863217373E+01  0.40746752819E+01  0.49115918059E+01  0.86819062755E+01  0.51100000000E-03 0. -1.
        -11    1    3    3    0    0  0.15688013388E+02 -0.24492499509E+02 -0.25714306131E+01  0.29199461501E+02  0.51100000000E-03 0.  1.
         12    1    3    3    0    0  0.84447723002E+01 -0.66642486586E+01 -0.66507428538E+01  0.12647480773E+02  0.00000000000E+00 0. -1.
</event>
<event>
 7    1  0.3054835E-011  0.5052886E+02  0.7816164E-02  0.1300439E+00
        -11   -1    0    0    0    0  0.00000000000E+00  0.00000000000E+00  0.45593999997E+02  0.45594000000E+02  0.51100000000E-03 0. -1.
         11   -1    0    0    0    0 -0.00000000000E+00 -0.00000000000E+00 -0.45593999997E+02  0.45594000000E+02  0.51100000000E-03 0.  1.
    9900012    2    1    2    0    0 -0.12824617781E+02  0.35654256518E+02 -0.14746813251E+02  0.50528864125E+02  0.30000012994E+02 0.  0.
         12    1    1    2    0    0  0.12824617781E+02 -0.35654256518E+02  0.14746813251E+02  0.40659135875E+02  0.00000000000E+00 0. -1.
         11    1    3    3    0    0 -0.84408148339E+01  0.16429870980E+02  0.80392759416E+01  0.20144924259E+02  0.51100000000E-03 0. -1.
        -11    1    3    3    0    0 -0.47997589216E+01  0.14449670889E+02 -0.16122947682E+02  0.22176115907E+02  0.51100000000E-03 0.  1.
         12    1    3    3    0    0  0.41595597422E+00  0.47747146492E+01 -0.66631415104E+01  0.82078239589E+01  0.00000000000E+00 0. -1.
</event>
<event>
 7    1  0.3054835E-011  0.5052887E+02  0.7816164E-02  0.1300439E+00
        -11   -1    0    0    0    0  0.00000000000E+00  0.00000000000E+00  0.45593999997E+02  0.45594000000E+02  0.51100000000E-03 0.  1.
         11   -1    0    0    0    0 -0.00000000000E+00 -0.00000000000E+00 -0.45593999997E+02  0.45594000000E+02  0.51100000000E-03 0. -1.
    9900012    2    1    2    0    0  0.28078301115E+02  0.15489111924E+02  0.24997221357E+02  0.50528872400E+02  0.30000038146E+02 0.  0.
         12    1    1    2    0    0 -0.28078301115E+02 -0.15489111924E+02 -0.24997221357E+02  0.40659127600E+02  0.00000000000E+00 0. -1.
         11    1    3    3    0    0  0.28642938195E+02  0.84740951824E+01  0.26225178110E+02  0.39749064955E+02  0.51100000000E-03 0.  1.
        -11    1    3    3    0    0  0.31389291191E+01  0.61453874356E+01 -0.94453044514E+00  0.69649695457E+01  0.51100000000E-03 0. -1.
         12    1    3    3    0    0 -0.37035661996E+01  0.86962930548E+00 -0.28342630807E+00  0.38148378990E+01  0.00000000000E+00 0. -1.
</event>
<event>
 7    1  0.3054835E-011  0.5052886E+02  0.7816164E-02  0.1300439E+00
        -11   -1    0    0    0    0  0.00000000000E+00  0.00000000000E+00  0.45593999997E+02  0.45594000000E+02  0.51100000000E-03 0. -1.
         11   -1    0    0    0    0 -0.00000000000E+00 -0.00000000000E+00 -0.45593999997E+02  0.45594000000E+02  0.51100000000E-03 0.  1.
    9900012    2    1    2    0    0  0.59425479667E+01 -0.40222508723E+02  0.41158333534E-01  0.50528858613E+02  0.29999996241E+02 0.  0.
         12    1    1    2    0    0 -0.59425479667E+01  0.40222508723E+02 -0.41158333534E-01  0.40659141387E+02  0.00000000000E+00 0. -1.
         11    1    3    3    0    0 -0.10273741514E+02 -0.71829021427E+01  0.21410197290E+01  0.12717225076E+02  0.51100000000E-03 0. -1.
        -11    1    3    3    0    0  0.86929580186E+01 -0.17707152385E+02 -0.53227861980E+01  0.20431417422E+02  0.51100000000E-03 0.  1.
        -12    1    3    3    0    0  0.75233314624E+01 -0.15332454195E+02  0.32229248025E+01  0.17380216115E+02  0.00000000000E+00 0.  1.
</event>
<event>
 7    1  0.3054835E-011  0.5052887E+02  0.7816164E-02  0.1300439E+00
        -11   -1    0    0    0    0  0.00000000000E+00  0.00000000000E+00  0.45593999997E+02  0.45594000000E+02  0.51100000000E-03 0. -1.
         11   -1    0    0    0    0 -0.00000000000E+00 -0.00000000000E+00 -0.45593999997E+02  0.45594000000E+02  0.51100000000E-03 0.  1.
    9900012    2    1    2    0    0  0.96476397088E+01  0.33825669312E+02 -0.20393911292E+02  0.50528874651E+02  0.30000044988E+02 0.  0.
         12    1    1    2    0    0 -0.96476397088E+01 -0.33825669312E+02  0.20393911292E+02  0.40659125349E+02  0.00000000000E+00 0. -1.
         11    1    3    3    0    0  0.46693231450E+01  0.20606796532E+02  0.22318748623E+01  0.21246738752E+02  0.51100000000E-03 0. -1.
        -11    1    3    3    0    0  0.11953911309E+01  0.12758538512E+02 -0.10484988748E+02  0.16557302142E+02  0.51100000000E-03 0.  1.
         12    1    3    3    0    0  0.37829254328E+01  0.46033426873E+00 -0.12140797406E+02  0.12724833756E+02  0.00000000000E+00 0. -1.
</event>
<event>
 7    1  0.3054835E-011  0.5052876E+02  0.7816164E-02  0.1300439E+00
        -11   -1    0    0    0    0  0.00000000000E+00  0.00000000000E+00  0.45593999997E+02  0.45594000000E+02  0.51100000000E-03 0. -1.
         11   -1    0    0    0    0 -0.00000000000E+00 -0.00000000000E+00 -0.45593999997E+02  0.45594000000E+02  0.51100000000E-03 0.  1.
    9900012    2    1    2    0    0 -0.22167101744E+02 -0.51534792082E+01 -0.33693243750E+02  0.50528764615E+02  0.29999710523E+02 0.  0.
         12    1    1    2    0    0  0.22167101744E+02  0.51534792082E+01  0.33693243750E+02  0.40659235385E+02  0.00000000000E+00 0. -1.
         11    1    3    3    0    0 -0.10262845792E+02 -0.14934013326E+01  0.29828178386E+01  0.10791360147E+02  0.51100000000E-03 0. -1.
        -11    1    3    3    0    0 -0.89343411217E+01  0.17466873609E+01 -0.22908040885E+02  0.24650592396E+02  0.51100000000E-03 0.  1.
         12    1    3    3    0    0 -0.29699148295E+01 -0.54067652365E+01 -0.13768020703E+02  0.15086812072E+02  0.00000000000E+00 0. -1.
</event>
<event>
 7    1  0.3054835E-011  0.5052887E+02  0.7816164E-02  0.1300439E+00
        -11   -1    0    0    0    0  0.00000000000E+00  0.00000000000E+00  0.45593999997E+02  0.45594000000E+02  0.51100000000E-03 0. -1.
         11   -1    0    0    0    0 -0.00000000000E+00 -0.00000000000E+00 -0.45593999997E+02  0.45594000000E+02  0.51100000000E-03 0.  1.
    9900012    2    1    2    0    0  0.15799925443E+02 -0.37182272172E+02 -0.45831988088E+01  0.50528871638E+02  0.30000035829E+02 0.  0.
         12    1    1    2    0    0 -0.15799925443E+02  0.37182272172E+02  0.45831988088E+01  0.40659128362E+02  0.00000000000E+00 0. -1.
         11    1    3    3    0    0  0.13936068119E+02 -0.21604846797E+02  0.40478005149E+01  0.26026296107E+02  0.51100000000E-03 0. -1.
        -11    1    3    3    0    0  0.15006105727E+01  0.52330780885E+00 -0.82411918537E+01  0.83930284513E+01  0.51100000000E-03 0.  1.
         12    1    3    3    0    0  0.36324675107E+00 -0.16100733183E+02 -0.38980746995E+00  0.16109547079E+02  0.00000000000E+00 0. -1.
</event>
<event>
 7    1  0.3054835E-011  0.5052881E+02  0.7816164E-02  0.1300439E+00
        -11   -1    0    0    0    0  0.00000000000E+00  0.00000000000E+00  0.45593999997E+02  0.45594000000E+02  0.51100000000E-03 0.  1.
         11   -1    0    0    0    0 -0.00000000000E+00 -0.00000000000E+00 -0.45593999997E+02  0.45594000000E+02  0.51100000000E-03 0. -1.
    9900012    2    1    2    0    0 -0.38118674814E+02  0.89794272510E+01  0.10931905037E+02  0.50528806315E+02  0.29999837276E+02 0.  0.
         12    1    1    2    0    0  0.38118674814E+02 -0.89794272510E+01 -0.10931905037E+02  0.40659193685E+02  0.00000000000E+00 0. -1.
         11    1    3    3    0    0 -0.14533388341E+01  0.95833768479E+01  0.88255651851E+01  0.13108924695E+02  0.51100000000E-03 0. -1.
        -11    1    3    3    0    0 -0.11190307934E+02  0.14282756034E+01  0.35407502838E+01  0.11823699747E+02  0.51100000000E-03 0.  1.
         12    1    3    3    0    0 -0.25475028046E+02 -0.20322252003E+01 -0.14344104317E+01  0.25596181873E+02  0.00000000000E+00 0. -1.
</event>
<event>
 7    1  0.3054835E-011  0.5052889E+02  0.7816164E-02  0.1300439E+00
        -11   -1    0    0    0    0  0.00000000000E+00  0.00000000000E+00  0.45593999997E+02  0.45594000000E+02  0.51100000000E-03 0.  1.
         11   -1    0    0    0    0 -0.00000000000E+00 -0.00000000000E+00 -0.45593999997E+02  0.45594000000E+02  0.51100000000E-03 0. -1.
    9900012    2    1    2    0    0  0.21261565306E+02  0.34655343314E+02 -0.34137599066E+00  0.50528886421E+02  0.30000080765E+02 0.  0.
         12    1    1    2    0    0 -0.21261565306E+02 -0.34655343314E+02  0.34137599066E+00  0.40659113579E+02  0.00000000000E+00 0. -1.
         11    1    3    3    0    0 -0.17932147721E+01  0.14462409178E+02 -0.91608148110E+01  0.17213292152E+02  0.51100000000E-03 0. -1.
        -11    1    3    3    0    0  0.18062444873E+02  0.10598181409E+02  0.81729178309E+01  0.22480434829E+02  0.51100000000E-03 0.  1.
         12    1    3    3    0    0  0.49923352051E+01  0.95947527273E+01  0.64652098944E+00  0.10835159440E+02  0.00000000000E+00 0. -1.
</event>
<event>
 7    1  0.3054835E-011  0.5052886E+02  0.7816164E-02  0.1300439E+00
        -11   -1    0    0    0    0  0.00000000000E+00  0.00000000000E+00  0.45593999997E+02  0.45594000000E+02  0.51100000000E-03 0.  1.
         11   -1    0    0    0    0 -0.00000000000E+00 -0.00000000000E+00 -0.45593999997E+02  0.45594000000E+02  0.51100000000E-03 0. -1.
    9900012    2    1    2    0    0 -0.28202464749E+02 -0.18271956370E+02  0.22889348512E+02  0.50528859787E+02  0.29999999810E+02 0.  0.
         12    1    1    2    0    0  0.28202464749E+02  0.18271956370E+02 -0.22889348512E+02  0.40659140213E+02  0.00000000000E+00 0. -1.
         11    1    3    3    0    0  0.29816481326E+01 -0.81798927819E+01  0.93846959408E+01  0.12801304218E+02  0.51100000000E-03 0. -1.
        -11    1    3    3    0    0 -0.11666639537E+02 -0.70154028331E+00 -0.88977406307E+00  0.11721532963E+02  0.51100000000E-03 0.  1.
         12    1    3    3    0    0 -0.19517473345E+02 -0.93905233047E+01  0.14394426635E+02  0.26006022607E+02  0.00000000000E+00 0. -1.
</event>
<event>
 7    1  0.3054835E-011  0.5052885E+02  0.7816164E-02  0.1300439E+00
        -11   -1    0    0    0    0  0.00000000000E+00  0.00000000000E+00  0.45593999997E+02  0.45594000000E+02  0.51100000000E-03 0. -1.
         11   -1    0    0    0    0 -0.00000000000E+00 -0.00000000000E+00 -0.45593999997E+02  0.45594000000E+02  0.51100000000E-03 0.  1.
    9900012    2    1    2    0    0  0.80119570223E+01 -0.17225450269E+02 -0.35948006972E+02  0.50528846079E+02  0.29999958143E+02 0.  0.
         12    1    1    2    0    0 -0.80119570223E+01  0.17225450269E+02  0.35948006972E+02  0.40659153921E+02  0.00000000000E+00 0. -1.
         11    1    3    3    0    0  0.28711804125E+01  0.48748816846E+01 -0.20684538593E+00  0.56613544028E+01  0.51100000000E-03 0. -1.
        -11    1    3    3    0    0  0.17237838714E+01 -0.17890189985E+02 -0.14941286307E+02  0.23372470244E+02  0.51100000000E-03 0.  1.
         12    1    3    3    0    0  0.34169927384E+01 -0.42101419688E+01 -0.20799875279E+02  0.21495021433E+02  0.00000000000E+00 0. -1.
</event>
<event>
 7    1  0.3054835E-011  0.5052885E+02  0.7816164E-02  0.1300439E+00
        -11   -1    0    0    0    0  0.00000000000E+00  0.00000000000E+00  0.45593999997E+02  0.45594000000E+02  0.51100000000E-03 0.  1.
         11   -1    0    0    0    0 -0.00000000000E+00 -0.00000000000E+00 -0.45593999997E+02  0.45594000000E+02  0.51100000000E-03 0. -1.
    9900012    2    1    2    0    0  0.33927774112E+02  0.15080376520E+02  0.16572705700E+02  0.50528853595E+02  0.29999980987E+02 0.  0.
         12    1    1    2    0    0 -0.33927774112E+02 -0.15080376520E+02 -0.16572705700E+02  0.40659146405E+02  0.00000000000E+00 0. -1.
         11    1    3    3    0    0  0.70789530677E+01  0.79349533325E+01  0.11216478962E+02  0.15455887599E+02  0.51100000000E-03 0. -1.
        -11    1    3    3    0    0  0.87447188572E+01 -0.38936374925E+01 -0.57189172084E+01  0.11150629359E+02  0.51100000000E-03 0.  1.
         12    1    3    3    0    0  0.18104102187E+02  0.11039060680E+02  0.11075143946E+02  0.23922336636E+02  0.00000000000E+00 0. -1.
</event>
<event>
 7    1  0.3054835E-011  0.5052886E+02  0.7816164E-02  0.1300439E+00
        -11   -1    0    0    0    0  0.00000000000E+00  0.00000000000E+00  0.45593999997E+02  0.45594000000E+02  0.51100000000E-03 0.  1.
         11   -1    0    0    0    0 -0.00000000000E+00 -0.00000000000E+00 -0.45593999997E+02  0.45594000000E+02  0.51100000000E-03 0. -1.
    9900012    2    1    2    0    0 -0.32046630639E+02  0.15911788431E+02  0.19313054555E+02  0.50528860528E+02  0.30000002060E+02 0.  0.
         12    1    1    2    0    0  0.32046630639E+02 -0.15911788431E+02 -0.19313054555E+02  0.40659139472E+02  0.00000000000E+00 0. -1.
         11    1    3    3    0    0 -0.51194962932E+01 -0.12735441242E+01  0.73609247172E+01  0.90561785476E+01  0.51100000000E-03 0. -1.
        -11    1    3    3    0    0  0.16055023737E+01  0.48129886199E+01 -0.40552787527E+01  0.64952123407E+01  0.51100000000E-03 0.  1.
        -12    1    3    3    0    0 -0.28532636719E+02  0.12372343935E+02  0.16007408591E+02  0.34977469640E+02  0.00000000000E+00 0.  1.
</event>
<event>
 7    1  0.3054835E-011  0.5052884E+02  0.7816164E-02  0.1300439E+00
        -11   -1    0    0    0    0  0.00000000000E+00  0.00000000000E+00  0.45593999997E+02  0.45594000000E+02  0.51100000000E-03 0. -1.
         11   -1    0    0    0    0 -0.00000000000E+00 -0.00000000000E+00 -0.45593999997E+02  0.45594000000E+02  0.51100000000E-03 0.  1.
    9900012    2    1    2    0    0 -0.44744467579E+01  0.28009915133E+02 -0.29130584378E+02  0.50528844011E+02  0.29999951855E+02 0.  0.
         12    1    1    2    0    0  0.44744467579E+01 -0.28009915133E+02  0.29130584378E+02  0.40659155989E+02  0.00000000000E+00 0. -1.
         11    1    3    3    0    0 -0.95053734806E+01  0.24214216844E+02 -0.11036586243E+02  0.28257506233E+02  0.51100000000E-03 0. -1.
        -11    1    3    3    0    0  0.43290327894E+00 -0.38549248159E+00 -0.15542216145E+02  0.15553021978E+02  0.51100000000E-03 0.  1.
         12    1    3    3    0    0  0.45980234438E+01  0.41811907710E+01 -0.25517819904E+01  0.67183157993E+01  0.00000000000E+00 0. -1.
</event>
<event>
 7    1  0.3054835E-011  0.5052886E+02  0.7816164E-02  0.1300439E+00
        -11   -1    0    0    0    0  0.00000000000E+00  0.00000000000E+00  0.45593999997E+02  0.45594000000E+02  0.51100000000E-03 0.  1.
         11   -1    0    0    0    0 -0.00000000000E+00 -0.00000000000E+00 -0.45593999997E+02  0.45594000000E+02  0.51100000000E-03 0. -1.
    9900012    2    1    2    0    0  0.56415192129E+01  0.27365731919E+02  0.29537354448E+02  0.50528864123E+02  0.30000012989E+02 0.  0.
         12    1    1    2    0    0 -0.56415192129E+01 -0.27365731919E+02 -0.29537354448E+02  0.40659135877E+02  0.00000000000E+00 0. -1.
         11    1    3    3    0    0  0.52959436941E+01  0.52492634104E+01 -0.27431529822E+01  0.79452296699E+01  0.51100000000E-03 0. -1.
        -11    1    3    3    0    0  0.76918610963E+00  0.40008014503E+01  0.20658196436E+02  0.21056095074E+02  0.51100000000E-03 0.  1.
         12    1    3    3    0    0 -0.42361059082E+00  0.18115667058E+02  0.11622310993E+02  0.21527539379E+02  0.00000000000E+00 0. -1.
</event>
<event>
 7    1  0.3054835E-011  0.5052886E+02  0.7816164E-02  0.1300439E+00
        -11   -1    0    0    0    0  0.00000000000E+00  0.00000000000E+00  0.45593999997E+02  0.45594000000E+02  0.51100000000E-03 0.  1.
         11   -1    0    0    0    0 -0.00000000000E+00 -0.00000000000E+00 -0.45593999997E+02  0.45594000000E+02  0.51100000000E-03 0. -1.
    9900012    2    1    2    0    0 -0.16014761645E+02 -0.74781187341E+01  0.36616539882E+02  0.50528857814E+02  0.29999993812E+02 0.  0.
         12    1    1    2    0    0  0.16014761645E+02  0.74781187341E+01 -0.36616539882E+02  0.40659142186E+02  0.00000000000E+00 0. -1.
         11    1    3    3    0    0 -0.91344902616E+01 -0.16144393694E+01  0.28257536625E+02  0.29741111331E+02  0.51100000000E-03 0.  1.
        -11    1    3    3    0    0  0.52729695962E+01 -0.13895139374E+01  0.15097991333E+00  0.54550666852E+01  0.51100000000E-03 0. -1.
        -12    1    3    3    0    0 -0.12153240980E+02 -0.44741654273E+01  0.82080233432E+01  0.15332679798E+02  0.00000000000E+00 0.  1.
</event>
<event>
 7    1  0.3054835E-011  0.5052885E+02  0.7816164E-02  0.1300439E+00
        -11   -1    0    0    0    0  0.00000000000E+00  0.00000000000E+00  0.45593999997E+02  0.45594000000E+02  0.51100000000E-03 0.  1.
         11   -1    0    0    0    0 -0.00000000000E+00 -0.00000000000E+00 -0.45593999997E+02  0.45594000000E+02  0.51100000000E-03 0. -1.
    9900012    2    1    2    0    0  0.11641176047E+02  0.25346509458E+02  0.29583847295E+02  0.50528849219E+02  0.29999967686E+02 0.  0.
         12    1    1    2    0    0 -0.11641176047E+02 -0.25346509458E+02 -0.29583847295E+02  0.40659150781E+02  0.00000000000E+00 0. -1.
         11    1    3    3    0    0 -0.22854683485E+01 -0.24055452659E+01 -0.77029717440E+00  0.34063722046E+01  0.51100000000E-03 0. -1.
        -11    1    3    3    0    0  0.66805392965E+01  0.27947383204E+02  0.23115427818E+02  0.36878297639E+02  0.51100000000E-03 0.  1.
        -12    1    3    3    0    0  0.72461050988E+01 -0.19532848051E+00  0.72387166514E+01  0.10244179375E+02  0.00000000000E+00 0.  1.
</event>
<event>
 7    1  0.3054835E-011  0.5052886E+02  0.7816164E-02  0.1300439E+00
        -11   -1    0    0    0    0  0.00000000000E+00  0.00000000000E+00  0.45593999997E+02  0.45594000000E+02  0.51100000000E-03 0.  1.
         11   -1    0    0    0    0 -0.00000000000E+00 -0.00000000000E+00 -0.45593999997E+02  0.45594000000E+02  0.51100000000E-03 0. -1.
    9900012    2    1    2    0    0  0.18159813817E+01  0.35592593761E+02  0.19571286089E+02  0.50528858861E+02  0.29999996993E+02 0.  0.
         12    1    1    2    0    0 -0.18159813817E+01 -0.35592593761E+02 -0.19571286089E+02  0.40659141139E+02  0.00000000000E+00 0. -1.
         11    1    3    3    0    0 -0.10164634329E+02  0.91995196969E+01  0.13745463656E+02  0.19413622152E+02  0.51100000000E-03 0. -1.
        -11    1    3    3    0    0  0.62515512950E+01  0.11346665508E+02 -0.21757550048E+01  0.13136309293E+02  0.51100000000E-03 0.  1.
         12    1    3    3    0    0  0.57290644155E+01  0.15046408556E+02  0.80015774377E+01  0.17978927415E+02  0.00000000000E+00 0. -1.
</event>
<event>
 7    1  0.3054835E-011  0.5052885E+02  0.7816164E-02  0.1300439E+00
        -11   -1    0    0    0    0  0.00000000000E+00  0.00000000000E+00  0.45593999997E+02  0.45594000000E+02  0.51100000000E-03 0.  1.
         11   -1    0    0    0    0 -0.00000000000E+00 -0.00000000000E+00 -0.45593999997E+02  0.45594000000E+02  0.51100000000E-03 0. -1.
    9900012    2    1    2    0    0 -0.27353636381E+02  0.19619334587E+02  0.22804092536E+02  0.50528851592E+02  0.29999974898E+02 0.  0.
         12    1    1    2    0    0  0.27353636381E+02 -0.19619334587E+02 -0.22804092536E+02  0.40659148408E+02  0.00000000000E+00 0. -1.
         11    1    3    3    0    0  0.31614378141E+01  0.43368191395E+01  0.11719750718E+00  0.53680932199E+01  0.51100000000E-03 0. -1.
        -11    1    3    3    0    0 -0.21635975012E+02  0.45755810307E+01  0.22061401803E+02  0.31237106240E+02  0.51100000000E-03 0.  1.
        -12    1    3    3    0    0 -0.88790991828E+01  0.10706934417E+02  0.62549322614E+00  0.13923652132E+02  0.00000000000E+00 0.  1.
</event>
<event>
 7    1  0.3054835E-011  0.5052886E+02  0.7816164E-02  0.1300439E+00
        -11   -1    0    0    0    0  0.00000000000E+00  0.00000000000E+00  0.45593999997E+02  0.45594000000E+02  0.51100000000E-03 0.  1.
         11   -1    0    0    0    0 -0.00000000000E+00 -0.00000000000E+00 -0.45593999997E+02  0.45594000000E+02  0.51100000000E-03 0. -1.
    9900012    2    1    2    0    0 -0.99439419667E+01  0.94759184268E+01  0.38268665576E+02  0.50528858632E+02  0.29999996297E+02 0.  0.
         12    1    1    2    0    0  0.99439419667E+01 -0.94759184268E+01 -0.38268665576E+02  0.40659141368E+02  0.00000000000E+00 0. -1.
         11    1    3    3    0    0  0.51047522683E+01  0.32919918849E+01  0.67641461589E+01  0.90911704313E+01  0.51100000000E-03 0. -1.
        -11    1    3    3    0    0 -0.14309976608E+02  0.13413462895E+02  0.22008512073E+02  0.29480010537E+02  0.51100000000E-03 0.  1.
        -12    1    3    3    0    0 -0.73871762738E+00 -0.72295363533E+01  0.94960073443E+01  0.11957677663E+02  0.00000000000E+00 0.  1.
</event>
<event>
 7    1  0.3054835E-011  0.5052888E+02  0.7816164E-02  0.1300439E+00
        -11   -1    0    0    0    0  0.00000000000E+00  0.00000000000E+00  0.45593999997E+02  0.45594000000E+02  0.51100000000E-03 0.  1.
         11   -1    0    0    0    0 -0.00000000000E+00 -0.00000000000E+00 -0.45593999997E+02  0.45594000000E+02  0.51100000000E-03 0. -1.
    9900012    2    1    2    0    0 -0.21294753677E+02  0.27451548565E+02  0.21121316198E+02  0.50528879858E+02  0.30000060817E+02 0.  0.
         12    1    1    2    0    0  0.21294753677E+02 -0.27451548565E+02 -0.21121316198E+02  0.40659120142E+02  0.00000000000E+00 0. -1.
         11    1    3    3    0    0 -0.95138684884E+01 -0.62511180628E+00 -0.31182709134E+01  0.10031354452E+02  0.51100000000E-03 0. -1.
        -11    1    3    3    0    0 -0.12370688146E+02  0.20035005581E+02  0.13750639170E+02  0.27267479745E+02  0.51100000000E-03 0.  1.
         12    1    3    3    0    0  0.58980295684E+00  0.80416547903E+01  0.10488947941E+02  0.13230045662E+02  0.00000000000E+00 0. -1.
</event>
<event>
 7    1  0.3054835E-011  0.5052886E+02  0.7816164E-02  0.1300439E+00
        -11   -1    0    0    0    0  0.00000000000E+00  0.00000000000E+00  0.45593999997E+02  0.45594000000E+02  0.51100000000E-03 0.  1.
         11   -1    0    0    0    0 -0.00000000000E+00 -0.00000000000E+00 -0.45593999997E+02  0.45594000000E+02  0.51100000000E-03 0. -1.
    9900012    2    1    2    0    0  0.10445623689E+02 -0.38940428244E+02 -0.52628519480E+01  0.50528860600E+02  0.30000002280E+02 0.  0.
         12    1    1    2    0    0 -0.10445623689E+02  0.38940428244E+02  0.52628519480E+01  0.40659139400E+02  0.00000000000E+00 0. -1.
         11    1    3    3    0    0  0.10238888602E+02 -0.37999163457E+02 -0.81157259282E+01  0.40182536889E+02  0.51100000000E-03 0. -1.
        -11    1    3    3    0    0 -0.37210493963E+01  0.20580906594E+01 -0.63225112360E+00  0.42990333235E+01  0.51100000000E-03 0.  1.
         12    1    3    3    0    0  0.39277844832E+01 -0.29993554469E+01  0.34851251038E+01  0.60472903876E+01  0.00000000000E+00 0. -1.
</event>
<event>
 7    1  0.3054835E-011  0.5052890E+02  0.7816164E-02  0.1300439E+00
        -11   -1    0    0    0    0  0.00000000000E+00  0.00000000000E+00  0.45593999997E+02  0.45594000000E+02  0.51100000000E-03 0.  1.
         11   -1    0    0    0    0 -0.00000000000E+00 -0.00000000000E+00 -0.45593999997E+02  0.45594000000E+02  0.51100000000E-03 0. -1.
    9900012    2    1    2    0    0  0.27264300288E+01 -0.16546439483E+02  0.37039764974E+02  0.50528901761E+02  0.30000127392E+02 0.  0.
         12    1    1    2    0    0 -0.27264300288E+01  0.16546439483E+02 -0.37039764974E+02  0.40659098239E+02  0.00000000000E+00 0. -1.
         11    1    3    3    0    0  0.42224435344E+00  0.36419703586E+01  0.80313625011E+01  0.88286478167E+01  0.51100000000E-03 0. -1.
        -11    1    3    3    0    0  0.10308664520E+02 -0.14772865383E+02  0.10579326568E+02  0.20890865629E+02  0.51100000000E-03 0.  1.
        -12    1    3    3    0    0 -0.80044788444E+01 -0.54155444587E+01  0.18429075905E+02  0.20809388315E+02  0.00000000000E+00 0.  1.
</event>
<event>
 7    1  0.3054835E-011  0.5052886E+02  0.7816164E-02  0.1300439E+00
        -11   -1    0    0    0    0  0.00000000000E+00  0.00000000000E+00  0.45593999997E+02  0.45594000000E+02  0.51100000000E-03 0. -1.
         11   -1    0    0    0    0 -0.00000000000E+00 -0.00000000000E+00 -0.45593999997E+02  0.45594000000E+02  0.51100000000E-03 0.  1.
    9900012    2    1    2    0    0  0.96888966389E-01  0.21014765382E+02 -0.34807127847E+02  0.50528857111E+02  0.29999991673E+02 0.  0.
         12    1    1    2    0    0 -0.96888966389E-01 -0.21014765382E+02  0.34807127847E+02  0.40659142889E+02  0.00000000000E+00 0. -1.
         11    1    3    3    0    0  0.18508068117E+01 -0.68426551514E+01 -0.32209851861E+01  0.77860234527E+01  0.51100000000E-03 0. -1.
        -11    1    3    3    0    0  0.40432476720E+00  0.12276701649E+02 -0.18872231742E+02  0.22517593412E+02  0.51100000000E-03 0.  1.
         12    1    3    3    0    0 -0.21582426125E+01  0.15580718885E+02 -0.12713910919E+02  0.20225240246E+02  0.00000000000E+00 0. -1.
</event>
<event>
 7    1  0.3054835E-011  0.5052886E+02  0.7816164E-02  0.1300439E+00
        -11   -1    0    0    0    0  0.00000000000E+00  0.00000000000E+00  0.45593999997E+02  0.45594000000E+02  0.51100000000E-03 0.  1.
         11   -1    0    0    0    0 -0.00000000000E+00 -0.00000000000E+00 -0.45593999997E+02  0.45594000000E+02  0.51100000000E-03 0. -1.
    9900012    2    1    2    0    0  0.56016724377E+01  0.28061410029E+02  0.28885014996E+02  0.50528861320E+02  0.30000004467E+02 0.  0.
         12    1    1    2    0    0 -0.56016724377E+01 -0.28061410029E+02 -0.28885014996E+02  0.40659138680E+02  0.00000000000E+00 0. -1.
         11    1    3    3    0    0  0.91800008387E+01  0.61184670637E+01  0.42043818166E+01  0.11806137443E+02  0.51100000000E-03 0. -1.
        -11    1    3    3    0    0 -0.58190081319E+01  0.94261533520E+01  0.23465722015E+02  0.25949052634E+02  0.51100000000E-03 0.  1.
        -12    1    3    3    0    0  0.22406797309E+01  0.12516789613E+02  0.12149111648E+01  0.12773671243E+02  0.00000000000E+00 0.  1.
</event>
<event>
 7    1  0.3054835E-011  0.5052885E+02  0.7816164E-02  0.1300439E+00
        -11   -1    0    0    0    0  0.00000000000E+00  0.00000000000E+00  0.45593999997E+02  0.45594000000E+02  0.51100000000E-03 0. -1.
         11   -1    0    0    0    0 -0.00000000000E+00 -0.00000000000E+00 -0.45593999997E+02  0.45594000000E+02  0.51100000000E-03 0.  1.
    9900012    2    1    2    0    0  0.39585749579E+02 -0.59148252896E+01  0.71518776631E+01  0.50528854878E+02  0.29999984887E+02 0.  0.
         12    1    1    2    0    0 -0.39585749579E+02  0.59148252896E+01 -0.71518776631E+01  0.40659145122E+02  0.00000000000E+00 0. -1.
         11    1    3    3    0    0  0.23061935242E+02  0.11029548304E+00  0.11280762470E+02  0.25673344627E+02  0.51100000000E-03 0.  1.
        -11    1    3    3    0    0  0.64907213855E+01 -0.45135663477E+01 -0.10296647657E+02  0.12981629270E+02  0.51100000000E-03 0. -1.
         12    1    3    3    0    0  0.10033092952E+02 -0.15115544249E+01  0.61677628502E+01  0.11873880980E+02  0.00000000000E+00 0. -1.
</event>
<event>
 7    1  0.3054835E-011  0.5052886E+02  0.7816164E-02  0.1300439E+00
        -11   -1    0    0    0    0  0.00000000000E+00  0.00000000000E+00  0.45593999997E+02  0.45594000000E+02  0.51100000000E-03 0. -1.
         11   -1    0    0    0    0 -0.00000000000E+00 -0.00000000000E+00 -0.45593999997E+02  0.45594000000E+02  0.51100000000E-03 0.  1.
    9900012    2    1    2    0    0  0.99949435707E+01  0.32889100851E+02 -0.21715749469E+02  0.50528860477E+02  0.30000001906E+02 0.  0.
         12    1    1    2    0    0 -0.99949435707E+01 -0.32889100851E+02  0.21715749469E+02  0.40659139523E+02  0.00000000000E+00 0. -1.
         11    1    3    3    0    0  0.39672916806E+01  0.88899181086E+01  0.56166123207E+01  0.11239056076E+02  0.51100000000E-03 0. -1.
        -11    1    3    3    0    0  0.81308499184E+01  0.21531719288E+02 -0.17432163689E+02  0.28872235574E+02  0.51100000000E-03 0.  1.
         12    1    3    3    0    0 -0.21031980282E+01  0.24674634542E+01 -0.99001981002E+01  0.10417568827E+02  0.00000000000E+00 0. -1.
</event>
<event>
 7    1  0.3054835E-011  0.5052883E+02  0.7816164E-02  0.1300439E+00
        -11   -1    0    0    0    0  0.00000000000E+00  0.00000000000E+00  0.45593999997E+02  0.45594000000E+02  0.51100000000E-03 0.  1.
         11   -1    0    0    0    0 -0.00000000000E+00 -0.00000000000E+00 -0.45593999997E+02  0.45594000000E+02  0.51100000000E-03 0. -1.
    9900012    2    1    2    0    0  0.94984004554E+01  0.31573085857E+02  0.23792612988E+02  0.50528833819E+02  0.29999920875E+02 0.  0.
         12    1    1    2    0    0 -0.94984004554E+01 -0.31573085857E+02 -0.23792612988E+02  0.40659166181E+02  0.00000000000E+00 0. -1.
         11    1    3    3    0    0  0.16222313637E+02  0.13208765058E+02  0.28345193371E+01  0.21110884260E+02  0.51100000000E-03 0. -1.
        -11    1    3    3    0    0 -0.79988917638E+00  0.67027293579E+01  0.35007252104E+01  0.76040437136E+01  0.51100000000E-03 0.  1.
         12    1    3    3    0    0 -0.59240240049E+01  0.11661591441E+02  0.17457368441E+02  0.21813905845E+02  0.00000000000E+00 0. -1.
</event>
<event>
 7    1  0.3054835E-011  0.5052886E+02  0.7816164E-02  0.1300439E+00
        -11   -1    0    0    0    0  0.00000000000E+00  0.00000000000E+00  0.45593999997E+02  0.45594000000E+02  0.51100000000E-03 0. -1.
         11   -1    0    0    0    0 -0.00000000000E+00 -0.00000000000E+00 -0.45593999997E+02  0.45594000000E+02  0.51100000000E-03 0.  1.
    9900012    2    1    2    0    0 -0.18305002821E+02  0.36210709931E+02 -0.26224245184E+01  0.50528858933E+02  0.29999997212E+02 0.  0.
         12    1    1    2    0    0  0.18305002821E+02 -0.36210709931E+02  0.26224245184E+01  0.40659141067E+02  0.00000000000E+00 0. -1.
         11    1    3    3    0    0  0.28578634633E+01 -0.12059316205E+01 -0.21032545638E+01  0.37477105904E+01  0.51100000000E-03 0. -1.
        -11    1    3    3    0    0 -0.21049482293E+02  0.20322176696E+02  0.27101953262E+01  0.29383953604E+02  0.51100000000E-03 0.  1.
        -12    1    3    3    0    0 -0.11338399117E+00  0.17094464856E+02 -0.32293652808E+01  0.17397194738E+02  0.00000000000E+00 0.  1.
</event>
<event>
 7    1  0.3054835E-011  0.5052887E+02  0.7816164E-02  0.1300439E+00
        -11   -1    0    0    0    0  0.00000000000E+00  0.00000000000E+00  0.45593999997E+02  0.45594000000E+02  0.51100000000E-03 0.  1.
         11   -1    0    0    0    0 -0.00000000000E+00 -0.00000000000E+00 -0.45593999997E+02  0.45594000000E+02  0.51100000000E-03 0. -1.
    9900012    2    1    2    0    0 -0.18446094453E+02  0.23511680138E+02  0.27570050259E+02  0.50528866035E+02  0.30000018800E+02 0.  0.
         12    1    1    2    0    0  0.18446094453E+02 -0.23511680138E+02 -0.27570050259E+02  0.40659133965E+02  0.00000000000E+00 0. -1.
         11    1    3    3    0    0 -0.71232181584E+01  0.32781337718E+01 -0.46933826806E+01  0.91386125428E+01  0.51100000000E-03 0. -1.
        -11    1    3    3    0    0 -0.59538062673E+01  0.19628344533E+02  0.24999852001E+02  0.32337475450E+02  0.51100000000E-03 0.  1.
         12    1    3    3    0    0 -0.53690700275E+01  0.60520183304E+00  0.72635809389E+01  0.90527780419E+01  0.00000000000E+00 0. -1.
</event>
<event>
 7    1  0.3054835E-011  0.5052886E+02  0.7816164E-02  0.1300439E+00
        -11   -1    0    0    0    0  0.00000000000E+00  0.00000000000E+00  0.45593999997E+02  0.45594000000E+02  0.51100000000E-03 0.  1.
         11   -1    0    0    0    0 -0.00000000000E+00 -0.00000000000E+00 -0.45593999997E+02  0.45594000000E+02  0.51100000000E-03 0. -1.
    9900012    2    1    2    0    0  0.16684888103E+02 -0.17161736147E+02  0.32867231890E+02  0.50528860675E+02  0.30000002506E+02 0.  0.
         12    1    1    2    0    0 -0.16684888103E+02  0.17161736147E+02 -0.32867231890E+02  0.40659139325E+02  0.00000000000E+00 0. -1.
         11    1    3    3    0    0 -0.22988359180E+01  0.62308563820E+01  0.23010739473E+01  0.70287381089E+01  0.51100000000E-03 0. -1.
        -11    1    3    3    0    0  0.30490577791E+01 -0.87046808751E+01  0.79451141332E+01  0.12173457246E+02  0.51100000000E-03 0.  1.
         12    1    3    3    0    0  0.15934666242E+02 -0.14687911654E+02  0.22621043809E+02  0.31326665319E+02  0.00000000000E+00 0. -1.
</event>
<event>
 7    1  0.3054835E-011  0.5052886E+02  0.7816164E-02  0.1300439E+00
        -11   -1    0    0    0    0  0.00000000000E+00  0.00000000000E+00  0.45593999997E+02  0.45594000000E+02  0.51100000000E-03 0.  1.
         11   -1    0    0    0    0 -0.00000000000E+00 -0.00000000000E+00 -0.45593999997E+02  0.45594000000E+02  0.51100000000E-03 0. -1.
    9900012    2    1    2    0    0  0.12491007000E+02 -0.65456309298E+01  0.38135218002E+02  0.50528863361E+02  0.30000010672E+02 0.  0.
         12    1    1    2    0    0 -0.12491007000E+02  0.65456309298E+01 -0.38135218002E+02  0.40659136639E+02  0.00000000000E+00 0. -1.
         11    1    3    3    0    0 -0.61284037607E+00  0.10352414633E+02  0.16499726935E+02  0.19488177217E+02  0.51100000000E-03 0. -1.
        -11    1    3    3    0    0  0.13776225109E+01 -0.51393321652E+01  0.31155934321E+01  0.61658334054E+01  0.51100000000E-03 0.  1.
         12    1    3    3    0    0  0.11726224865E+02 -0.11758713397E+02  0.18519897635E+02  0.24874852739E+02  0.00000000000E+00 0. -1.
</event>
<event>
 7    1  0.3054835E-011  0.5052887E+02  0.7816164E-02  0.1300439E+00
        -11   -1    0    0    0    0  0.00000000000E+00  0.00000000000E+00  0.45593999997E+02  0.45594000000E+02  0.51100000000E-03 0. -1.
         11   -1    0    0    0    0 -0.00000000000E+00 -0.00000000000E+00 -0.45593999997E+02  0.45594000000E+02  0.51100000000E-03 0.  1.
    9900012    2    1    2    0    0  0.38671253707E+02  0.72513487616E+01 -0.10252656838E+02  0.50528869483E+02  0.30000029281E+02 0.  0.
         12    1    1    2    0    0 -0.38671253707E+02 -0.72513487616E+01  0.10252656838E+02  0.40659130517E+02  0.00000000000E+00 0. -1.
         11    1    3    3    0    0  0.86166085256E+01 -0.65363326391E+01 -0.86160879575E+01  0.13827745977E+02  0.51100000000E-03 0. -1.
        -11    1    3    3    0    0  0.26138231808E+02  0.15802197108E+02 -0.52658221974E+01  0.30994281395E+02  0.51100000000E-03 0.  1.
         12    1    3    3    0    0  0.39164133732E+01 -0.20145157072E+01  0.36292533173E+01  0.57068421115E+01  0.00000000000E+00 0. -1.
</event>
<event>
 7    1  0.3054835E-011  0.5052887E+02  0.7816164E-02  0.1300439E+00
        -11   -1    0    0    0    0  0.00000000000E+00  0.00000000000E+00  0.45593999997E+02  0.45594000000E+02  0.51100000000E-03 0.  1.
         11   -1    0    0    0    0 -0.00000000000E+00 -0.00000000000E+00 -0.45593999997E+02  0.45594000000E+02  0.51100000000E-03 0. -1.
    9900012    2    1    2    0    0  0.23844223864E+02 -0.32504785040E+02  0.52968580251E+01  0.50528871048E+02  0.30000034038E+02 0.  0.
         12    1    1    2    0    0 -0.23844223864E+02  0.32504785040E+02 -0.52968580251E+01  0.40659128952E+02  0.00000000000E+00 0. -1.
         11    1    3    3    0    0  0.72336959513E+01 -0.30237909144E+00 -0.61105151385E+01  0.94739741265E+01  0.51100000000E-03 0. -1.
        -11    1    3    3    0    0  0.15402277543E+01 -0.18943818848E+02  0.27867264491E+01  0.19209539782E+02  0.51100000000E-03 0.  1.
         12    1    3    3    0    0  0.15070300158E+02 -0.13258587101E+02  0.86206467146E+01  0.21845357140E+02  0.00000000000E+00 0. -1.
</event>
<event>
 7    1  0.3054835E-011  0.5052886E+02  0.7816164E-02  0.1300439E+00
        -11   -1    0    0    0    0  0.00000000000E+00  0.00000000000E+00  0.45593999997E+02  0.45594000000E+02  0.51100000000E-03 0.  1.
         11   -1    0    0    0    0 -0.00000000000E+00 -0.00000000000E+00 -0.45593999997E+02  0.45594000000E+02  0.51100000000E-03 0. -1.
    9900012    2    1    2    0    0 -0.76527090116E+01  0.16966903950E+02  0.36148666125E+02  0.50528857762E+02  0.29999993655E+02 0.  0.
         12    1    1    2    0    0  0.76527090116E+01 -0.16966903950E+02 -0.36148666125E+02  0.40659142238E+02  0.00000000000E+00 0. -1.
         11    1    3    3    0    0 -0.31828669668E+01 -0.42672902206E+00 -0.13424600596E+01  0.34806521026E+01  0.51100000000E-03 0. -1.
        -11    1    3    3    0    0 -0.53262179811E+01  0.22497520452E+02  0.28783929493E+02  0.36919122711E+02  0.51100000000E-03 0.  1.
        -12    1    3    3    0    0  0.85637593637E+00 -0.51038874796E+01  0.87071966917E+01  0.10129082948E+02  0.00000000000E+00 0.  1.
</event>
<event>
 7    1  0.3054835E-011  0.5052887E+02  0.7816164E-02  0.1300439E+00
        -11   -1    0    0    0    0  0.00000000000E+00  0.00000000000E+00  0.45593999997E+02  0.45594000000E+02  0.51100000000E-03 0.  1.
         11   -1    0    0    0    0 -0.00000000000E+00 -0.00000000000E+00 -0.45593999997E+02  0.45594000000E+02  0.51100000000E-03 0. -1.
    9900012    2    1    2    0    0  0.68999456314E+01 -0.39543713329E+02  0.64691531287E+01  0.50528874877E+02  0.30000045677E+02 0.  0.
         12    1    1    2    0    0 -0.68999456314E+01  0.39543713329E+02 -0.64691531287E+01  0.40659125123E+02  0.00000000000E+00 0. -1.
         11    1    3    3    0    0  0.56801426679E+01 -0.13621974606E+02 -0.94807475655E+01  0.17541573121E+02  0.51100000000E-03 0. -1.
        -11    1    3    3    0    0  0.50678657641E+01 -0.35841956619E+01  0.35500906226E+01  0.71507248328E+01  0.51100000000E-03 0.  1.
         12    1    3    3    0    0 -0.38480628006E+01 -0.22337543061E+02  0.12399810072E+02  0.25836576924E+02  0.00000000000E+00 0. -1.
</event>
<event>
 7    1  0.3054835E-011  0.5052887E+02  0.7816164E-02  0.1300439E+00
        -11   -1    0    0    0    0  0.00000000000E+00  0.00000000000E+00  0.45593999997E+02  0.45594000000E+02  0.51100000000E-03 0.  1.
         11   -1    0    0    0    0 -0.00000000000E+00 -0.00000000000E+00 -0.45593999997E+02  0.45594000000E+02  0.51100000000E-03 0. -1.
    9900012    2    1    2    0    0 -0.19663262552E+02  0.94186194659E+01  0.34319239737E+02  0.50528874297E+02  0.30000043912E+02 0.  0.
         12    1    1    2    0    0  0.19663262552E+02 -0.94186194659E+01 -0.34319239737E+02  0.40659125703E+02  0.00000000000E+00 0. -1.
         11    1    3    3    0    0  0.36044334605E+01 -0.20083864555E+00  0.12842942679E+02  0.13340669160E+02  0.51100000000E-03 0. -1.
        -11    1    3    3    0    0 -0.22440056674E+02  0.35956345961E+01  0.21234674064E+02  0.31102992052E+02  0.51100000000E-03 0.  1.
        -12    1    3    3    0    0 -0.82763933750E+00  0.60238235154E+01  0.24162299485E+00  0.60852130850E+01  0.00000000000E+00 0.  1.
</event>
<event>
 7    1  0.3054835E-011  0.5052888E+02  0.7816164E-02  0.1300439E+00
        -11   -1    0    0    0    0  0.00000000000E+00  0.00000000000E+00  0.45593999997E+02  0.45594000000E+02  0.51100000000E-03 0.  1.
         11   -1    0    0    0    0 -0.00000000000E+00 -0.00000000000E+00 -0.45593999997E+02  0.45594000000E+02  0.51100000000E-03 0. -1.
    9900012    2    1    2    0    0  0.14801881251E+02  0.23391591063E+01  0.37796782625E+02  0.50528878875E+02  0.30000057827E+02 0.  0.
         12    1    1    2    0    0 -0.14801881251E+02 -0.23391591063E+01 -0.37796782625E+02  0.40659121125E+02  0.00000000000E+00 0. -1.
         11    1    3    3    0    0 -0.25849649255E+01  0.49018294016E+01  0.14440293650E+02  0.15467128244E+02  0.51100000000E-03 0. -1.
        -11    1    3    3    0    0  0.20037388685E+02  0.23182517559E+01  0.20708316045E+02  0.28908572953E+02  0.51100000000E-03 0.  1.
        -12    1    3    3    0    0 -0.26505425088E+01 -0.48809220512E+01  0.26481729300E+01  0.61531776772E+01  0.00000000000E+00 0.  1.
</event>
<event>
 7    1  0.3054835E-011  0.5052885E+02  0.7816164E-02  0.1300439E+00
        -11   -1    0    0    0    0  0.00000000000E+00  0.00000000000E+00  0.45593999997E+02  0.45594000000E+02  0.51100000000E-03 0.  1.
         11   -1    0    0    0    0 -0.00000000000E+00 -0.00000000000E+00 -0.45593999997E+02  0.45594000000E+02  0.51100000000E-03 0. -1.
    9900012    2    1    2    0    0  0.93402772362E+01 -0.18411554905E+02  0.35027705135E+02  0.50528852691E+02  0.29999978240E+02 0.  0.
         12    1    1    2    0    0 -0.93402772362E+01  0.18411554905E+02 -0.35027705135E+02  0.40659147309E+02  0.00000000000E+00 0. -1.
         11    1    3    3    0    0  0.11261822297E+02 -0.12865441034E+02  0.11940851310E+02  0.20855026845E+02  0.51100000000E-03 0. -1.
        -11    1    3    3    0    0  0.26261209123E+01 -0.73941379344E+01  0.23473067103E+02  0.24749841744E+02  0.51100000000E-03 0.  1.
         12    1    3    3    0    0 -0.45476659730E+01  0.18480240638E+01 -0.38621327837E+00  0.49239841022E+01  0.00000000000E+00 0. -1.
</event>
<event>
 7    1  0.3054835E-011  0.5052888E+02  0.7816164E-02  0.1300439E+00
        -11   -1    0    0    0    0  0.00000000000E+00  0.00000000000E+00  0.45593999997E+02  0.45594000000E+02  0.51100000000E-03 0.  1.
         11   -1    0    0    0    0 -0.00000000000E+00 -0.00000000000E+00 -0.45593999997E+02  0.45594000000E+02  0.51100000000E-03 0. -1.
    9900012    2    1    2    0    0  0.58838736015E+01  0.27511759801E+02  0.29353828458E+02  0.50528878747E+02  0.30000057440E+02 0.  0.
         12    1    1    2    0    0 -0.58838736015E+01 -0.27511759801E+02 -0.29353828458E+02  0.40659121253E+02  0.00000000000E+00 0. -1.
         11    1    3    3    0    0  0.61306588552E+01 -0.43425051278E+01  0.10502882096E+02  0.12913282362E+02  0.51100000000E-03 0. -1.
        -11    1    3    3    0    0  0.17592147209E+01  0.27430034986E+02  0.14413993789E+02  0.31036508711E+02  0.51100000000E-03 0.  1.
        -12    1    3    3    0    0 -0.20059999746E+01  0.44242299425E+01  0.44369525741E+01  0.65790876743E+01  0.00000000000E+00 0.  1.
</event>
<event>
 7    1  0.3054835E-011  0.5052885E+02  0.7816164E-02  0.1300439E+00
        -11   -1    0    0    0    0  0.00000000000E+00  0.00000000000E+00  0.45593999997E+02  0.45594000000E+02  0.51100000000E-03 0.  1.
         11   -1    0    0    0    0 -0.00000000000E+00 -0.00000000000E+00 -0.45593999997E+02  0.45594000000E+02  0.51100000000E-03 0. -1.
    9900012    2    1    2    0    0 -0.13350919160E+02 -0.32153520867E+02 -0.21001674412E+02  0.50528852509E+02  0.29999977687E+02 0.  0.
         12    1    1    2    0    0  0.13350919160E+02  0.32153520867E+02  0.21001674412E+02  0.40659147491E+02  0.00000000000E+00 0. -1.
         11    1    3    3    0    0 -0.55183982255E+01 -0.81357732896E+00 -0.91110461964E+01  0.10682967289E+02  0.51100000000E-03 0. -1.
        -11    1    3    3    0    0 -0.11342603794E+02 -0.23448318334E+02 -0.11631814672E+01  0.26073574455E+02  0.51100000000E-03 0.  1.
        -12    1    3    3    0    0  0.35100828595E+01 -0.78916252047E+01 -0.10727446749E+02  0.13772310765E+02  0.00000000000E+00 0.  1.
</event>
<event>
 7    1  0.3054835E-011  0.5052884E+02  0.7816164E-02  0.1300439E+00
        -11   -1    0    0    0    0  0.00000000000E+00  0.00000000000E+00  0.45593999997E+02  0.45594000000E+02  0.51100000000E-03 0.  1.
         11   -1    0    0    0    0 -0.00000000000E+00 -0.00000000000E+00 -0.45593999997E+02  0.45594000000E+02  0.51100000000E-03 0. -1.
    9900012    2    1    2    0    0 -0.17711548485E+02  0.30128555119E+02  0.20778314558E+02  0.50528841878E+02  0.29999945372E+02 0.  0.
         12    1    1    2    0    0  0.17711548485E+02 -0.30128555119E+02 -0.20778314558E+02  0.40659158122E+02  0.00000000000E+00 0. -1.
         11    1    3    3    0    0  0.17530698768E+01 -0.36892648733E+01  0.42281636759E+01  0.58788857473E+01  0.51100000000E-03 0. -1.
        -11    1    3    3    0    0 -0.11540728430E+02  0.22742627501E+02  0.17607629262E+02  0.30991033007E+02  0.51100000000E-03 0.  1.
         12    1    3    3    0    0 -0.79238899314E+01  0.11075192492E+02 -0.10574783797E+01  0.13658923124E+02  0.00000000000E+00 0. -1.
</event>
<event>
 7    1  0.3054835E-011  0.5052887E+02  0.7816164E-02  0.1300439E+00
        -11   -1    0    0    0    0  0.00000000000E+00  0.00000000000E+00  0.45593999997E+02  0.45594000000E+02  0.51100000000E-03 0.  1.
         11   -1    0    0    0    0 -0.00000000000E+00 -0.00000000000E+00 -0.45593999997E+02  0.45594000000E+02  0.51100000000E-03 0. -1.
    9900012    2    1    2    0    0 -0.20882789485E+02 -0.24132374769E+02  0.25193296895E+02  0.50528872893E+02  0.30000039645E+02 0.  0.
         12    1    1    2    0    0  0.20882789485E+02  0.24132374769E+02 -0.25193296895E+02  0.40659127107E+02  0.00000000000E+00 0. -1.
         11    1    3    3    0    0 -0.46764605828E+01 -0.39288542908E+00  0.81405438386E+01  0.93963874330E+01  0.51100000000E-03 0. -1.
        -11    1    3    3    0    0 -0.70562006500E+01 -0.23564652557E+02  0.19799983613E+02  0.31577241315E+02  0.51100000000E-03 0.  1.
        -12    1    3    3    0    0 -0.91501282524E+01 -0.17483678298E+00 -0.27472305560E+01  0.95552441446E+01  0.00000000000E+00 0.  1.
</event>
<event>
 7    1  0.3054835E-011  0.5052886E+02  0.7816164E-02  0.1300439E+00
        -11   -1    0    0    0    0  0.00000000000E+00  0.00000000000E+00  0.45593999997E+02  0.45594000000E+02  0.51100000000E-03 0.  1.
         11   -1    0    0    0    0 -0.00000000000E+00 -0.00000000000E+00 -0.45593999997E+02  0.45594000000E+02  0.51100000000E-03 0. -1.
    9900012    2    1    2    0    0  0.23424452428E+02 -0.14515892745E+02  0.29895637690E+02  0.50528864906E+02  0.30000015368E+02 0.  0.
         12    1    1    2    0    0 -0.23424452428E+02  0.14515892745E+02 -0.29895637690E+02  0.40659135094E+02  0.00000000000E+00 0. -1.
         11    1    3    3    0    0  0.18462711395E+02 -0.81839986347E+01  0.12720946160E+02  0.23867802940E+02  0.51100000000E-03 0. -1.
        -11    1    3    3    0    0 -0.42565699801E+01 -0.19810214257E+01 -0.18750109039E+01  0.50555415175E+01  0.51100000000E-03 0.  1.
        -12    1    3    3    0    0  0.92183110129E+01 -0.43508726845E+01  0.19049702433E+02  0.21605520448E+02  0.00000000000E+00 0.  1.
</event>
<event>
 7    1  0.3054835E-011  0.5052887E+02  0.7816164E-02  0.1300439E+00
        -11   -1    0    0    0    0  0.00000000000E+00  0.00000000000E+00  0.45593999997E+02  0.45594000000E+02  0.51100000000E-03 0. -1.
         11   -1    0    0    0    0 -0.00000000000E+00 -0.00000000000E+00 -0.45593999997E+02  0.45594000000E+02  0.51100000000E-03 0.  1.
    9900012    2    1    2    0    0  0.29587984602E+01  0.29063480875E+02 -0.28279402019E+02  0.50528868339E+02  0.30000025803E+02 0.  0.
         12    1    1    2    0    0 -0.29587984602E+01 -0.29063480875E+02  0.28279402019E+02  0.40659131661E+02  0.00000000000E+00 0. -1.
         11    1    3    3    0    0 -0.53720031498E+01  0.48137328215E+01  0.35345802359E+01  0.80326645158E+01  0.51100000000E-03 0. -1.
        -11    1    3    3    0    0  0.41914324304E+00  0.12130096173E+02 -0.21617393451E+02  0.24791664206E+02  0.51100000000E-03 0.  1.
         12    1    3    3    0    0  0.79116583669E+01  0.12119651880E+02 -0.10196588804E+02  0.17704539617E+02  0.00000000000E+00 0. -1.
</event>
<event>
 7    1  0.3054835E-011  0.5052884E+02  0.7816164E-02  0.1300439E+00
        -11   -1    0    0    0    0  0.00000000000E+00  0.00000000000E+00  0.45593999997E+02  0.45594000000E+02  0.51100000000E-03 0.  1.
         11   -1    0    0    0    0 -0.00000000000E+00 -0.00000000000E+00 -0.45593999997E+02  0.45594000000E+02  0.51100000000E-03 0. -1.
    9900012    2    1    2    0    0 -0.15891759845E+02  0.25864095474E+02  0.27049351575E+02  0.50528844988E+02  0.29999954825E+02 0.  0.
         12    1    1    2    0    0  0.15891759845E+02 -0.25864095474E+02 -0.27049351575E+02  0.40659155012E+02  0.00000000000E+00 0. -1.
         11    1    3    3    0    0 -0.13754885237E+00 -0.34822365578E+01 -0.83710255128E+00  0.35840803665E+01  0.51100000000E-03 0. -1.
        -11    1    3    3    0    0 -0.92433827659E+00  0.20137859783E+02  0.12858374750E+02  0.23910784164E+02  0.51100000000E-03 0.  1.
         12    1    3    3    0    0 -0.14829872716E+02  0.92084722489E+01  0.15028079377E+02  0.23033980457E+02  0.00000000000E+00 0. -1.
</event>
<event>
 7    1  0.3054835E-011  0.5052885E+02  0.7816164E-02  0.1300439E+00
        -11   -1    0    0    0    0  0.00000000000E+00  0.00000000000E+00  0.45593999997E+02  0.45594000000E+02  0.51100000000E-03 0.  1.
         11   -1    0    0    0    0 -0.00000000000E+00 -0.00000000000E+00 -0.45593999997E+02  0.45594000000E+02  0.51100000000E-03 0. -1.
    9900012    2    1    2    0    0 -0.25910618775E+02 -0.30267905454E+02  0.81030916693E+01  0.50528851455E+02  0.29999974482E+02 0.  0.
         12    1    1    2    0    0  0.25910618775E+02  0.30267905454E+02 -0.81030916693E+01  0.40659148545E+02  0.00000000000E+00 0. -1.
         11    1    3    3    0    0 -0.20932849908E+02 -0.84258536160E+01  0.68373573841E+01  0.23578139678E+02  0.51100000000E-03 0.  1.
        -11    1    3    3    0    0 -0.74065654533E+01 -0.20666827937E+02 -0.27365868295E+01  0.22123830964E+02  0.51100000000E-03 0. -1.
        -12    1    3    3    0    0  0.24287965866E+01 -0.11752239009E+01  0.40023211147E+01  0.48268808128E+01  0.00000000000E+00 0.  1.
</event>
<event>
 7    1  0.3054835E-011  0.5052886E+02  0.7816164E-02  0.1300439E+00
        -11   -1    0    0    0    0  0.00000000000E+00  0.00000000000E+00  0.45593999997E+02  0.45594000000E+02  0.51100000000E-03 0.  1.
         11   -1    0    0    0    0 -0.00000000000E+00 -0.00000000000E+00 -0.45593999997E+02  0.45594000000E+02  0.51100000000E-03 0. -1.
    9900012    2    1    2    0    0 -0.28696042578E+02 -0.28783381465E+02  0.11043957913E+01  0.50528860827E+02  0.30000002971E+02 0.  0.
         12    1    1    2    0    0  0.28696042578E+02  0.28783381465E+02 -0.11043957913E+01  0.40659139173E+02  0.00000000000E+00 0. -1.
         11    1    3    3    0    0 -0.14394922548E+02 -0.10086430574E+02  0.50240991650E+01  0.18280903959E+02  0.51100000000E-03 0.  1.
        -11    1    3    3    0    0 -0.10380334027E+02 -0.23545024686E+02 -0.38074998683E+01  0.26011854557E+02  0.51100000000E-03 0. -1.
        -12    1    3    3    0    0 -0.39207860035E+01  0.48480737954E+01 -0.11220350542E+00  0.62361023114E+01  0.00000000000E+00 0.  1.
</event>
<event>
 7    1  0.3054835E-011  0.5052886E+02  0.7816164E-02  0.1300439E+00
        -11   -1    0    0    0    0  0.00000000000E+00  0.00000000000E+00  0.45593999997E+02  0.45594000000E+02  0.51100000000E-03 0. -1.
         11   -1    0    0    0    0 -0.00000000000E+00 -0.00000000000E+00 -0.45593999997E+02  0.45594000000E+02  0.51100000000E-03 0.  1.
    9900012    2    1    2    0    0  0.15733904955E+02 -0.33105451165E+02 -0.17596560683E+02  0.50528860685E+02  0.30000002539E+02 0.  0.
         12    1    1    2    0    0 -0.15733904955E+02  0.33105451165E+02  0.17596560683E+02  0.40659139315E+02  0.00000000000E+00 0. -1.
         11    1    3    3    0    0  0.12974156540E+02 -0.27455312965E+01 -0.21142124499E+01  0.13428945400E+02  0.51100000000E-03 0. -1.
        -11    1    3    3    0    0  0.70887571207E+01 -0.24056958329E+02 -0.15443942492E+02  0.29453405262E+02  0.51100000000E-03 0.  1.
        -12    1    3    3    0    0 -0.43290087053E+01 -0.63029615391E+01 -0.38405740674E-01  0.76465100231E+01  0.00000000000E+00 0.  1.
</event>
<event>
 7    1  0.3054835E-011  0.5052882E+02  0.7816164E-02  0.1300439E+00
        -11   -1    0    0    0    0  0.00000000000E+00  0.00000000000E+00  0.45593999997E+02  0.45594000000E+02  0.51100000000E-03 0.  1.
         11   -1    0    0    0    0 -0.00000000000E+00 -0.00000000000E+00 -0.45593999997E+02  0.45594000000E+02  0.51100000000E-03 0. -1.
    9900012    2    1    2    0    0  0.52539826535E+01  0.13084139669E+02  0.38136198197E+02  0.50528823206E+02  0.29999888617E+02 0.  0.
         12    1    1    2    0    0 -0.52539826535E+01 -0.13084139669E+02 -0.38136198197E+02  0.40659176794E+02  0.00000000000E+00 0. -1.
         11    1    3    3    0    0  0.12472311240E+01  0.37360217810E+01 -0.37210601572E+01  0.54184622523E+01  0.51100000000E-03 0. -1.
        -11    1    3    3    0    0  0.50494057607E+01  0.41400879771E+01  0.37972764115E+02  0.38530087487E+02  0.51100000000E-03 0.  1.
        -12    1    3    3    0    0 -0.10426542312E+01  0.52080299107E+01  0.38844942399E+01  0.65802734667E+01  0.00000000000E+00 0.  1.
</event>
<event>
 7    1  0.3054835E-011  0.5052888E+02  0.7816164E-02  0.1300439E+00
        -11   -1    0    0    0    0  0.00000000000E+00  0.00000000000E+00  0.45593999997E+02  0.45594000000E+02  0.51100000000E-03 0.  1.
         11   -1    0    0    0    0 -0.00000000000E+00 -0.00000000000E+00 -0.45593999997E+02  0.45594000000E+02  0.51100000000E-03 0. -1.
    9900012    2    1    2    0    0  0.12153946928E+02  0.76806520930E+01  0.38032267837E+02  0.50528877539E+02  0.30000053767E+02 0.  0.
         12    1    1    2    0    0 -0.12153946928E+02 -0.76806520930E+01 -0.38032267837E+02  0.40659122461E+02  0.00000000000E+00 0. -1.
         11    1    3    3    0    0  0.47281615277E+01 -0.82157106109E+01  0.94273656020E+01  0.13368942917E+02  0.51100000000E-03 0. -1.
        -11    1    3    3    0    0  0.10270295296E+02  0.65133518962E+01  0.86424101967E+01  0.14919583528E+02  0.51100000000E-03 0.  1.
         12    1    3    3    0    0 -0.28445098962E+01  0.93830108077E+01  0.19962492038E+02  0.22240351093E+02  0.00000000000E+00 0. -1.
</event>
<event>
 7    1  0.3054835E-011  0.5052889E+02  0.7816164E-02  0.1300439E+00
        -11   -1    0    0    0    0  0.00000000000E+00  0.00000000000E+00  0.45593999997E+02  0.45594000000E+02  0.51100000000E-03 0.  1.
         11   -1    0    0    0    0 -0.00000000000E+00 -0.00000000000E+00 -0.45593999997E+02  0.45594000000E+02  0.51100000000E-03 0. -1.
    9900012    2    1    2    0    0  0.22235902310E+02  0.24989690308E+02  0.23113694121E+02  0.50528894880E+02  0.30000106478E+02 0.  0.
         12    1    1    2    0    0 -0.22235902310E+02 -0.24989690308E+02 -0.23113694121E+02  0.40659105120E+02  0.00000000000E+00 0. -1.
         11    1    3    3    0    0  0.13582399907E+02  0.15558722415E+01  0.11627320490E+02  0.17947058469E+02  0.51100000000E-03 0. -1.
        -11    1    3    3    0    0  0.63833045982E+01  0.24957440070E+02  0.13595937972E+02  0.29128507034E+02  0.51100000000E-03 0.  1.
         12    1    3    3    0    0  0.22701978049E+01 -0.15236220037E+01 -0.21095643404E+01  0.34533293775E+01  0.00000000000E+00 0. -1.
</event>
<event>
 7    1  0.3054835E-011  0.5052886E+02  0.7816164E-02  0.1300439E+00
        -11   -1    0    0    0    0  0.00000000000E+00  0.00000000000E+00  0.45593999997E+02  0.45594000000E+02  0.51100000000E-03 0.  1.
         11   -1    0    0    0    0 -0.00000000000E+00 -0.00000000000E+00 -0.45593999997E+02  0.45594000000E+02  0.51100000000E-03 0. -1.
    9900012    2    1    2    0    0 -0.10847368397E+02 -0.32766491223E+02  0.21490863138E+02  0.50528861462E+02  0.30000004901E+02 0.  0.
         12    1    1    2    0    0  0.10847368397E+02  0.32766491223E+02 -0.21490863138E+02  0.40659138538E+02  0.00000000000E+00 0. -1.
         11    1    3    3    0    0  0.73270848613E-01  0.20318099459E+01 -0.40244550914E+01  0.45088645263E+01  0.51100000000E-03 0. -1.
        -11    1    3    3    0    0 -0.64146371002E+01 -0.26581306189E+02  0.24278786230E+02  0.36567374378E+02  0.51100000000E-03 0.  1.
         12    1    3    3    0    0 -0.45060021459E+01 -0.82169949801E+01  0.12365319997E+01  0.94526225582E+01  0.00000000000E+00 0. -1.
</event>
<event>
 7    1  0.3054835E-011  0.5052885E+02  0.7816164E-02  0.1300439E+00
        -11   -1    0    0    0    0  0.00000000000E+00  0.00000000000E+00  0.45593999997E+02  0.45594000000E+02  0.51100000000E-03 0.  1.
         11   -1    0    0    0    0 -0.00000000000E+00 -0.00000000000E+00 -0.45593999997E+02  0.45594000000E+02  0.51100000000E-03 0. -1.
    9900012    2    1    2    0    0  0.40170532716E+02 -0.18335118021E+01 -0.60110836410E+01  0.50528848622E+02  0.29999965872E+02 0.  0.
         12    1    1    2    0    0 -0.40170532716E+02  0.18335118021E+01  0.60110836410E+01  0.40659151378E+02  0.00000000000E+00 0. -1.
         11    1    3    3    0    0  0.15087467568E+02  0.12028818754E+02 -0.39767521728E+01  0.19701236416E+02  0.51100000000E-03 0. -1.
        -11    1    3    3    0    0  0.13108034617E+02 -0.12727369299E+02 -0.38246937682E+01  0.18666407888E+02  0.51100000000E-03 0.  1.
        -12    1    3    3    0    0  0.11975030532E+02 -0.11349612572E+01  0.17903623001E+01  0.12161204318E+02  0.00000000000E+00 0.  1.
</event>
<event>
 7    1  0.3054835E-011  0.5052886E+02  0.7816164E-02  0.1300439E+00
        -11   -1    0    0    0    0  0.00000000000E+00  0.00000000000E+00  0.45593999997E+02  0.45594000000E+02  0.51100000000E-03 0. -1.
         11   -1    0    0    0    0 -0.00000000000E+00 -0.00000000000E+00 -0.45593999997E+02  0.45594000000E+02  0.51100000000E-03 0.  1.
    9900012    2    1    2    0    0  0.37511605229E+02  0.19440781015E+00 -0.15684617457E+02  0.50528861470E+02  0.30000004923E+02 0.  0.
         12    1    1    2    0    0 -0.37511605229E+02 -0.19440781015E+00  0.15684617457E+02  0.40659138530E+02  0.00000000000E+00 0. -1.
         11    1    3    3    0    0  0.11655528711E+02 -0.11066488684E+01  0.67371094239E+01  0.13507948212E+02  0.51100000000E-03 0. -1.
        -11    1    3    3    0    0  0.14169978060E+02 -0.26921966799E+01 -0.19630876061E+02  0.24359956822E+02  0.51100000000E-03 0.  1.
        -12    1    3    3    0    0  0.11686098458E+02  0.39932533585E+01 -0.27908508197E+01  0.12660956435E+02  0.00000000000E+00 0.  1.
</event>
<event>
 7    1  0.3054835E-011  0.5052890E+02  0.7816164E-02  0.1300439E+00
        -11   -1    0    0    0    0  0.00000000000E+00  0.00000000000E+00  0.45593999997E+02  0.45594000000E+02  0.51100000000E-03 0.  1.
         11   -1    0    0    0    0 -0.00000000000E+00 -0.00000000000E+00 -0.45593999997E+02  0.45594000000E+02  0.51100000000E-03 0. -1.
    9900012    2    1    2    0    0 -0.25537100753E+02 -0.58286829115E+01  0.31097359296E+02  0.50528895060E+02  0.30000107023E+02 0.  0.
         12    1    1    2    0    0  0.25537100753E+02  0.58286829115E+01 -0.31097359296E+02  0.40659104940E+02  0.00000000000E+00 0. -1.
         11    1    3    3    0    0 -0.97849199283E+01 -0.14681831979E+01  0.96986681535E+00  0.99418741597E+01  0.51100000000E-03 0. -1.
        -11    1    3    3    0    0 -0.10940951967E+02  0.61945891747E+01  0.24836222599E+02  0.27837300844E+02  0.51100000000E-03 0.  1.
         12    1    3    3    0    0 -0.48112288578E+01 -0.10555088888E+02  0.52912698810E+01  0.12749720056E+02  0.00000000000E+00 0. -1.
</event>
<event>
 7    1  0.3054835E-011  0.5052886E+02  0.7816164E-02  0.1300439E+00
        -11   -1    0    0    0    0  0.00000000000E+00  0.00000000000E+00  0.45593999997E+02  0.45594000000E+02  0.51100000000E-03 0. -1.
         11   -1    0    0    0    0 -0.00000000000E+00 -0.00000000000E+00 -0.45593999997E+02  0.45594000000E+02  0.51100000000E-03 0.  1.
    9900012    2    1    2    0    0  0.20788450368E+02  0.31966507241E+02 -0.14112006961E+02  0.50528855957E+02  0.29999988166E+02 0.  0.
         12    1    1    2    0    0 -0.20788450368E+02 -0.31966507241E+02  0.14112006961E+02  0.40659144043E+02  0.00000000000E+00 0. -1.
         11    1    3    3    0    0  0.11568328788E+01  0.13947597341E+02  0.17578974694E+01  0.14105457726E+02  0.51100000000E-03 0. -1.
        -11    1    3    3    0    0  0.15473953530E+02  0.19844888484E+02 -0.18447256910E+02  0.31201989112E+02  0.51100000000E-03 0.  1.
        -12    1    3    3    0    0  0.41576639588E+01 -0.18259785836E+01  0.25773524796E+01  0.52214091188E+01  0.00000000000E+00 0.  1.
</event>
<event>
 7    1  0.3054835E-011  0.5052886E+02  0.7816164E-02  0.1300439E+00
        -11   -1    0    0    0    0  0.00000000000E+00  0.00000000000E+00  0.45593999997E+02  0.45594000000E+02  0.51100000000E-03 0.  1.
         11   -1    0    0    0    0 -0.00000000000E+00 -0.00000000000E+00 -0.45593999997E+02  0.45594000000E+02  0.51100000000E-03 0. -1.
    9900012    2    1    2    0    0 -0.32044938352E+02 -0.33147796385E+01  0.24805242140E+02  0.50528857416E+02  0.29999992601E+02 0.  0.
         12    1    1    2    0    0  0.32044938352E+02  0.33147796385E+01 -0.24805242140E+02  0.40659142584E+02  0.00000000000E+00 0. -1.
         11    1    3    3    0    0 -0.54295887329E+01 -0.38361696663E+01 -0.20760869113E+00  0.66512955991E+01  0.51100000000E-03 0. -1.
        -11    1    3    3    0    0 -0.74034581050E+01 -0.50539759505E+01  0.21859418394E+02  0.23626003420E+02  0.51100000000E-03 0.  1.
        -12    1    3    3    0    0 -0.19211891514E+02  0.55753659783E+01  0.31534324376E+01  0.20251558397E+02  0.00000000000E+00 0.  1.
</event>
<event>
 7    1  0.3054835E-011  0.5052888E+02  0.7816164E-02  0.1300439E+00
        -11   -1    0    0    0    0  0.00000000000E+00  0.00000000000E+00  0.45593999997E+02  0.45594000000E+02  0.51100000000E-03 0.  1.
         11   -1    0    0    0    0 -0.00000000000E+00 -0.00000000000E+00 -0.45593999997E+02  0.45594000000E+02  0.51100000000E-03 0. -1.
    9900012    2    1    2    0    0 -0.36032088559E+02  0.16749816113E+02  0.86195325155E+01  0.50528879418E+02  0.30000059478E+02 0.  0.
         12    1    1    2    0    0  0.36032088559E+02 -0.16749816113E+02 -0.86195325155E+01  0.40659120582E+02  0.00000000000E+00 0. -1.
         11    1    3    3    0    0 -0.11015534425E+01 -0.91816903801E+00  0.80032181579E+01  0.81306798924E+01  0.51100000000E-03 0. -1.
        -11    1    3    3    0    0 -0.15598863482E+02  0.31957888329E+01 -0.65367553982E+01  0.17212401913E+02  0.51100000000E-03 0.  1.
        -12    1    3    3    0    0 -0.19331671634E+02  0.14472196319E+02  0.71530697559E+01  0.25185797613E+02  0.00000000000E+00 0.  1.
</event>
<event>
 7    1  0.3054835E-011  0.5052883E+02  0.7816164E-02  0.1300439E+00
        -11   -1    0    0    0    0  0.00000000000E+00  0.00000000000E+00  0.45593999997E+02  0.45594000000E+02  0.51100000000E-03 0. -1.
         11   -1    0    0    0    0 -0.00000000000E+00 -0.00000000000E+00 -0.45593999997E+02  0.45594000000E+02  0.51100000000E-03 0.  1.
    9900012    2    1    2    0    0  0.16316529501E+02 -0.16171989162E+02 -0.33547065933E+02  0.50528831278E+02  0.29999913154E+02 0.  0.
         12    1    1    2    0    0 -0.16316529501E+02  0.16171989162E+02  0.33547065933E+02  0.40659168722E+02  0.00000000000E+00 0. -1.
         11    1    3    3    0    0  0.71707057149E+01 -0.10315858618E+02 -0.25719425512E+02  0.28623850342E+02  0.51100000000E-03 0. -1.
        -11    1    3    3    0    0 -0.28852915319E+01 -0.15035403703E+01  0.35272557168E+01  0.47986533551E+01  0.51100000000E-03 0.  1.
        -12    1    3    3    0    0  0.12031115318E+02 -0.43525901741E+01 -0.11354896138E+02  0.17106327582E+02  0.00000000000E+00 0.  1.
</event>
<event>
 7    1  0.3054835E-011  0.5052886E+02  0.7816164E-02  0.1300439E+00
        -11   -1    0    0    0    0  0.00000000000E+00  0.00000000000E+00  0.45593999997E+02  0.45594000000E+02  0.51100000000E-03 0. -1.
         11   -1    0    0    0    0 -0.00000000000E+00 -0.00000000000E+00 -0.45593999997E+02  0.45594000000E+02  0.51100000000E-03 0.  1.
    9900012    2    1    2    0    0  0.30246495070E+02 -0.27143384044E+02  0.12457546674E+01  0.50528859993E+02  0.30000000435E+02 0.  0.
         12    1    1    2    0    0 -0.30246495070E+02  0.27143384044E+02 -0.12457546674E+01  0.40659140007E+02  0.00000000000E+00 0. -1.
         11    1    3    3    0    0  0.22476667546E+02 -0.14197043790E+02  0.87127359834E+01  0.27976211411E+02  0.51100000000E-03 0. -1.
        -11    1    3    3    0    0  0.66116686682E+01 -0.56929565918E+01 -0.11292887799E+02  0.14270712401E+02  0.51100000000E-03 0.  1.
        -12    1    3    3    0    0  0.11581588564E+01 -0.72533836619E+01  0.38259064832E+01  0.82819361807E+01  0.00000000000E+00 0.  1.
</event>
<event>
 7    1  0.3054835E-011  0.5052885E+02  0.7816164E-02  0.1300439E+00
        -11   -1    0    0    0    0  0.00000000000E+00  0.00000000000E+00  0.45593999997E+02  0.45594000000E+02  0.51100000000E-03 0.  1.
         11   -1    0    0    0    0 -0.00000000000E+00 -0.00000000000E+00 -0.45593999997E+02  0.45594000000E+02  0.51100000000E-03 0. -1.
    9900012    2    1    2    0    0  0.28035374127E+02  0.87136341326E+01  0.28129284796E+02  0.50528852378E+02  0.29999977287E+02 0.  0.
         12    1    1    2    0    0 -0.28035374127E+02 -0.87136341326E+01 -0.28129284796E+02  0.40659147622E+02  0.00000000000E+00 0. -1.
         11    1    3    3    0    0  0.18903701355E+01  0.69971747398E+01 -0.33102697282E+01  0.79681766749E+01  0.51100000000E-03 0. -1.
        -11    1    3    3    0    0  0.10158575480E+02  0.57760624516E+01  0.17061197395E+02  0.20679555364E+02  0.51100000000E-03 0.  1.
         12    1    3    3    0    0  0.15986428511E+02 -0.40596030588E+01  0.14378357129E+02  0.21881120339E+02  0.00000000000E+00 0. -1.
</event>
<event>
 7    1  0.3054835E-011  0.5052886E+02  0.7816164E-02  0.1300439E+00
        -11   -1    0    0    0    0  0.00000000000E+00  0.00000000000E+00  0.45593999997E+02  0.45594000000E+02  0.51100000000E-03 0. -1.
         11   -1    0    0    0    0 -0.00000000000E+00 -0.00000000000E+00 -0.45593999997E+02  0.45594000000E+02  0.51100000000E-03 0.  1.
    9900012    2    1    2    0    0  0.14857180253E+02  0.31197706629E+02 -0.21427391012E+02  0.50528858475E+02  0.29999995820E+02 0.  0.
         12    1    1    2    0    0 -0.14857180253E+02 -0.31197706629E+02  0.21427391012E+02  0.40659141525E+02  0.00000000000E+00 0. -1.
         11    1    3    3    0    0 -0.13950134997E+01  0.54697094194E+01  0.41766418767E+01  0.70219741828E+01  0.51100000000E-03 0. -1.
        -11    1    3    3    0    0  0.14046978288E+02  0.27993151810E+02 -0.20271623071E+02  0.37307812178E+02  0.51100000000E-03 0.  1.
        -12    1    3    3    0    0  0.22052154646E+01 -0.22651546005E+01 -0.53324098182E+01  0.61990721143E+01  0.00000000000E+00 0.  1.
</event>
<event>
 7    1  0.3054835E-011  0.5052886E+02  0.7816164E-02  0.1300439E+00
        -11   -1    0    0    0    0  0.00000000000E+00  0.00000000000E+00  0.45593999997E+02  0.45594000000E+02  0.51100000000E-03 0. -1.
         11   -1    0    0    0    0 -0.00000000000E+00 -0.00000000000E+00 -0.45593999997E+02  0.45594000000E+02  0.51100000000E-03 0.  1.
    9900012    2    1    2    0    0  0.23269032740E+02 -0.14744217556E+02 -0.29905286325E+02  0.50528856057E+02  0.29999988470E+02 0.  0.
         12    1    1    2    0    0 -0.23269032740E+02  0.14744217556E+02  0.29905286325E+02  0.40659143943E+02  0.00000000000E+00 0. -1.
         11    1    3    3    0    0  0.21424354798E+01  0.42167674075E+01  0.22998884434E+01  0.52593387671E+01  0.51100000000E-03 0. -1.
        -11    1    3    3    0    0  0.13528830554E+02 -0.19533762553E+02 -0.27371357658E+02  0.36246218505E+02  0.51100000000E-03 0.  1.
         12    1    3    3    0    0  0.75977667067E+01  0.57277758893E+00 -0.48338171111E+01  0.90232987848E+01  0.00000000000E+00 0. -1.
</event>
<event>
 7    1  0.3054835E-011  0.5052885E+02  0.7816164E-02  0.1300439E+00
        -11   -1    0    0    0    0  0.00000000000E+00  0.00000000000E+00  0.45593999997E+02  0.45594000000E+02  0.51100000000E-03 0.  1.
         11   -1    0    0    0    0 -0.00000000000E+00 -0.00000000000E+00 -0.45593999997E+02  0.45594000000E+02  0.51100000000E-03 0. -1.
    9900012    2    1    2    0    0 -0.10830785881E+02  0.21937007607E+02  0.32475034985E+02  0.50528854377E+02  0.29999983365E+02 0.  0.
         12    1    1    2    0    0  0.10830785881E+02 -0.21937007607E+02 -0.32475034985E+02  0.40659145623E+02  0.00000000000E+00 0. -1.
         11    1    3    3    0    0 -0.23325455401E+01  0.13418605754E+02 -0.14796946168E+01  0.13699972463E+02  0.51100000000E-03 0. -1.
        -11    1    3    3    0    0 -0.58634934565E+01  0.82138508569E+01  0.31944896519E+02  0.33501109165E+02  0.51100000000E-03 0.  1.
        -12    1    3    3    0    0 -0.26347468839E+01  0.30455099585E+00  0.20098330829E+01  0.33277727495E+01  0.00000000000E+00 0.  1.
</event>
<event>
 7    1  0.3054835E-011  0.5052885E+02  0.7816164E-02  0.1300439E+00
        -11   -1    0    0    0    0  0.00000000000E+00  0.00000000000E+00  0.45593999997E+02  0.45594000000E+02  0.51100000000E-03 0.  1.
         11   -1    0    0    0    0 -0.00000000000E+00 -0.00000000000E+00 -0.45593999997E+02  0.45594000000E+02  0.51100000000E-03 0. -1.
    9900012    2    1    2    0    0  0.27318997919E+02  0.22228599009E+02  0.20315705518E+02  0.50528854019E+02  0.29999982276E+02 0.  0.
         12    1    1    2    0    0 -0.27318997919E+02 -0.22228599009E+02 -0.20315705518E+02  0.40659145981E+02  0.00000000000E+00 0. -1.
         11    1    3    3    0    0  0.12968161789E+02  0.19106152898E+01 -0.49384667369E+01  0.14007573842E+02  0.51100000000E-03 0. -1.
        -11    1    3    3    0    0  0.55448743991E+01  0.17613626275E+01  0.49351176712E+01  0.76291164034E+01  0.51100000000E-03 0.  1.
         12    1    3    3    0    0  0.88059617315E+01  0.18556621092E+02  0.20319054584E+02  0.28892163774E+02  0.00000000000E+00 0. -1.
</event>
<event>
 7    1  0.3054835E-011  0.5052886E+02  0.7816164E-02  0.1300439E+00
        -11   -1    0    0    0    0  0.00000000000E+00  0.00000000000E+00  0.45593999997E+02  0.45594000000E+02  0.51100000000E-03 0.  1.
         11   -1    0    0    0    0 -0.00000000000E+00 -0.00000000000E+00 -0.45593999997E+02  0.45594000000E+02  0.51100000000E-03 0. -1.
    9900012    2    1    2    0    0  0.17746966618E+02  0.18341190457E+02  0.31651406862E+02  0.50528860218E+02  0.30000001118E+02 0.  0.
         12    1    1    2    0    0 -0.17746966618E+02 -0.18341190457E+02 -0.31651406862E+02  0.40659139782E+02  0.00000000000E+00 0. -1.
         11    1    3    3    0    0  0.27149991722E+01  0.20642678079E+00  0.24319659747E+02  0.24471609734E+02  0.51100000000E-03 0. -1.
        -11    1    3    3    0    0  0.11554887978E+02  0.17067478398E+02  0.37439738742E+01  0.20948307705E+02  0.51100000000E-03 0.  1.
         12    1    3    3    0    0  0.34770794680E+01  0.10672852777E+01  0.35877732405E+01  0.51089427787E+01  0.00000000000E+00 0. -1.
</event>
<event>
 7    1  0.3054835E-011  0.5052886E+02  0.7816164E-02  0.1300439E+00
        -11   -1    0    0    0    0  0.00000000000E+00  0.00000000000E+00  0.45593999997E+02  0.45594000000E+02  0.51100000000E-03 0.  1.
         11   -1    0    0    0    0 -0.00000000000E+00 -0.00000000000E+00 -0.45593999997E+02  0.45594000000E+02  0.51100000000E-03 0. -1.
    9900012    2    1    2    0    0  0.30018208451E+02 -0.24055322329E+02 -0.13168684872E+02  0.50528860410E+02  0.30000001702E+02 0.  0.
         12    1    1    2    0    0 -0.30018208451E+02  0.24055322329E+02  0.13168684872E+02  0.40659139590E+02  0.00000000000E+00 0. -1.
         11    1    3    3    0    0  0.13911346102E+02 -0.84047866625E+01  0.24603299969E+01  0.16438345816E+02  0.51100000000E-03 0.  1.
        -11    1    3    3    0    0  0.10575844191E+02 -0.19020612392E+02 -0.16819645143E+02  0.27505138413E+02  0.51100000000E-03 0. -1.
        -12    1    3    3    0    0  0.55310181581E+01  0.33700767252E+01  0.11906302747E+01  0.65853761814E+01  0.00000000000E+00 0.  1.
</event>
<event>
 7    1  0.3054835E-011  0.5052891E+02  0.7816164E-02  0.1300439E+00
        -11   -1    0    0    0    0  0.00000000000E+00  0.00000000000E+00  0.45593999997E+02  0.45594000000E+02  0.51100000000E-03 0.  1.
         11   -1    0    0    0    0 -0.00000000000E+00 -0.00000000000E+00 -0.45593999997E+02  0.45594000000E+02  0.51100000000E-03 0. -1.
    9900012    2    1    2    0    0 -0.53552693846E+01 -0.10059727293E+02  0.39029275465E+02  0.50528912865E+02  0.30000161143E+02 0.  0.
         12    1    1    2    0    0  0.53552693846E+01  0.10059727293E+02 -0.39029275465E+02  0.40659087135E+02  0.00000000000E+00 0. -1.
         11    1    3    3    0    0  0.60246407708E+01 -0.71283886859E+01  0.50489125239E+01  0.10611396685E+02  0.51100000000E-03 0. -1.
        -11    1    3    3    0    0 -0.66529092965E+01  0.65939048695E+01  0.21927194737E+02  0.23844132462E+02  0.51100000000E-03 0.  1.
        -12    1    3    3    0    0 -0.47270008590E+01 -0.95252434762E+01  0.12053168203E+02  0.16073383718E+02  0.00000000000E+00 0.  1.
</event>
<event>
 7    1  0.3054835E-011  0.5052889E+02  0.7816164E-02  0.1300439E+00
        -11   -1    0    0    0    0  0.00000000000E+00  0.00000000000E+00  0.45593999997E+02  0.45594000000E+02  0.51100000000E-03 0. -1.
         11   -1    0    0    0    0 -0.00000000000E+00 -0.00000000000E+00 -0.45593999997E+02  0.45594000000E+02  0.51100000000E-03 0.  1.
    9900012    2    1    2    0    0 -0.28039410107E+02  0.11926135646E+02 -0.26920660737E+02  0.50528890257E+02  0.30000092424E+02 0.  0.
         12    1    1    2    0    0  0.28039410107E+02 -0.11926135646E+02  0.26920660737E+02  0.40659109743E+02  0.00000000000E+00 0. -1.
         11    1    3    3    0    0 -0.16621734167E+01 -0.33378619747E+01  0.32983796625E+00  0.37433856834E+01  0.51100000000E-03 0. -1.
        -11    1    3    3    0    0 -0.57902214726E+01  0.65502884102E+01 -0.22210530138E+02  0.23869239456E+02  0.51100000000E-03 0.  1.
        -12    1    3    3    0    0 -0.20587015218E+02  0.87137092103E+01 -0.50399685654E+01  0.22916265117E+02  0.00000000000E+00 0.  1.
</event>
<event>
 7    1  0.3054835E-011  0.5052885E+02  0.7816164E-02  0.1300439E+00
        -11   -1    0    0    0    0  0.00000000000E+00  0.00000000000E+00  0.45593999997E+02  0.45594000000E+02  0.51100000000E-03 0. -1.
         11   -1    0    0    0    0 -0.00000000000E+00 -0.00000000000E+00 -0.45593999997E+02  0.45594000000E+02  0.51100000000E-03 0.  1.
    9900012    2    1    2    0    0  0.37026993475E+02 -0.16690160388E+02 -0.18991411724E+01  0.50528850516E+02  0.29999971629E+02 0.  0.
         12    1    1    2    0    0 -0.37026993475E+02  0.16690160388E+02  0.18991411724E+01  0.40659149484E+02  0.00000000000E+00 0. -1.
         11    1    3    3    0    0 -0.19363266092E+01  0.37705810282E+01 -0.29408938658E+00  0.42488976048E+01  0.51100000000E-03 0. -1.
        -11    1    3    3    0    0  0.10062458662E+02 -0.12118396480E+02  0.24015817575E+01  0.15933493113E+02  0.51100000000E-03 0.  1.
         12    1    3    3    0    0  0.28900861422E+02 -0.83423449358E+01 -0.40066335433E+01  0.30346459799E+02  0.00000000000E+00 0. -1.
</event>
<event>
 7    1  0.3054835E-011  0.5052885E+02  0.7816164E-02  0.1300439E+00
        -11   -1    0    0    0    0  0.00000000000E+00  0.00000000000E+00  0.45593999997E+02  0.45594000000E+02  0.51100000000E-03 0. -1.
         11   -1    0    0    0    0 -0.00000000000E+00 -0.00000000000E+00 -0.45593999997E+02  0.45594000000E+02  0.51100000000E-03 0.  1.
    9900012    2    1    2    0    0 -0.32025162745E+02 -0.16519391870E+02 -0.18832560385E+02  0.50528847436E+02  0.29999962267E+02 0.  0.
         12    1    1    2    0    0  0.32025162745E+02  0.16519391870E+02  0.18832560385E+02  0.40659152564E+02  0.00000000000E+00 0. -1.
         11    1    3    3    0    0 -0.22171868687E+01 -0.10190155442E+02 -0.33235830477E+01  0.10945382135E+02  0.51100000000E-03 0. -1.
        -11    1    3    3    0    0 -0.22882589888E+02  0.47290329048E+01 -0.10256776685E+02  0.25518192342E+02  0.51100000000E-03 0.  1.
        -12    1    3    3    0    0 -0.69253859878E+01 -0.11058269333E+02 -0.52522006521E+01  0.14065272959E+02  0.00000000000E+00 0.  1.
</event>
<event>
 7    1  0.3054835E-011  0.5052884E+02  0.7816164E-02  0.1300439E+00
        -11   -1    0    0    0    0  0.00000000000E+00  0.00000000000E+00  0.45593999997E+02  0.45594000000E+02  0.51100000000E-03 0.  1.
         11   -1    0    0    0    0 -0.00000000000E+00 -0.00000000000E+00 -0.45593999997E+02  0.45594000000E+02  0.51100000000E-03 0. -1.
    9900012    2    1    2    0    0  0.18619221826E+02  0.17607482527E+02  0.31566893948E+02  0.50528835525E+02  0.29999926061E+02 0.  0.
         12    1    1    2    0    0 -0.18619221826E+02 -0.17607482527E+02 -0.31566893948E+02  0.40659164475E+02  0.00000000000E+00 0. -1.
         11    1    3    3    0    0  0.55823822405E+01  0.51493680789E+01  0.10505916905E-01  0.75946753536E+01  0.51100000000E-03 0. -1.
        -11    1    3    3    0    0  0.99738745065E+01 -0.40455680580E+01  0.19480597222E+02  0.22256200529E+02  0.51100000000E-03 0.  1.
        -12    1    3    3    0    0  0.30629650785E+01  0.16503682506E+02  0.12075790809E+02  0.20677959642E+02  0.00000000000E+00 0.  1.
</event>
<event>
 7    1  0.3054835E-011  0.5052886E+02  0.7816164E-02  0.1300439E+00
        -11   -1    0    0    0    0  0.00000000000E+00  0.00000000000E+00  0.45593999997E+02  0.45594000000E+02  0.51100000000E-03 0.  1.
         11   -1    0    0    0    0 -0.00000000000E+00 -0.00000000000E+00 -0.45593999997E+02  0.45594000000E+02  0.51100000000E-03 0. -1.
    9900012    2    1    2    0    0  0.10734982557E+02  0.36791332359E+02  0.13576582832E+02  0.50528860946E+02  0.30000003330E+02 0.  0.
         12    1    1    2    0    0 -0.10734982557E+02 -0.36791332359E+02 -0.13576582832E+02  0.40659139054E+02  0.00000000000E+00 0. -1.
         11    1    3    3    0    0  0.33075444218E+00  0.70957967589E+01  0.16840440020E+02  0.18277312452E+02  0.51100000000E-03 0. -1.
        -11    1    3    3    0    0  0.53665576149E+01  0.23031172515E+02 -0.13846629942E+01  0.23688650023E+02  0.51100000000E-03 0.  1.
         12    1    3    3    0    0  0.50376705002E+01  0.66643630854E+01 -0.18791941937E+01  0.85628984708E+01  0.00000000000E+00 0. -1.
</event>
<event>
 7    1  0.3054835E-011  0.5052886E+02  0.7816164E-02  0.1300439E+00
        -11   -1    0    0    0    0  0.00000000000E+00  0.00000000000E+00  0.45593999997E+02  0.45594000000E+02  0.51100000000E-03 0.  1.
         11   -1    0    0    0    0 -0.00000000000E+00 -0.00000000000E+00 -0.45593999997E+02  0.45594000000E+02  0.51100000000E-03 0. -1.
    9900012    2    1    2    0    0 -0.59957134393E+01 -0.64207503163E+01  0.39698752024E+02  0.50528861710E+02  0.30000005652E+02 0.  0.
         12    1    1    2    0    0  0.59957134393E+01  0.64207503163E+01 -0.39698752024E+02  0.40659138290E+02  0.00000000000E+00 0. -1.
         11    1    3    3    0    0 -0.11182056410E+02 -0.50266260543E+01  0.13945209374E+02  0.18568096827E+02  0.51100000000E-03 0. -1.
        -11    1    3    3    0    0  0.46833262778E+00  0.39175704316E+01  0.24414430418E+02  0.24731176811E+02  0.51100000000E-03 0.  1.
        -12    1    3    3    0    0  0.47180103429E+01 -0.53116946935E+01  0.13391122316E+01  0.72295880714E+01  0.00000000000E+00 0.  1.
</event>
<event>
 7    1  0.3054835E-011  0.5052886E+02  0.7816164E-02  0.1300439E+00
        -11   -1    0    0    0    0  0.00000000000E+00  0.00000000000E+00  0.45593999997E+02  0.45594000000E+02  0.51100000000E-03 0.  1.
         11   -1    0    0    0    0 -0.00000000000E+00 -0.00000000000E+00 -0.45593999997E+02  0.45594000000E+02  0.51100000000E-03 0. -1.
    9900012    2    1    2    0    0  0.31208106859E+02 -0.35978585905E+01 -0.25812299274E+02  0.50528864323E+02  0.30000013595E+02 0.  0.
         12    1    1    2    0    0 -0.31208106859E+02  0.35978585905E+01  0.25812299274E+02  0.40659135677E+02  0.00000000000E+00 0. -1.
         11    1    3    3    0    0  0.75743527801E+01 -0.70289778650E+01 -0.11263694861E+02  0.15285554359E+02  0.51100000000E-03 0. -1.
        -11    1    3    3    0    0  0.13257239530E+02  0.12483257437E+02 -0.67640545000E+01  0.19425203982E+02  0.51100000000E-03 0.  1.
        -12    1    3    3    0    0  0.10376514550E+02 -0.90521381628E+01 -0.77845499135E+01  0.15818105983E+02  0.00000000000E+00 0.  1.
</event>
<event>
 7    1  0.3054835E-011  0.5052896E+02  0.7816164E-02  0.1300438E+00
        -11   -1    0    0    0    0  0.00000000000E+00  0.00000000000E+00  0.45593999997E+02  0.45594000000E+02  0.51100000000E-03 0. -1.
         11   -1    0    0    0    0 -0.00000000000E+00 -0.00000000000E+00 -0.45593999997E+02  0.45594000000E+02  0.51100000000E-03 0.  1.
    9900012    2    1    2    0    0  0.11796409614E+02  0.31712042451E+02 -0.22546582148E+02  0.50528963087E+02  0.30000313796E+02 0.  0.
         12    1    1    2    0    0 -0.11796409614E+02 -0.31712042451E+02  0.22546582148E+02  0.40659036913E+02  0.00000000000E+00 0. -1.
         11    1    3    3    0    0  0.62076528715E+01  0.25350746212E+01  0.50593980375E+01  0.83999444207E+01  0.51100000000E-03 0.  1.
        -11    1    3    3    0    0 -0.17240139645E+01  0.68030548434E+01 -0.11952720953E+02  0.13860783448E+02  0.51100000000E-03 0. -1.
        -12    1    3    3    0    0  0.73127707071E+01  0.22373912986E+02 -0.15653259232E+02  0.28268235218E+02  0.00000000000E+00 0.  1.
</event>
<event>
 7    1  0.3054835E-011  0.5052889E+02  0.7816164E-02  0.1300439E+00
        -11   -1    0    0    0    0  0.00000000000E+00  0.00000000000E+00  0.45593999997E+02  0.45594000000E+02  0.51100000000E-03 0. -1.
         11   -1    0    0    0    0 -0.00000000000E+00 -0.00000000000E+00 -0.45593999997E+02  0.45594000000E+02  0.51100000000E-03 0.  1.
    9900012    2    1    2    0    0  0.23968634527E+02  0.31136862259E+02  0.10448154151E+02  0.50528885923E+02  0.30000079251E+02 0.  0.
         12    1    1    2    0    0 -0.23968634527E+02 -0.31136862259E+02 -0.10448154151E+02  0.40659114077E+02  0.00000000000E+00 0. -1.
         11    1    3    3    0    0 -0.42736933808E+01  0.50512305109E+01  0.85917524257E+01  0.10844242472E+02  0.51100000000E-03 0. -1.
        -11    1    3    3    0    0  0.65978541698E+01  0.53291687438E+01  0.44614869639E+01  0.95831406823E+01  0.51100000000E-03 0.  1.
         12    1    3    3    0    0  0.21644473738E+02  0.20756463004E+02 -0.26050852389E+01  0.30101502768E+02  0.00000000000E+00 0. -1.
</event>
<event>
 7    1  0.3054835E-011  0.5052885E+02  0.7816164E-02  0.1300439E+00
        -11   -1    0    0    0    0  0.00000000000E+00  0.00000000000E+00  0.45593999997E+02  0.45594000000E+02  0.51100000000E-03 0.  1.
         11   -1    0    0    0    0 -0.00000000000E+00 -0.00000000000E+00 -0.45593999997E+02  0.45594000000E+02  0.51100000000E-03 0. -1.
    9900012    2    1    2    0    0  0.37657691636E+02  0.14172122770E+02 -0.58494312931E+01  0.50528847899E+02  0.29999963673E+02 0.  0.
         12    1    1    2    0    0 -0.37657691636E+02 -0.14172122770E+02  0.58494312931E+01  0.40659152101E+02  0.00000000000E+00 0. -1.
         11    1    3    3    0    0  0.10531186389E+02  0.95441371140E+01 -0.66738292079E+01  0.15701478802E+02  0.51100000000E-03 0. -1.
        -11    1    3    3    0    0  0.27604267992E+02 -0.21785883418E+01  0.24957018775E+01  0.27802344985E+02  0.51100000000E-03 0.  1.
        -12    1    3    3    0    0 -0.47776274570E+00  0.68065739978E+01 -0.16713039627E+01  0.70250241113E+01  0.00000000000E+00 0.  1.
</event>
<event>
 7    1  0.3054835E-011  0.5052884E+02  0.7816164E-02  0.1300439E+00
        -11   -1    0    0    0    0  0.00000000000E+00  0.00000000000E+00  0.45593999997E+02  0.45594000000E+02  0.51100000000E-03 0.  1.
         11   -1    0    0    0    0 -0.00000000000E+00 -0.00000000000E+00 -0.45593999997E+02  0.45594000000E+02  0.51100000000E-03 0. -1.
    9900012    2    1    2    0    0  0.14625163944E+02 -0.37378023760E+02 -0.64926794415E+01  0.50528843996E+02  0.29999951811E+02 0.  0.
         12    1    1    2    0    0 -0.14625163944E+02  0.37378023760E+02  0.64926794415E+01  0.40659156004E+02  0.00000000000E+00 0. -1.
         11    1    3    3    0    0  0.72606920626E+01  0.14121629010E+01 -0.73108362078E+01  0.10400008635E+02  0.51100000000E-03 0. -1.
        -11    1    3    3    0    0  0.87539422273E+01 -0.33142407924E+02  0.19705523576E+00  0.34279579031E+02  0.51100000000E-03 0.  1.
         12    1    3    3    0    0 -0.13894703463E+01 -0.56477787373E+01  0.62110153051E+00  0.58492563305E+01  0.00000000000E+00 0. -1.
</event>
<event>
 7    1  0.3054835E-011  0.5052886E+02  0.7816164E-02  0.1300439E+00
        -11   -1    0    0    0    0  0.00000000000E+00  0.00000000000E+00  0.45593999997E+02  0.45594000000E+02  0.51100000000E-03 0.  1.
         11   -1    0    0    0    0 -0.00000000000E+00 -0.00000000000E+00 -0.45593999997E+02  0.45594000000E+02  0.51100000000E-03 0. -1.
    9900012    2    1    2    0    0  0.86813053736E+01 -0.11256138116E+02  0.38093308562E+02  0.50528857542E+02  0.29999992984E+02 0.  0.
         12    1    1    2    0    0 -0.86813053736E+01  0.11256138116E+02 -0.38093308562E+02  0.40659142458E+02  0.00000000000E+00 0. -1.
         11    1    3    3    0    0  0.13040904460E+02 -0.36972265224E+00  0.65247018575E+01  0.14586761757E+02  0.51100000000E-03 0. -1.
        -11    1    3    3    0    0 -0.64768411042E+01 -0.32566107477E+01  0.68035112263E+01  0.99419690966E+01  0.51100000000E-03 0.  1.
        -12    1    3    3    0    0  0.21172420182E+01 -0.76298047161E+01  0.24765095478E+02  0.26000126688E+02  0.00000000000E+00 0.  1.
</event>
<event>
 7    1  0.3054835E-011  0.5052885E+02  0.7816164E-02  0.1300439E+00
        -11   -1    0    0    0    0  0.00000000000E+00  0.00000000000E+00  0.45593999997E+02  0.45594000000E+02  0.51100000000E-03 0. -1.
         11   -1    0    0    0    0 -0.00000000000E+00 -0.00000000000E+00 -0.45593999997E+02  0.45594000000E+02  0.51100000000E-03 0.  1.
    9900012    2    1    2    0    0 -0.16538608648E+02 -0.32072923996E+02 -0.18734158638E+02  0.50528846915E+02  0.29999960683E+02 0.  0.
         12    1    1    2    0    0  0.16538608648E+02  0.32072923996E+02  0.18734158638E+02  0.40659153085E+02  0.00000000000E+00 0. -1.
         11    1    3    3    0    0  0.81944378005E+01 -0.87975072076E+01 -0.31820931324E+01  0.12436665988E+02  0.51100000000E-03 0. -1.
        -11    1    3    3    0    0  0.29076998200E-01 -0.21465217359E+01 -0.15968412553E+01  0.26755005681E+01  0.51100000000E-03 0.  1.
         12    1    3    3    0    0 -0.24762123447E+02 -0.21128895053E+02 -0.13955224251E+02  0.35416680359E+02  0.00000000000E+00 0. -1.
</event>
<event>
 7    1  0.3054835E-011  0.5052888E+02  0.7816164E-02  0.1300439E+00
        -11   -1    0    0    0    0  0.00000000000E+00  0.00000000000E+00  0.45593999997E+02  0.45594000000E+02  0.51100000000E-03 0. -1.
         11   -1    0    0    0    0 -0.00000000000E+00 -0.00000000000E+00 -0.45593999997E+02  0.45594000000E+02  0.51100000000E-03 0.  1.
    9900012    2    1    2    0    0 -0.36468400127E+02  0.17438634274E+02 -0.43719379721E+01  0.50528880299E+02  0.30000062158E+02 0.  0.
         12    1    1    2    0    0  0.36468400127E+02 -0.17438634274E+02  0.43719379721E+01  0.40659119701E+02  0.00000000000E+00 0. -1.
         11    1    3    3    0    0 -0.13198970168E+02 -0.22587340660E+01 -0.76180808331E+01  0.15406162693E+02  0.51100000000E-03 0. -1.
        -11    1    3    3    0    0 -0.21635149821E+02  0.83032365543E+01  0.42798191178E+01  0.23565659273E+02  0.51100000000E-03 0.  1.
         12    1    3    3    0    0 -0.16342801386E+01  0.11394131785E+02 -0.10336762568E+01  0.11557058333E+02  0.00000000000E+00 0. -1.
</event>
<event>
 7    1  0.3054835E-011  0.5052885E+02  0.7816164E-02  0.1300439E+00
        -11   -1    0    0    0    0  0.00000000000E+00  0.00000000000E+00  0.45593999997E+02  0.45594000000E+02  0.51100000000E-03 0.  1.
         11   -1    0    0    0    0 -0.00000000000E+00 -0.00000000000E+00 -0.45593999997E+02  0.45594000000E+02  0.51100000000E-03 0. -1.
    9900012    2    1    2    0    0  0.34860989131E+02 -0.23536404291E+01  0.20792748533E+02  0.50528848779E+02  0.29999966349E+02 0.  0.
         12    1    1    2    0    0 -0.34860989131E+02  0.23536404291E+01 -0.20792748533E+02  0.40659151221E+02  0.00000000000E+00 0. -1.
         11    1    3    3    0    0  0.55925773983E+01 -0.25747750516E+01 -0.74779161525E+01  0.96863625148E+01  0.51100000000E-03 0. -1.
        -11    1    3    3    0    0  0.22652628675E+02  0.12456053457E+01  0.23157490484E+02  0.32418551546E+02  0.51100000000E-03 0.  1.
         12    1    3    3    0    0  0.66157830576E+01 -0.10244707231E+01  0.51131742015E+01  0.84239347185E+01  0.00000000000E+00 0. -1.
</event>
<event>
 7    1  0.3054835E-011  0.5052887E+02  0.7816164E-02  0.1300439E+00
        -11   -1    0    0    0    0  0.00000000000E+00  0.00000000000E+00  0.45593999997E+02  0.45594000000E+02  0.51100000000E-03 0. -1.
         11   -1    0    0    0    0 -0.00000000000E+00 -0.00000000000E+00 -0.45593999997E+02  0.45594000000E+02  0.51100000000E-03 0.  1.
    9900012    2    1    2    0    0 -0.34819887485E+02  0.20940559334E+02 -0.14944210207E+01  0.50528869612E+02  0.30000029674E+02 0.  0.
         12    1    1    2    0    0  0.34819887485E+02 -0.20940559334E+02  0.14944210207E+01  0.40659130388E+02  0.00000000000E+00 0. -1.
         11    1    3    3    0    0 -0.12395914498E+02  0.89520843561E+01  0.13242952347E+02  0.20228057190E+02  0.51100000000E-03 0. -1.
        -11    1    3    3    0    0 -0.15070952575E+02  0.11390103357E+02 -0.88447632539E+01  0.20859000534E+02  0.51100000000E-03 0.  1.
         12    1    3    3    0    0 -0.73530204122E+01  0.59837162077E+00 -0.58926101138E+01  0.94418118882E+01  0.00000000000E+00 0. -1.
</event>
<event>
 7    1  0.3054835E-011  0.5052886E+02  0.7816164E-02  0.1300439E+00
        -11   -1    0    0    0    0  0.00000000000E+00  0.00000000000E+00  0.45593999997E+02  0.45594000000E+02  0.51100000000E-03 0.  1.
         11   -1    0    0    0    0 -0.00000000000E+00 -0.00000000000E+00 -0.45593999997E+02  0.45594000000E+02  0.51100000000E-03 0. -1.
    9900012    2    1    2    0    0  0.33817359780E+02 -0.17809077338E+02  0.13870425162E+02  0.50528858933E+02  0.29999997213E+02 0.  0.
         12    1    1    2    0    0 -0.33817359780E+02  0.17809077338E+02 -0.13870425162E+02  0.40659141067E+02  0.00000000000E+00 0. -1.
         11    1    3    3    0    0  0.13386969497E+02  0.38407859202E+01 -0.46537787125E+01  0.14684013258E+02  0.51100000000E-03 0. -1.
        -11    1    3    3    0    0  0.10531510856E+02 -0.85798176799E+01  0.12243726286E+02  0.18287559322E+02  0.51100000000E-03 0.  1.
         12    1    3    3    0    0  0.98988794267E+01 -0.13070045578E+02  0.62804775882E+01  0.17557286352E+02  0.00000000000E+00 0. -1.
</event>
<event>
 7    1  0.3054835E-011  0.5052886E+02  0.7816164E-02  0.1300439E+00
        -11   -1    0    0    0    0  0.00000000000E+00  0.00000000000E+00  0.45593999997E+02  0.45594000000E+02  0.51100000000E-03 0.  1.
         11   -1    0    0    0    0 -0.00000000000E+00 -0.00000000000E+00 -0.45593999997E+02  0.45594000000E+02  0.51100000000E-03 0. -1.
    9900012    2    1    2    0    0  0.10338453298E+02  0.22686390201E+02  0.32118676672E+02  0.50528864395E+02  0.30000013816E+02 0.  0.
         12    1    1    2    0    0 -0.10338453298E+02 -0.22686390201E+02 -0.32118676672E+02  0.40659135605E+02  0.00000000000E+00 0. -1.
         11    1    3    3    0    0  0.12714167791E+02  0.12874503176E+02  0.10522860611E+02  0.20931638501E+02  0.51100000000E-03 0. -1.
        -11    1    3    3    0    0 -0.62703997958E+01 -0.22538853275E+01  0.35707030101E+01  0.75596185695E+01  0.51100000000E-03 0.  1.
         12    1    3    3    0    0  0.38946853025E+01  0.12065772353E+02  0.18025113052E+02  0.22037607325E+02  0.00000000000E+00 0. -1.
</event>
<event>
 7    1  0.3054835E-011  0.5052886E+02  0.7816164E-02  0.1300439E+00
        -11   -1    0    0    0    0  0.00000000000E+00  0.00000000000E+00  0.45593999997E+02  0.45594000000E+02  0.51100000000E-03 0.  1.
         11   -1    0    0    0    0 -0.00000000000E+00 -0.00000000000E+00 -0.45593999997E+02  0.45594000000E+02  0.51100000000E-03 0. -1.
    9900012    2    1    2    0    0 -0.22597935595E+02  0.32064962575E+02 -0.10692846028E+02  0.50528862352E+02  0.30000007606E+02 0.  0.
         12    1    1    2    0    0  0.22597935595E+02 -0.32064962575E+02  0.10692846028E+02  0.40659137648E+02  0.00000000000E+00 0. -1.
         11    1    3    3    0    0 -0.10646026283E+01 -0.12434174464E+01  0.41224409886E+01  0.44355366832E+01  0.51100000000E-03 0. -1.
        -11    1    3    3    0    0 -0.11848596978E+02  0.28330066870E+02 -0.43939691996E+01  0.31020781821E+02  0.51100000000E-03 0.  1.
        -12    1    3    3    0    0 -0.96847359892E+01  0.49783131511E+01 -0.10421317817E+02  0.15072543848E+02  0.00000000000E+00 0.  1.
</event>
<event>
 7    1  0.3054835E-011  0.5052886E+02  0.7816164E-02  0.1300439E+00
        -11   -1    0    0    0    0  0.00000000000E+00  0.00000000000E+00  0.45593999997E+02  0.45594000000E+02  0.51100000000E-03 0.  1.
         11   -1    0    0    0    0 -0.00000000000E+00 -0.00000000000E+00 -0.45593999997E+02  0.45594000000E+02  0.51100000000E-03 0. -1.
    9900012    2    1    2    0    0  0.11759105467E+01 -0.10564586834E+02  0.39245026155E+02  0.50528864022E+02  0.30000012682E+02 0.  0.
         12    1    1    2    0    0 -0.11759105467E+01  0.10564586834E+02 -0.39245026155E+02  0.40659135978E+02  0.00000000000E+00 0. -1.
         11    1    3    3    0    0 -0.39050425754E+00  0.59710719061E+01  0.33455171674E+01  0.68555582312E+01  0.51100000000E-03 0. -1.
        -11    1    3    3    0    0 -0.48358254116E+01 -0.61732543633E+01  0.28184132878E+02  0.29254736765E+02  0.51100000000E-03 0.  1.
        -12    1    3    3    0    0  0.64022402159E+01 -0.10362404377E+02  0.77153761097E+01  0.14418569026E+02  0.00000000000E+00 0.  1.
</event>
<event>
 7    1  0.3054835E-011  0.5052886E+02  0.7816164E-02  0.1300439E+00
        -11   -1    0    0    0    0  0.00000000000E+00  0.00000000000E+00  0.45593999997E+02  0.45594000000E+02  0.51100000000E-03 0.  1.
         11   -1    0    0    0    0 -0.00000000000E+00 -0.00000000000E+00 -0.45593999997E+02  0.45594000000E+02  0.51100000000E-03 0. -1.
    9900012    2    1    2    0    0  0.18084664973E+02 -0.68985710319E-01  0.36415740242E+02  0.50528855843E+02  0.29999987820E+02 0.  0.
         12    1    1    2    0    0 -0.18084664973E+02  0.68985710319E-01 -0.36415740242E+02  0.40659144157E+02  0.00000000000E+00 0. -1.
         11    1    3    3    0    0  0.64047041382E+01 -0.86966514266E+01  0.16995097036E+02  0.20136665679E+02  0.51100000000E-03 0. -1.
        -11    1    3    3    0    0  0.10464522782E+02  0.32050385318E+01  0.81531753170E+00  0.10974664094E+02  0.51100000000E-03 0.  1.
        -12    1    3    3    0    0  0.12154380531E+01  0.54226271845E+01  0.18605325674E+02  0.19417526070E+02  0.00000000000E+00 0.  1.
</event>
<event>
 7    1  0.3054835E-011  0.5052886E+02  0.7816164E-02  0.1300439E+00
        -11   -1    0    0    0    0  0.00000000000E+00  0.00000000000E+00  0.45593999997E+02  0.45594000000E+02  0.51100000000E-03 0. -1.
         11   -1    0    0    0    0 -0.00000000000E+00 -0.00000000000E+00 -0.45593999997E+02  0.45594000000E+02  0.51100000000E-03 0.  1.
    9900012    2    1    2    0    0 -0.26014660211E+01 -0.75715137888E+00 -0.40568769598E+02  0.50528856251E+02  0.29999989062E+02 0.  0.
         12    1    1    2    0    0  0.26014660211E+01  0.75715137888E+00  0.40568769598E+02  0.40659143749E+02  0.00000000000E+00 0. -1.
         11    1    3    3    0    0 -0.33986274054E+01 -0.50308246344E+01 -0.27716207603E+01  0.66739603417E+01  0.51100000000E-03 0. -1.
        -11    1    3    3    0    0  0.56570754819E+00  0.93236415058E+01 -0.48551055803E+01  0.10527220261E+02  0.51100000000E-03 0.  1.
        -12    1    3    3    0    0  0.23145383614E+00 -0.50499682503E+01 -0.32942043257E+02  0.33327675649E+02  0.00000000000E+00 0.  1.
</event>
<event>
 7    1  0.3054835E-011  0.5052886E+02  0.7816164E-02  0.1300439E+00
        -11   -1    0    0    0    0  0.00000000000E+00  0.00000000000E+00  0.45593999997E+02  0.45594000000E+02  0.51100000000E-03 0. -1.
         11   -1    0    0    0    0 -0.00000000000E+00 -0.00000000000E+00 -0.45593999997E+02  0.45594000000E+02  0.51100000000E-03 0.  1.
    9900012    2    1    2    0    0  0.10475380551E+02  0.39262853664E+02 -0.13640155728E+01  0.50528858174E+02  0.29999994906E+02 0.  0.
         12    1    1    2    0    0 -0.10475380551E+02 -0.39262853664E+02  0.13640155728E+01  0.40659141826E+02  0.00000000000E+00 0. -1.
         11    1    3    3    0    0  0.59941553904E+01  0.41313136477E+01  0.91878987079E+01  0.11722420152E+02  0.51100000000E-03 0. -1.
        -11    1    3    3    0    0 -0.13633432718E+01  0.21355998735E+02 -0.18098210815E+01  0.21475866443E+02  0.51100000000E-03 0.  1.
         12    1    3    3    0    0  0.58445684319E+01  0.13775541282E+02 -0.87420931992E+01  0.17330571579E+02  0.00000000000E+00 0. -1.
</event>
<event>
 7    1  0.3054835E-011  0.5052886E+02  0.7816164E-02  0.1300439E+00
        -11   -1    0    0    0    0  0.00000000000E+00  0.00000000000E+00  0.45593999997E+02  0.45594000000E+02  0.51100000000E-03 0.  1.
         11   -1    0    0    0    0 -0.00000000000E+00 -0.00000000000E+00 -0.45593999997E+02  0.45594000000E+02  0.51100000000E-03 0. -1.
    9900012    2    1    2    0    0 -0.22945412427E+02 -0.50915827890E+01  0.33177540417E+02  0.50528863821E+02  0.30000012069E+02 0.  0.
         12    1    1    2    0    0  0.22945412427E+02  0.50915827890E+01 -0.33177540417E+02  0.40659136179E+02  0.00000000000E+00 0. -1.
         11    1    3    3    0    0 -0.16701362828E+02  0.88108059825E+01  0.12164263097E+02  0.22461859213E+02  0.51100000000E-03 0. -1.
        -11    1    3    3    0    0 -0.66541992039E+00 -0.72315344425E+01  0.17006763558E+02  0.18492373591E+02  0.51100000000E-03 0.  1.
         12    1    3    3    0    0 -0.55786296782E+01 -0.66708543290E+01  0.40065137625E+01  0.95746310161E+01  0.00000000000E+00 0. -1.
</event>
<event>
 7    1  0.3054835E-011  0.5052886E+02  0.7816164E-02  0.1300439E+00
        -11   -1    0    0    0    0  0.00000000000E+00  0.00000000000E+00  0.45593999997E+02  0.45594000000E+02  0.51100000000E-03 0.  1.
         11   -1    0    0    0    0 -0.00000000000E+00 -0.00000000000E+00 -0.45593999997E+02  0.45594000000E+02  0.51100000000E-03 0. -1.
    9900012    2    1    2    0    0 -0.35948658493E+01  0.36644044995E+02  0.17246940855E+02  0.50528855113E+02  0.29999985601E+02 0.  0.
         12    1    1    2    0    0  0.35948658493E+01 -0.36644044995E+02 -0.17246940855E+02  0.40659144887E+02  0.00000000000E+00 0. -1.
         11    1    3    3    0    0 -0.66488471448E+01  0.96025763147E+01  0.17831667237E+02  0.21316308239E+02  0.51100000000E-03 0. -1.
        -11    1    3    3    0    0  0.14136782357E+01  0.22001375485E+02  0.37525408661E+01  0.22363822853E+02  0.51100000000E-03 0.  1.
         12    1    3    3    0    0  0.16403030598E+01  0.50400931955E+01 -0.43372672471E+01  0.68487240213E+01  0.00000000000E+00 0. -1.
</event>
<event>
 7    1  0.3054835E-011  0.5052891E+02  0.7816164E-02  0.1300439E+00
        -11   -1    0    0    0    0  0.00000000000E+00  0.00000000000E+00  0.45593999997E+02  0.45594000000E+02  0.51100000000E-03 0. -1.
         11   -1    0    0    0    0 -0.00000000000E+00 -0.00000000000E+00 -0.45593999997E+02  0.45594000000E+02  0.51100000000E-03 0.  1.
    9900012    2    1    2    0    0 -0.35841040605E+02  0.15506812778E+02 -0.11319029064E+02  0.50528906882E+02  0.30000142959E+02 0.  0.
         12    1    1    2    0    0  0.35841040605E+02 -0.15506812778E+02  0.11319029064E+02  0.40659093118E+02  0.00000000000E+00 0. -1.
         11    1    3    3    0    0 -0.22444888760E+02 -0.41934719690E+01 -0.21298390808E+01  0.22932388741E+02  0.51100000000E-03 0. -1.
        -11    1    3    3    0    0 -0.40286599156E+01  0.12752195155E+02 -0.11324369051E+01  0.13421288894E+02  0.51100000000E-03 0.  1.
         12    1    3    3    0    0 -0.93674919296E+01  0.69480895919E+01 -0.80567530780E+01  0.14175229246E+02  0.00000000000E+00 0. -1.
</event>
<event>
 7    1  0.3054835E-011  0.5052886E+02  0.7816164E-02  0.1300439E+00
        -11   -1    0    0    0    0  0.00000000000E+00  0.00000000000E+00  0.45593999997E+02  0.45594000000E+02  0.51100000000E-03 0.  1.
         11   -1    0    0    0    0 -0.00000000000E+00 -0.00000000000E+00 -0.45593999997E+02  0.45594000000E+02  0.51100000000E-03 0. -1.
    9900012    2    1    2    0    0 -0.22612977175E+02 -0.27346247455E+02  0.19849484043E+02  0.50528855846E+02  0.29999987828E+02 0.  0.
         12    1    1    2    0    0  0.22612977175E+02  0.27346247455E+02 -0.19849484043E+02  0.40659144154E+02  0.00000000000E+00 0. -1.
         11    1    3    3    0    0 -0.59278981769E+01 -0.24499894365E+02  0.56616192346E+01  0.25834835654E+02  0.51100000000E-03 0. -1.
        -11    1    3    3    0    0 -0.79042122242E+01  0.40760233358E+01  0.48718403795E+01  0.10140284319E+02  0.51100000000E-03 0.  1.
        -12    1    3    3    0    0 -0.87808667738E+01 -0.69223764266E+01  0.93160244288E+01  0.14553735873E+02  0.00000000000E+00 0.  1.
</event>
<event>
 7    1  0.3054835E-011  0.5052893E+02  0.7816164E-02  0.1300439E+00
        -11   -1    0    0    0    0  0.00000000000E+00  0.00000000000E+00  0.45593999997E+02  0.45594000000E+02  0.51100000000E-03 0.  1.
         11   -1    0    0    0    0 -0.00000000000E+00 -0.00000000000E+00 -0.45593999997E+02  0.45594000000E+02  0.51100000000E-03 0. -1.
    9900012    2    1    2    0    0  0.28399560352E+02 -0.48062223231E+01  0.28697124404E+02  0.50528932742E+02  0.30000221562E+02 0.  0.
         12    1    1    2    0    0 -0.28399560352E+02  0.48062223231E+01 -0.28697124404E+02  0.40659067258E+02  0.00000000000E+00 0. -1.
         11    1    3    3    0    0  0.22138736015E+02 -0.13984404241E+02  0.22335550312E+02  0.34417495584E+02  0.51100000000E-03 0. -1.
        -11    1    3    3    0    0  0.11986841964E+01  0.71568010712E+01  0.76145681753E+01  0.10518473945E+02  0.51100000000E-03 0.  1.
         12    1    3    3    0    0  0.50621401406E+01  0.20213808464E+01 -0.12529940827E+01  0.55929632129E+01  0.00000000000E+00 0. -1.
</event>
<event>
 7    1  0.3054835E-011  0.5052883E+02  0.7816164E-02  0.1300439E+00
        -11   -1    0    0    0    0  0.00000000000E+00  0.00000000000E+00  0.45593999997E+02  0.45594000000E+02  0.51100000000E-03 0.  1.
         11   -1    0    0    0    0 -0.00000000000E+00 -0.00000000000E+00 -0.45593999997E+02  0.45594000000E+02  0.51100000000E-03 0. -1.
    9900012    2    1    2    0    0  0.31186025866E+02 -0.26045789043E+02 -0.14888175243E+01  0.50528832352E+02  0.29999916416E+02 0.  0.
         12    1    1    2    0    0 -0.31186025866E+02  0.26045789043E+02  0.14888175243E+01  0.40659167648E+02  0.00000000000E+00 0. -1.
         11    1    3    3    0    0  0.14743879259E+02 -0.22527352445E+02 -0.10161262418E+02  0.28776984518E+02  0.51100000000E-03 0. -1.
        -11    1    3    3    0    0  0.23524533426E+01 -0.36520015510E+01  0.60045186494E+01  0.74111670154E+01  0.51100000000E-03 0.  1.
         12    1    3    3    0    0  0.14089693264E+02  0.13356495258E+00  0.26679262441E+01  0.14340680818E+02  0.00000000000E+00 0. -1.
</event>
<event>
 7    1  0.3054835E-011  0.5052886E+02  0.7816164E-02  0.1300439E+00
        -11   -1    0    0    0    0  0.00000000000E+00  0.00000000000E+00  0.45593999997E+02  0.45594000000E+02  0.51100000000E-03 0.  1.
         11   -1    0    0    0    0 -0.00000000000E+00 -0.00000000000E+00 -0.45593999997E+02  0.45594000000E+02  0.51100000000E-03 0. -1.
    9900012    2    1    2    0    0 -0.16851982586E+02  0.36992257398E+02  0.86558447433E+00  0.50528860056E+02  0.30000000627E+02 0.  0.
         12    1    1    2    0    0  0.16851982586E+02 -0.36992257398E+02 -0.86558447433E+00  0.40659139944E+02  0.00000000000E+00 0. -1.
         11    1    3    3    0    0  0.34013157684E+01  0.11121836270E+02 -0.55162084951E+01  0.12872169491E+02  0.51100000000E-03 0. -1.
        -11    1    3    3    0    0 -0.15615993639E+02  0.26860866246E+02  0.88564215221E+01  0.32307918461E+02  0.51100000000E-03 0.  1.
         12    1    3    3    0    0 -0.46373047149E+01 -0.99044511868E+00 -0.24746285527E+01  0.53487721045E+01  0.00000000000E+00 0. -1.
</event>
<event>
 7    1  0.3054835E-011  0.5052888E+02  0.7816164E-02  0.1300439E+00
        -11   -1    0    0    0    0  0.00000000000E+00  0.00000000000E+00  0.45593999997E+02  0.45594000000E+02  0.51100000000E-03 0.  1.
         11   -1    0    0    0    0 -0.00000000000E+00 -0.00000000000E+00 -0.45593999997E+02  0.45594000000E+02  0.51100000000E-03 0. -1.
    9900012    2    1    2    0    0  0.20321464794E+02  0.34684689570E+02  0.60970599679E+01  0.50528883406E+02  0.30000071602E+02 0.  0.
         12    1    1    2    0    0 -0.20321464794E+02 -0.34684689570E+02 -0.60970599679E+01  0.40659116594E+02  0.00000000000E+00 0. -1.
         11    1    3    3    0    0 -0.93634716004E-01 -0.17680057699E+00 -0.30243714991E+00  0.36262155870E+00  0.51100000000E-03 0. -1.
        -11    1    3    3    0    0  0.28293412671E+01  0.10854720139E+01 -0.86918450134E+01  0.92049764528E+01  0.51100000000E-03 0.  1.
        -12    1    3    3    0    0  0.17585758243E+02  0.33776018133E+02  0.15091342131E+02  0.40961285395E+02  0.00000000000E+00 0.  1.
</event>
<event>
 7    1  0.3054835E-011  0.5052885E+02  0.7816164E-02  0.1300439E+00
        -11   -1    0    0    0    0  0.00000000000E+00  0.00000000000E+00  0.45593999997E+02  0.45594000000E+02  0.51100000000E-03 0. -1.
         11   -1    0    0    0    0 -0.00000000000E+00 -0.00000000000E+00 -0.45593999997E+02  0.45594000000E+02  0.51100000000E-03 0.  1.
    9900012    2    1    2    0    0  0.37587719505E+02  0.13626397457E+02 -0.73926172881E+01  0.50528853973E+02  0.29999982137E+02 0.  0.
         12    1    1    2    0    0 -0.37587719505E+02 -0.13626397457E+02  0.73926172881E+01  0.40659146027E+02  0.00000000000E+00 0. -1.
         11    1    3    3    0    0 -0.72238672720E+00  0.89864317957E+01  0.16726250714E+01  0.91692679039E+01  0.51100000000E-03 0. -1.
        -11    1    3    3    0    0  0.27768774520E+02  0.78687069250E+01 -0.93270652336E+01  0.30331757831E+02  0.51100000000E-03 0.  1.
         12    1    3    3    0    0  0.10541331713E+02 -0.32287412638E+01  0.26182287409E+00  0.11027828238E+02  0.00000000000E+00 0. -1.
</event>
<event>
 7    1  0.3054835E-011  0.5052886E+02  0.7816164E-02  0.1300439E+00
        -11   -1    0    0    0    0  0.00000000000E+00  0.00000000000E+00  0.45593999997E+02  0.45594000000E+02  0.51100000000E-03 0.  1.
         11   -1    0    0    0    0 -0.00000000000E+00 -0.00000000000E+00 -0.45593999997E+02  0.45594000000E+02  0.51100000000E-03 0. -1.
    9900012    2    1    2    0    0  0.34126212425E+02 -0.16625076273E+02  0.14566186681E+02  0.50528864127E+02  0.30000013000E+02 0.  0.
         12    1    1    2    0    0 -0.34126212425E+02  0.16625076273E+02 -0.14566186681E+02  0.40659135873E+02  0.00000000000E+00 0. -1.
         11    1    3    3    0    0  0.29636218472E+02 -0.10374840436E+02  0.17208615224E+02  0.35806133519E+02  0.51100000000E-03 0.  1.
        -11    1    3    3    0    0 -0.20211879049E+01 -0.50185980944E+01 -0.53086742097E+01  0.75798119703E+01  0.51100000000E-03 0. -1.
         12    1    3    3    0    0  0.65111818578E+01 -0.12316377424E+01  0.26662456666E+01  0.71429186379E+01  0.00000000000E+00 0. -1.
</event>
<event>
 7    1  0.3054835E-011  0.5052886E+02  0.7816164E-02  0.1300439E+00
        -11   -1    0    0    0    0  0.00000000000E+00  0.00000000000E+00  0.45593999997E+02  0.45594000000E+02  0.51100000000E-03 0.  1.
         11   -1    0    0    0    0 -0.00000000000E+00 -0.00000000000E+00 -0.45593999997E+02  0.45594000000E+02  0.51100000000E-03 0. -1.
    9900012    2    1    2    0    0  0.16930030629E+02  0.12266095844E+02  0.34872378984E+02  0.50528857604E+02  0.29999993173E+02 0.  0.
         12    1    1    2    0    0 -0.16930030629E+02 -0.12266095844E+02 -0.34872378984E+02  0.40659142396E+02  0.00000000000E+00 0. -1.
         11    1    3    3    0    0  0.36430316548E+01  0.23523027194E+01 -0.39337111981E+01  0.58548349057E+01  0.51100000000E-03 0. -1.
        -11    1    3    3    0    0  0.11234280711E+02  0.13678180751E+02  0.33112840881E+02  0.37546796444E+02  0.51100000000E-03 0.  1.
         12    1    3    3    0    0  0.20527182632E+01 -0.37643876265E+01  0.56932493019E+01  0.71272262545E+01  0.00000000000E+00 0. -1.
</event>
<event>
 7    1  0.3054835E-011  0.5052886E+02  0.7816164E-02  0.1300439E+00
        -11   -1    0    0    0    0  0.00000000000E+00  0.00000000000E+00  0.45593999997E+02  0.45594000000E+02  0.51100000000E-03 0.  1.
         11   -1    0    0    0    0 -0.00000000000E+00 -0.00000000000E+00 -0.45593999997E+02  0.45594000000E+02  0.51100000000E-03 0. -1.
    9900012    2    1    2    0    0  0.35002013078E+02 -0.93477337026E+01  0.18456567881E+02  0.50528856590E+02  0.29999990091E+02 0.  0.
         12    1    1    2    0    0 -0.35002013078E+02  0.93477337026E+01 -0.18456567881E+02  0.40659143410E+02  0.00000000000E+00 0. -1.
         11    1    3    3    0    0  0.11938521781E+02  0.38894814140E+01  0.13483432561E+02  0.18424421887E+02  0.51100000000E-03 0. -1.
        -11    1    3    3    0    0  0.17726734727E+02 -0.56515874906E+00  0.87747660512E+00  0.17757434892E+02  0.51100000000E-03 0.  1.
         12    1    3    3    0    0  0.53367565706E+01 -0.12672056368E+02  0.40956587153E+01  0.14346999811E+02  0.00000000000E+00 0. -1.
</event>
<event>
 7    1  0.3054835E-011  0.5052886E+02  0.7816164E-02  0.1300439E+00
        -11   -1    0    0    0    0  0.00000000000E+00  0.00000000000E+00  0.45593999997E+02  0.45594000000E+02  0.51100000000E-03 0. -1.
         11   -1    0    0    0    0 -0.00000000000E+00 -0.00000000000E+00 -0.45593999997E+02  0.45594000000E+02  0.51100000000E-03 0.  1.
    9900012    2    1    2    0    0  0.20496108634E+02 -0.30893518634E+02 -0.16693274735E+02  0.50528863461E+02  0.30000010976E+02 0.  0.
         12    1    1    2    0    0 -0.20496108634E+02  0.30893518634E+02  0.16693274735E+02  0.40659136539E+02  0.00000000000E+00 0. -1.
         11    1    3    3    0    0  0.64249484656E+01 -0.69544282328E+01  0.21584080541E+01  0.97109608392E+01  0.51100000000E-03 0. -1.
        -11    1    3    3    0    0 -0.48858396947E+01 -0.35071361567E+01 -0.98273402006E+01  0.11521633965E+02  0.51100000000E-03 0.  1.
        -12    1    3    3    0    0  0.18956999863E+02 -0.20431954245E+02 -0.90243425881E+01  0.29296268657E+02  0.00000000000E+00 0.  1.
</event>
<event>
 7    1  0.3054835E-011  0.5052886E+02  0.7816164E-02  0.1300439E+00
        -11   -1    0    0    0    0  0.00000000000E+00  0.00000000000E+00  0.45593999997E+02  0.45594000000E+02  0.51100000000E-03 0. -1.
         11   -1    0    0    0    0 -0.00000000000E+00 -0.00000000000E+00 -0.45593999997E+02  0.45594000000E+02  0.51100000000E-03 0.  1.
    9900012    2    1    2    0    0  0.27385149136E+02  0.29174725995E+02  0.72149060398E+01  0.50528857126E+02  0.29999991720E+02 0.  0.
         12    1    1    2    0    0 -0.27385149136E+02 -0.29174725995E+02 -0.72149060398E+01  0.40659142874E+02  0.00000000000E+00 0. -1.
         11    1    3    3    0    0  0.31543435212E+01  0.17014846259E+02  0.13046034098E+02  0.21671499307E+02  0.51100000000E-03 0. -1.
        -11    1    3    3    0    0  0.21060286243E+02  0.13125352565E+02 -0.42183118767E+01  0.25171505556E+02  0.51100000000E-03 0.  1.
         12    1    3    3    0    0  0.31705193715E+01 -0.96547282853E+00 -0.16128161816E+01  0.36858522628E+01  0.00000000000E+00 0. -1.
</event>
<event>
 7    1  0.3054835E-011  0.5052890E+02  0.7816164E-02  0.1300439E+00
        -11   -1    0    0    0    0  0.00000000000E+00  0.00000000000E+00  0.45593999997E+02  0.45594000000E+02  0.51100000000E-03 0. -1.
         11   -1    0    0    0    0 -0.00000000000E+00 -0.00000000000E+00 -0.45593999997E+02  0.45594000000E+02  0.51100000000E-03 0.  1.
    9900012    2    1    2    0    0 -0.17300144049E+01  0.61941212462E+01 -0.40147262088E+02  0.50528895964E+02  0.30000109771E+02 0.  0.
         12    1    1    2    0    0  0.17300144049E+01 -0.61941212462E+01  0.40147262088E+02  0.40659104036E+02  0.00000000000E+00 0. -1.
         11    1    3    3    0    0  0.11327284867E+02  0.11215929328E+02 -0.20645509033E+02  0.26083356698E+02  0.51100000000E-03 0.  1.
        -11    1    3    3    0    0 -0.44141770037E+01 -0.26764595739E+01 -0.39522972389E+01  0.65014650808E+01  0.51100000000E-03 0. -1.
         12    1    3    3    0    0 -0.86431222680E+01 -0.23453485076E+01 -0.15549455816E+02  0.17944074185E+02  0.00000000000E+00 0. -1.
</event>
<event>
 7    1  0.3054835E-011  0.5052886E+02  0.7816164E-02  0.1300439E+00
        -11   -1    0    0    0    0  0.00000000000E+00  0.00000000000E+00  0.45593999997E+02  0.45594000000E+02  0.51100000000E-03 0.  1.
         11   -1    0    0    0    0 -0.00000000000E+00 -0.00000000000E+00 -0.45593999997E+02  0.45594000000E+02  0.51100000000E-03 0. -1.
    9900012    2    1    2    0    0 -0.29545096596E+02  0.20382262069E+02  0.19100159537E+02  0.50528862844E+02  0.30000009101E+02 0.  0.
         12    1    1    2    0    0  0.29545096596E+02 -0.20382262069E+02 -0.19100159537E+02  0.40659137156E+02  0.00000000000E+00 0. -1.
         11    1    3    3    0    0 -0.78479572756E+01  0.12978146083E+02 -0.59829973205E+01  0.16303955543E+02  0.51100000000E-03 0. -1.
        -11    1    3    3    0    0 -0.69968743263E+01  0.26283848435E+01  0.55153729345E+01  0.92889179182E+01  0.51100000000E-03 0.  1.
         12    1    3    3    0    0 -0.14700264994E+02  0.47757311421E+01  0.19567783923E+02  0.24935989383E+02  0.00000000000E+00 0. -1.
</event>
<event>
 7    1  0.3054835E-011  0.5052885E+02  0.7816164E-02  0.1300439E+00
        -11   -1    0    0    0    0  0.00000000000E+00  0.00000000000E+00  0.45593999997E+02  0.45594000000E+02  0.51100000000E-03 0.  1.
         11   -1    0    0    0    0 -0.00000000000E+00 -0.00000000000E+00 -0.45593999997E+02  0.45594000000E+02  0.51100000000E-03 0. -1.
    9900012    2    1    2    0    0  0.22053621147E+02 -0.14985231816E+02  0.30696047478E+02  0.50528847168E+02  0.29999961452E+02 0.  0.
         12    1    1    2    0    0 -0.22053621147E+02  0.14985231816E+02 -0.30696047478E+02  0.40659152832E+02  0.00000000000E+00 0. -1.
         11    1    3    3    0    0  0.84639440906E+01  0.58068810815E+01  0.64584678523E+01  0.12127243080E+02  0.51100000000E-03 0.  1.
        -11    1    3    3    0    0  0.16707306056E+02 -0.19816048811E+02  0.23639578257E+02  0.35080472155E+02  0.51100000000E-03 0. -1.
        -12    1    3    3    0    0 -0.31176290001E+01 -0.97606408639E+00  0.59800136794E+00  0.33211319334E+01  0.00000000000E+00 0.  1.
</event>
<event>
 7    1  0.3054835E-011  0.5052886E+02  0.7816164E-02  0.1300439E+00
        -11   -1    0    0    0    0  0.00000000000E+00  0.00000000000E+00  0.45593999997E+02  0.45594000000E+02  0.51100000000E-03 0.  1.
         11   -1    0    0    0    0 -0.00000000000E+00 -0.00000000000E+00 -0.45593999997E+02  0.45594000000E+02  0.51100000000E-03 0. -1.
    9900012    2    1    2    0    0 -0.32901931621E+02  0.96388322956E+01  0.21856844511E+02  0.50528857801E+02  0.29999993772E+02 0.  0.
         12    1    1    2    0    0  0.32901931621E+02 -0.96388322956E+01 -0.21856844511E+02  0.40659142199E+02  0.00000000000E+00 0. -1.
         11    1    3    3    0    0 -0.55573696716E+01 -0.33208531669E+01  0.18764786334E+01  0.67404447736E+01  0.51100000000E-03 0. -1.
        -11    1    3    3    0    0 -0.19037053224E+02  0.13218262440E+02  0.24990925085E+02  0.34083400568E+02  0.51100000000E-03 0.  1.
        -12    1    3    3    0    0 -0.83075087248E+01 -0.25857697744E+00 -0.50105592078E+01  0.97050124595E+01  0.00000000000E+00 0.  1.
</event>
<event>
 7    1  0.3054835E-011  0.5052885E+02  0.7816164E-02  0.1300439E+00
        -11   -1    0    0    0    0  0.00000000000E+00  0.00000000000E+00  0.45593999997E+02  0.45594000000E+02  0.51100000000E-03 0. -1.
         11   -1    0    0    0    0 -0.00000000000E+00 -0.00000000000E+00 -0.45593999997E+02  0.45594000000E+02  0.51100000000E-03 0.  1.
    9900012    2    1    2    0    0 -0.28860119437E+02  0.85049979907E+01 -0.27348215910E+02  0.50528850990E+02  0.29999973071E+02 0.  0.
         12    1    1    2    0    0  0.28860119437E+02 -0.85049979907E+01  0.27348215910E+02  0.40659149010E+02  0.00000000000E+00 0. -1.
         11    1    3    3    0    0 -0.13751692917E+01  0.38749765376E+01 -0.86550475069E-01  0.41126664092E+01  0.51100000000E-03 0. -1.
        -11    1    3    3    0    0 -0.84721913427E+01 -0.88655617087E+01 -0.16953375443E+02  0.20923507109E+02  0.51100000000E-03 0.  1.
        -12    1    3    3    0    0 -0.19012758802E+02  0.13495583162E+02 -0.10308289991E+02  0.25492677472E+02  0.00000000000E+00 0.  1.
</event>
<event>
 7    1  0.3054835E-011  0.5052886E+02  0.7816164E-02  0.1300439E+00
        -11   -1    0    0    0    0  0.00000000000E+00  0.00000000000E+00  0.45593999997E+02  0.45594000000E+02  0.51100000000E-03 0. -1.
         11   -1    0    0    0    0 -0.00000000000E+00 -0.00000000000E+00 -0.45593999997E+02  0.45594000000E+02  0.51100000000E-03 0.  1.
    9900012    2    1    2    0    0 -0.32342427536E+02  0.21551410482E+02 -0.11944442854E+02  0.50528860464E+02  0.30000001867E+02 0.  0.
         12    1    1    2    0    0  0.32342427536E+02 -0.21551410482E+02  0.11944442854E+02  0.40659139536E+02  0.00000000000E+00 0. -1.
         11    1    3    3    0    0 -0.18722904011E+02  0.77285808623E+01  0.65895986633E+01  0.21300256045E+02  0.51100000000E-03 0. -1.
        -11    1    3    3    0    0 -0.14764261843E+02  0.83081301698E+01 -0.14520373061E+02  0.22312545547E+02  0.51100000000E-03 0.  1.
        -12    1    3    3    0    0  0.11447383191E+01  0.55146994502E+01 -0.40136684565E+01  0.69160588722E+01  0.00000000000E+00 0.  1.
</event>
<event>
 7    1  0.3054835E-011  0.5052887E+02  0.7816164E-02  0.1300439E+00
        -11   -1    0    0    0    0  0.00000000000E+00  0.00000000000E+00  0.45593999997E+02  0.45594000000E+02  0.51100000000E-03 0.  1.
         11   -1    0    0    0    0 -0.00000000000E+00 -0.00000000000E+00 -0.45593999997E+02  0.45594000000E+02  0.51100000000E-03 0. -1.
    9900012    2    1    2    0    0 -0.20707516061E+01 -0.38519976576E+02  0.12848675809E+02  0.50528867229E+02  0.30000022430E+02 0.  0.
         12    1    1    2    0    0  0.20707516061E+01  0.38519976576E+02 -0.12848675809E+02  0.40659132771E+02  0.00000000000E+00 0. -1.
         11    1    3    3    0    0 -0.31831254901E+01  0.40013149486E+01 -0.14017004794E+01  0.53016576369E+01  0.51100000000E-03 0. -1.
        -11    1    3    3    0    0  0.62659830028E+00 -0.25303373478E+02  0.11433227826E+02  0.27773585177E+02  0.51100000000E-03 0.  1.
         12    1    3    3    0    0  0.48577558374E+00 -0.17217918047E+02  0.28171484625E+01  0.17453624416E+02  0.00000000000E+00 0. -1.
</event>
<event>
 7    1  0.3054835E-011  0.5052884E+02  0.7816164E-02  0.1300439E+00
        -11   -1    0    0    0    0  0.00000000000E+00  0.00000000000E+00  0.45593999997E+02  0.45594000000E+02  0.51100000000E-03 0.  1.
         11   -1    0    0    0    0 -0.00000000000E+00 -0.00000000000E+00 -0.45593999997E+02  0.45594000000E+02  0.51100000000E-03 0. -1.
    9900012    2    1    2    0    0  0.27347338470E+02  0.45430318207E+01  0.29743084610E+02  0.50528841848E+02  0.29999945282E+02 0.  0.
         12    1    1    2    0    0 -0.27347338470E+02 -0.45430318207E+01 -0.29743084610E+02  0.40659158152E+02  0.00000000000E+00 0. -1.
         11    1    3    3    0    0  0.70024680394E+01 -0.11968269815E+02  0.11037451882E+02  0.17722849243E+02  0.51100000000E-03 0. -1.
        -11    1    3    3    0    0  0.42460202954E+01  0.45178020355E+01  0.77864752801E+01  0.99533120683E+01  0.51100000000E-03 0.  1.
         12    1    3    3    0    0  0.16098850135E+02  0.11993499600E+02  0.10919157448E+02  0.22852680536E+02  0.00000000000E+00 0. -1.
</event>
<event>
 7    1  0.3054835E-011  0.5052886E+02  0.7816164E-02  0.1300439E+00
        -11   -1    0    0    0    0  0.00000000000E+00  0.00000000000E+00  0.45593999997E+02  0.45594000000E+02  0.51100000000E-03 0.  1.
         11   -1    0    0    0    0 -0.00000000000E+00 -0.00000000000E+00 -0.45593999997E+02  0.45594000000E+02  0.51100000000E-03 0. -1.
    9900012    2    1    2    0    0 -0.20839781476E+02 -0.32752563702E+01  0.34758332596E+02  0.50528862268E+02  0.30000007350E+02 0.  0.
         12    1    1    2    0    0  0.20839781476E+02  0.32752563702E+01 -0.34758332596E+02  0.40659137732E+02  0.00000000000E+00 0. -1.
         11    1    3    3    0    0  0.18878864712E+01 -0.74390336879E+01  0.16989572106E+02  0.18642663386E+02  0.51100000000E-03 0. -1.
        -11    1    3    3    0    0 -0.13078968098E+02 -0.28662584085E+01  0.13988854524E+02  0.19363958659E+02  0.51100000000E-03 0.  1.
         12    1    3    3    0    0 -0.96486998485E+01  0.70300357262E+01  0.37799059661E+01  0.12522240223E+02  0.00000000000E+00 0. -1.
</event>
<event>
 7    1  0.3054835E-011  0.5052887E+02  0.7816164E-02  0.1300439E+00
        -11   -1    0    0    0    0  0.00000000000E+00  0.00000000000E+00  0.45593999997E+02  0.45594000000E+02  0.51100000000E-03 0.  1.
         11   -1    0    0    0    0 -0.00000000000E+00 -0.00000000000E+00 -0.45593999997E+02  0.45594000000E+02  0.51100000000E-03 0. -1.
    9900012    2    1    2    0    0  0.12200171921E+02 -0.21862170812E+02  0.32036950876E+02  0.50528869059E+02  0.30000027991E+02 0.  0.
         12    1    1    2    0    0 -0.12200171921E+02  0.21862170812E+02 -0.32036950876E+02  0.40659130941E+02  0.00000000000E+00 0. -1.
         11    1    3    3    0    0  0.76802130580E+01 -0.14609627761E+02  0.64925546310E+01  0.17736407805E+02  0.51100000000E-03 0. -1.
        -11    1    3    3    0    0 -0.45476929282E+01 -0.54530215405E+01  0.21608103035E+02  0.22744825168E+02  0.51100000000E-03 0.  1.
        -12    1    3    3    0    0  0.90676517913E+01 -0.17995215097E+01  0.39362932101E+01  0.10047636086E+02  0.00000000000E+00 0.  1.
</event>
<event>
 7    1  0.3054835E-011  0.5052885E+02  0.7816164E-02  0.1300439E+00
        -11   -1    0    0    0    0  0.00000000000E+00  0.00000000000E+00  0.45593999997E+02  0.45594000000E+02  0.51100000000E-03 0. -1.
         11   -1    0    0    0    0 -0.00000000000E+00 -0.00000000000E+00 -0.45593999997E+02  0.45594000000E+02  0.51100000000E-03 0.  1.
    9900012    2    1    2    0    0  0.40458988828E+02 -0.31799820689E+01 -0.24746986180E+01  0.50528853475E+02  0.29999980622E+02 0.  0.
         12    1    1    2    0    0 -0.40458988828E+02  0.31799820689E+01  0.24746986180E+01  0.40659146525E+02  0.00000000000E+00 0. -1.
         11    1    3    3    0    0  0.80078118657E+01  0.80161333692E+01 -0.57936804843E+01  0.12725964753E+02  0.51100000000E-03 0. -1.
        -11    1    3    3    0    0  0.73312621688E+01 -0.78087696926E+01  0.60623753393E+01  0.12307586446E+02  0.51100000000E-03 0.  1.
        -12    1    3    3    0    0  0.25119914793E+02 -0.33873457456E+01 -0.27433934730E+01  0.25495302276E+02  0.00000000000E+00 0.  1.
</event>
<event>
 7    1  0.3054835E-011  0.5052887E+02  0.7816164E-02  0.1300439E+00
        -11   -1    0    0    0    0  0.00000000000E+00  0.00000000000E+00  0.45593999997E+02  0.45594000000E+02  0.51100000000E-03 0.  1.
         11   -1    0    0    0    0 -0.00000000000E+00 -0.00000000000E+00 -0.45593999997E+02  0.45594000000E+02  0.51100000000E-03 0. -1.
    9900012    2    1    2    0    0 -0.64136486455E+01 -0.14263580776E+02  0.37531054930E+02  0.50528871755E+02  0.30000036186E+02 0.  0.
         12    1    1    2    0    0  0.64136486455E+01  0.14263580776E+02 -0.37531054930E+02  0.40659128245E+02  0.00000000000E+00 0. -1.
         11    1    3    3    0    0  0.66556118199E-01 -0.90185281815E+01  0.10529190459E+01  0.90800285823E+01  0.51100000000E-03 0. -1.
        -11    1    3    3    0    0 -0.99649726411E+01 -0.50853174191E+01  0.36267767680E+02  0.37954078908E+02  0.51100000000E-03 0.  1.
        -12    1    3    3    0    0  0.34847678774E+01 -0.15973517549E+00  0.21036820415E+00  0.34947642649E+01  0.00000000000E+00 0.  1.
</event>
<event>
 7    1  0.3054835E-011  0.5052886E+02  0.7816164E-02  0.1300439E+00
        -11   -1    0    0    0    0  0.00000000000E+00  0.00000000000E+00  0.45593999997E+02  0.45594000000E+02  0.51100000000E-03 0. -1.
         11   -1    0    0    0    0 -0.00000000000E+00 -0.00000000000E+00 -0.45593999997E+02  0.45594000000E+02  0.51100000000E-03 0.  1.
    9900012    2    1    2    0    0 -0.69968479457E+01  0.24918915898E+02 -0.31356929546E+02  0.50528864726E+02  0.30000014821E+02 0.  0.
         12    1    1    2    0    0  0.69968479457E+01 -0.24918915898E+02  0.31356929546E+02  0.40659135274E+02  0.00000000000E+00 0. -1.
         11    1    3    3    0    0 -0.31082720359E+01 -0.36547242121E+01 -0.98205793088E+00  0.48972239234E+01  0.51100000000E-03 0. -1.
        -11    1    3    3    0    0  0.37517243420E+01  0.20486905034E+02 -0.26809639409E+02  0.33949160209E+02  0.51100000000E-03 0.  1.
         12    1    3    3    0    0 -0.76403002519E+01  0.80867350761E+01 -0.35652322059E+01  0.11682480593E+02  0.00000000000E+00 0. -1.
</event>
<event>
 7    1  0.3054835E-011  0.5052886E+02  0.7816164E-02  0.1300439E+00
        -11   -1    0    0    0    0  0.00000000000E+00  0.00000000000E+00  0.45593999997E+02  0.45594000000E+02  0.51100000000E-03 0.  1.
         11   -1    0    0    0    0 -0.00000000000E+00 -0.00000000000E+00 -0.45593999997E+02  0.45594000000E+02  0.51100000000E-03 0. -1.
    9900012    2    1    2    0    0  0.20633884523E+01  0.40603181572E+02 -0.53796857402E+00  0.50528864054E+02  0.30000012778E+02 0.  0.
         12    1    1    2    0    0 -0.20633884523E+01 -0.40603181572E+02  0.53796857402E+00  0.40659135946E+02  0.00000000000E+00 0. -1.
         11    1    3    3    0    0 -0.76594430613E+01  0.64582111234E+00  0.28594065775E+01  0.82012413179E+01  0.51100000000E-03 0. -1.
        -11    1    3    3    0    0  0.85557331045E+01  0.25308345384E+02  0.17096878525E+01  0.26770056926E+02  0.51100000000E-03 0.  1.
        -12    1    3    3    0    0  0.11670984091E+01  0.14649015076E+02 -0.51070630040E+01  0.15557565810E+02  0.00000000000E+00 0.  1.
</event>
<event>
 7    1  0.3054835E-011  0.5052886E+02  0.7816164E-02  0.1300439E+00
        -11   -1    0    0    0    0  0.00000000000E+00  0.00000000000E+00  0.45593999997E+02  0.45594000000E+02  0.51100000000E-03 0.  1.
         11   -1    0    0    0    0 -0.00000000000E+00 -0.00000000000E+00 -0.45593999997E+02  0.45594000000E+02  0.51100000000E-03 0. -1.
    9900012    2    1    2    0    0  0.20121486908E+02 -0.31565384226E+02  0.15871910642E+02  0.50528864936E+02  0.30000015460E+02 0.  0.
         12    1    1    2    0    0 -0.20121486908E+02  0.31565384226E+02 -0.15871910642E+02  0.40659135064E+02  0.00000000000E+00 0. -1.
         11    1    3    3    0    0  0.68796642313E+01 -0.23049211725E+01  0.12598029012E+02  0.14537977053E+02  0.51100000000E-03 0. -1.
        -11    1    3    3    0    0  0.10510034082E+02 -0.24982904985E+02  0.87916271760E+01  0.28493842608E+02  0.51100000000E-03 0.  1.
         12    1    3    3    0    0  0.27317885947E+01 -0.42775580683E+01 -0.55177455457E+01  0.74970452753E+01  0.00000000000E+00 0. -1.
</event>
<event>
 7    1  0.3054835E-011  0.5052886E+02  0.7816164E-02  0.1300439E+00
        -11   -1    0    0    0    0  0.00000000000E+00  0.00000000000E+00  0.45593999997E+02  0.45594000000E+02  0.51100000000E-03 0. -1.
         11   -1    0    0    0    0 -0.00000000000E+00 -0.00000000000E+00 -0.45593999997E+02  0.45594000000E+02  0.51100000000E-03 0.  1.
    9900012    2    1    2    0    0 -0.86267976697E+01 -0.39623938132E+02  0.29475038812E+01  0.50528857236E+02  0.29999992055E+02 0.  0.
         12    1    1    2    0    0  0.86267976697E+01  0.39623938132E+02 -0.29475038812E+01  0.40659142764E+02  0.00000000000E+00 0. -1.
         11    1    3    3    0    0 -0.48795741429E+01 -0.16564014744E+02  0.58802948549E+01  0.18241565067E+02  0.51100000000E-03 0. -1.
        -11    1    3    3    0    0  0.36681628370E+01  0.20979751139E+01  0.32612133578E+01  0.53378301775E+01  0.51100000000E-03 0.  1.
        -12    1    3    3    0    0 -0.74153863637E+01 -0.25157898503E+02 -0.61940043315E+01  0.26949461992E+02  0.00000000000E+00 0.  1.
</event>
<event>
 7    1  0.3054835E-011  0.5052886E+02  0.7816164E-02  0.1300439E+00
        -11   -1    0    0    0    0  0.00000000000E+00  0.00000000000E+00  0.45593999997E+02  0.45594000000E+02  0.51100000000E-03 0. -1.
         11   -1    0    0    0    0 -0.00000000000E+00 -0.00000000000E+00 -0.45593999997E+02  0.45594000000E+02  0.51100000000E-03 0.  1.
    9900012    2    1    2    0    0 -0.18020198136E+02  0.13080341713E+02 -0.34019735508E+02  0.50528864689E+02  0.30000014709E+02 0.  0.
         12    1    1    2    0    0  0.18020198136E+02 -0.13080341713E+02  0.34019735508E+02  0.40659135311E+02  0.00000000000E+00 0. -1.
         11    1    3    3    0    0  0.30830054096E+01  0.12305916374E+02 -0.12270344372E+02  0.17649415045E+02  0.51100000000E-03 0. -1.
        -11    1    3    3    0    0 -0.17401250351E+02  0.19498712454E+01 -0.92761547102E+01  0.19815462601E+02  0.51100000000E-03 0.  1.
         12    1    3    3    0    0 -0.37019531951E+01 -0.11754459056E+01 -0.12473236425E+02  0.13063987043E+02  0.00000000000E+00 0. -1.
</event>
<event>
 7    1  0.3054835E-011  0.5052886E+02  0.7816164E-02  0.1300439E+00
        -11   -1    0    0    0    0  0.00000000000E+00  0.00000000000E+00  0.45593999997E+02  0.45594000000E+02  0.51100000000E-03 0. -1.
         11   -1    0    0    0    0 -0.00000000000E+00 -0.00000000000E+00 -0.45593999997E+02  0.45594000000E+02  0.51100000000E-03 0.  1.
    9900012    2    1    2    0    0  0.27179714602E+02 -0.94921838926E+00 -0.30224626970E+02  0.50528856172E+02  0.29999988820E+02 0.  0.
         12    1    1    2    0    0 -0.27179714602E+02  0.94921838926E+00  0.30224626970E+02  0.40659143828E+02  0.00000000000E+00 0. -1.
         11    1    3    3    0    0  0.19564545887E+01 -0.93945195754E+01 -0.15708748773E+01  0.97238038211E+01  0.51100000000E-03 0. -1.
        -11    1    3    3    0    0  0.24922849846E+02  0.72968603320E+01 -0.21967288923E+02  0.34014032370E+02  0.51100000000E-03 0.  1.
         12    1    3    3    0    0  0.30041016648E+00  0.11484408542E+01 -0.66864631692E+01  0.67910199806E+01  0.00000000000E+00 0. -1.
</event>
<event>
 7    1  0.3054835E-011  0.5052886E+02  0.7816164E-02  0.1300439E+00
        -11   -1    0    0    0    0  0.00000000000E+00  0.00000000000E+00  0.45593999997E+02  0.45594000000E+02  0.51100000000E-03 0.  1.
         11   -1    0    0    0    0 -0.00000000000E+00 -0.00000000000E+00 -0.45593999997E+02  0.45594000000E+02  0.51100000000E-03 0. -1.
    9900012    2    1    2    0    0 -0.28070828935E+02  0.27524716274E+02  0.10372298074E+02  0.50528855758E+02  0.29999987563E+02 0.  0.
         12    1    1    2    0    0  0.28070828935E+02 -0.27524716274E+02 -0.10372298074E+02  0.40659144242E+02  0.00000000000E+00 0. -1.
         11    1    3    3    0    0 -0.56245326594E+00  0.15423270255E+02 -0.51977617831E+01  0.16285280067E+02  0.51100000000E-03 0. -1.
        -11    1    3    3    0    0 -0.32245546822E+01  0.30737785659E+00  0.31818044815E+01  0.45404971164E+01  0.51100000000E-03 0.  1.
         12    1    3    3    0    0 -0.24283820987E+02  0.11794068162E+02  0.12388255376E+02  0.29703078575E+02  0.00000000000E+00 0. -1.
</event>
<event>
 7    1  0.3054835E-011  0.5052886E+02  0.7816164E-02  0.1300439E+00
        -11   -1    0    0    0    0  0.00000000000E+00  0.00000000000E+00  0.45593999997E+02  0.45594000000E+02  0.51100000000E-03 0.  1.
         11   -1    0    0    0    0 -0.00000000000E+00 -0.00000000000E+00 -0.45593999997E+02  0.45594000000E+02  0.51100000000E-03 0. -1.
    9900012    2    1    2    0    0 -0.51087981039E+00 -0.14324264329E+01  0.40630683778E+02  0.50528864398E+02  0.30000013823E+02 0.  0.
         12    1    1    2    0    0  0.51087981039E+00  0.14324264329E+01 -0.40630683778E+02  0.40659135602E+02  0.00000000000E+00 0. -1.
         11    1    3    3    0    0 -0.79494796271E+00 -0.27012467249E+01 -0.12632868682E+01  0.30861902250E+01  0.51100000000E-03 0. -1.
        -11    1    3    3    0    0 -0.12135644608E+01  0.69494674738E+01  0.40876102569E+02  0.41480400171E+02  0.51100000000E-03 0.  1.
        -12    1    3    3    0    0  0.14976326131E+01 -0.56806471818E+01  0.10178680774E+01  0.59622740016E+01  0.00000000000E+00 0.  1.
</event>
<event>
 7    1  0.3054835E-011  0.5052888E+02  0.7816164E-02  0.1300439E+00
        -11   -1    0    0    0    0  0.00000000000E+00  0.00000000000E+00  0.45593999997E+02  0.45594000000E+02  0.51100000000E-03 0.  1.
         11   -1    0    0    0    0 -0.00000000000E+00 -0.00000000000E+00 -0.45593999997E+02  0.45594000000E+02  0.51100000000E-03 0. -1.
    9900012    2    1    2    0    0  0.92880731813E+01  0.38696093221E+02  0.83371608475E+01  0.50528878207E+02  0.30000055797E+02 0.  0.
         12    1    1    2    0    0 -0.92880731813E+01 -0.38696093221E+02 -0.83371608475E+01  0.40659121793E+02  0.00000000000E+00 0. -1.
         11    1    3    3    0    0  0.13644058602E+02  0.93501358948E+01  0.93287963784E+01  0.18989781950E+02  0.51100000000E-03 0. -1.
        -11    1    3    3    0    0  0.17632400086E+01  0.51757524460E+01  0.30805947073E+01  0.62759455640E+01  0.51100000000E-03 0.  1.
         12    1    3    3    0    0 -0.61192254293E+01  0.24170204880E+02 -0.40722302382E+01  0.25263150693E+02  0.00000000000E+00 0. -1.
</event>
<event>
 7    1  0.3054835E-011  0.5052886E+02  0.7816164E-02  0.1300439E+00
        -11   -1    0    0    0    0  0.00000000000E+00  0.00000000000E+00  0.45593999997E+02  0.45594000000E+02  0.51100000000E-03 0.  1.
         11   -1    0    0    0    0 -0.00000000000E+00 -0.00000000000E+00 -0.45593999997E+02  0.45594000000E+02  0.51100000000E-03 0. -1.
    9900012    2    1    2    0    0 -0.37496347808E+02 -0.16012467992E+01  0.15640499135E+02  0.50528864452E+02  0.30000013990E+02 0.  0.
         12    1    1    2    0    0  0.37496347808E+02  0.16012467992E+01 -0.15640499135E+02  0.40659135548E+02  0.00000000000E+00 0. -1.
         11    1    3    3    0    0 -0.24461157865E+02  0.56785112221E+01  0.21347908661E+02  0.32959474180E+02  0.51100000000E-03 0. -1.
        -11    1    3    3    0    0  0.10964044977E+00 -0.22005818723E+01  0.34948761856E+00  0.22308571137E+01  0.51100000000E-03 0.  1.
         12    1    3    3    0    0 -0.13144830393E+02 -0.50791761489E+01 -0.60568971448E+01  0.15338533158E+02  0.00000000000E+00 0. -1.
</event>
<event>
 7    1  0.3054835E-011  0.5052885E+02  0.7816164E-02  0.1300439E+00
        -11   -1    0    0    0    0  0.00000000000E+00  0.00000000000E+00  0.45593999997E+02  0.45594000000E+02  0.51100000000E-03 0.  1.
         11   -1    0    0    0    0 -0.00000000000E+00 -0.00000000000E+00 -0.45593999997E+02  0.45594000000E+02  0.51100000000E-03 0. -1.
    9900012    2    1    2    0    0 -0.54398508762E+01 -0.86088726269E+01  0.39363200429E+02  0.50528853262E+02  0.29999979976E+02 0.  0.
         12    1    1    2    0    0  0.54398508762E+01  0.86088726269E+01 -0.39363200429E+02  0.40659146738E+02  0.00000000000E+00 0. -1.
         11    1    3    3    0    0  0.17121288053E+01 -0.16734569142E+01 -0.45895827164E+01  0.51764961954E+01  0.51100000000E-03 0. -1.
        -11    1    3    3    0    0 -0.31638653649E+01 -0.64102600659E+01  0.27253548783E+02  0.28175475146E+02  0.51100000000E-03 0.  1.
         12    1    3    3    0    0 -0.39881143167E+01 -0.52515564676E+00  0.16699234362E+02  0.17176881921E+02  0.00000000000E+00 0. -1.
</event>
<event>
 7    1  0.3054835E-011  0.5052885E+02  0.7816164E-02  0.1300439E+00
        -11   -1    0    0    0    0  0.00000000000E+00  0.00000000000E+00  0.45593999997E+02  0.45594000000E+02  0.51100000000E-03 0.  1.
         11   -1    0    0    0    0 -0.00000000000E+00 -0.00000000000E+00 -0.45593999997E+02  0.45594000000E+02  0.51100000000E-03 0. -1.
    9900012    2    1    2    0    0  0.18018196372E+02 -0.22651106964E+02  0.28555876218E+02  0.50528854488E+02  0.29999983702E+02 0.  0.
         12    1    1    2    0    0 -0.18018196372E+02  0.22651106964E+02 -0.28555876218E+02  0.40659145512E+02  0.00000000000E+00 0. -1.
         11    1    3    3    0    0  0.58495099220E+01 -0.18297974281E+02  0.30606231455E+01  0.19452507381E+02  0.51100000000E-03 0. -1.
        -11    1    3    3    0    0 -0.47398625605E+00 -0.13763421325E+01  0.12906610870E+02  0.12988440439E+02  0.51100000000E-03 0.  1.
         12    1    3    3    0    0  0.12642672706E+02 -0.29767905506E+01  0.12588642202E+02  0.18087906668E+02  0.00000000000E+00 0. -1.
</event>
<event>
 7    1  0.3054835E-011  0.5052886E+02  0.7816164E-02  0.1300439E+00
        -11   -1    0    0    0    0  0.00000000000E+00  0.00000000000E+00  0.45593999997E+02  0.45594000000E+02  0.51100000000E-03 0.  1.
         11   -1    0    0    0    0 -0.00000000000E+00 -0.00000000000E+00 -0.45593999997E+02  0.45594000000E+02  0.51100000000E-03 0. -1.
    9900012    2    1    2    0    0  0.21963265199E+02 -0.11217244316E+02  0.32325745102E+02  0.50528863454E+02  0.30000010954E+02 0.  0.
         12    1    1    2    0    0 -0.21963265199E+02  0.11217244316E+02 -0.32325745102E+02  0.40659136546E+02  0.00000000000E+00 0. -1.
         11    1    3    3    0    0  0.41410605478E+01 -0.33693911677E+01 -0.96116564086E+00  0.54244832889E+01  0.51100000000E-03 0. -1.
        -11    1    3    3    0    0 -0.29726967278E+01 -0.32648930225E+01  0.18892555182E+02  0.19401677604E+02  0.51100000000E-03 0.  1.
        -12    1    3    3    0    0  0.20794901380E+02 -0.45829601257E+01  0.14394355561E+02  0.25702702561E+02  0.00000000000E+00 0.  1.
</event>
<event>
 7    1  0.3054835E-011  0.5052886E+02  0.7816164E-02  0.1300439E+00
        -11   -1    0    0    0    0  0.00000000000E+00  0.00000000000E+00  0.45593999997E+02  0.45594000000E+02  0.51100000000E-03 0.  1.
         11   -1    0    0    0    0 -0.00000000000E+00 -0.00000000000E+00 -0.45593999997E+02  0.45594000000E+02  0.51100000000E-03 0. -1.
    9900012    2    1    2    0    0  0.95907563819E+01  0.26521922726E+02  0.29287722448E+02  0.50528859831E+02  0.29999999944E+02 0.  0.
         12    1    1    2    0    0 -0.95907563819E+01 -0.26521922726E+02 -0.29287722448E+02  0.40659140169E+02  0.00000000000E+00 0. -1.
         11    1    3    3    0    0  0.10348480657E+02  0.93323857284E+00  0.12031897756E+02  0.15897438474E+02  0.51100000000E-03 0. -1.
        -11    1    3    3    0    0  0.29310216407E+01  0.14192980816E+01  0.77371907446E+01  0.83946063506E+01  0.51100000000E-03 0.  1.
         12    1    3    3    0    0 -0.36887459162E+01  0.24169386071E+02  0.95186339475E+01  0.26236815007E+02  0.00000000000E+00 0. -1.
</event>
<event>
 7    1  0.3054835E-011  0.5052886E+02  0.7816164E-02  0.1300439E+00
        -11   -1    0    0    0    0  0.00000000000E+00  0.00000000000E+00  0.45593999997E+02  0.45594000000E+02  0.51100000000E-03 0. -1.
         11   -1    0    0    0    0 -0.00000000000E+00 -0.00000000000E+00 -0.45593999997E+02  0.45594000000E+02  0.51100000000E-03 0.  1.
    9900012    2    1    2    0    0  0.20249412178E+02 -0.19622928415E+02 -0.29292794255E+02  0.50528858244E+02  0.29999995117E+02 0.  0.
         12    1    1    2    0    0 -0.20249412178E+02  0.19622928415E+02  0.29292794255E+02  0.40659141756E+02  0.00000000000E+00 0. -1.
         11    1    3    3    0    0  0.21662161118E+01 -0.38521357160E+01  0.46512344025E+01  0.64160286428E+01  0.51100000000E-03 0. -1.
        -11    1    3    3    0    0  0.12845098432E+02 -0.24406178416E+01 -0.21377728360E+02  0.25059138837E+02  0.51100000000E-03 0.  1.
         12    1    3    3    0    0  0.52380976342E+01 -0.13330174857E+02 -0.12566300297E+02  0.19053690763E+02  0.00000000000E+00 0. -1.
</event>
<event>
 7    1  0.3054835E-011  0.5052886E+02  0.7816164E-02  0.1300439E+00
        -11   -1    0    0    0    0  0.00000000000E+00  0.00000000000E+00  0.45593999997E+02  0.45594000000E+02  0.51100000000E-03 0. -1.
         11   -1    0    0    0    0 -0.00000000000E+00 -0.00000000000E+00 -0.45593999997E+02  0.45594000000E+02  0.51100000000E-03 0.  1.
    9900012    2    1    2    0    0  0.32237020016E+02 -0.13892232738E+02 -0.20516962842E+02  0.50528863828E+02  0.30000012093E+02 0.  0.
         12    1    1    2    0    0 -0.32237020016E+02  0.13892232738E+02  0.20516962842E+02  0.40659136172E+02  0.00000000000E+00 0. -1.
         11    1    3    3    0    0  0.26795572291E+02  0.47073174741E+00 -0.79471216414E+01  0.27953193474E+02  0.51100000000E-03 0. -1.
        -11    1    3    3    0    0 -0.84311818924E+00 -0.36845108890E+01  0.12815566179E+01  0.39910971422E+01  0.51100000000E-03 0.  1.
        -12    1    3    3    0    0  0.62845659144E+01 -0.10678453597E+02 -0.13851397818E+02  0.18584573212E+02  0.00000000000E+00 0.  1.
</event>
<event>
 7    1  0.3054835E-011  0.5052885E+02  0.7816164E-02  0.1300439E+00
        -11   -1    0    0    0    0  0.00000000000E+00  0.00000000000E+00  0.45593999997E+02  0.45594000000E+02  0.51100000000E-03 0. -1.
         11   -1    0    0    0    0 -0.00000000000E+00 -0.00000000000E+00 -0.45593999997E+02  0.45594000000E+02  0.51100000000E-03 0.  1.
    9900012    2    1    2    0    0  0.39670155381E+02  0.84133121775E+01  0.29430523865E+01  0.50528848421E+02  0.29999965260E+02 0.  0.
         12    1    1    2    0    0 -0.39670155381E+02 -0.84133121775E+01 -0.29430523865E+01  0.40659151579E+02  0.00000000000E+00 0. -1.
         11    1    3    3    0    0  0.16949690588E+01  0.31965489695E+01 -0.80043156157E+01  0.87840716164E+01  0.51100000000E-03 0. -1.
        -11    1    3    3    0    0  0.31294817268E+02  0.49380675412E+01  0.37211173942E+01  0.31899793319E+02  0.51100000000E-03 0.  1.
        -12    1    3    3    0    0  0.66803690547E+01  0.27869566680E+00  0.72262506079E+01  0.98449834855E+01  0.00000000000E+00 0.  1.
</event>
<event>
 7    1  0.3054835E-011  0.5052886E+02  0.7816164E-02  0.1300439E+00
        -11   -1    0    0    0    0  0.00000000000E+00  0.00000000000E+00  0.45593999997E+02  0.45594000000E+02  0.51100000000E-03 0.  1.
         11   -1    0    0    0    0 -0.00000000000E+00 -0.00000000000E+00 -0.45593999997E+02  0.45594000000E+02  0.51100000000E-03 0. -1.
    9900012    2    1    2    0    0  0.23573414632E+02  0.46707853199E+01  0.32797010046E+02  0.50528856122E+02  0.29999988670E+02 0.  0.
         12    1    1    2    0    0 -0.23573414632E+02 -0.46707853199E+01 -0.32797010046E+02  0.40659143878E+02  0.00000000000E+00 0. -1.
         11    1    3    3    0    0 -0.16597844768E-01  0.52720344389E+01  0.24386008029E+02  0.24949388980E+02  0.51100000000E-03 0. -1.
        -11    1    3    3    0    0  0.17333472314E+02 -0.22510882070E+01  0.75949146983E+01  0.19057790798E+02  0.51100000000E-03 0.  1.
         12    1    3    3    0    0  0.62565401630E+01  0.16498390880E+01  0.81608731816E+00  0.65216763442E+01  0.00000000000E+00 0. -1.
</event>
<event>
 7    1  0.3054835E-011  0.5052885E+02  0.7816164E-02  0.1300439E+00
        -11   -1    0    0    0    0  0.00000000000E+00  0.00000000000E+00  0.45593999997E+02  0.45594000000E+02  0.51100000000E-03 0. -1.
         11   -1    0    0    0    0 -0.00000000000E+00 -0.00000000000E+00 -0.45593999997E+02  0.45594000000E+02  0.51100000000E-03 0.  1.
    9900012    2    1    2    0    0  0.39725129085E+02  0.42521368782E+01 -0.75498229312E+01  0.50528851274E+02  0.29999973932E+02 0.  0.
         12    1    1    2    0    0 -0.39725129085E+02 -0.42521368782E+01  0.75498229312E+01  0.40659148726E+02  0.00000000000E+00 0. -1.
         11    1    3    3    0    0  0.12032764027E+02  0.76777884801E+01 -0.12086290310E+02  0.18703322159E+02  0.51100000000E-03 0. -1.
        -11    1    3    3    0    0  0.26479330686E+02 -0.36928389297E+01  0.81938072364E+01  0.27963020048E+02  0.51100000000E-03 0.  1.
        -12    1    3    3    0    0  0.12130343726E+01  0.26718732779E+00 -0.36573398573E+01  0.38625090665E+01  0.00000000000E+00 0.  1.
</event>
<event>
 7    1  0.3054835E-011  0.5052887E+02  0.7816164E-02  0.1300439E+00
        -11   -1    0    0    0    0  0.00000000000E+00  0.00000000000E+00  0.45593999997E+02  0.45594000000E+02  0.51100000000E-03 0. -1.
         11   -1    0    0    0    0 -0.00000000000E+00 -0.00000000000E+00 -0.45593999997E+02  0.45594000000E+02  0.51100000000E-03 0.  1.
    9900012    2    1    2    0    0  0.38550251401E+02 -0.11888008754E+02  0.50713364360E+01  0.50528867096E+02  0.30000022025E+02 0.  0.
         12    1    1    2    0    0 -0.38550251401E+02  0.11888008754E+02 -0.50713364360E+01  0.40659132904E+02  0.00000000000E+00 0. -1.
         11    1    3    3    0    0 -0.87244642204E+00  0.35297423859E+01 -0.56938534063E+00  0.36802777065E+01  0.51100000000E-03 0. -1.
        -11    1    3    3    0    0  0.29669745217E+02 -0.48145334964E+01 -0.27387333831E+01  0.30182348730E+02  0.51100000000E-03 0.  1.
        -12    1    3    3    0    0  0.97529526062E+01 -0.10603217644E+02  0.83794551597E+01  0.16666240659E+02  0.00000000000E+00 0.  1.
</event>
<event>
 7    1  0.3054835E-011  0.5052888E+02  0.7816164E-02  0.1300439E+00
        -11   -1    0    0    0    0  0.00000000000E+00  0.00000000000E+00  0.45593999997E+02  0.45594000000E+02  0.51100000000E-03 0. -1.
         11   -1    0    0    0    0 -0.00000000000E+00 -0.00000000000E+00 -0.45593999997E+02  0.45594000000E+02  0.51100000000E-03 0.  1.
    9900012    2    1    2    0    0 -0.27711184162E+02 -0.92869495145E+00 -0.29738729150E+02  0.50528877857E+02  0.30000054734E+02 0.  0.
         12    1    1    2    0    0  0.27711184162E+02  0.92869495145E+00  0.29738729150E+02  0.40659122143E+02  0.00000000000E+00 0. -1.
         11    1    3    3    0    0 -0.49258670946E+01  0.59229320545E+01 -0.59036650581E+00  0.77261778150E+01  0.51100000000E-03 0. -1.
        -11    1    3    3    0    0 -0.31942004244E+01 -0.97573584896E+01 -0.16066827679E+02  0.19067037341E+02  0.51100000000E-03 0.  1.
        -12    1    3    3    0    0 -0.19591116643E+02  0.29057314837E+01 -0.13081534965E+02  0.23735662700E+02  0.00000000000E+00 0.  1.
</event>
<event>
 7    1  0.3054835E-011  0.5052886E+02  0.7816164E-02  0.1300439E+00
        -11   -1    0    0    0    0  0.00000000000E+00  0.00000000000E+00  0.45593999997E+02  0.45594000000E+02  0.51100000000E-03 0.  1.
         11   -1    0    0    0    0 -0.00000000000E+00 -0.00000000000E+00 -0.45593999997E+02  0.45594000000E+02  0.51100000000E-03 0. -1.
    9900012    2    1    2    0    0 -0.21902825209E+02  0.33191521418E+02  0.84708034378E+01  0.50528863794E+02  0.30000011988E+02 0.  0.
         12    1    1    2    0    0  0.21902825209E+02 -0.33191521418E+02 -0.84708034378E+01  0.40659136206E+02  0.00000000000E+00 0. -1.
         11    1    3    3    0    0  0.28111184714E+01  0.31966352796E+01 -0.39078777214E+00  0.42747607553E+01  0.51100000000E-03 0. -1.
        -11    1    3    3    0    0 -0.22340878228E+02  0.31072016535E+02  0.13394749941E+01  0.38293331600E+02  0.51100000000E-03 0.  1.
        -12    1    3    3    0    0 -0.23730654523E+01 -0.10771303967E+01  0.75221162158E+01  0.79607714386E+01  0.00000000000E+00 0.  1.
</event>
<event>
 7    1  0.3054835E-011  0.5052886E+02  0.7816164E-02  0.1300439E+00
        -11   -1    0    0    0    0  0.00000000000E+00  0.00000000000E+00  0.45593999997E+02  0.45594000000E+02  0.51100000000E-03 0. -1.
         11   -1    0    0    0    0 -0.00000000000E+00 -0.00000000000E+00 -0.45593999997E+02  0.45594000000E+02  0.51100000000E-03 0.  1.
    9900012    2    1    2    0    0 -0.96548620586E+00 -0.36841282121E+02 -0.17174208361E+02  0.50528860009E+02  0.30000000485E+02 0.  0.
         12    1    1    2    0    0  0.96548620586E+00  0.36841282121E+02  0.17174208361E+02  0.40659139991E+02  0.00000000000E+00 0. -1.
         11    1    3    3    0    0 -0.18431341639E+00 -0.80341351280E+01 -0.13221391772E+02  0.15472120066E+02  0.51100000000E-03 0. -1.
        -11    1    3    3    0    0 -0.87438909658E+01 -0.13452785448E+02  0.31636647240E+01  0.16353649142E+02  0.51100000000E-03 0.  1.
         12    1    3    3    0    0  0.79627181763E+01 -0.15354361546E+02 -0.71164813125E+01  0.18703090801E+02  0.00000000000E+00 0. -1.
</event>
<event>
 7    1  0.3054835E-011  0.5052888E+02  0.7816164E-02  0.1300439E+00
        -11   -1    0    0    0    0  0.00000000000E+00  0.00000000000E+00  0.45593999997E+02  0.45594000000E+02  0.51100000000E-03 0.  1.
         11   -1    0    0    0    0 -0.00000000000E+00 -0.00000000000E+00 -0.45593999997E+02  0.45594000000E+02  0.51100000000E-03 0. -1.
    9900012    2    1    2    0    0  0.24498273336E+02 -0.30312492941E+02  0.11582385722E+02  0.50528876992E+02  0.30000052106E+02 0.  0.
         12    1    1    2    0    0 -0.24498273336E+02  0.30312492941E+02 -0.11582385722E+02  0.40659123008E+02  0.00000000000E+00 0. -1.
         11    1    3    3    0    0  0.27501686700E+02 -0.23280694218E+02  0.62805436195E+01  0.36575657520E+02  0.51100000000E-03 0. -1.
        -11    1    3    3    0    0 -0.37417343839E+00 -0.36979735851E+01  0.80699149586E+01  0.88847364676E+01  0.51100000000E-03 0.  1.
         12    1    3    3    0    0 -0.26292399254E+01 -0.33338251383E+01 -0.27680728560E+01  0.50684830053E+01  0.00000000000E+00 0. -1.
</event>
<event>
 7    1  0.3054835E-011  0.5052886E+02  0.7816164E-02  0.1300439E+00
        -11   -1    0    0    0    0  0.00000000000E+00  0.00000000000E+00  0.45593999997E+02  0.45594000000E+02  0.51100000000E-03 0.  1.
         11   -1    0    0    0    0 -0.00000000000E+00 -0.00000000000E+00 -0.45593999997E+02  0.45594000000E+02  0.51100000000E-03 0. -1.
    9900012    2    1    2    0    0 -0.50264230875E+01  0.28526219162E+02  0.28533413829E+02  0.50528858181E+02  0.29999994928E+02 0.  0.
         12    1    1    2    0    0  0.50264230875E+01 -0.28526219162E+02 -0.28533413829E+02  0.40659141819E+02  0.00000000000E+00 0. -1.
         11    1    3    3    0    0 -0.10384137227E+02 -0.71455553411E+00  0.35485609881E+01  0.10996962349E+02  0.51100000000E-03 0. -1.
        -11    1    3    3    0    0  0.25200575372E+01  0.24295864596E+02  0.22838338353E+02  0.33439937581E+02  0.51100000000E-03 0.  1.
        -12    1    3    3    0    0  0.28376566020E+01  0.49449101000E+01  0.21465144879E+01  0.60919582512E+01  0.00000000000E+00 0.  1.
</event>
<event>
 7    1  0.3054835E-011  0.5052886E+02  0.7816164E-02  0.1300439E+00
        -11   -1    0    0    0    0  0.00000000000E+00  0.00000000000E+00  0.45593999997E+02  0.45594000000E+02  0.51100000000E-03 0. -1.
         11   -1    0    0    0    0 -0.00000000000E+00 -0.00000000000E+00 -0.45593999997E+02  0.45594000000E+02  0.51100000000E-03 0.  1.
    9900012    2    1    2    0    0  0.32229768730E+02 -0.77375145934E+01 -0.23548638873E+02  0.50528861824E+02  0.30000006001E+02 0.  0.
         12    1    1    2    0    0 -0.32229768730E+02  0.77375145934E+01  0.23548638873E+02  0.40659138176E+02  0.00000000000E+00 0. -1.
         11    1    3    3    0    0  0.50466980908E+01 -0.21483094005E+01  0.36206437604E+01  0.65721728827E+01  0.51100000000E-03 0. -1.
        -11    1    3    3    0    0  0.70683948647E+01  0.11759563007E+01 -0.20492692620E+02  0.21709342004E+02  0.51100000000E-03 0.  1.
        -12    1    3    3    0    0  0.20114675774E+02 -0.67651614936E+01 -0.66765900132E+01  0.22247346937E+02  0.00000000000E+00 0.  1.
</event>
<event>
 7    1  0.3054835E-011  0.5052886E+02  0.7816164E-02  0.1300439E+00
        -11   -1    0    0    0    0  0.00000000000E+00  0.00000000000E+00  0.45593999997E+02  0.45594000000E+02  0.51100000000E-03 0.  1.
         11   -1    0    0    0    0 -0.00000000000E+00 -0.00000000000E+00 -0.45593999997E+02  0.45594000000E+02  0.51100000000E-03 0. -1.
    9900012    2    1    2    0    0  0.35145952914E+02  0.19896410074E+02  0.46968956702E+01  0.50528856269E+02  0.29999989114E+02 0.  0.
         12    1    1    2    0    0 -0.35145952914E+02 -0.19896410074E+02 -0.46968956702E+01  0.40659143731E+02  0.00000000000E+00 0. -1.
         11    1    3    3    0    0 -0.39848646116E+01  0.79296670137E-03 -0.34412579156E+01  0.52651118606E+01  0.51100000000E-03 0. -1.
        -11    1    3    3    0    0  0.25314554928E+02  0.12057771114E+02  0.87328690851E+01  0.29368001944E+02  0.51100000000E-03 0.  1.
         12    1    3    3    0    0  0.13816262597E+02  0.78378459926E+01 -0.59471549936E+00  0.15895742464E+02  0.00000000000E+00 0. -1.
</event>
<event>
 7    1  0.3054835E-011  0.5052889E+02  0.7816164E-02  0.1300439E+00
        -11   -1    0    0    0    0  0.00000000000E+00  0.00000000000E+00  0.45593999997E+02  0.45594000000E+02  0.51100000000E-03 0.  1.
         11   -1    0    0    0    0 -0.00000000000E+00 -0.00000000000E+00 -0.45593999997E+02  0.45594000000E+02  0.51100000000E-03 0. -1.
    9900012    2    1    2    0    0  0.11929255380E+02  0.30227426836E+02  0.24436835002E+02  0.50528888205E+02  0.30000086187E+02 0.  0.
         12    1    1    2    0    0 -0.11929255380E+02 -0.30227426836E+02 -0.24436835002E+02  0.40659111795E+02  0.00000000000E+00 0. -1.
         11    1    3    3    0    0  0.30983632502E+01  0.17715115136E+02 -0.20269980345E+01  0.18097897127E+02  0.51100000000E-03 0. -1.
        -11    1    3    3    0    0  0.67652832706E+01  0.61020493288E+01  0.60540330778E+01  0.10938710185E+02  0.51100000000E-03 0.  1.
         12    1    3    3    0    0  0.20656088588E+01  0.64102623718E+01  0.20409799959E+02  0.21492280893E+02  0.00000000000E+00 0. -1.
</event>
<event>
 7    1  0.3054835E-011  0.5052886E+02  0.7816164E-02  0.1300439E+00
        -11   -1    0    0    0    0  0.00000000000E+00  0.00000000000E+00  0.45593999997E+02  0.45594000000E+02  0.51100000000E-03 0.  1.
         11   -1    0    0    0    0 -0.00000000000E+00 -0.00000000000E+00 -0.45593999997E+02  0.45594000000E+02  0.51100000000E-03 0. -1.
    9900012    2    1    2    0    0  0.46999739995E+01  0.13977773418E+02  0.37890602745E+02  0.50528859801E+02  0.29999999852E+02 0.  0.
         12    1    1    2    0    0 -0.46999739995E+01 -0.13977773418E+02 -0.37890602745E+02  0.40659140199E+02  0.00000000000E+00 0. -1.
         11    1    3    3    0    0 -0.11100106119E+02  0.82728786619E+01  0.22425395299E+02  0.26354339904E+02  0.51100000000E-03 0. -1.
        -11    1    3    3    0    0  0.60775149388E+00  0.30778562218E+01  0.31031747953E+01  0.44127377977E+01  0.51100000000E-03 0.  1.
         12    1    3    3    0    0  0.15192328624E+02  0.26270385340E+01  0.12362032651E+02  0.19761782099E+02  0.00000000000E+00 0. -1.
</event>
<event>
 7    1  0.3054835E-011  0.5052886E+02  0.7816164E-02  0.1300439E+00
        -11   -1    0    0    0    0  0.00000000000E+00  0.00000000000E+00  0.45593999997E+02  0.45594000000E+02  0.51100000000E-03 0. -1.
         11   -1    0    0    0    0 -0.00000000000E+00 -0.00000000000E+00 -0.45593999997E+02  0.45594000000E+02  0.51100000000E-03 0.  1.
    9900012    2    1    2    0    0  0.27862869693E+02  0.26224470320E+02 -0.13751480775E+02  0.50528861119E+02  0.30000003856E+02 0.  0.
         12    1    1    2    0    0 -0.27862869693E+02 -0.26224470320E+02  0.13751480775E+02  0.40659138881E+02  0.00000000000E+00 0. -1.
         11    1    3    3    0    0 -0.54428322074E+01  0.57942804899E+01 -0.78200935117E+00  0.79880941231E+01  0.51100000000E-03 0. -1.
        -11    1    3    3    0    0  0.21495181656E+02  0.72042861121E+01 -0.88521975790E+01  0.24337337057E+02  0.51100000000E-03 0.  1.
         12    1    3    3    0    0  0.11810520245E+02  0.13225903718E+02 -0.41172738448E+01  0.18203429938E+02  0.00000000000E+00 0. -1.
</event>
<event>
 7    1  0.3054835E-011  0.5052883E+02  0.7816164E-02  0.1300439E+00
        -11   -1    0    0    0    0  0.00000000000E+00  0.00000000000E+00  0.45593999997E+02  0.45594000000E+02  0.51100000000E-03 0. -1.
         11   -1    0    0    0    0 -0.00000000000E+00 -0.00000000000E+00 -0.45593999997E+02  0.45594000000E+02  0.51100000000E-03 0.  1.
    9900012    2    1    2    0    0 -0.28269035644E+02  0.15657520153E+01 -0.29181806866E+02  0.50528833659E+02  0.29999920389E+02 0.  0.
         12    1    1    2    0    0  0.28269035644E+02 -0.15657520153E+01  0.29181806866E+02  0.40659166341E+02  0.00000000000E+00 0. -1.
         11    1    3    3    0    0  0.35396070210E+00 -0.26210659595E+01  0.46670498816E+01  0.53643853144E+01  0.51100000000E-03 0. -1.
        -11    1    3    3    0    0 -0.13816536218E+02  0.36878693037E+01 -0.21784060300E+02  0.26058440791E+02  0.51100000000E-03 0.  1.
         12    1    3    3    0    0 -0.14806460128E+02  0.49894867116E+00 -0.12064796448E+02  0.19106007553E+02  0.00000000000E+00 0. -1.
</event>
<event>
 7    1  0.3054835E-011  0.5052886E+02  0.7816164E-02  0.1300439E+00
        -11   -1    0    0    0    0  0.00000000000E+00  0.00000000000E+00  0.45593999997E+02  0.45594000000E+02  0.51100000000E-03 0. -1.
         11   -1    0    0    0    0 -0.00000000000E+00 -0.00000000000E+00 -0.45593999997E+02  0.45594000000E+02  0.51100000000E-03 0.  1.
    9900012    2    1    2    0    0  0.18377263076E+02  0.14054649622E+02 -0.33435145585E+02  0.50528856693E+02  0.29999990404E+02 0.  0.
         12    1    1    2    0    0 -0.18377263076E+02 -0.14054649622E+02  0.33435145585E+02  0.40659143307E+02  0.00000000000E+00 0. -1.
         11    1    3    3    0    0  0.10858005709E+00  0.97624488470E+01 -0.22518583409E+01  0.10019384381E+02  0.51100000000E-03 0. -1.
        -11    1    3    3    0    0  0.21737920953E+02  0.43692113709E+01 -0.28574782078E+02  0.36168292556E+02  0.51100000000E-03 0.  1.
        -12    1    3    3    0    0 -0.34692379341E+01 -0.77010595534E-01 -0.26085051656E+01  0.43411797560E+01  0.00000000000E+00 0.  1.
</event>
<event>
 7    1  0.3054835E-011  0.5052886E+02  0.7816164E-02  0.1300439E+00
        -11   -1    0    0    0    0  0.00000000000E+00  0.00000000000E+00  0.45593999997E+02  0.45594000000E+02  0.51100000000E-03 0.  1.
         11   -1    0    0    0    0 -0.00000000000E+00 -0.00000000000E+00 -0.45593999997E+02  0.45594000000E+02  0.51100000000E-03 0. -1.
    9900012    2    1    2    0    0 -0.98494899568E+01  0.62349922858E+01  0.38952258956E+02  0.50528855162E+02  0.29999985751E+02 0.  0.
         12    1    1    2    0    0  0.98494899568E+01 -0.62349922858E+01 -0.38952258956E+02  0.40659144838E+02  0.00000000000E+00 0. -1.
         11    1    3    3    0    0  0.13482334313E+01 -0.25620906319E+01 -0.77351380097E+00  0.29967258221E+01  0.51100000000E-03 0. -1.
        -11    1    3    3    0    0 -0.12502695105E+01  0.88780703912E+01  0.35686567691E+02  0.36795576114E+02  0.51100000000E-03 0.  1.
        -12    1    3    3    0    0 -0.99474538776E+01 -0.80987473445E-01  0.40392050656E+01  0.10736553226E+02  0.00000000000E+00 0.  1.
</event>
<event>
 7    1  0.3054835E-011  0.5052886E+02  0.7816164E-02  0.1300439E+00
        -11   -1    0    0    0    0  0.00000000000E+00  0.00000000000E+00  0.45593999997E+02  0.45594000000E+02  0.51100000000E-03 0.  1.
         11   -1    0    0    0    0 -0.00000000000E+00 -0.00000000000E+00 -0.45593999997E+02  0.45594000000E+02  0.51100000000E-03 0. -1.
    9900012    2    1    2    0    0  0.10487275850E+01  0.39050331287E+02 -0.11275516630E+02  0.50528862301E+02  0.30000007450E+02 0.  0.
         12    1    1    2    0    0 -0.10487275850E+01 -0.39050331287E+02  0.11275516630E+02  0.40659137699E+02  0.00000000000E+00 0. -1.
         11    1    3    3    0    0  0.86009441960E+00  0.27204322661E+02  0.39161695210E+00  0.27220732870E+02  0.51100000000E-03 0.  1.
        -11    1    3    3    0    0 -0.77663816026E+01  0.41637239991E+01 -0.72059804940E+01  0.11383296354E+02  0.51100000000E-03 0. -1.
         12    1    3    3    0    0  0.79550147680E+01  0.76822846264E+01 -0.44611530881E+01  0.11924833077E+02  0.00000000000E+00 0. -1.
</event>
<event>
 7    1  0.3054835E-011  0.5052887E+02  0.7816164E-02  0.1300439E+00
        -11   -1    0    0    0    0  0.00000000000E+00  0.00000000000E+00  0.45593999997E+02  0.45594000000E+02  0.51100000000E-03 0. -1.
         11   -1    0    0    0    0 -0.00000000000E+00 -0.00000000000E+00 -0.45593999997E+02  0.45594000000E+02  0.51100000000E-03 0.  1.
    9900012    2    1    2    0    0  0.11916894305E+01  0.34826573230E+01 -0.40492174309E+02  0.50528865651E+02  0.30000017633E+02 0.  0.
         12    1    1    2    0    0 -0.11916894305E+01 -0.34826573230E+01  0.40492174309E+02  0.40659134349E+02  0.00000000000E+00 0. -1.
         11    1    3    3    0    0  0.54293124421E+01 -0.28871075246E+01  0.88724689326E+00  0.62128923026E+01  0.51100000000E-03 0. -1.
        -11    1    3    3    0    0 -0.48369100272E+01  0.10346924545E+02 -0.25606493962E+02  0.28038314490E+02  0.51100000000E-03 0.  1.
         12    1    3    3    0    0  0.59928701558E+00 -0.39771596970E+01 -0.15772927240E+02  0.16277658858E+02  0.00000000000E+00 0. -1.
</event>
<event>
 7    1  0.3054835E-011  0.5052886E+02  0.7816164E-02  0.1300439E+00
        -11   -1    0    0    0    0  0.00000000000E+00  0.00000000000E+00  0.45593999997E+02  0.45594000000E+02  0.51100000000E-03 0.  1.
         11   -1    0    0    0    0 -0.00000000000E+00 -0.00000000000E+00 -0.45593999997E+02  0.45594000000E+02  0.51100000000E-03 0. -1.
    9900012    2    1    2    0    0 -0.58429378372E+01  0.11715995567E+02  0.38493650438E+02  0.50528860821E+02  0.30000002952E+02 0.  0.
         12    1    1    2    0    0  0.58429378372E+01 -0.11715995567E+02 -0.38493650438E+02  0.40659139179E+02  0.00000000000E+00 0. -1.
         11    1    3    3    0    0 -0.12834555859E+02 -0.16752522743E+01  0.18767077580E+02  0.22797708118E+02  0.51100000000E-03 0. -1.
        -11    1    3    3    0    0  0.38349545860E+01  0.38693696013E+01  0.16210298814E+02  0.17101248074E+02  0.51100000000E-03 0.  1.
         12    1    3    3    0    0  0.31566634354E+01  0.95218782405E+01  0.35162740442E+01  0.10629904629E+02  0.00000000000E+00 0. -1.
</event>
<event>
 7    1  0.3054835E-011  0.5052886E+02  0.7816164E-02  0.1300439E+00
        -11   -1    0    0    0    0  0.00000000000E+00  0.00000000000E+00  0.45593999997E+02  0.45594000000E+02  0.51100000000E-03 0. -1.
         11   -1    0    0    0    0 -0.00000000000E+00 -0.00000000000E+00 -0.45593999997E+02  0.45594000000E+02  0.51100000000E-03 0.  1.
    9900012    2    1    2    0    0  0.15120954782E+02 -0.48838215312E+00 -0.37739680860E+02  0.50528864470E+02  0.30000014044E+02 0.  0.
         12    1    1    2    0    0 -0.15120954782E+02  0.48838215312E+00  0.37739680860E+02  0.40659135530E+02  0.00000000000E+00 0. -1.
         11    1    3    3    0    0 -0.42780877883E+01  0.13853647349E+01  0.96447308443E+00  0.45990737290E+01  0.51100000000E-03 0. -1.
        -11    1    3    3    0    0  0.10782546456E+02  0.65191683731E+01 -0.17728853501E+02  0.21750289908E+02  0.51100000000E-03 0.  1.
         12    1    3    3    0    0  0.86164961140E+01 -0.83929152612E+01 -0.20975300443E+02  0.24179500833E+02  0.00000000000E+00 0. -1.
</event>
<event>
 7    1  0.3054835E-011  0.5052879E+02  0.7816164E-02  0.1300439E+00
        -11   -1    0    0    0    0  0.00000000000E+00  0.00000000000E+00  0.45593999997E+02  0.45594000000E+02  0.51100000000E-03 0.  1.
         11   -1    0    0    0    0 -0.00000000000E+00 -0.00000000000E+00 -0.45593999997E+02  0.45594000000E+02  0.51100000000E-03 0. -1.
    9900012    2    1    2    0    0 -0.14160586865E+01 -0.16953264707E+02  0.36929022479E+02  0.50528793076E+02  0.29999797033E+02 0.  0.
         12    1    1    2    0    0  0.14160586865E+01  0.16953264707E+02 -0.36929022479E+02  0.40659206924E+02  0.00000000000E+00 0. -1.
         11    1    3    3    0    0  0.17344847478E+01 -0.15823148823E+02  0.30884197403E+01  0.16214771438E+02  0.51100000000E-03 0. -1.
        -11    1    3    3    0    0 -0.33341513781E+01  0.87341305384E+00  0.16434487533E+02  0.16792015856E+02  0.51100000000E-03 0.  1.
         12    1    3    3    0    0  0.18360794373E+00 -0.20035289379E+01  0.17406115206E+02  0.17522005783E+02  0.00000000000E+00 0. -1.
</event>
<event>
 7    1  0.3054835E-011  0.5052887E+02  0.7816164E-02  0.1300439E+00
        -11   -1    0    0    0    0  0.00000000000E+00  0.00000000000E+00  0.45593999997E+02  0.45594000000E+02  0.51100000000E-03 0.  1.
         11   -1    0    0    0    0 -0.00000000000E+00 -0.00000000000E+00 -0.45593999997E+02  0.45594000000E+02  0.51100000000E-03 0. -1.
    9900012    2    1    2    0    0 -0.22623825507E+01  0.43563677790E+01  0.40361721853E+02  0.50528869340E+02  0.30000028847E+02 0.  0.
         12    1    1    2    0    0  0.22623825507E+01 -0.43563677790E+01 -0.40361721853E+02  0.40659130660E+02  0.00000000000E+00 0. -1.
         11    1    3    3    0    0  0.28215345629E+00 -0.10484052061E+02  0.23403779014E+02  0.25646282978E+02  0.51100000000E-03 0. -1.
        -11    1    3    3    0    0 -0.24087621381E+01  0.11375501819E+02  0.54089042271E+01  0.12824212330E+02  0.51100000000E-03 0.  1.
        -12    1    3    3    0    0 -0.13577386885E+00  0.34649180210E+01  0.11549038612E+02  0.12058374032E+02  0.00000000000E+00 0.  1.
</event>
<event>
 7    1  0.3054835E-011  0.5052886E+02  0.7816164E-02  0.1300439E+00
        -11   -1    0    0    0    0  0.00000000000E+00  0.00000000000E+00  0.45593999997E+02  0.45594000000E+02  0.51100000000E-03 0. -1.
         11   -1    0    0    0    0 -0.00000000000E+00 -0.00000000000E+00 -0.45593999997E+02  0.45594000000E+02  0.51100000000E-03 0.  1.
    9900012    2    1    2    0    0 -0.24524019003E+02 -0.34426414056E+01 -0.32247266800E+02  0.50528861987E+02  0.30000006496E+02 0.  0.
         12    1    1    2    0    0  0.24524019003E+02  0.34426414056E+01  0.32247266800E+02  0.40659138013E+02  0.00000000000E+00 0. -1.
         11    1    3    3    0    0 -0.10682479248E+02 -0.10111696105E+01 -0.50697172232E+00  0.10742199377E+02  0.51100000000E-03 0. -1.
        -11    1    3    3    0    0 -0.20618154275E+01  0.29964783994E+01 -0.24821366265E+02  0.25086454297E+02  0.51100000000E-03 0.  1.
        -12    1    3    3    0    0 -0.11779724327E+02 -0.54279501945E+01 -0.69189288127E+01  0.14700208313E+02  0.00000000000E+00 0.  1.
</event>
<event>
 7    1  0.3054835E-011  0.5052887E+02  0.7816164E-02  0.1300439E+00
        -11   -1    0    0    0    0  0.00000000000E+00  0.00000000000E+00  0.45593999997E+02  0.45594000000E+02  0.51100000000E-03 0. -1.
         11   -1    0    0    0    0 -0.00000000000E+00 -0.00000000000E+00 -0.45593999997E+02  0.45594000000E+02  0.51100000000E-03 0.  1.
    9900012    2    1    2    0    0 -0.57705844089E+01 -0.65347329979E+01 -0.39713504107E+02  0.50528870789E+02  0.30000033250E+02 0.  0.
         12    1    1    2    0    0  0.57705844089E+01  0.65347329979E+01  0.39713504107E+02  0.40659129211E+02  0.00000000000E+00 0. -1.
         11    1    3    3    0    0  0.24862910150E+01 -0.73204469180E+01 -0.89368254440E+01  0.11816828482E+02  0.51100000000E-03 0. -1.
        -11    1    3    3    0    0 -0.62981148120E+00  0.81075005987E+01 -0.24753044599E+01  0.85003153406E+01  0.51100000000E-03 0.  1.
        -12    1    3    3    0    0 -0.76270639427E+01 -0.73217866785E+01 -0.28301374203E+02  0.30211726967E+02  0.00000000000E+00 0.  1.
</event>
<event>
 7    1  0.3054835E-011  0.5052888E+02  0.7816164E-02  0.1300439E+00
        -11   -1    0    0    0    0  0.00000000000E+00  0.00000000000E+00  0.45593999997E+02  0.45594000000E+02  0.51100000000E-03 0.  1.
         11   -1    0    0    0    0 -0.00000000000E+00 -0.00000000000E+00 -0.45593999997E+02  0.45594000000E+02  0.51100000000E-03 0. -1.
    9900012    2    1    2    0    0 -0.14837454385E+02  0.57552677195E+00  0.37850800110E+02  0.50528876145E+02  0.30000049531E+02 0.  0.
         12    1    1    2    0    0  0.14837454385E+02 -0.57552677195E+00 -0.37850800110E+02  0.40659123855E+02  0.00000000000E+00 0. -1.
         11    1    3    3    0    0  0.21567803893E+01 -0.40990544276E+01 -0.39327632480E+00  0.46485067900E+01  0.51100000000E-03 0. -1.
        -11    1    3    3    0    0 -0.61257510575E+01  0.94792238363E+01  0.28007766582E+02  0.30196282880E+02  0.51100000000E-03 0.  1.
        -12    1    3    3    0    0 -0.10868483717E+02 -0.48046426368E+01  0.10236309852E+02  0.15684086476E+02  0.00000000000E+00 0.  1.
</event>
<event>
 7    1  0.3054835E-011  0.5052886E+02  0.7816164E-02  0.1300439E+00
        -11   -1    0    0    0    0  0.00000000000E+00  0.00000000000E+00  0.45593999997E+02  0.45594000000E+02  0.51100000000E-03 0.  1.
         11   -1    0    0    0    0 -0.00000000000E+00 -0.00000000000E+00 -0.45593999997E+02  0.45594000000E+02  0.51100000000E-03 0. -1.
    9900012    2    1    2    0    0  0.26774079488E+02  0.88949857318E+01  0.29277873870E+02  0.50528855863E+02  0.29999987882E+02 0.  0.
         12    1    1    2    0    0 -0.26774079488E+02 -0.88949857318E+01 -0.29277873870E+02  0.40659144137E+02  0.00000000000E+00 0. -1.
         11    1    3    3    0    0 -0.21069297738E+01 -0.90691289858E+00 -0.40634631209E+01  0.46661951173E+01  0.51100000000E-03 0. -1.
        -11    1    3    3    0    0  0.26168285751E+01  0.32371190279E+01  0.26355500286E+01  0.49267489896E+01  0.51100000000E-03 0.  1.
         12    1    3    3    0    0  0.26264180687E+02  0.65647796025E+01  0.30705786962E+02  0.40935911756E+02  0.00000000000E+00 0. -1.
</event>
<event>
 7    1  0.3054835E-011  0.5052886E+02  0.7816164E-02  0.1300439E+00
        -11   -1    0    0    0    0  0.00000000000E+00  0.00000000000E+00  0.45593999997E+02  0.45594000000E+02  0.51100000000E-03 0. -1.
         11   -1    0    0    0    0 -0.00000000000E+00 -0.00000000000E+00 -0.45593999997E+02  0.45594000000E+02  0.51100000000E-03 0.  1.
    9900012    2    1    2    0    0 -0.29796608317E+02  0.15297176322E+02  0.23050476214E+02  0.50528856817E+02  0.29999990782E+02 0.  0.
         12    1    1    2    0    0  0.29796608317E+02 -0.15297176322E+02 -0.23050476214E+02  0.40659143183E+02  0.00000000000E+00 0. -1.
         11    1    3    3    0    0  0.16487760894E+01  0.52301770991E+01  0.10853735879E+02  0.12160460430E+02  0.51100000000E-03 0. -1.
        -11    1    3    3    0    0 -0.14370160731E+02  0.60932552297E+01 -0.20963750250E+01  0.15748779865E+02  0.51100000000E-03 0.  1.
         12    1    3    3    0    0 -0.17075223675E+02  0.39737439937E+01  0.14293115360E+02  0.22619616522E+02  0.00000000000E+00 0. -1.
</event>
<event>
 7    1  0.3054835E-011  0.5052886E+02  0.7816164E-02  0.1300439E+00
        -11   -1    0    0    0    0  0.00000000000E+00  0.00000000000E+00  0.45593999997E+02  0.45594000000E+02  0.51100000000E-03 0.  1.
         11   -1    0    0    0    0 -0.00000000000E+00 -0.00000000000E+00 -0.45593999997E+02  0.45594000000E+02  0.51100000000E-03 0. -1.
    9900012    2    1    2    0    0  0.22201595290E+02 -0.28854554367E+02  0.18101641212E+02  0.50528861351E+02  0.30000004562E+02 0.  0.
         12    1    1    2    0    0 -0.22201595290E+02  0.28854554367E+02 -0.18101641212E+02  0.40659138649E+02  0.00000000000E+00 0. -1.
         11    1    3    3    0    0  0.19302871832E+02 -0.70253874131E+01  0.39091317280E+00  0.20545309504E+02  0.51100000000E-03 0. -1.
        -11    1    3    3    0    0  0.11207606782E+01 -0.21360983980E+02  0.18195162063E+02  0.28082230394E+02  0.51100000000E-03 0.  1.
        -12    1    3    3    0    0  0.17779627800E+01 -0.46818297386E+00 -0.48443402425E+00  0.19013214531E+01  0.00000000000E+00 0.  1.
</event>
<event>
 7    1  0.3054835E-011  0.5052887E+02  0.7816164E-02  0.1300439E+00
        -11   -1    0    0    0    0  0.00000000000E+00  0.00000000000E+00  0.45593999997E+02  0.45594000000E+02  0.51100000000E-03 0. -1.
         11   -1    0    0    0    0 -0.00000000000E+00 -0.00000000000E+00 -0.45593999997E+02  0.45594000000E+02  0.51100000000E-03 0.  1.
    9900012    2    1    2    0    0 -0.29607111206E+01  0.34039715577E+02 -0.22038532031E+02  0.50528868910E+02  0.30000027539E+02 0.  0.
         12    1    1    2    0    0  0.29607111206E+01 -0.34039715577E+02  0.22038532031E+02  0.40659131090E+02  0.00000000000E+00 0. -1.
         11    1    3    3    0    0 -0.19208405489E+01  0.78937160168E+01  0.93145668138E+00  0.81772851716E+01  0.51100000000E-03 0. -1.
        -11    1    3    3    0    0  0.20537584612E+01  0.24427551643E+02 -0.27345134172E+02  0.36724372918E+02  0.51100000000E-03 0.  1.
        -12    1    3    3    0    0 -0.30936290329E+01  0.17184479169E+01  0.43751454588E+01  0.56272108208E+01  0.00000000000E+00 0.  1.
</event>
<event>
 7    1  0.3054835E-011  0.5052885E+02  0.7816164E-02  0.1300439E+00
        -11   -1    0    0    0    0  0.00000000000E+00  0.00000000000E+00  0.45593999997E+02  0.45594000000E+02  0.51100000000E-03 0.  1.
         11   -1    0    0    0    0 -0.00000000000E+00 -0.00000000000E+00 -0.45593999997E+02  0.45594000000E+02  0.51100000000E-03 0. -1.
    9900012    2    1    2    0    0 -0.80649485218E+01  0.60291425184E+01  0.39392541796E+02  0.50528852157E+02  0.29999976617E+02 0.  0.
         12    1    1    2    0    0  0.80649485218E+01 -0.60291425184E+01 -0.39392541796E+02  0.40659147843E+02  0.00000000000E+00 0. -1.
         11    1    3    3    0    0  0.53177218555E+01 -0.25570293218E+00  0.23428843791E+01  0.58165846677E+01  0.51100000000E-03 0. -1.
        -11    1    3    3    0    0 -0.38480284717E+01 -0.64453479531E+01  0.20161509087E+02  0.21513630151E+02  0.51100000000E-03 0.  1.
        -12    1    3    3    0    0 -0.95346419056E+01  0.12730193404E+02  0.16888148330E+02  0.23198637339E+02  0.00000000000E+00 0.  1.
</event>
<event>
 7    1  0.3054835E-011  0.5052887E+02  0.7816164E-02  0.1300439E+00
        -11   -1    0    0    0    0  0.00000000000E+00  0.00000000000E+00  0.45593999997E+02  0.45594000000E+02  0.51100000000E-03 0.  1.
         11   -1    0    0    0    0 -0.00000000000E+00 -0.00000000000E+00 -0.45593999997E+02  0.45594000000E+02  0.51100000000E-03 0. -1.
    9900012    2    1    2    0    0  0.29952475185E+02  0.21091193838E+02  0.17640177586E+02  0.50528867047E+02  0.30000021876E+02 0.  0.
         12    1    1    2    0    0 -0.29952475185E+02 -0.21091193838E+02 -0.17640177586E+02  0.40659132953E+02  0.00000000000E+00 0. -1.
         11    1    3    3    0    0  0.36687954777E+00 -0.17643396075E+01 -0.52324342767E+01  0.55340639293E+01  0.51100000000E-03 0. -1.
        -11    1    3    3    0    0  0.18902436658E+02  0.94595544807E+01  0.91063595563E+01  0.23015452791E+02  0.51100000000E-03 0.  1.
         12    1    3    3    0    0  0.10683158980E+02  0.13395978964E+02  0.13766252306E+02  0.21979350326E+02  0.00000000000E+00 0. -1.
</event>
<event>
 7    1  0.3054835E-011  0.5052889E+02  0.7816164E-02  0.1300439E+00
        -11   -1    0    0    0    0  0.00000000000E+00  0.00000000000E+00  0.45593999997E+02  0.45594000000E+02  0.51100000000E-03 0. -1.
         11   -1    0    0    0    0 -0.00000000000E+00 -0.00000000000E+00 -0.45593999997E+02  0.45594000000E+02  0.51100000000E-03 0.  1.
    9900012    2    1    2    0    0 -0.25405777634E+02 -0.70530963495E+01 -0.30950989841E+02  0.50528886908E+02  0.30000082245E+02 0.  0.
         12    1    1    2    0    0  0.25405777634E+02  0.70530963495E+01  0.30950989841E+02  0.40659113092E+02  0.00000000000E+00 0. -1.
         11    1    3    3    0    0 -0.99798262049E+01 -0.70265094275E+01 -0.23713589567E+01  0.12433507525E+02  0.51100000000E-03 0. -1.
        -11    1    3    3    0    0 -0.61176627793E+01 -0.25081713777E+01 -0.27635926471E+02  0.28415860953E+02  0.51100000000E-03 0.  1.
        -12    1    3    3    0    0 -0.93082886500E+01  0.24815844557E+01 -0.94370441294E+00  0.96795184292E+01  0.00000000000E+00 0.  1.
</event>
<event>
 7    1  0.3054835E-011  0.5052887E+02  0.7816164E-02  0.1300439E+00
        -11   -1    0    0    0    0  0.00000000000E+00  0.00000000000E+00  0.45593999997E+02  0.45594000000E+02  0.51100000000E-03 0.  1.
         11   -1    0    0    0    0 -0.00000000000E+00 -0.00000000000E+00 -0.45593999997E+02  0.45594000000E+02  0.51100000000E-03 0. -1.
    9900012    2    1    2    0    0 -0.24603719990E+02  0.19215858870E+02 -0.26049420127E+02  0.50528873615E+02  0.30000041840E+02 0.  0.
         12    1    1    2    0    0  0.24603719990E+02 -0.19215858870E+02  0.26049420127E+02  0.40659126385E+02  0.00000000000E+00 0. -1.
         11    1    3    3    0    0 -0.76273228235E+01  0.50927568746E+01 -0.19017172910E+02  0.21113149737E+02  0.51100000000E-03 0. -1.
        -11    1    3    3    0    0 -0.17297135353E+02  0.16875050452E+02 -0.27580443055E+01  0.24322109856E+02  0.51100000000E-03 0.  1.
        -12    1    3    3    0    0  0.32073818637E+00 -0.27519484567E+01 -0.42742029107E+01  0.50936140229E+01  0.00000000000E+00 0.  1.
</event>
<event>
 7    1  0.3054835E-011  0.5052885E+02  0.7816164E-02  0.1300439E+00
        -11   -1    0    0    0    0  0.00000000000E+00  0.00000000000E+00  0.45593999997E+02  0.45594000000E+02  0.51100000000E-03 0.  1.
         11   -1    0    0    0    0 -0.00000000000E+00 -0.00000000000E+00 -0.45593999997E+02  0.45594000000E+02  0.51100000000E-03 0. -1.
    9900012    2    1    2    0    0 -0.19157401778E+02  0.28552868978E+02  0.21700097576E+02  0.50528848452E+02  0.29999965356E+02 0.  0.
         12    1    1    2    0    0  0.19157401778E+02 -0.28552868978E+02 -0.21700097576E+02  0.40659151548E+02  0.00000000000E+00 0. -1.
         11    1    3    3    0    0  0.18735419035E+01  0.74718027335E+01  0.59129829448E+01  0.97108888841E+01  0.51100000000E-03 0. -1.
        -11    1    3    3    0    0 -0.32535536185E+01 -0.38518654016E+01 -0.19780049506E+01  0.54161778097E+01  0.51100000000E-03 0.  1.
        -12    1    3    3    0    0 -0.17777390063E+02  0.24932931646E+02  0.17765119582E+02  0.35401781759E+02  0.00000000000E+00 0.  1.
</event>
<event>
 7    1  0.3054835E-011  0.5052885E+02  0.7816164E-02  0.1300439E+00
        -11   -1    0    0    0    0  0.00000000000E+00  0.00000000000E+00  0.45593999997E+02  0.45594000000E+02  0.51100000000E-03 0.  1.
         11   -1    0    0    0    0 -0.00000000000E+00 -0.00000000000E+00 -0.45593999997E+02  0.45594000000E+02  0.51100000000E-03 0. -1.
    9900012    2    1    2    0    0  0.32876624544E+02  0.13221108250E+02  0.19937310242E+02  0.50528849929E+02  0.29999969845E+02 0.  0.
         12    1    1    2    0    0 -0.32876624544E+02 -0.13221108250E+02 -0.19937310242E+02  0.40659150071E+02  0.00000000000E+00 0. -1.
         11    1    3    3    0    0  0.30129110054E+02  0.38021488461E+01  0.37830986177E+01  0.30602801243E+02  0.51100000000E-03 0. -1.
        -11    1    3    3    0    0  0.47107783308E+01  0.58056346967E+01  0.92963531408E+01  0.11929753086E+02  0.51100000000E-03 0.  1.
         12    1    3    3    0    0 -0.19632638404E+01  0.36133247075E+01  0.68578584834E+01  0.79962956003E+01  0.00000000000E+00 0. -1.
</event>
<event>
 7    1  0.3054835E-011  0.5052885E+02  0.7816164E-02  0.1300439E+00
        -11   -1    0    0    0    0  0.00000000000E+00  0.00000000000E+00  0.45593999997E+02  0.45594000000E+02  0.51100000000E-03 0.  1.
         11   -1    0    0    0    0 -0.00000000000E+00 -0.00000000000E+00 -0.45593999997E+02  0.45594000000E+02  0.51100000000E-03 0. -1.
    9900012    2    1    2    0    0  0.31760616964E+02  0.21543165180E+02  0.13428406627E+02  0.50528845306E+02  0.29999955792E+02 0.  0.
         12    1    1    2    0    0 -0.31760616964E+02 -0.21543165180E+02 -0.13428406627E+02  0.40659154694E+02  0.00000000000E+00 0. -1.
         11    1    3    3    0    0  0.11800886220E+02  0.72210688634E+01 -0.67193444632E+01  0.15380323189E+02  0.51100000000E-03 0. -1.
        -11    1    3    3    0    0  0.13852161062E+02  0.18498155803E+01  0.14552798655E+02  0.20176425172E+02  0.51100000000E-03 0.  1.
        -12    1    3    3    0    0  0.61075696817E+01  0.12472280736E+02  0.55949524352E+01  0.14972096945E+02  0.00000000000E+00 0.  1.
</event>
<event>
 7    1  0.3054835E-011  0.5052886E+02  0.7816164E-02  0.1300439E+00
        -11   -1    0    0    0    0  0.00000000000E+00  0.00000000000E+00  0.45593999997E+02  0.45594000000E+02  0.51100000000E-03 0.  1.
         11   -1    0    0    0    0 -0.00000000000E+00 -0.00000000000E+00 -0.45593999997E+02  0.45594000000E+02  0.51100000000E-03 0. -1.
    9900012    2    1    2    0    0 -0.25612286354E+02  0.31416477865E+02  0.31908806170E+01  0.50528855729E+02  0.29999987475E+02 0.  0.
         12    1    1    2    0    0  0.25612286354E+02 -0.31416477865E+02 -0.31908806170E+01  0.40659144271E+02  0.00000000000E+00 0. -1.
         11    1    3    3    0    0  0.66642451069E+00  0.12963534797E+02 -0.29151827174E+01  0.13303971084E+02  0.51100000000E-03 0. -1.
        -11    1    3    3    0    0 -0.96883294053E+01  0.10113739276E+01  0.86393851660E+01  0.13020198931E+02  0.51100000000E-03 0.  1.
        -12    1    3    3    0    0 -0.16590381460E+02  0.17441569140E+02 -0.25333218317E+01  0.24204685715E+02  0.00000000000E+00 0.  1.
</event>
<event>
 7    1  0.3054835E-011  0.5052886E+02  0.7816164E-02  0.1300439E+00
        -11   -1    0    0    0    0  0.00000000000E+00  0.00000000000E+00  0.45593999997E+02  0.45594000000E+02  0.51100000000E-03 0.  1.
         11   -1    0    0    0    0 -0.00000000000E+00 -0.00000000000E+00 -0.45593999997E+02  0.45594000000E+02  0.51100000000E-03 0. -1.
    9900012    2    1    2    0    0 -0.24306734466E+02 -0.84054712312E+01  0.31491213557E+02  0.50528858122E+02  0.29999994747E+02 0.  0.
         12    1    1    2    0    0  0.24306734466E+02  0.84054712312E+01 -0.31491213557E+02  0.40659141878E+02  0.00000000000E+00 0. -1.
         11    1    3    3    0    0  0.39755877249E+01 -0.66477787370E+01  0.48022071007E+00  0.77607262602E+01  0.51100000000E-03 0. -1.
        -11    1    3    3    0    0 -0.64196134526E+01 -0.32281082399E+01  0.10710631444E+02  0.12897664357E+02  0.51100000000E-03 0.  1.
         12    1    3    3    0    0 -0.21862708738E+02  0.14704157457E+01  0.20300361403E+02  0.29870467504E+02  0.00000000000E+00 0. -1.
</event>
<event>
 7    1  0.3054835E-011  0.5052886E+02  0.7816164E-02  0.1300439E+00
        -11   -1    0    0    0    0  0.00000000000E+00  0.00000000000E+00  0.45593999997E+02  0.45594000000E+02  0.51100000000E-03 0.  1.
         11   -1    0    0    0    0 -0.00000000000E+00 -0.00000000000E+00 -0.45593999997E+02  0.45594000000E+02  0.51100000000E-03 0. -1.
    9900012    2    1    2    0    0  0.31681431891E+02  0.24152070665E+01  0.25369653808E+02  0.50528859746E+02  0.29999999684E+02 0.  0.
         12    1    1    2    0    0 -0.31681431891E+02 -0.24152070665E+01 -0.25369653808E+02  0.40659140254E+02  0.00000000000E+00 0. -1.
         11    1    3    3    0    0 -0.26956035182E+01 -0.43711389126E+00  0.15143319506E+01  0.31225868121E+01  0.51100000000E-03 0. -1.
        -11    1    3    3    0    0  0.32229184902E+02  0.31078591055E+01  0.27951166926E+02  0.42774371771E+02  0.51100000000E-03 0.  1.
        -12    1    3    3    0    0  0.21478505079E+01 -0.25553814774E+00 -0.40958450689E+01  0.46319011624E+01  0.00000000000E+00 0.  1.
</event>
<event>
 7    1  0.3054835E-011  0.5052886E+02  0.7816164E-02  0.1300439E+00
        -11   -1    0    0    0    0  0.00000000000E+00  0.00000000000E+00  0.45593999997E+02  0.45594000000E+02  0.51100000000E-03 0.  1.
         11   -1    0    0    0    0 -0.00000000000E+00 -0.00000000000E+00 -0.45593999997E+02  0.45594000000E+02  0.51100000000E-03 0. -1.
    9900012    2    1    2    0    0  0.36610209116E+02 -0.16426863286E+02  0.65586699964E+01  0.50528863252E+02  0.30000010341E+02 0.  0.
         12    1    1    2    0    0 -0.36610209116E+02  0.16426863286E+02 -0.65586699964E+01  0.40659136748E+02  0.00000000000E+00 0. -1.
         11    1    3    3    0    0  0.12039114945E+02 -0.26065419615E+01 -0.87247806835E+01  0.15094904699E+02  0.51100000000E-03 0. -1.
        -11    1    3    3    0    0  0.19701068197E+02 -0.16891075745E+02  0.14178927077E+02  0.29571650297E+02  0.51100000000E-03 0.  1.
         12    1    3    3    0    0  0.48700259742E+01  0.30707544202E+01  0.11045236026E+01  0.58623082559E+01  0.00000000000E+00 0. -1.
</event>
<event>
 7    1  0.3054835E-011  0.5052872E+02  0.7816164E-02  0.1300439E+00
        -11   -1    0    0    0    0  0.00000000000E+00  0.00000000000E+00  0.45593999997E+02  0.45594000000E+02  0.51100000000E-03 0.  1.
         11   -1    0    0    0    0 -0.00000000000E+00 -0.00000000000E+00 -0.45593999997E+02  0.45594000000E+02  0.51100000000E-03 0. -1.
    9900012    2    1    2    0    0  0.15160324519E+02 -0.17621667838E+02  0.33358934135E+02  0.50528719343E+02  0.29999572913E+02 0.  0.
         12    1    1    2    0    0 -0.15160324519E+02  0.17621667838E+02 -0.33358934135E+02  0.40659280657E+02  0.00000000000E+00 0. -1.
         11    1    3    3    0    0 -0.53001679913E+01 -0.28830284289E+01 -0.13837325937E+01  0.61901817267E+01  0.51100000000E-03 0. -1.
        -11    1    3    3    0    0  0.82952305590E+01 -0.12283288697E+02  0.22203528057E+02  0.26696192419E+02  0.51100000000E-03 0.  1.
        -12    1    3    3    0    0  0.12165261951E+02 -0.24553507124E+01  0.12539138671E+02  0.17642345197E+02  0.00000000000E+00 0.  1.
</event>
<event>
 7    1  0.3054835E-011  0.5052886E+02  0.7816164E-02  0.1300439E+00
        -11   -1    0    0    0    0  0.00000000000E+00  0.00000000000E+00  0.45593999997E+02  0.45594000000E+02  0.51100000000E-03 0. -1.
         11   -1    0    0    0    0 -0.00000000000E+00 -0.00000000000E+00 -0.45593999997E+02  0.45594000000E+02  0.51100000000E-03 0.  1.
    9900012    2    1    2    0    0 -0.15779848871E+02  0.32810115232E+02 -0.18101344888E+02  0.50528856149E+02  0.29999988750E+02 0.  0.
         12    1    1    2    0    0  0.15779848871E+02 -0.32810115232E+02  0.18101344888E+02  0.40659143851E+02  0.00000000000E+00 0. -1.
         11    1    3    3    0    0 -0.45261290810E+01  0.59000128904E+01  0.10716882735E+01  0.75129563144E+01  0.51100000000E-03 0. -1.
        -11    1    3    3    0    0  0.65514699892E+01  0.14415791549E+02 -0.12767452557E+02  0.20340714099E+02  0.51100000000E-03 0.  1.
        -12    1    3    3    0    0 -0.17805189779E+02  0.12494310793E+02 -0.64055806046E+01  0.22675185735E+02  0.00000000000E+00 0.  1.
</event>
<event>
 7    1  0.3054835E-011  0.5052887E+02  0.7816164E-02  0.1300439E+00
        -11   -1    0    0    0    0  0.00000000000E+00  0.00000000000E+00  0.45593999997E+02  0.45594000000E+02  0.51100000000E-03 0.  1.
         11   -1    0    0    0    0 -0.00000000000E+00 -0.00000000000E+00 -0.45593999997E+02  0.45594000000E+02  0.51100000000E-03 0. -1.
    9900012    2    1    2    0    0 -0.15348438983E+01  0.37388791559E+02  0.15902431960E+02  0.50528870369E+02  0.30000031975E+02 0.  0.
         12    1    1    2    0    0  0.15348438983E+01 -0.37388791559E+02 -0.15902431960E+02  0.40659129631E+02  0.00000000000E+00 0. -1.
         11    1    3    3    0    0 -0.98650769449E+01  0.10388653123E+02  0.13075353942E+01  0.14385878698E+02  0.51100000000E-03 0. -1.
        -11    1    3    3    0    0  0.76364534111E+01  0.27363595775E+02  0.17343609978E+02  0.33284870464E+02  0.51100000000E-03 0.  1.
         12    1    3    3    0    0  0.69377963554E+00 -0.36345733892E+00 -0.27487134118E+01  0.28581212080E+01  0.00000000000E+00 0. -1.
</event>
<event>
 7    1  0.3054835E-011  0.5052881E+02  0.7816164E-02  0.1300439E+00
        -11   -1    0    0    0    0  0.00000000000E+00  0.00000000000E+00  0.45593999997E+02  0.45594000000E+02  0.51100000000E-03 0. -1.
         11   -1    0    0    0    0 -0.00000000000E+00 -0.00000000000E+00 -0.45593999997E+02  0.45594000000E+02  0.51100000000E-03 0.  1.
    9900012    2    1    2    0    0  0.19249039650E+02  0.39472027544E+01 -0.35595839891E+02  0.50528809716E+02  0.29999847612E+02 0.  0.
         12    1    1    2    0    0 -0.19249039650E+02 -0.39472027544E+01  0.35595839891E+02  0.40659190284E+02  0.00000000000E+00 0. -1.
         11    1    3    3    0    0 -0.24909721412E+01 -0.43099643718E+01 -0.13174649765E+02  0.14083754180E+02  0.51100000000E-03 0. -1.
        -11    1    3    3    0    0  0.19686281194E+02  0.11594473502E+02 -0.23075216552E+02  0.32472251265E+02  0.51100000000E-03 0.  1.
        -12    1    3    3    0    0  0.20537305973E+01 -0.33373063759E+01  0.65402642646E+00  0.39728042714E+01  0.00000000000E+00 0.  1.
</event>
<event>
 7    1  0.3054835E-011  0.5052886E+02  0.7816164E-02  0.1300439E+00
        -11   -1    0    0    0    0  0.00000000000E+00  0.00000000000E+00  0.45593999997E+02  0.45594000000E+02  0.51100000000E-03 0.  1.
         11   -1    0    0    0    0 -0.00000000000E+00 -0.00000000000E+00 -0.45593999997E+02  0.45594000000E+02  0.51100000000E-03 0. -1.
    9900012    2    1    2    0    0 -0.56912872228E+01  0.30119979953E+02  0.26712583654E+02  0.50528855050E+02  0.29999985410E+02 0.  0.
         12    1    1    2    0    0  0.56912872228E+01 -0.30119979953E+02 -0.26712583654E+02  0.40659144950E+02  0.00000000000E+00 0. -1.
         11    1    3    3    0    0 -0.11331391423E+02  0.19880344373E+00  0.87256994644E+01  0.14303069104E+02  0.51100000000E-03 0. -1.
        -11    1    3    3    0    0  0.89612322896E-01  0.98877687782E+01  0.96855995906E+01  0.13841489857E+02  0.51100000000E-03 0.  1.
         12    1    3    3    0    0  0.55504918773E+01  0.20033407731E+02  0.83012845986E+01  0.22384296089E+02  0.00000000000E+00 0. -1.
</event>
<event>
 7    1  0.3054835E-011  0.5052887E+02  0.7816164E-02  0.1300439E+00
        -11   -1    0    0    0    0  0.00000000000E+00  0.00000000000E+00  0.45593999997E+02  0.45594000000E+02  0.51100000000E-03 0.  1.
         11   -1    0    0    0    0 -0.00000000000E+00 -0.00000000000E+00 -0.45593999997E+02  0.45594000000E+02  0.51100000000E-03 0. -1.
    9900012    2    1    2    0    0 -0.93601868793E+01  0.39329188424E+02 -0.43320614677E+01  0.50528869205E+02  0.30000028434E+02 0.  0.
         12    1    1    2    0    0  0.93601868793E+01 -0.39329188424E+02  0.43320614677E+01  0.40659130795E+02  0.00000000000E+00 0. -1.
         11    1    3    3    0    0  0.55137914872E+01  0.13093890584E+02  0.23709754500E+01  0.14403936686E+02  0.51100000000E-03 0. -1.
        -11    1    3    3    0    0 -0.17990674856E+02  0.24445981527E+02 -0.92378877115E+01  0.31727101415E+02  0.51100000000E-03 0.  1.
        -12    1    3    3    0    0  0.31166964891E+01  0.17893163126E+01  0.25348507939E+01  0.43978311039E+01  0.00000000000E+00 0.  1.
</event>
<event>
 7    1  0.3054835E-011  0.5052886E+02  0.7816164E-02  0.1300439E+00
        -11   -1    0    0    0    0  0.00000000000E+00  0.00000000000E+00  0.45593999997E+02  0.45594000000E+02  0.51100000000E-03 0. -1.
         11   -1    0    0    0    0 -0.00000000000E+00 -0.00000000000E+00 -0.45593999997E+02  0.45594000000E+02  0.51100000000E-03 0.  1.
    9900012    2    1    2    0    0 -0.31715631859E+02 -0.10987343278E+02  0.22946950948E+02  0.50528861122E+02  0.30000003867E+02 0.  0.
         12    1    1    2    0    0  0.31715631859E+02  0.10987343278E+02 -0.22946950948E+02  0.40659138878E+02  0.00000000000E+00 0. -1.
         11    1    3    3    0    0 -0.14852110636E+02 -0.17473005577E+02  0.18131861407E+02  0.29234491830E+02  0.51100000000E-03 0. -1.
        -11    1    3    3    0    0 -0.13297890942E+02  0.77020927649E+01  0.70570861744E+01  0.16910310524E+02  0.51100000000E-03 0.  1.
         12    1    3    3    0    0 -0.35656302808E+01 -0.12164304653E+01 -0.22419966338E+01  0.43840587681E+01  0.00000000000E+00 0. -1.
</event>
<event>
 7    1  0.3054835E-011  0.5052884E+02  0.7816164E-02  0.1300439E+00
        -11   -1    0    0    0    0  0.00000000000E+00  0.00000000000E+00  0.45593999997E+02  0.45594000000E+02  0.51100000000E-03 0. -1.
         11   -1    0    0    0    0 -0.00000000000E+00 -0.00000000000E+00 -0.45593999997E+02  0.45594000000E+02  0.51100000000E-03 0.  1.
    9900012    2    1    2    0    0 -0.17478530240E+02 -0.95755554789E+01 -0.35439767304E+02  0.50528838810E+02  0.29999936048E+02 0.  0.
         12    1    1    2    0    0  0.17478530240E+02  0.95755554789E+01  0.35439767304E+02  0.40659161190E+02  0.00000000000E+00 0. -1.
         11    1    3    3    0    0 -0.17807998015E+01 -0.10460081979E+01  0.21079447550E+01  0.29510697102E+01  0.51100000000E-03 0. -1.
        -11    1    3    3    0    0 -0.11869357471E+02 -0.16504864714E+02 -0.24941821195E+02  0.32177424552E+02  0.51100000000E-03 0.  1.
        -12    1    3    3    0    0 -0.38283729680E+01  0.79753174329E+01 -0.12605890864E+02  0.15400344549E+02  0.00000000000E+00 0.  1.
</event>
<event>
 7    1  0.3054835E-011  0.5052882E+02  0.7816164E-02  0.1300439E+00
        -11   -1    0    0    0    0  0.00000000000E+00  0.00000000000E+00  0.45593999997E+02  0.45594000000E+02  0.51100000000E-03 0.  1.
         11   -1    0    0    0    0 -0.00000000000E+00 -0.00000000000E+00 -0.45593999997E+02  0.45594000000E+02  0.51100000000E-03 0. -1.
    9900012    2    1    2    0    0  0.25732488726E+02  0.52689344541E-01  0.31480230676E+02  0.50528822984E+02  0.29999887942E+02 0.  0.
         12    1    1    2    0    0 -0.25732488726E+02 -0.52689344541E-01 -0.31480230676E+02  0.40659177016E+02  0.00000000000E+00 0. -1.
         11    1    3    3    0    0 -0.14186437918E+01 -0.28064463876E+01  0.81848625549E+01  0.87681621129E+01  0.51100000000E-03 0. -1.
        -11    1    3    3    0    0  0.20061778014E+02  0.44941601418E+01  0.37408777272E+01  0.20896568591E+02  0.51100000000E-03 0.  1.
        -12    1    3    3    0    0  0.70893545045E+01 -0.16350244096E+01  0.19554490394E+02  0.20864092280E+02  0.00000000000E+00 0.  1.
</event>
<event>
 7    1  0.3054835E-011  0.5052886E+02  0.7816164E-02  0.1300439E+00
        -11   -1    0    0    0    0  0.00000000000E+00  0.00000000000E+00  0.45593999997E+02  0.45594000000E+02  0.51100000000E-03 0.  1.
         11   -1    0    0    0    0 -0.00000000000E+00 -0.00000000000E+00 -0.45593999997E+02  0.45594000000E+02  0.51100000000E-03 0. -1.
    9900012    2    1    2    0    0 -0.16482201066E+02  0.23145727298E+02  0.29082262138E+02  0.50528860619E+02  0.30000002336E+02 0.  0.
         12    1    1    2    0    0  0.16482201066E+02 -0.23145727298E+02 -0.29082262138E+02  0.40659139381E+02  0.00000000000E+00 0. -1.
         11    1    3    3    0    0  0.60058017576E+01 -0.25571408947E+01  0.25265282500E+01  0.69994263741E+01  0.51100000000E-03 0. -1.
        -11    1    3    3    0    0 -0.19072432615E+02  0.21548428711E+02  0.24423757613E+02  0.37744037966E+02  0.51100000000E-03 0.  1.
         12    1    3    3    0    0 -0.34155702085E+01  0.41544394823E+01  0.21319762755E+01  0.57853962786E+01  0.00000000000E+00 0. -1.
</event>
<event>
 7    1  0.3054835E-011  0.5052885E+02  0.7816164E-02  0.1300439E+00
        -11   -1    0    0    0    0  0.00000000000E+00  0.00000000000E+00  0.45593999997E+02  0.45594000000E+02  0.51100000000E-03 0.  1.
         11   -1    0    0    0    0 -0.00000000000E+00 -0.00000000000E+00 -0.45593999997E+02  0.45594000000E+02  0.51100000000E-03 0. -1.
    9900012    2    1    2    0    0 -0.36995074940E+01  0.20893652198E+02  0.34683359238E+02  0.50528850157E+02  0.29999970538E+02 0.  0.
         12    1    1    2    0    0  0.36995074940E+01 -0.20893652198E+02 -0.34683359238E+02  0.40659149843E+02  0.00000000000E+00 0. -1.
         11    1    3    3    0    0  0.34947029159E+01 -0.20750751834E+01  0.64869141607E+01  0.76549945184E+01  0.51100000000E-03 0. -1.
        -11    1    3    3    0    0 -0.88756061257E+01  0.21548303145E+02  0.31328414622E+02  0.39045810473E+02  0.51100000000E-03 0.  1.
        -12    1    3    3    0    0  0.16813957158E+01  0.14204242371E+01 -0.31319695441E+01  0.38280451658E+01  0.00000000000E+00 0.  1.
</event>
<event>
 7    1  0.3054835E-011  0.5052886E+02  0.7816164E-02  0.1300439E+00
        -11   -1    0    0    0    0  0.00000000000E+00  0.00000000000E+00  0.45593999997E+02  0.45594000000E+02  0.51100000000E-03 0.  1.
         11   -1    0    0    0    0 -0.00000000000E+00 -0.00000000000E+00 -0.45593999997E+02  0.45594000000E+02  0.51100000000E-03 0. -1.
    9900012    2    1    2    0    0  0.50543222232E+01  0.40214786472E+02  0.32233960356E+01  0.50528861960E+02  0.30000006414E+02 0.  0.
         12    1    1    2    0    0 -0.50543222232E+01 -0.40214786472E+02 -0.32233960356E+01  0.40659138040E+02  0.00000000000E+00 0. -1.
         11    1    3    3    0    0 -0.66021376799E+01  0.87268360579E+00  0.81827990664E+00  0.67096483430E+01  0.51100000000E-03 0. -1.
        -11    1    3    3    0    0  0.62569576200E+01  0.26976234742E+02  0.85645921325E+01  0.28986531323E+02  0.51100000000E-03 0.  1.
         12    1    3    3    0    0  0.53995022830E+01  0.12365868125E+02 -0.61594760036E+01  0.14832682294E+02  0.00000000000E+00 0. -1.
</event>
<event>
 7    1  0.3054835E-011  0.5052886E+02  0.7816164E-02  0.1300439E+00
        -11   -1    0    0    0    0  0.00000000000E+00  0.00000000000E+00  0.45593999997E+02  0.45594000000E+02  0.51100000000E-03 0. -1.
         11   -1    0    0    0    0 -0.00000000000E+00 -0.00000000000E+00 -0.45593999997E+02  0.45594000000E+02  0.51100000000E-03 0.  1.
    9900012    2    1    2    0    0  0.17611582129E+02  0.35905677735E+02 -0.73335152912E+01  0.50528856315E+02  0.29999989255E+02 0.  0.
         12    1    1    2    0    0 -0.17611582129E+02 -0.35905677735E+02  0.73335152912E+01  0.40659143685E+02  0.00000000000E+00 0. -1.
         11    1    3    3    0    0  0.99340256485E+01  0.22875206385E+01  0.26170499176E-01  0.10194032637E+02  0.51100000000E-03 0. -1.
        -11    1    3    3    0    0  0.71565169520E+01  0.27257058386E+02 -0.13703434137E+02  0.31336034754E+02  0.51100000000E-03 0.  1.
        -12    1    3    3    0    0  0.52103952838E+00  0.63610987107E+01  0.63437483465E+01  0.89987889230E+01  0.00000000000E+00 0.  1.
</event>
<event>
 7    1  0.3054835E-011  0.5052886E+02  0.7816164E-02  0.1300439E+00
        -11   -1    0    0    0    0  0.00000000000E+00  0.00000000000E+00  0.45593999997E+02  0.45594000000E+02  0.51100000000E-03 0.  1.
         11   -1    0    0    0    0 -0.00000000000E+00 -0.00000000000E+00 -0.45593999997E+02  0.45594000000E+02  0.51100000000E-03 0. -1.
    9900012    2    1    2    0    0 -0.14147337245E+02 -0.30572312885E+02  0.22767348096E+02  0.50528860737E+02  0.30000002697E+02 0.  0.
         12    1    1    2    0    0  0.14147337245E+02  0.30572312885E+02 -0.22767348096E+02  0.40659139263E+02  0.00000000000E+00 0. -1.
         11    1    3    3    0    0  0.37531778032E+01  0.35726969600E+01  0.13440685427E+01  0.53532259151E+01  0.51100000000E-03 0. -1.
        -11    1    3    3    0    0 -0.11374792119E+02 -0.29794724000E+02  0.17967138877E+02  0.36605048200E+02  0.51100000000E-03 0.  1.
        -12    1    3    3    0    0 -0.65257229294E+01 -0.43502858450E+01  0.34561406758E+01  0.85705866226E+01  0.00000000000E+00 0.  1.
</event>
<event>
 7    1  0.3054835E-011  0.5052885E+02  0.7816164E-02  0.1300439E+00
        -11   -1    0    0    0    0  0.00000000000E+00  0.00000000000E+00  0.45593999997E+02  0.45594000000E+02  0.51100000000E-03 0.  1.
         11   -1    0    0    0    0 -0.00000000000E+00 -0.00000000000E+00 -0.45593999997E+02  0.45594000000E+02  0.51100000000E-03 0. -1.
    9900012    2    1    2    0    0  0.12303958620E+02  0.33101529914E+02  0.20151117277E+02  0.50528853331E+02  0.29999980184E+02 0.  0.
         12    1    1    2    0    0 -0.12303958620E+02 -0.33101529914E+02 -0.20151117277E+02  0.40659146669E+02  0.00000000000E+00 0. -1.
         11    1    3    3    0    0  0.16773856615E+02  0.19025972258E+02  0.70500123761E+01  0.26325891454E+02  0.51100000000E-03 0. -1.
        -11    1    3    3    0    0 -0.68479132785E+00  0.92208761959E+01  0.15121182255E+02  0.17724098003E+02  0.51100000000E-03 0.  1.
         12    1    3    3    0    0 -0.37851066674E+01  0.48546814603E+01 -0.20200773547E+01  0.64788638729E+01  0.00000000000E+00 0. -1.
</event>
<event>
 7    1  0.3054835E-011  0.5052886E+02  0.7816164E-02  0.1300439E+00
        -11   -1    0    0    0    0  0.00000000000E+00  0.00000000000E+00  0.45593999997E+02  0.45594000000E+02  0.51100000000E-03 0. -1.
         11   -1    0    0    0    0 -0.00000000000E+00 -0.00000000000E+00 -0.45593999997E+02  0.45594000000E+02  0.51100000000E-03 0.  1.
    9900012    2    1    2    0    0 -0.29738062805E+02  0.26520998428E+02 -0.80901327975E+01  0.50528856062E+02  0.29999988487E+02 0.  0.
         12    1    1    2    0    0  0.29738062805E+02 -0.26520998428E+02  0.80901327975E+01  0.40659143938E+02  0.00000000000E+00 0. -1.
         11    1    3    3    0    0 -0.71607880909E+01  0.20938506840E+02  0.13175705708E+01  0.22168309526E+02  0.51100000000E-03 0. -1.
        -11    1    3    3    0    0 -0.81153189284E+01 -0.40903528334E+01 -0.51612190087E+01  0.10451199430E+02  0.51100000000E-03 0.  1.
        -12    1    3    3    0    0 -0.14461955786E+02  0.96728444223E+01 -0.42464843596E+01  0.17909347107E+02  0.00000000000E+00 0.  1.
</event>
<event>
 7    1  0.3054835E-011  0.5052886E+02  0.7816164E-02  0.1300439E+00
        -11   -1    0    0    0    0  0.00000000000E+00  0.00000000000E+00  0.45593999997E+02  0.45594000000E+02  0.51100000000E-03 0.  1.
         11   -1    0    0    0    0 -0.00000000000E+00 -0.00000000000E+00 -0.45593999997E+02  0.45594000000E+02  0.51100000000E-03 0. -1.
    9900012    2    1    2    0    0 -0.33449930009E+02  0.85038023666E+01 -0.21493089992E+02  0.50528863392E+02  0.30000010765E+02 0.  0.
         12    1    1    2    0    0  0.33449930009E+02 -0.85038023666E+01  0.21493089992E+02  0.40659136608E+02  0.00000000000E+00 0. -1.
         11    1    3    3    0    0 -0.49429661770E+01  0.24896053651E+01 -0.17843402467E+02  0.18682025087E+02  0.51100000000E-03 0. -1.
        -11    1    3    3    0    0 -0.23806602559E+02  0.90376165126E+01 -0.53193045726E+01  0.26013993139E+02  0.51100000000E-03 0.  1.
         12    1    3    3    0    0 -0.47003612729E+01 -0.30234195112E+01  0.16696170471E+01  0.58328451651E+01  0.00000000000E+00 0. -1.
</event>
<event>
 7    1  0.3054835E-011  0.5052884E+02  0.7816164E-02  0.1300439E+00
        -11   -1    0    0    0    0  0.00000000000E+00  0.00000000000E+00  0.45593999997E+02  0.45594000000E+02  0.51100000000E-03 0. -1.
         11   -1    0    0    0    0 -0.00000000000E+00 -0.00000000000E+00 -0.45593999997E+02  0.45594000000E+02  0.51100000000E-03 0.  1.
    9900012    2    1    2    0    0  0.29100546559E+02 -0.26147577078E+02 -0.11073835495E+02  0.50528838306E+02  0.29999934514E+02 0.  0.
         12    1    1    2    0    0 -0.29100546559E+02  0.26147577078E+02  0.11073835495E+02  0.40659161694E+02  0.00000000000E+00 0. -1.
         11    1    3    3    0    0  0.24752066944E+02 -0.13414894665E+02 -0.78345701654E+01  0.29223358925E+02  0.51100000000E-03 0.  1.
        -11    1    3    3    0    0 -0.44587425940E+01 -0.69223123823E+01  0.33239019094E+01  0.88795899907E+01  0.51100000000E-03 0. -1.
        -12    1    3    3    0    0  0.88072222091E+01 -0.58103700304E+01 -0.65631672394E+01  0.12425889390E+02  0.00000000000E+00 0.  1.
</event>
<event>
 7    1  0.3054835E-011  0.5052884E+02  0.7816164E-02  0.1300439E+00
        -11   -1    0    0    0    0  0.00000000000E+00  0.00000000000E+00  0.45593999997E+02  0.45594000000E+02  0.51100000000E-03 0.  1.
         11   -1    0    0    0    0 -0.00000000000E+00 -0.00000000000E+00 -0.45593999997E+02  0.45594000000E+02  0.51100000000E-03 0. -1.
    9900012    2    1    2    0    0 -0.64800301911E+01 -0.39972551189E+02  0.36566745994E+01  0.50528844709E+02  0.29999953978E+02 0.  0.
         12    1    1    2    0    0  0.64800301911E+01  0.39972551189E+02 -0.36566745994E+01  0.40659155291E+02  0.00000000000E+00 0. -1.
         11    1    3    3    0    0 -0.80666030100E+01 -0.27354932875E+02  0.90645044327E+01  0.29925368462E+02  0.51100000000E-03 0. -1.
        -11    1    3    3    0    0  0.31485780876E+01 -0.15906112931E+02 -0.40058041510E+01  0.16702228585E+02  0.51100000000E-03 0.  1.
         12    1    3    3    0    0 -0.15620052686E+01  0.32884946172E+01 -0.14020256823E+01  0.39012476620E+01  0.00000000000E+00 0. -1.
</event>
<event>
 7    1  0.3054835E-011  0.5052886E+02  0.7816164E-02  0.1300439E+00
        -11   -1    0    0    0    0  0.00000000000E+00  0.00000000000E+00  0.45593999997E+02  0.45594000000E+02  0.51100000000E-03 0.  1.
         11   -1    0    0    0    0 -0.00000000000E+00 -0.00000000000E+00 -0.45593999997E+02  0.45594000000E+02  0.51100000000E-03 0. -1.
    9900012    2    1    2    0    0  0.22237011580E+02 -0.17875188159E+02  0.28968236813E+02  0.50528858595E+02  0.29999996186E+02 0.  0.
         12    1    1    2    0    0 -0.22237011580E+02  0.17875188159E+02 -0.28968236813E+02  0.40659141405E+02  0.00000000000E+00 0. -1.
         11    1    3    3    0    0 -0.63023221875E+00  0.15973629981E+01 -0.14629256852E+01  0.22558619237E+01  0.51100000000E-03 0. -1.
        -11    1    3    3    0    0  0.13301906130E+02 -0.21687434276E+02  0.28611960664E+02  0.38287462771E+02  0.51100000000E-03 0.  1.
        -12    1    3    3    0    0  0.95653376692E+01  0.22148831193E+01  0.18192018338E+01  0.99855339001E+01  0.00000000000E+00 0.  1.
</event>
<event>
 7    1  0.3054835E-011  0.5052886E+02  0.7816164E-02  0.1300439E+00
        -11   -1    0    0    0    0  0.00000000000E+00  0.00000000000E+00  0.45593999997E+02  0.45594000000E+02  0.51100000000E-03 0.  1.
         11   -1    0    0    0    0 -0.00000000000E+00 -0.00000000000E+00 -0.45593999997E+02  0.45594000000E+02  0.51100000000E-03 0. -1.
    9900012    2    1    2    0    0 -0.23168387641E+00 -0.40194951899E+02  0.61219004981E+01  0.50528862020E+02  0.30000006596E+02 0.  0.
         12    1    1    2    0    0  0.23168387641E+00  0.40194951899E+02 -0.61219004981E+01  0.40659137980E+02  0.00000000000E+00 0. -1.
         11    1    3    3    0    0  0.10403871774E+01 -0.13785117854E+02 -0.30133401685E+00  0.13827605801E+02  0.51100000000E-03 0. -1.
        -11    1    3    3    0    0 -0.12808890014E+02 -0.14437248969E+02  0.54085521864E+01  0.20043808475E+02  0.51100000000E-03 0.  1.
        -12    1    3    3    0    0  0.11536818960E+02 -0.11972585076E+02  0.10146823285E+01  0.16657447744E+02  0.00000000000E+00 0.  1.
</event>
<event>
 7    1  0.3054835E-011  0.5052885E+02  0.7816164E-02  0.1300439E+00
        -11   -1    0    0    0    0  0.00000000000E+00  0.00000000000E+00  0.45593999997E+02  0.45594000000E+02  0.51100000000E-03 0.  1.
         11   -1    0    0    0    0 -0.00000000000E+00 -0.00000000000E+00 -0.45593999997E+02  0.45594000000E+02  0.51100000000E-03 0. -1.
    9900012    2    1    2    0    0 -0.72720698006E+01  0.34089553365E+01  0.39858027578E+02  0.50528851730E+02  0.29999975318E+02 0.  0.
         12    1    1    2    0    0  0.72720698006E+01 -0.34089553365E+01 -0.39858027578E+02  0.40659148270E+02  0.00000000000E+00 0. -1.
         11    1    3    3    0    0 -0.10781540827E+01  0.15389341044E+02  0.23221973197E+02  0.27879280360E+02  0.51100000000E-03 0.  1.
        -11    1    3    3    0    0 -0.63623439149E+01 -0.11532866266E+02  0.17354340348E+02  0.21786682941E+02  0.51100000000E-03 0. -1.
        -12    1    3    3    0    0  0.16842819702E+00 -0.44751944122E+00 -0.71828596758E+00  0.86288842792E+00  0.00000000000E+00 0.  1.
</event>
<event>
 7    1  0.3054835E-011  0.5052886E+02  0.7816164E-02  0.1300439E+00
        -11   -1    0    0    0    0  0.00000000000E+00  0.00000000000E+00  0.45593999997E+02  0.45594000000E+02  0.51100000000E-03 0.  1.
         11   -1    0    0    0    0 -0.00000000000E+00 -0.00000000000E+00 -0.45593999997E+02  0.45594000000E+02  0.51100000000E-03 0. -1.
    9900012    2    1    2    0    0  0.83720824810E+01  0.16716845273E+02  0.36105693082E+02  0.50528858913E+02  0.29999997153E+02 0.  0.
         12    1    1    2    0    0 -0.83720824810E+01 -0.16716845273E+02 -0.36105693082E+02  0.40659141087E+02  0.00000000000E+00 0. -1.
         11    1    3    3    0    0  0.51817324295E+01 -0.46535030967E+01  0.20440031517E+01  0.72583325349E+01  0.51100000000E-03 0. -1.
        -11    1    3    3    0    0  0.23434619743E+01  0.19608947171E+02  0.16884403929E+02  0.25982411734E+02  0.51100000000E-03 0.  1.
        -12    1    3    3    0    0  0.84688807720E+00  0.17614011988E+01  0.17177286002E+02  0.17288114645E+02  0.00000000000E+00 0.  1.
</event>
<event>
 7    1  0.3054835E-011  0.5052886E+02  0.7816164E-02  0.1300439E+00
        -11   -1    0    0    0    0  0.00000000000E+00  0.00000000000E+00  0.45593999997E+02  0.45594000000E+02  0.51100000000E-03 0.  1.
         11   -1    0    0    0    0 -0.00000000000E+00 -0.00000000000E+00 -0.45593999997E+02  0.45594000000E+02  0.51100000000E-03 0. -1.
    9900012    2    1    2    0    0  0.15517147462E+02  0.30293406046E+01  0.37459401025E+02  0.50528862098E+02  0.30000006832E+02 0.  0.
         12    1    1    2    0    0 -0.15517147462E+02 -0.30293406046E+01 -0.37459401025E+02  0.40659137902E+02  0.00000000000E+00 0. -1.
         11    1    3    3    0    0  0.55506037863E+01  0.76724751444E+01  0.99156779904E+01  0.13711190594E+02  0.51100000000E-03 0. -1.
        -11    1    3    3    0    0  0.54346824096E+01 -0.60845742359E+01 -0.68889739307E+00  0.81873314581E+01  0.51100000000E-03 0.  1.
        -12    1    3    3    0    0  0.45318612658E+01  0.14414396962E+01  0.28232620427E+02  0.28630340046E+02  0.00000000000E+00 0.  1.
</event>
<event>
 7    1  0.3054835E-011  0.5052886E+02  0.7816164E-02  0.1300439E+00
        -11   -1    0    0    0    0  0.00000000000E+00  0.00000000000E+00  0.45593999997E+02  0.45594000000E+02  0.51100000000E-03 0.  1.
         11   -1    0    0    0    0 -0.00000000000E+00 -0.00000000000E+00 -0.45593999997E+02  0.45594000000E+02  0.51100000000E-03 0. -1.
    9900012    2    1    2    0    0 -0.23458992564E+02 -0.11606423731E+02  0.31114826945E+02  0.50528857612E+02  0.29999993197E+02 0.  0.
         12    1    1    2    0    0  0.23458992564E+02  0.11606423731E+02 -0.31114826945E+02  0.40659142388E+02  0.00000000000E+00 0. -1.
         11    1    3    3    0    0 -0.84107305448E+01 -0.58627876490E+01  0.50676887827E+01  0.11436526447E+02  0.51100000000E-03 0.  1.
        -11    1    3    3    0    0 -0.15552738459E+02  0.15428321935E+01  0.27513475976E+02  0.31642682650E+02  0.51100000000E-03 0. -1.
        -12    1    3    3    0    0  0.50447644042E+00 -0.72864682757E+01 -0.14663378138E+01  0.74496485149E+01  0.00000000000E+00 0.  1.
</event>
<event>
 7    1  0.3054835E-011  0.5052887E+02  0.7816164E-02  0.1300439E+00
        -11   -1    0    0    0    0  0.00000000000E+00  0.00000000000E+00  0.45593999997E+02  0.45594000000E+02  0.51100000000E-03 0.  1.
         11   -1    0    0    0    0 -0.00000000000E+00 -0.00000000000E+00 -0.45593999997E+02  0.45594000000E+02  0.51100000000E-03 0. -1.
    9900012    2    1    2    0    0  0.50846094239E+01 -0.32960067125E+02  0.23258244862E+02  0.50528865332E+02  0.30000016664E+02 0.  0.
         12    1    1    2    0    0 -0.50846094239E+01  0.32960067125E+02 -0.23258244862E+02  0.40659134668E+02  0.00000000000E+00 0. -1.
         11    1    3    3    0    0 -0.50790832271E+00 -0.80250630457E+00 -0.31408671772E+00  0.10003189294E+01  0.51100000000E-03 0. -1.
        -11    1    3    3    0    0  0.97272124202E+01 -0.38477252309E+01 -0.25718738055E+01  0.10772102211E+02  0.51100000000E-03 0.  1.
        -12    1    3    3    0    0 -0.41346946735E+01 -0.28309835589E+02  0.26144205385E+02  0.38756444191E+02  0.00000000000E+00 0.  1.
</event>
<event>
 7    1  0.3054835E-011  0.5052886E+02  0.7816164E-02  0.1300439E+00
        -11   -1    0    0    0    0  0.00000000000E+00  0.00000000000E+00  0.45593999997E+02  0.45594000000E+02  0.51100000000E-03 0.  1.
         11   -1    0    0    0    0 -0.00000000000E+00 -0.00000000000E+00 -0.45593999997E+02  0.45594000000E+02  0.51100000000E-03 0. -1.
    9900012    2    1    2    0    0 -0.20014349354E+02 -0.22708693608E+02  0.27146021665E+02  0.50528862802E+02  0.30000008971E+02 0.  0.
         12    1    1    2    0    0  0.20014349354E+02  0.22708693608E+02 -0.27146021665E+02  0.40659137198E+02  0.00000000000E+00 0. -1.
         11    1    3    3    0    0  0.39865024084E+01 -0.54977686890E+01  0.41483779142E+01  0.79578075869E+01  0.51100000000E-03 0. -1.
        -11    1    3    3    0    0 -0.14973157586E+02 -0.11914508253E+02  0.21653456588E+01  0.19257198059E+02  0.51100000000E-03 0.  1.
        -12    1    3    3    0    0 -0.90276941766E+01 -0.52964166662E+01  0.20832298093E+02  0.23313857155E+02  0.00000000000E+00 0.  1.
</event>
<event>
 7    1  0.3054835E-011  0.5052886E+02  0.7816164E-02  0.1300439E+00
        -11   -1    0    0    0    0  0.00000000000E+00  0.00000000000E+00  0.45593999997E+02  0.45594000000E+02  0.51100000000E-03 0. -1.
         11   -1    0    0    0    0 -0.00000000000E+00 -0.00000000000E+00 -0.45593999997E+02  0.45594000000E+02  0.51100000000E-03 0.  1.
    9900012    2    1    2    0    0  0.82502895696E+01 -0.34688210059E+02  0.19540380936E+02  0.50528859795E+02  0.29999999834E+02 0.  0.
         12    1    1    2    0    0 -0.82502895696E+01  0.34688210059E+02 -0.19540380936E+02  0.40659140205E+02  0.00000000000E+00 0. -1.
         11    1    3    3    0    0  0.70450657291E+01 -0.10537891140E+02  0.17241409890E+02  0.21399680280E+02  0.51100000000E-03 0. -1.
        -11    1    3    3    0    0 -0.66513328542E+01 -0.50356379324E+01  0.68156573991E-01  0.83428126973E+01  0.51100000000E-03 0.  1.
        -12    1    3    3    0    0  0.78565566947E+01 -0.19114680986E+02  0.22308144718E+01  0.20786366819E+02  0.00000000000E+00 0.  1.
</event>
<event>
 7    1  0.3054835E-011  0.5052886E+02  0.7816164E-02  0.1300439E+00
        -11   -1    0    0    0    0  0.00000000000E+00  0.00000000000E+00  0.45593999997E+02  0.45594000000E+02  0.51100000000E-03 0. -1.
         11   -1    0    0    0    0 -0.00000000000E+00 -0.00000000000E+00 -0.45593999997E+02  0.45594000000E+02  0.51100000000E-03 0.  1.
    9900012    2    1    2    0    0  0.24880918103E+02  0.28176437604E+02 -0.15498190790E+02  0.50528860321E+02  0.30000001431E+02 0.  0.
         12    1    1    2    0    0 -0.24880918103E+02 -0.28176437604E+02  0.15498190790E+02  0.40659139679E+02  0.00000000000E+00 0. -1.
         11    1    3    3    0    0  0.73042863094E+01  0.12557607388E+01 -0.15823873073E+02  0.17473536929E+02  0.51100000000E-03 0. -1.
        -11    1    3    3    0    0  0.15151963691E+02  0.18823409906E+02 -0.21178458742E+01  0.24256711145E+02  0.51100000000E-03 0.  1.
         12    1    3    3    0    0  0.24246681031E+01  0.80972669588E+01  0.24435281571E+01  0.87986122467E+01  0.00000000000E+00 0. -1.
</event>
<event>
 7    1  0.3054835E-011  0.5052888E+02  0.7816164E-02  0.1300439E+00
        -11   -1    0    0    0    0  0.00000000000E+00  0.00000000000E+00  0.45593999997E+02  0.45594000000E+02  0.51100000000E-03 0. -1.
         11   -1    0    0    0    0 -0.00000000000E+00 -0.00000000000E+00 -0.45593999997E+02  0.45594000000E+02  0.51100000000E-03 0.  1.
    9900012    2    1    2    0    0  0.55674939254E+01  0.17573773326E+02 -0.36239886551E+02  0.50528882022E+02  0.30000067394E+02 0.  0.
         12    1    1    2    0    0 -0.55674939254E+01 -0.17573773326E+02  0.36239886551E+02  0.40659117978E+02  0.00000000000E+00 0. -1.
         11    1    3    3    0    0 -0.92448309648E+01  0.99536665710E+01 -0.14092566652E+02  0.19574034149E+02  0.51100000000E-03 0. -1.
        -11    1    3    3    0    0  0.10970834404E+02  0.11238581476E+02 -0.19537365503E+02  0.25067380641E+02  0.51100000000E-03 0.  1.
         12    1    3    3    0    0  0.38414904864E+01 -0.36184747210E+01 -0.26099543958E+01  0.58874672324E+01  0.00000000000E+00 0. -1.
</event>
<event>
 7    1  0.3054835E-011  0.5052886E+02  0.7816164E-02  0.1300439E+00
        -11   -1    0    0    0    0  0.00000000000E+00  0.00000000000E+00  0.45593999997E+02  0.45594000000E+02  0.51100000000E-03 0.  1.
         11   -1    0    0    0    0 -0.00000000000E+00 -0.00000000000E+00 -0.45593999997E+02  0.45594000000E+02  0.51100000000E-03 0. -1.
    9900012    2    1    2    0    0 -0.16433437953E+02 -0.35090865699E+02  0.12318242402E+02  0.50528857924E+02  0.29999994145E+02 0.  0.
         12    1    1    2    0    0  0.16433437953E+02  0.35090865699E+02 -0.12318242402E+02  0.40659142076E+02  0.00000000000E+00 0. -1.
         11    1    3    3    0    0 -0.22952934346E+01 -0.22010057178E+02 -0.21827547616E+01  0.22236802998E+02  0.51100000000E-03 0. -1.
        -11    1    3    3    0    0 -0.12063910562E+02 -0.13979612327E+02  0.16874470548E+02  0.25014301017E+02  0.51100000000E-03 0.  1.
        -12    1    3    3    0    0 -0.20742339559E+01  0.89880380534E+00 -0.23734733837E+01  0.32777539089E+01  0.00000000000E+00 0.  1.
</event>
<event>
 7    1  0.3054835E-011  0.5052886E+02  0.7816164E-02  0.1300439E+00
        -11   -1    0    0    0    0  0.00000000000E+00  0.00000000000E+00  0.45593999997E+02  0.45594000000E+02  0.51100000000E-03 0. -1.
         11   -1    0    0    0    0 -0.00000000000E+00 -0.00000000000E+00 -0.45593999997E+02  0.45594000000E+02  0.51100000000E-03 0.  1.
    9900012    2    1    2    0    0  0.19684422146E+02 -0.15050200799E+02 -0.32236324425E+02  0.50528860416E+02  0.30000001721E+02 0.  0.
         12    1    1    2    0    0 -0.19684422146E+02  0.15050200799E+02  0.32236324425E+02  0.40659139584E+02  0.00000000000E+00 0. -1.
         11    1    3    3    0    0  0.19905015008E+00  0.67717049233E+01 -0.35237864627E+01  0.76362739491E+01  0.51100000000E-03 0. -1.
        -11    1    3    3    0    0  0.14028160451E+02 -0.10387579383E+02 -0.94848547352E+01  0.19865889375E+02  0.51100000000E-03 0.  1.
         12    1    3    3    0    0  0.54572115451E+01 -0.11434326339E+02 -0.19227683227E+02  0.23026697092E+02  0.00000000000E+00 0. -1.
</event>
<event>
 7    1  0.3054835E-011  0.5052887E+02  0.7816164E-02  0.1300439E+00
        -11   -1    0    0    0    0  0.00000000000E+00  0.00000000000E+00  0.45593999997E+02  0.45594000000E+02  0.51100000000E-03 0.  1.
         11   -1    0    0    0    0 -0.00000000000E+00 -0.00000000000E+00 -0.45593999997E+02  0.45594000000E+02  0.51100000000E-03 0. -1.
    9900012    2    1    2    0    0 -0.25030652687E+01  0.38888299190E+02 -0.11601704807E+02  0.50528871824E+02  0.30000036395E+02 0.  0.
         12    1    1    2    0    0  0.25030652687E+01 -0.38888299190E+02  0.11601704807E+02  0.40659128176E+02  0.00000000000E+00 0. -1.
         11    1    3    3    0    0  0.24160164922E+00  0.23454245336E+02  0.17275030493E+01  0.23519019169E+02  0.51100000000E-03 0. -1.
        -11    1    3    3    0    0 -0.50695997238E+01  0.18622471894E+02 -0.12449004096E+02  0.22966823987E+02  0.51100000000E-03 0.  1.
         12    1    3    3    0    0  0.23249328058E+01 -0.31884180397E+01 -0.88020375964E+00  0.40430286675E+01  0.00000000000E+00 0. -1.
</event>
<event>
 7    1  0.3054835E-011  0.5052887E+02  0.7816164E-02  0.1300439E+00
        -11   -1    0    0    0    0  0.00000000000E+00  0.00000000000E+00  0.45593999997E+02  0.45594000000E+02  0.51100000000E-03 0.  1.
         11   -1    0    0    0    0 -0.00000000000E+00 -0.00000000000E+00 -0.45593999997E+02  0.45594000000E+02  0.51100000000E-03 0. -1.
    9900012    2    1    2    0    0 -0.16563320137E+02  0.34555951439E+02  0.13590709120E+02  0.50528871527E+02  0.30000035493E+02 0.  0.
         12    1    1    2    0    0  0.16563320137E+02 -0.34555951439E+02 -0.13590709120E+02  0.40659128473E+02  0.00000000000E+00 0. -1.
         11    1    3    3    0    0 -0.15012701392E+02  0.28033867664E+01 -0.10244899984E+01  0.15306526728E+02  0.51100000000E-03 0. -1.
        -11    1    3    3    0    0  0.12652804599E+01  0.11961972090E+02  0.47762179566E+01  0.12942255181E+02  0.51100000000E-03 0.  1.
         12    1    3    3    0    0 -0.28158992048E+01  0.19790592582E+02  0.98389811621E+01  0.22280089618E+02  0.00000000000E+00 0. -1.
</event>
<event>
 7    1  0.3054835E-011  0.5052885E+02  0.7816164E-02  0.1300439E+00
        -11   -1    0    0    0    0  0.00000000000E+00  0.00000000000E+00  0.45593999997E+02  0.45594000000E+02  0.51100000000E-03 0.  1.
         11   -1    0    0    0    0 -0.00000000000E+00 -0.00000000000E+00 -0.45593999997E+02  0.45594000000E+02  0.51100000000E-03 0. -1.
    9900012    2    1    2    0    0 -0.35113438487E+02 -0.84213656669E+01  0.18689386324E+02  0.50528854372E+02  0.29999983348E+02 0.  0.
         12    1    1    2    0    0  0.35113438487E+02  0.84213656669E+01 -0.18689386324E+02  0.40659145628E+02  0.00000000000E+00 0. -1.
         11    1    3    3    0    0 -0.27041255879E+02  0.51646834043E+01  0.30741309908E+01  0.27701150803E+02  0.51100000000E-03 0. -1.
        -11    1    3    3    0    0 -0.61970480766E+01 -0.82079414581E+01  0.12956129178E+02  0.16541916195E+02  0.51100000000E-03 0.  1.
         12    1    3    3    0    0 -0.18751345311E+01 -0.53781076130E+01  0.26591261549E+01  0.62857873742E+01  0.00000000000E+00 0. -1.
</event>
<event>
 7    1  0.3054835E-011  0.5052886E+02  0.7816164E-02  0.1300439E+00
        -11   -1    0    0    0    0  0.00000000000E+00  0.00000000000E+00  0.45593999997E+02  0.45594000000E+02  0.51100000000E-03 0. -1.
         11   -1    0    0    0    0 -0.00000000000E+00 -0.00000000000E+00 -0.45593999997E+02  0.45594000000E+02  0.51100000000E-03 0.  1.
    9900012    2    1    2    0    0 -0.34577336395E+02  0.17694863129E+02 -0.12019371347E+02  0.50528860057E+02  0.30000000629E+02 0.  0.
         12    1    1    2    0    0  0.34577336395E+02 -0.17694863129E+02  0.12019371347E+02  0.40659139943E+02  0.00000000000E+00 0. -1.
         11    1    3    3    0    0 -0.29549680991E+02  0.13809803865E+02 -0.16414529260E+02  0.36514806593E+02  0.51100000000E-03 0.  1.
        -11    1    3    3    0    0  0.12243916300E+00  0.64132067398E+01 -0.55253142785E+00  0.64381288645E+01  0.51100000000E-03 0. -1.
         12    1    3    3    0    0 -0.51500945673E+01 -0.25281474757E+01  0.49476893412E+01  0.75759245989E+01  0.00000000000E+00 0. -1.
</event>
<event>
 7    1  0.3054835E-011  0.5052887E+02  0.7816164E-02  0.1300439E+00
        -11   -1    0    0    0    0  0.00000000000E+00  0.00000000000E+00  0.45593999997E+02  0.45594000000E+02  0.51100000000E-03 0.  1.
         11   -1    0    0    0    0 -0.00000000000E+00 -0.00000000000E+00 -0.45593999997E+02  0.45594000000E+02  0.51100000000E-03 0. -1.
    9900012    2    1    2    0    0 -0.11647703793E+02 -0.18782156419E+02  0.34128089254E+02  0.50528869666E+02  0.30000029837E+02 0.  0.
         12    1    1    2    0    0  0.11647703793E+02  0.18782156419E+02 -0.34128089254E+02  0.40659130334E+02  0.00000000000E+00 0. -1.
         11    1    3    3    0    0 -0.29520350909E+01  0.41094850448E+01  0.23431756936E+01  0.55760964037E+01  0.51100000000E-03 0. -1.
        -11    1    3    3    0    0 -0.12901269183E+02 -0.23563527168E+02  0.30172603697E+02  0.40398868465E+02  0.51100000000E-03 0.  1.
        -12    1    3    3    0    0  0.42056004816E+01  0.67188570348E+00  0.16123098630E+01  0.45539047974E+01  0.00000000000E+00 0.  1.
</event>
<event>
 7    1  0.3054835E-011  0.5052886E+02  0.7816164E-02  0.1300439E+00
        -11   -1    0    0    0    0  0.00000000000E+00  0.00000000000E+00  0.45593999997E+02  0.45594000000E+02  0.51100000000E-03 0. -1.
         11   -1    0    0    0    0 -0.00000000000E+00 -0.00000000000E+00 -0.45593999997E+02  0.45594000000E+02  0.51100000000E-03 0.  1.
    9900012    2    1    2    0    0  0.27105641768E+02  0.29614996391E+02 -0.64344223573E+01  0.50528860585E+02  0.30000002235E+02 0.  0.
         12    1    1    2    0    0 -0.27105641768E+02 -0.29614996391E+02  0.64344223573E+01  0.40659139415E+02  0.00000000000E+00 0. -1.
         11    1    3    3    0    0  0.30710737429E+01  0.45596803944E+01  0.62957533872E+01  0.83581511237E+01  0.51100000000E-03 0. -1.
        -11    1    3    3    0    0  0.26095577793E+02  0.26736337441E+02 -0.12849293959E+02  0.39508420313E+02  0.51100000000E-03 0.  1.
        -12    1    3    3    0    0 -0.20610097685E+01 -0.16810214443E+01  0.11911821476E+00  0.26622891486E+01  0.00000000000E+00 0.  1.
</event>
<event>
 7    1  0.3054835E-011  0.5052886E+02  0.7816164E-02  0.1300439E+00
        -11   -1    0    0    0    0  0.00000000000E+00  0.00000000000E+00  0.45593999997E+02  0.45594000000E+02  0.51100000000E-03 0.  1.
         11   -1    0    0    0    0 -0.00000000000E+00 -0.00000000000E+00 -0.45593999997E+02  0.45594000000E+02  0.51100000000E-03 0. -1.
    9900012    2    1    2    0    0  0.32271062410E+02  0.71283772254E+01  0.23683964548E+02  0.50528863171E+02  0.30000010096E+02 0.  0.
         12    1    1    2    0    0 -0.32271062410E+02 -0.71283772254E+01 -0.23683964548E+02  0.40659136829E+02  0.00000000000E+00 0. -1.
         11    1    3    3    0    0  0.29018907058E+02  0.13482191968E+02  0.20563634299E+02  0.38035897819E+02  0.51100000000E-03 0. -1.
        -11    1    3    3    0    0  0.58971319802E+01 -0.47740734031E+01  0.48057351520E+01  0.89812601044E+01  0.51100000000E-03 0.  1.
         12    1    3    3    0    0 -0.26449766276E+01 -0.15797413397E+01 -0.16854049030E+01  0.35117052479E+01  0.00000000000E+00 0. -1.
</event>
<event>
 7    1  0.3054835E-011  0.5052885E+02  0.7816164E-02  0.1300439E+00
        -11   -1    0    0    0    0  0.00000000000E+00  0.00000000000E+00  0.45593999997E+02  0.45594000000E+02  0.51100000000E-03 0.  1.
         11   -1    0    0    0    0 -0.00000000000E+00 -0.00000000000E+00 -0.45593999997E+02  0.45594000000E+02  0.51100000000E-03 0. -1.
    9900012    2    1    2    0    0 -0.11187716090E+02 -0.26226788012E+02  0.28985456718E+02  0.50528854634E+02  0.29999984146E+02 0.  0.
         12    1    1    2    0    0  0.11187716090E+02  0.26226788012E+02 -0.28985456718E+02  0.40659145366E+02  0.00000000000E+00 0. -1.
         11    1    3    3    0    0 -0.98937788264E+00 -0.61682858333E+01 -0.53000804170E+01  0.81925253374E+01  0.51100000000E-03 0. -1.
        -11    1    3    3    0    0 -0.32394090014E+01 -0.68731217754E+01  0.21123948806E+02  0.22448937326E+02  0.51100000000E-03 0.  1.
         12    1    3    3    0    0 -0.69589292057E+01 -0.13185380403E+02  0.13161588329E+02  0.19887391971E+02  0.00000000000E+00 0. -1.
</event>
<event>
 7    1  0.3054835E-011  0.5052886E+02  0.7816164E-02  0.1300439E+00
        -11   -1    0    0    0    0  0.00000000000E+00  0.00000000000E+00  0.45593999997E+02  0.45594000000E+02  0.51100000000E-03 0. -1.
         11   -1    0    0    0    0 -0.00000000000E+00 -0.00000000000E+00 -0.45593999997E+02  0.45594000000E+02  0.51100000000E-03 0.  1.
    9900012    2    1    2    0    0 -0.14258201305E+02  0.17526014897E+02 -0.33803970141E+02  0.50528857118E+02  0.29999991697E+02 0.  0.
         12    1    1    2    0    0  0.14258201305E+02 -0.17526014897E+02  0.33803970141E+02  0.40659142882E+02  0.00000000000E+00 0. -1.
         11    1    3    3    0    0 -0.50264204788E+01  0.98593437692E+01 -0.34797683353E+02  0.36515069895E+02  0.51100000000E-03 0. -1.
        -11    1    3    3    0    0 -0.25555656583E+01  0.11955720516E+01 -0.27971837356E+01  0.39729769035E+01  0.51100000000E-03 0.  1.
         12    1    3    3    0    0 -0.66762151676E+01  0.64710990758E+01  0.37908969484E+01  0.10040810320E+02  0.00000000000E+00 0. -1.
</event>
<event>
 7    1  0.3054835E-011  0.5052887E+02  0.7816164E-02  0.1300439E+00
        -11   -1    0    0    0    0  0.00000000000E+00  0.00000000000E+00  0.45593999997E+02  0.45594000000E+02  0.51100000000E-03 0.  1.
         11   -1    0    0    0    0 -0.00000000000E+00 -0.00000000000E+00 -0.45593999997E+02  0.45594000000E+02  0.51100000000E-03 0. -1.
    9900012    2    1    2    0    0 -0.34574339055E+02  0.20852691474E+02  0.47901094285E+01  0.50528870507E+02  0.30000032393E+02 0.  0.
         12    1    1    2    0    0  0.34574339055E+02 -0.20852691474E+02 -0.47901094285E+01  0.40659129493E+02  0.00000000000E+00 0. -1.
         11    1    3    3    0    0 -0.42794329834E+01 -0.33938331085E+01 -0.79736397472E+00  0.55197318229E+01  0.51100000000E-03 0. -1.
        -11    1    3    3    0    0 -0.22401485743E+02  0.21302567064E+02  0.13238711015E+02  0.33628699002E+02  0.51100000000E-03 0.  1.
        -12    1    3    3    0    0 -0.78934203287E+01  0.29439575192E+01 -0.76512376116E+01  0.11380439682E+02  0.00000000000E+00 0.  1.
</event>
<event>
 7    1  0.3054835E-011  0.5052898E+02  0.7816164E-02  0.1300438E+00
        -11   -1    0    0    0    0  0.00000000000E+00  0.00000000000E+00  0.45593999997E+02  0.45594000000E+02  0.51100000000E-03 0. -1.
         11   -1    0    0    0    0 -0.00000000000E+00 -0.00000000000E+00 -0.45593999997E+02  0.45594000000E+02  0.51100000000E-03 0.  1.
    9900012    2    1    2    0    0 -0.38165866547E+02 -0.13817413339E+02 -0.23667380049E+01  0.50528982188E+02  0.30000371857E+02 0.  0.
         12    1    1    2    0    0  0.38165866547E+02  0.13817413339E+02  0.23667380049E+01  0.40659017812E+02  0.00000000000E+00 0. -1.
         11    1    3    3    0    0 -0.33675668762E+02 -0.98622338538E+00 -0.51839726971E+01  0.34086608460E+02  0.51100000000E-03 0.  1.
        -11    1    3    3    0    0  0.19435077587E+01 -0.17191562723E+01  0.24927210809E+01  0.35981077451E+01  0.51100000000E-03 0. -1.
         12    1    3    3    0    0 -0.64337055431E+01 -0.11112033681E+02  0.32451361126E+00  0.12844265983E+02  0.00000000000E+00 0. -1.
</event>
<event>
 7    1  0.3054835E-011  0.5052886E+02  0.7816164E-02  0.1300439E+00
        -11   -1    0    0    0    0  0.00000000000E+00  0.00000000000E+00  0.45593999997E+02  0.45594000000E+02  0.51100000000E-03 0.  1.
         11   -1    0    0    0    0 -0.00000000000E+00 -0.00000000000E+00 -0.45593999997E+02  0.45594000000E+02  0.51100000000E-03 0. -1.
    9900012    2    1    2    0    0 -0.23499443185E+02 -0.17977158586E+02  0.27888412907E+02  0.50528860371E+02  0.30000001584E+02 0.  0.
         12    1    1    2    0    0  0.23499443185E+02  0.17977158586E+02 -0.27888412907E+02  0.40659139629E+02  0.00000000000E+00 0. -1.
         11    1    3    3    0    0 -0.15601596305E+01  0.40092157083E+01 -0.30655098399E+01  0.52825429017E+01  0.51100000000E-03 0. -1.
        -11    1    3    3    0    0  0.10884919475E-01 -0.55875670539E+01  0.47535583844E+01  0.73360303734E+01  0.51100000000E-03 0.  1.
         12    1    3    3    0    0 -0.21950168474E+02 -0.16398807241E+02  0.26200364363E+02  0.37910287096E+02  0.00000000000E+00 0. -1.
</event>
<event>
 7    1  0.3054835E-011  0.5052887E+02  0.7816164E-02  0.1300439E+00
        -11   -1    0    0    0    0  0.00000000000E+00  0.00000000000E+00  0.45593999997E+02  0.45594000000E+02  0.51100000000E-03 0. -1.
         11   -1    0    0    0    0 -0.00000000000E+00 -0.00000000000E+00 -0.45593999997E+02  0.45594000000E+02  0.51100000000E-03 0.  1.
    9900012    2    1    2    0    0 -0.32331211120E+02  0.15441973553E+02  0.19219861830E+02  0.50528870048E+02  0.30000030998E+02 0.  0.
         12    1    1    2    0    0  0.32331211120E+02 -0.15441973553E+02 -0.19219861830E+02  0.40659129952E+02  0.00000000000E+00 0. -1.
         11    1    3    3    0    0 -0.17569836871E+02 -0.32963488658E+01  0.84022513616E+01  0.19752541906E+02  0.51100000000E-03 0. -1.
        -11    1    3    3    0    0 -0.82528456250E+01  0.72973096620E+01  0.13416163721E+02  0.17359540272E+02  0.51100000000E-03 0.  1.
         12    1    3    3    0    0 -0.65085286238E+01  0.11441012756E+02 -0.25985532526E+01  0.13416787870E+02  0.00000000000E+00 0. -1.
</event>
<event>
 7    1  0.3054835E-011  0.5052887E+02  0.7816164E-02  0.1300439E+00
        -11   -1    0    0    0    0  0.00000000000E+00  0.00000000000E+00  0.45593999997E+02  0.45594000000E+02  0.51100000000E-03 0.  1.
         11   -1    0    0    0    0 -0.00000000000E+00 -0.00000000000E+00 -0.45593999997E+02  0.45594000000E+02  0.51100000000E-03 0. -1.
    9900012    2    1    2    0    0  0.15510895228E+02 -0.22382306050E+02  0.30192871599E+02  0.50528868305E+02  0.30000025698E+02 0.  0.
         12    1    1    2    0    0 -0.15510895228E+02  0.22382306050E+02 -0.30192871599E+02  0.40659131695E+02  0.00000000000E+00 0. -1.
         11    1    3    3    0    0 -0.46553980986E+01 -0.63193708901E+00 -0.11898469378E+01  0.48464225917E+01  0.51100000000E-03 0. -1.
        -11    1    3    3    0    0  0.68914922784E+01 -0.17931850477E+02  0.15931824749E+02  0.24957302888E+02  0.51100000000E-03 0.  1.
         12    1    3    3    0    0  0.13274801048E+02 -0.38185184834E+01  0.15450893788E+02  0.20725142825E+02  0.00000000000E+00 0. -1.
</event>
<event>
 7    1  0.3054835E-011  0.5052886E+02  0.7816164E-02  0.1300439E+00
        -11   -1    0    0    0    0  0.00000000000E+00  0.00000000000E+00  0.45593999997E+02  0.45594000000E+02  0.51100000000E-03 0. -1.
         11   -1    0    0    0    0 -0.00000000000E+00 -0.00000000000E+00 -0.45593999997E+02  0.45594000000E+02  0.51100000000E-03 0.  1.
    9900012    2    1    2    0    0  0.76373098434E+01  0.39099372451E+02  0.81287492947E+01  0.50528855975E+02  0.29999988223E+02 0.  0.
         12    1    1    2    0    0 -0.76373098434E+01 -0.39099372451E+02 -0.81287492947E+01  0.40659144025E+02  0.00000000000E+00 0. -1.
         11    1    3    3    0    0  0.13711027296E+01 -0.41936102624E+01  0.21378194215E+01  0.49027096455E+01  0.51100000000E-03 0. -1.
        -11    1    3    3    0    0  0.84311104644E+01  0.21053710544E+02  0.52007005203E+01  0.23267781104E+02  0.51100000000E-03 0.  1.
         12    1    3    3    0    0 -0.21649033505E+01  0.22239272169E+02  0.79022935292E+00  0.22358365226E+02  0.00000000000E+00 0. -1.
</event>
<event>
 7    1  0.3054835E-011  0.5052886E+02  0.7816164E-02  0.1300439E+00
        -11   -1    0    0    0    0  0.00000000000E+00  0.00000000000E+00  0.45593999997E+02  0.45594000000E+02  0.51100000000E-03 0. -1.
         11   -1    0    0    0    0 -0.00000000000E+00 -0.00000000000E+00 -0.45593999997E+02  0.45594000000E+02  0.51100000000E-03 0.  1.
    9900012    2    1    2    0    0  0.18993047739E+02 -0.33621594662E+02 -0.12728640107E+02  0.50528858727E+02  0.29999996587E+02 0.  0.
         12    1    1    2    0    0 -0.18993047739E+02  0.33621594662E+02  0.12728640107E+02  0.40659141273E+02  0.00000000000E+00 0. -1.
         11    1    3    3    0    0  0.10419160870E+02 -0.94211164710E+01  0.30849772226E+01  0.14381704820E+02  0.51100000000E-03 0. -1.
        -11    1    3    3    0    0 -0.46004246495E+01 -0.14796625598E+02 -0.37025834844E+01  0.15931514704E+02  0.51100000000E-03 0.  1.
        -12    1    3    3    0    0  0.13174311519E+02 -0.94038525929E+01 -0.12111033846E+02  0.20215639203E+02  0.00000000000E+00 0.  1.
</event>
<event>
 7    1  0.3054835E-011  0.5052885E+02  0.7816164E-02  0.1300439E+00
        -11   -1    0    0    0    0  0.00000000000E+00  0.00000000000E+00  0.45593999997E+02  0.45594000000E+02  0.51100000000E-03 0. -1.
         11   -1    0    0    0    0 -0.00000000000E+00 -0.00000000000E+00 -0.45593999997E+02  0.45594000000E+02  0.51100000000E-03 0.  1.
    9900012    2    1    2    0    0 -0.29528019909E+02 -0.45590944495E+01 -0.27576745180E+02  0.50528853715E+02  0.29999981351E+02 0.  0.
         12    1    1    2    0    0  0.29528019909E+02  0.45590944495E+01  0.27576745180E+02  0.40659146285E+02  0.00000000000E+00 0. -1.
         11    1    3    3    0    0 -0.14901127981E+02  0.65570851567E+01 -0.33261764445E+01  0.16616330247E+02  0.51100000000E-03 0. -1.
        -11    1    3    3    0    0 -0.65454265134E+01 -0.40281146283E+01 -0.21477401821E+02  0.22811118012E+02  0.51100000000E-03 0.  1.
        -12    1    3    3    0    0 -0.80814654139E+01 -0.70880649778E+01 -0.27731669145E+01  0.11101405456E+02  0.00000000000E+00 0.  1.
</event>
<event>
 7    1  0.3054835E-011  0.5052885E+02  0.7816164E-02  0.1300439E+00
        -11   -1    0    0    0    0  0.00000000000E+00  0.00000000000E+00  0.45593999997E+02  0.45594000000E+02  0.51100000000E-03 0.  1.
         11   -1    0    0    0    0 -0.00000000000E+00 -0.00000000000E+00 -0.45593999997E+02  0.45594000000E+02  0.51100000000E-03 0. -1.
    9900012    2    1    2    0    0 -0.30732363321E+02 -0.24513274387E+02 -0.10382067076E+02  0.50528854740E+02  0.29999984468E+02 0.  0.
         12    1    1    2    0    0  0.30732363321E+02  0.24513274387E+02  0.10382067076E+02  0.40659145260E+02  0.00000000000E+00 0. -1.
         11    1    3    3    0    0 -0.64255328852E+01  0.49884493345E+01 -0.65374156051E+01  0.10435990738E+02  0.51100000000E-03 0. -1.
        -11    1    3    3    0    0 -0.23861195918E+02 -0.23316722427E+02 -0.51464406704E+01  0.33756659598E+02  0.51100000000E-03 0.  1.
         12    1    3    3    0    0 -0.44563451837E+00 -0.61850012948E+01  0.13017891994E+01  0.63362044048E+01  0.00000000000E+00 0. -1.
</event>
<event>
 7    1  0.3054835E-011  0.5052885E+02  0.7816164E-02  0.1300439E+00
        -11   -1    0    0    0    0  0.00000000000E+00  0.00000000000E+00  0.45593999997E+02  0.45594000000E+02  0.51100000000E-03 0.  1.
         11   -1    0    0    0    0 -0.00000000000E+00 -0.00000000000E+00 -0.45593999997E+02  0.45594000000E+02  0.51100000000E-03 0. -1.
    9900012    2    1    2    0    0  0.27234887390E+02  0.25500425568E+02  0.16160311430E+02  0.50528850220E+02  0.29999970730E+02 0.  0.
         12    1    1    2    0    0 -0.27234887390E+02 -0.25500425568E+02 -0.16160311430E+02  0.40659149780E+02  0.00000000000E+00 0. -1.
         11    1    3    3    0    0  0.57976831574E+01  0.11027303982E+01 -0.56646530425E+01  0.81803079818E+01  0.51100000000E-03 0. -1.
        -11    1    3    3    0    0  0.19960405754E+02  0.11002390183E+02  0.12981702729E+02  0.26229658664E+02  0.51100000000E-03 0.  1.
         12    1    3    3    0    0  0.14767984782E+01  0.13395304987E+02  0.88432617435E+01  0.16118883575E+02  0.00000000000E+00 0. -1.
</event>
<event>
 7    1  0.3054835E-011  0.5052887E+02  0.7816164E-02  0.1300439E+00
        -11   -1    0    0    0    0  0.00000000000E+00  0.00000000000E+00  0.45593999997E+02  0.45594000000E+02  0.51100000000E-03 0.  1.
         11   -1    0    0    0    0 -0.00000000000E+00 -0.00000000000E+00 -0.45593999997E+02  0.45594000000E+02  0.51100000000E-03 0. -1.
    9900012    2    1    2    0    0  0.13193900284E+01 -0.29233093937E+02  0.28228537575E+02  0.50528869355E+02  0.30000028891E+02 0.  0.
         12    1    1    2    0    0 -0.13193900284E+01  0.29233093937E+02 -0.28228537575E+02  0.40659130645E+02  0.00000000000E+00 0. -1.
         11    1    3    3    0    0 -0.12436318022E+02 -0.69497363750E+01  0.11886055456E+02  0.18553683090E+02  0.51100000000E-03 0. -1.
        -11    1    3    3    0    0  0.12517577818E+02 -0.14407057408E+02  0.13985447294E+02  0.23661060709E+02  0.51100000000E-03 0.  1.
         12    1    3    3    0    0  0.12381302327E+01 -0.78763001538E+01  0.23570348248E+01  0.83141255554E+01  0.00000000000E+00 0. -1.
</event>
<event>
 7    1  0.3054835E-011  0.5052886E+02  0.7816164E-02  0.1300439E+00
        -11   -1    0    0    0    0  0.00000000000E+00  0.00000000000E+00  0.45593999997E+02  0.45594000000E+02  0.51100000000E-03 0. -1.
         11   -1    0    0    0    0 -0.00000000000E+00 -0.00000000000E+00 -0.45593999997E+02  0.45594000000E+02  0.51100000000E-03 0.  1.
    9900012    2    1    2    0    0 -0.27467683803E+02 -0.29881674318E+02  0.24037128618E+01  0.50528856513E+02  0.29999989856E+02 0.  0.
         12    1    1    2    0    0  0.27467683803E+02  0.29881674318E+02 -0.24037128618E+01  0.40659143487E+02  0.00000000000E+00 0. -1.
         11    1    3    3    0    0  0.48608732117E+01 -0.27233964122E+01  0.32146765621E+00  0.55810678291E+01  0.51100000000E-03 0. -1.
        -11    1    3    3    0    0 -0.33694763751E+02 -0.23987730666E+02  0.11735968766E+01  0.41377840164E+02  0.51100000000E-03 0.  1.
        -12    1    3    3    0    0  0.13662067361E+01 -0.31705472399E+01  0.90864832900E+00  0.35699485195E+01  0.00000000000E+00 0.  1.
</event>
<event>
 7    1  0.3054835E-011  0.5052884E+02  0.7816164E-02  0.1300439E+00
        -11   -1    0    0    0    0  0.00000000000E+00  0.00000000000E+00  0.45593999997E+02  0.45594000000E+02  0.51100000000E-03 0.  1.
         11   -1    0    0    0    0 -0.00000000000E+00 -0.00000000000E+00 -0.45593999997E+02  0.45594000000E+02  0.51100000000E-03 0. -1.
    9900012    2    1    2    0    0 -0.26529337886E+02  0.15669527497E+02  0.26529745675E+02  0.50528840316E+02  0.29999940624E+02 0.  0.
         12    1    1    2    0    0  0.26529337886E+02 -0.15669527497E+02 -0.26529745675E+02  0.40659159684E+02  0.00000000000E+00 0. -1.
         11    1    3    3    0    0 -0.12101901255E+01  0.50568427257E+01 -0.46705315559E+01  0.69892834946E+01  0.51100000000E-03 0. -1.
        -11    1    3    3    0    0 -0.10175059019E+02  0.11299730645E+02  0.15323560641E+02  0.21587664294E+02  0.51100000000E-03 0.  1.
         12    1    3    3    0    0 -0.15144088742E+02 -0.68704587414E+00  0.15876716590E+02  0.21951892528E+02  0.00000000000E+00 0. -1.
</event>
<event>
 7    1  0.3054835E-011  0.5052888E+02  0.7816164E-02  0.1300439E+00
        -11   -1    0    0    0    0  0.00000000000E+00  0.00000000000E+00  0.45593999997E+02  0.45594000000E+02  0.51100000000E-03 0.  1.
         11   -1    0    0    0    0 -0.00000000000E+00 -0.00000000000E+00 -0.45593999997E+02  0.45594000000E+02  0.51100000000E-03 0. -1.
    9900012    2    1    2    0    0  0.21018637901E+02  0.11013831523E+02  0.33016307602E+02  0.50528878124E+02  0.30000055546E+02 0.  0.
         12    1    1    2    0    0 -0.21018637901E+02 -0.11013831523E+02 -0.33016307602E+02  0.40659121876E+02  0.00000000000E+00 0. -1.
         11    1    3    3    0    0 -0.49793856497E+01  0.90384337422E+01  0.72436875465E+01  0.12607877517E+02  0.51100000000E-03 0. -1.
        -11    1    3    3    0    0  0.23513879912E+02  0.48014283384E+01  0.21424181224E+02  0.32170666825E+02  0.51100000000E-03 0.  1.
        -12    1    3    3    0    0  0.24841436387E+01 -0.28260305572E+01  0.43484388317E+01  0.57503337817E+01  0.00000000000E+00 0.  1.
</event>
<event>
 7    1  0.3054835E-011  0.5052886E+02  0.7816164E-02  0.1300439E+00
        -11   -1    0    0    0    0  0.00000000000E+00  0.00000000000E+00  0.45593999997E+02  0.45594000000E+02  0.51100000000E-03 0.  1.
         11   -1    0    0    0    0 -0.00000000000E+00 -0.00000000000E+00 -0.45593999997E+02  0.45594000000E+02  0.51100000000E-03 0. -1.
    9900012    2    1    2    0    0  0.11249692371E+02 -0.17257742543E+02  0.35053960744E+02  0.50528863020E+02  0.30000009634E+02 0.  0.
         12    1    1    2    0    0 -0.11249692371E+02  0.17257742543E+02 -0.35053960744E+02  0.40659136980E+02  0.00000000000E+00 0. -1.
         11    1    3    3    0    0  0.92704667368E+01 -0.74736116734E+01  0.53997083251E+01  0.13074910142E+02  0.51100000000E-03 0. -1.
        -11    1    3    3    0    0 -0.18852709930E+01 -0.16577110719E+01  0.28232419350E+02  0.28343813352E+02  0.51100000000E-03 0.  1.
        -12    1    3    3    0    0  0.38644966275E+01 -0.81264197974E+01  0.14218330696E+01  0.91101395261E+01  0.00000000000E+00 0.  1.
</event>
<event>
 7    1  0.3054835E-011  0.5052886E+02  0.7816164E-02  0.1300439E+00
        -11   -1    0    0    0    0  0.00000000000E+00  0.00000000000E+00  0.45593999997E+02  0.45594000000E+02  0.51100000000E-03 0. -1.
         11   -1    0    0    0    0 -0.00000000000E+00 -0.00000000000E+00 -0.45593999997E+02  0.45594000000E+02  0.51100000000E-03 0.  1.
    9900012    2    1    2    0    0  0.20846757184E+01 -0.12442577593E+02 -0.38652326376E+02  0.50528856573E+02  0.29999990039E+02 0.  0.
         12    1    1    2    0    0 -0.20846757184E+01  0.12442577593E+02  0.38652326376E+02  0.40659143427E+02  0.00000000000E+00 0. -1.
         11    1    3    3    0    0 -0.48446697754E+01 -0.89827954191E+01 -0.77857700419E+00  0.10235605560E+02  0.51100000000E-03 0. -1.
        -11    1    3    3    0    0 -0.12268576484E+01 -0.22805695147E+01 -0.24126765121E+02  0.24265345093E+02  0.51100000000E-03 0.  1.
         12    1    3    3    0    0  0.81562031423E+01 -0.11792126587E+01 -0.13746984250E+02  0.16027905920E+02  0.00000000000E+00 0. -1.
</event>
<event>
 7    1  0.3054835E-011  0.5052886E+02  0.7816164E-02  0.1300439E+00
        -11   -1    0    0    0    0  0.00000000000E+00  0.00000000000E+00  0.45593999997E+02  0.45594000000E+02  0.51100000000E-03 0.  1.
         11   -1    0    0    0    0 -0.00000000000E+00 -0.00000000000E+00 -0.45593999997E+02  0.45594000000E+02  0.51100000000E-03 0. -1.
    9900012    2    1    2    0    0 -0.10903929607E+02 -0.38426692493E+02  0.75933679937E+01  0.50528860630E+02  0.30000002372E+02 0.  0.
         12    1    1    2    0    0  0.10903929607E+02  0.38426692493E+02 -0.75933679937E+01  0.40659139370E+02  0.00000000000E+00 0. -1.
         11    1    3    3    0    0 -0.17138373119E+01  0.23845635508E+01 -0.24049217513E+01  0.37956594355E+01  0.51100000000E-03 0. -1.
        -11    1    3    3    0    0 -0.47957789146E+01 -0.38683591146E+02  0.12893731861E+02  0.41056887862E+02  0.51100000000E-03 0.  1.
        -12    1    3    3    0    0 -0.43943133804E+01 -0.21276648974E+01 -0.28954421164E+01  0.56763133326E+01  0.00000000000E+00 0.  1.
</event>
<event>
 7    1  0.3054835E-011  0.5052885E+02  0.7816164E-02  0.1300439E+00
        -11   -1    0    0    0    0  0.00000000000E+00  0.00000000000E+00  0.45593999997E+02  0.45594000000E+02  0.51100000000E-03 0. -1.
         11   -1    0    0    0    0 -0.00000000000E+00 -0.00000000000E+00 -0.45593999997E+02  0.45594000000E+02  0.51100000000E-03 0.  1.
    9900012    2    1    2    0    0  0.29919481517E+02  0.11803060549E+02  0.24873258093E+02  0.50528848746E+02  0.29999966248E+02 0.  0.
         12    1    1    2    0    0 -0.29919481517E+02 -0.11803060549E+02 -0.24873258093E+02  0.40659151254E+02  0.00000000000E+00 0. -1.
         11    1    3    3    0    0  0.71042075936E+01  0.10143286470E+00 -0.63290693449E+01  0.95151023743E+01  0.51100000000E-03 0. -1.
        -11    1    3    3    0    0  0.15969225257E+02  0.99072126595E+01  0.17939015121E+02  0.25980324898E+02  0.51100000000E-03 0.  1.
         12    1    3    3    0    0  0.68460486658E+01  0.17944150246E+01  0.13263312316E+02  0.15033421474E+02  0.00000000000E+00 0. -1.
</event>
<event>
 7    1  0.3054835E-011  0.5052885E+02  0.7816164E-02  0.1300439E+00
        -11   -1    0    0    0    0  0.00000000000E+00  0.00000000000E+00  0.45593999997E+02  0.45594000000E+02  0.51100000000E-03 0.  1.
         11   -1    0    0    0    0 -0.00000000000E+00 -0.00000000000E+00 -0.45593999997E+02  0.45594000000E+02  0.51100000000E-03 0. -1.
    9900012    2    1    2    0    0  0.30443585239E+02  0.21801184084E+02  0.15844964529E+02  0.50528850838E+02  0.29999972607E+02 0.  0.
         12    1    1    2    0    0 -0.30443585239E+02 -0.21801184084E+02 -0.15844964529E+02  0.40659149162E+02  0.00000000000E+00 0. -1.
         11    1    3    3    0    0  0.17185441266E+01 -0.67429638736E+00 -0.51592244056E+01  0.54795680725E+01  0.51100000000E-03 0. -1.
        -11    1    3    3    0    0  0.28972360167E+02  0.19202344604E+02  0.22538448655E+02  0.41425950320E+02  0.51100000000E-03 0.  1.
        -12    1    3    3    0    0 -0.24731905433E+00  0.32731358671E+01 -0.15342597198E+01  0.36233324450E+01  0.00000000000E+00 0.  1.
</event>
<event>
 7    1  0.3054835E-011  0.5052886E+02  0.7816164E-02  0.1300439E+00
        -11   -1    0    0    0    0  0.00000000000E+00  0.00000000000E+00  0.45593999997E+02  0.45594000000E+02  0.51100000000E-03 0.  1.
         11   -1    0    0    0    0 -0.00000000000E+00 -0.00000000000E+00 -0.45593999997E+02  0.45594000000E+02  0.51100000000E-03 0. -1.
    9900012    2    1    2    0    0  0.32638988427E+01 -0.26102305688E+02  0.31002944744E+02  0.50528856124E+02  0.29999988675E+02 0.  0.
         12    1    1    2    0    0 -0.32638988427E+01  0.26102305688E+02 -0.31002944744E+02  0.40659143876E+02  0.00000000000E+00 0. -1.
         11    1    3    3    0    0 -0.10666102479E+02 -0.60285631658E+01  0.66314055044E+01  0.13931434067E+02  0.51100000000E-03 0. -1.
        -11    1    3    3    0    0  0.51746599255E+01 -0.46535119089E+01  0.15011547357E+02  0.16546263407E+02  0.51100000000E-03 0.  1.
         12    1    3    3    0    0  0.87553413963E+01 -0.15420230614E+02  0.93599918827E+01  0.20051158650E+02  0.00000000000E+00 0. -1.
</event>
<event>
 7    1  0.3054835E-011  0.5052885E+02  0.7816164E-02  0.1300439E+00
        -11   -1    0    0    0    0  0.00000000000E+00  0.00000000000E+00  0.45593999997E+02  0.45594000000E+02  0.51100000000E-03 0.  1.
         11   -1    0    0    0    0 -0.00000000000E+00 -0.00000000000E+00 -0.45593999997E+02  0.45594000000E+02  0.51100000000E-03 0. -1.
    9900012    2    1    2    0    0  0.19603081899E+01 -0.12914114641E+02  0.38503882642E+02  0.50528854121E+02  0.29999982585E+02 0.  0.
         12    1    1    2    0    0 -0.19603081899E+01  0.12914114641E+02 -0.38503882642E+02  0.40659145879E+02  0.00000000000E+00 0. -1.
         11    1    3    3    0    0  0.55112839678E+01 -0.27195858730E+01 -0.40609729651E+00  0.61591650059E+01  0.51100000000E-03 0. -1.
        -11    1    3    3    0    0 -0.93425308263E+01 -0.10503510133E+02  0.33924542646E+02  0.36721672094E+02  0.51100000000E-03 0.  1.
        -12    1    3    3    0    0  0.57915550484E+01  0.30898136484E+00  0.49854372918E+01  0.76480170209E+01  0.00000000000E+00 0.  1.
</event>
<event>
 7    1  0.3054835E-011  0.5052887E+02  0.7816164E-02  0.1300439E+00
        -11   -1    0    0    0    0  0.00000000000E+00  0.00000000000E+00  0.45593999997E+02  0.45594000000E+02  0.51100000000E-03 0.  1.
         11   -1    0    0    0    0 -0.00000000000E+00 -0.00000000000E+00 -0.45593999997E+02  0.45594000000E+02  0.51100000000E-03 0. -1.
    9900012    2    1    2    0    0 -0.36825960710E+01 -0.25375659893E+02  0.31554384761E+02  0.50528870318E+02  0.30000031819E+02 0.  0.
         12    1    1    2    0    0  0.36825960710E+01  0.25375659893E+02 -0.31554384761E+02  0.40659129682E+02  0.00000000000E+00 0. -1.
         11    1    3    3    0    0  0.79606727187E+01 -0.88797828565E+01 -0.87093670667E+00  0.11957482374E+02  0.51100000000E-03 0. -1.
        -11    1    3    3    0    0 -0.50544151661E+01 -0.10519104743E+02  0.14985413391E+02  0.18993717173E+02  0.51100000000E-03 0.  1.
         12    1    3    3    0    0 -0.65888536236E+01 -0.59767722933E+01  0.17439908077E+02  0.19577670772E+02  0.00000000000E+00 0. -1.
</event>
<event>
 7    1  0.3054835E-011  0.5052886E+02  0.7816164E-02  0.1300439E+00
        -11   -1    0    0    0    0  0.00000000000E+00  0.00000000000E+00  0.45593999997E+02  0.45594000000E+02  0.51100000000E-03 0.  1.
         11   -1    0    0    0    0 -0.00000000000E+00 -0.00000000000E+00 -0.45593999997E+02  0.45594000000E+02  0.51100000000E-03 0. -1.
    9900012    2    1    2    0    0  0.25703431500E+02 -0.28501397898E+02  0.13422735173E+02  0.50528857209E+02  0.29999991972E+02 0.  0.
         12    1    1    2    0    0 -0.25703431500E+02  0.28501397898E+02 -0.13422735173E+02  0.40659142791E+02  0.00000000000E+00 0. -1.
         11    1    3    3    0    0 -0.52664427268E+00 -0.14241849104E+02 -0.31370782749E+01  0.14592768088E+02  0.51100000000E-03 0. -1.
        -11    1    3    3    0    0  0.60215058290E+01  0.58776515866E+00  0.31642403562E+00  0.60583929191E+01  0.51100000000E-03 0.  1.
         12    1    3    3    0    0  0.20208569944E+02 -0.14847313952E+02  0.16243389412E+02  0.29877696202E+02  0.00000000000E+00 0. -1.
</event>
<event>
 7    1  0.3054835E-011  0.5052885E+02  0.7816164E-02  0.1300439E+00
        -11   -1    0    0    0    0  0.00000000000E+00  0.00000000000E+00  0.45593999997E+02  0.45594000000E+02  0.51100000000E-03 0.  1.
         11   -1    0    0    0    0 -0.00000000000E+00 -0.00000000000E+00 -0.45593999997E+02  0.45594000000E+02  0.51100000000E-03 0. -1.
    9900012    2    1    2    0    0  0.71735236942E+01  0.90262554623E+01  0.38990178902E+02  0.50528846287E+02  0.29999958773E+02 0.  0.
         12    1    1    2    0    0 -0.71735236942E+01 -0.90262554623E+01 -0.38990178902E+02  0.40659153713E+02  0.00000000000E+00 0. -1.
         11    1    3    3    0    0 -0.44098666983E+01 -0.36361168503E+01 -0.11883219953E+01  0.58378403088E+01  0.51100000000E-03 0. -1.
        -11    1    3    3    0    0  0.96097821581E+01  0.60768705257E+01  0.32257244157E+02  0.34202427829E+02  0.51100000000E-03 0.  1.
         12    1    3    3    0    0  0.19736082343E+01  0.65855017869E+01  0.79212567403E+01  0.10488578149E+02  0.00000000000E+00 0. -1.
</event>
<event>
 7    1  0.3054835E-011  0.5052886E+02  0.7816164E-02  0.1300439E+00
        -11   -1    0    0    0    0  0.00000000000E+00  0.00000000000E+00  0.45593999997E+02  0.45594000000E+02  0.51100000000E-03 0. -1.
         11   -1    0    0    0    0 -0.00000000000E+00 -0.00000000000E+00 -0.45593999997E+02  0.45594000000E+02  0.51100000000E-03 0.  1.
    9900012    2    1    2    0    0 -0.82926848180E+01  0.18163627767E+02 -0.35418636147E+02  0.50528858572E+02  0.29999996115E+02 0.  0.
         12    1    1    2    0    0  0.82926848180E+01 -0.18163627767E+02  0.35418636147E+02  0.40659141428E+02  0.00000000000E+00 0. -1.
         11    1    3    3    0    0 -0.71212995272E+01  0.94580746106E+01 -0.62937100203E+01  0.13408164243E+02  0.51100000000E-03 0. -1.
        -11    1    3    3    0    0  0.49676010070E+01 -0.30004872467E+01 -0.79344378219E+00  0.58574343171E+01  0.51100000000E-03 0.  1.
        -12    1    3    3    0    0 -0.61389862978E+01  0.11706040403E+02 -0.28331482345E+02  0.31263260011E+02  0.00000000000E+00 0.  1.
</event>
<event>
 7    1  0.3054835E-011  0.5052886E+02  0.7816164E-02  0.1300439E+00
        -11   -1    0    0    0    0  0.00000000000E+00  0.00000000000E+00  0.45593999997E+02  0.45594000000E+02  0.51100000000E-03 0. -1.
         11   -1    0    0    0    0 -0.00000000000E+00 -0.00000000000E+00 -0.45593999997E+02  0.45594000000E+02  0.51100000000E-03 0.  1.
    9900012    2    1    2    0    0 -0.30932499519E+02  0.25572338342E+02  0.65116472015E+01  0.50528861248E+02  0.30000004249E+02 0.  0.
         12    1    1    2    0    0  0.30932499519E+02 -0.25572338342E+02 -0.65116472015E+01  0.40659138752E+02  0.00000000000E+00 0. -1.
         11    1    3    3    0    0 -0.18427260208E+02 -0.19895670943E+01 -0.17693159616E+01  0.18618613676E+02  0.51100000000E-03 0. -1.
        -11    1    3    3    0    0 -0.72966463745E+01  0.21905020457E+02  0.69028819196E+01  0.24098148240E+02  0.51100000000E-03 0.  1.
         12    1    3    3    0    0 -0.52085929366E+01  0.56568849791E+01  0.13780812435E+01  0.78120993311E+01  0.00000000000E+00 0. -1.
</event>
<event>
 7    1  0.3054835E-011  0.5052886E+02  0.7816164E-02  0.1300439E+00
        -11   -1    0    0    0    0  0.00000000000E+00  0.00000000000E+00  0.45593999997E+02  0.45594000000E+02  0.51100000000E-03 0.  1.
         11   -1    0    0    0    0 -0.00000000000E+00 -0.00000000000E+00 -0.45593999997E+02  0.45594000000E+02  0.51100000000E-03 0. -1.
    9900012    2    1    2    0    0  0.87181449331E+01  0.26743613152E+02  0.29358789958E+02  0.50528862733E+02  0.30000008763E+02 0.  0.
         12    1    1    2    0    0 -0.87181449331E+01 -0.26743613152E+02 -0.29358789958E+02  0.40659137267E+02  0.00000000000E+00 0. -1.
         11    1    3    3    0    0  0.94153408435E+00 -0.36937650837E+01 -0.34198974067E+01  0.51211410310E+01  0.51100000000E-03 0. -1.
        -11    1    3    3    0    0  0.54010783010E+01  0.21358049766E+02  0.22517679354E+02  0.31502124062E+02  0.51100000000E-03 0.  1.
         12    1    3    3    0    0  0.23755325478E+01  0.90793284696E+01  0.10261008011E+02  0.13905597640E+02  0.00000000000E+00 0. -1.
</event>
<event>
 7    1  0.3054835E-011  0.5052886E+02  0.7816164E-02  0.1300439E+00
        -11   -1    0    0    0    0  0.00000000000E+00  0.00000000000E+00  0.45593999997E+02  0.45594000000E+02  0.51100000000E-03 0.  1.
         11   -1    0    0    0    0 -0.00000000000E+00 -0.00000000000E+00 -0.45593999997E+02  0.45594000000E+02  0.51100000000E-03 0. -1.
    9900012    2    1    2    0    0  0.22016340813E+02 -0.20365244638E+02  0.27453661136E+02  0.50528856357E+02  0.29999989384E+02 0.  0.
         12    1    1    2    0    0 -0.22016340813E+02  0.20365244638E+02 -0.27453661136E+02  0.40659143643E+02  0.00000000000E+00 0. -1.
         11    1    3    3    0    0  0.19774592638E+02  0.86833640586E+00  0.13204589466E+02  0.23793900592E+02  0.51100000000E-03 0. -1.
        -11    1    3    3    0    0 -0.44458073144E+00 -0.17642339420E+02  0.13427849905E+02  0.22175593466E+02  0.51100000000E-03 0.  1.
         12    1    3    3    0    0  0.26863289059E+01 -0.35912416238E+01  0.82122176523E+00  0.45593622996E+01  0.00000000000E+00 0. -1.
</event>
<event>
 7    1  0.3054835E-011  0.5052889E+02  0.7816164E-02  0.1300439E+00
        -11   -1    0    0    0    0  0.00000000000E+00  0.00000000000E+00  0.45593999997E+02  0.45594000000E+02  0.51100000000E-03 0. -1.
         11   -1    0    0    0    0 -0.00000000000E+00 -0.00000000000E+00 -0.45593999997E+02  0.45594000000E+02  0.51100000000E-03 0.  1.
    9900012    2    1    2    0    0  0.97849839683E+01  0.38456824612E+02 -0.88594553680E+01  0.50528890075E+02  0.30000091871E+02 0.  0.
         12    1    1    2    0    0 -0.97849839683E+01 -0.38456824612E+02  0.88594553680E+01  0.40659109925E+02  0.00000000000E+00 0. -1.
         11    1    3    3    0    0 -0.83078749841E+01  0.84158794610E+01 -0.72354212741E+01  0.13863590268E+02  0.51100000000E-03 0. -1.
        -11    1    3    3    0    0  0.63347757131E+01  0.46643853379E+01  0.27982168510E+01  0.83496042854E+01  0.51100000000E-03 0.  1.
         12    1    3    3    0    0  0.11758083239E+02  0.25376559813E+02 -0.44222509450E+01  0.28315695521E+02  0.00000000000E+00 0. -1.
</event>
<event>
 7    1  0.3054835E-011  0.5052889E+02  0.7816164E-02  0.1300439E+00
        -11   -1    0    0    0    0  0.00000000000E+00  0.00000000000E+00  0.45593999997E+02  0.45594000000E+02  0.51100000000E-03 0.  1.
         11   -1    0    0    0    0 -0.00000000000E+00 -0.00000000000E+00 -0.45593999997E+02  0.45594000000E+02  0.51100000000E-03 0. -1.
    9900012    2    1    2    0    0  0.38082240400E+02  0.32614588479E+01 -0.13866123670E+02  0.50528886220E+02  0.30000080155E+02 0.  0.
         12    1    1    2    0    0 -0.38082240400E+02 -0.32614588479E+01  0.13866123670E+02  0.40659113780E+02  0.00000000000E+00 0. -1.
         11    1    3    3    0    0  0.29983135513E+02  0.15614149521E+02 -0.99544259121E+01  0.35240327410E+02  0.51100000000E-03 0. -1.
        -11    1    3    3    0    0  0.27148427409E+01 -0.45772094988E+01 -0.14453650032E+01  0.55145533053E+01  0.51100000000E-03 0.  1.
         12    1    3    3    0    0  0.53842621466E+01 -0.77754811744E+01 -0.24663327546E+01  0.97740055051E+01  0.00000000000E+00 0. -1.
</event>
<event>
 7    1  0.3054835E-011  0.5052885E+02  0.7816164E-02  0.1300439E+00
        -11   -1    0    0    0    0  0.00000000000E+00  0.00000000000E+00  0.45593999997E+02  0.45594000000E+02  0.51100000000E-03 0.  1.
         11   -1    0    0    0    0 -0.00000000000E+00 -0.00000000000E+00 -0.45593999997E+02  0.45594000000E+02  0.51100000000E-03 0. -1.
    9900012    2    1    2    0    0 -0.54666919018E+01  0.10321812138E+02  0.38945374086E+02  0.50528847416E+02  0.29999962206E+02 0.  0.
         12    1    1    2    0    0  0.54666919018E+01 -0.10321812138E+02 -0.38945374086E+02  0.40659152584E+02  0.00000000000E+00 0. -1.
         11    1    3    3    0    0  0.65196878769E+00 -0.42326937511E+01 -0.27656966801E+01  0.50980229579E+01  0.51100000000E-03 0. -1.
        -11    1    3    3    0    0 -0.37157139600E+01  0.14677211022E+02  0.31633567819E+02  0.35070067962E+02  0.51100000000E-03 0.  1.
        -12    1    3    3    0    0 -0.24029467295E+01 -0.12270513314E+00  0.10077502947E+02  0.10360756496E+02  0.00000000000E+00 0.  1.
</event>
<event>
 7    1  0.3054835E-011  0.5052886E+02  0.7816164E-02  0.1300439E+00
        -11   -1    0    0    0    0  0.00000000000E+00  0.00000000000E+00  0.45593999997E+02  0.45594000000E+02  0.51100000000E-03 0. -1.
         11   -1    0    0    0    0 -0.00000000000E+00 -0.00000000000E+00 -0.45593999997E+02  0.45594000000E+02  0.51100000000E-03 0.  1.
    9900012    2    1    2    0    0  0.38143190331E+02  0.12007297112E+02 -0.73544254089E+01  0.50528859261E+02  0.29999998210E+02 0.  0.
         12    1    1    2    0    0 -0.38143190331E+02 -0.12007297112E+02  0.73544254089E+01  0.40659140739E+02  0.00000000000E+00 0. -1.
         11    1    3    3    0    0  0.74430389431E+01 -0.77580274670E+00 -0.13608550058E+02  0.15530400302E+02  0.51100000000E-03 0. -1.
        -11    1    3    3    0    0  0.15753869979E+02  0.10942381756E+02  0.53440588533E+01  0.19911783021E+02  0.51100000000E-03 0.  1.
         12    1    3    3    0    0  0.14946281409E+02  0.18407181025E+01  0.91006579555E+00  0.15086675938E+02  0.00000000000E+00 0. -1.
</event>
<event>
 7    1  0.3218357E-011  0.5052887E+02  0.7816164E-02  0.1300439E+00
        -11   -1    0    0    0    0  0.00000000000E+00  0.00000000000E+00  0.45593999997E+02  0.45594000000E+02  0.51100000000E-03 0.  1.
         11   -1    0    0    0    0 -0.00000000000E+00 -0.00000000000E+00 -0.45593999997E+02  0.45594000000E+02  0.51100000000E-03 0. -1.
    9900012    2    1    2    0    0  0.80455196930E+01 -0.32748680302E+02  0.22714726259E+02  0.50528865262E+02  0.30000016450E+02 0.  0.
         12    1    1    2    0    0 -0.80455196930E+01  0.32748680302E+02 -0.22714726259E+02  0.40659134738E+02  0.00000000000E+00 0. -1.
         11    1    3    3    0    0  0.75975372587E+01 -0.10139766515E+02 -0.11586754996E+01  0.12723205828E+02  0.51100000000E-03 0. -1.
        -11    1    3    3    0    0  0.42022738029E+01 -0.21953645565E+02  0.25278804210E+02  0.33743734252E+02  0.51100000000E-03 0.  1.
         12    1    3    3    0    0 -0.37542913686E+01 -0.65526822181E+00 -0.14054024523E+01  0.40619251810E+01  0.00000000000E+00 0. -1.
</event>
<event>
 7    1  0.3054835E-011  0.5052888E+02  0.7816164E-02  0.1300439E+00
        -11   -1    0    0    0    0  0.00000000000E+00  0.00000000000E+00  0.45593999997E+02  0.45594000000E+02  0.51100000000E-03 0.  1.
         11   -1    0    0    0    0 -0.00000000000E+00 -0.00000000000E+00 -0.45593999997E+02  0.45594000000E+02  0.51100000000E-03 0. -1.
    9900012    2    1    2    0    0 -0.24888369774E+02  0.31498425017E+02  0.64484488819E+01  0.50528877757E+02  0.30000054430E+02 0.  0.
         12    1    1    2    0    0  0.24888369774E+02 -0.31498425017E+02 -0.64484488819E+01  0.40659122243E+02  0.00000000000E+00 0. -1.
         11    1    3    3    0    0 -0.21176012427E+02  0.16218665154E+02 -0.16974855243E+01  0.26727327945E+02  0.51100000000E-03 0. -1.
        -11    1    3    3    0    0  0.35397597580E+01 -0.50123877877E+00  0.50073946780E+01  0.61526531821E+01  0.51100000000E-03 0.  1.
        -12    1    3    3    0    0 -0.72521171049E+01  0.15780998642E+02  0.31385397282E+01  0.17648896630E+02  0.00000000000E+00 0.  1.
</event>
<event>
 7    1  0.3054835E-011  0.5052885E+02  0.7816164E-02  0.1300439E+00
        -11   -1    0    0    0    0  0.00000000000E+00  0.00000000000E+00  0.45593999997E+02  0.45594000000E+02  0.51100000000E-03 0.  1.
         11   -1    0    0    0    0 -0.00000000000E+00 -0.00000000000E+00 -0.45593999997E+02  0.45594000000E+02  0.51100000000E-03 0. -1.
    9900012    2    1    2    0    0 -0.16287977743E+02  0.42896472986E+01  0.37006307493E+02  0.50528854815E+02  0.29999984697E+02 0.  0.
         12    1    1    2    0    0  0.16287977743E+02 -0.42896472986E+01 -0.37006307493E+02  0.40659145185E+02  0.00000000000E+00 0. -1.
         11    1    3    3    0    0  0.60458084368E+01 -0.28242422501E+01  0.90292098288E+01  0.11227411738E+02  0.51100000000E-03 0. -1.
        -11    1    3    3    0    0 -0.14699309210E+02  0.10993003073E+02  0.22891500675E+02  0.29341721340E+02  0.51100000000E-03 0.  1.
        -12    1    3    3    0    0 -0.76344769696E+01 -0.38791135247E+01  0.50855969893E+01  0.99597217368E+01  0.00000000000E+00 0.  1.
</event>
<event>
 7    1  0.3054835E-011  0.5052886E+02  0.7816164E-02  0.1300439E+00
        -11   -1    0    0    0    0  0.00000000000E+00  0.00000000000E+00  0.45593999997E+02  0.45594000000E+02  0.51100000000E-03 0.  1.
         11   -1    0    0    0    0 -0.00000000000E+00 -0.00000000000E+00 -0.45593999997E+02  0.45594000000E+02  0.51100000000E-03 0. -1.
    9900012    2    1    2    0    0  0.38421579414E+02 -0.54551632449E+01 -0.12132140916E+02  0.50528863094E+02  0.30000009861E+02 0.  0.
         12    1    1    2    0    0 -0.38421579414E+02  0.54551632449E+01  0.12132140916E+02  0.40659136906E+02  0.00000000000E+00 0. -1.
         11    1    3    3    0    0  0.27534339466E+01  0.68134087992E+01 -0.50398112121E+01  0.89108717462E+01  0.51100000000E-03 0. -1.
        -11    1    3    3    0    0  0.25093336386E+02 -0.11798812291E+02 -0.11671070384E+02  0.30084902969E+02  0.51100000000E-03 0.  1.
         12    1    3    3    0    0  0.10574809082E+02 -0.46975975272E+00  0.45787406805E+01  0.11533088379E+02  0.00000000000E+00 0. -1.
</event>
<event>
 7    1  0.3054835E-011  0.5052888E+02  0.7816164E-02  0.1300439E+00
        -11   -1    0    0    0    0  0.00000000000E+00  0.00000000000E+00  0.45593999997E+02  0.45594000000E+02  0.51100000000E-03 0. -1.
         11   -1    0    0    0    0 -0.00000000000E+00 -0.00000000000E+00 -0.45593999997E+02  0.45594000000E+02  0.51100000000E-03 0.  1.
    9900012    2    1    2    0    0  0.39734193639E+02 -0.83941311493E+01  0.19740295174E+01  0.50528875878E+02  0.30000048718E+02 0.  0.
         12    1    1    2    0    0 -0.39734193639E+02  0.83941311493E+01 -0.19740295174E+01  0.40659124122E+02  0.00000000000E+00 0. -1.
         11    1    3    3    0    0  0.41923287483E+01  0.14418672671E+01  0.40990317675E+01  0.60379353459E+01  0.51100000000E-03 0. -1.
        -11    1    3    3    0    0  0.54560576722E+01 -0.12037704848E+02 -0.51261379608E+01  0.14175760791E+02  0.51100000000E-03 0.  1.
        -12    1    3    3    0    0  0.30085807218E+02  0.22017064321E+01  0.30011357107E+01  0.30315179741E+02  0.00000000000E+00 0.  1.
</event>
<event>
 7    1  0.3054835E-011  0.5052885E+02  0.7816164E-02  0.1300439E+00
        -11   -1    0    0    0    0  0.00000000000E+00  0.00000000000E+00  0.45593999997E+02  0.45594000000E+02  0.51100000000E-03 0. -1.
         11   -1    0    0    0    0 -0.00000000000E+00 -0.00000000000E+00 -0.45593999997E+02  0.45594000000E+02  0.51100000000E-03 0.  1.
    9900012    2    1    2    0    0 -0.26127879751E+01 -0.21080873184E+02 -0.34668955994E+02  0.50528851153E+02  0.29999973566E+02 0.  0.
         12    1    1    2    0    0  0.26127879751E+01  0.21080873184E+02  0.34668955994E+02  0.40659148847E+02  0.00000000000E+00 0. -1.
         11    1    3    3    0    0 -0.62654745289E+01 -0.25123154314E+02 -0.15748882503E+02  0.30306044844E+02  0.51100000000E-03 0. -1.
        -11    1    3    3    0    0  0.21978738473E+01 -0.16348263779E+00 -0.10169770370E+02  0.10405844784E+02  0.51100000000E-03 0.  1.
         12    1    3    3    0    0  0.14548127065E+01  0.42057637674E+01 -0.87503031210E+01  0.98169615252E+01  0.00000000000E+00 0. -1.
</event>
<event>
 7    1  0.3054835E-011  0.5052888E+02  0.7816164E-02  0.1300439E+00
        -11   -1    0    0    0    0  0.00000000000E+00  0.00000000000E+00  0.45593999997E+02  0.45594000000E+02  0.51100000000E-03 0.  1.
         11   -1    0    0    0    0 -0.00000000000E+00 -0.00000000000E+00 -0.45593999997E+02  0.45594000000E+02  0.51100000000E-03 0. -1.
    9900012    2    1    2    0    0 -0.21013887800E+02 -0.10379301395E+01  0.34792289960E+02  0.50528877775E+02  0.30000054484E+02 0.  0.
         12    1    1    2    0    0  0.21013887800E+02  0.10379301395E+01 -0.34792289960E+02  0.40659122225E+02  0.00000000000E+00 0. -1.
         11    1    3    3    0    0 -0.21031533968E+02  0.17234051193E+01  0.11866354822E+02  0.24209624600E+02  0.51100000000E-03 0. -1.
        -11    1    3    3    0    0 -0.19075183732E+01  0.24848342445E+01  0.19530929110E+02  0.19780551552E+02  0.51100000000E-03 0.  1.
         12    1    3    3    0    0  0.19251645413E+01 -0.52461695033E+01  0.33950060292E+01  0.65387016224E+01  0.00000000000E+00 0. -1.
</event>
<event>
 7    1  0.3054835E-011  0.5052886E+02  0.7816164E-02  0.1300439E+00
        -11   -1    0    0    0    0  0.00000000000E+00  0.00000000000E+00  0.45593999997E+02  0.45594000000E+02  0.51100000000E-03 0. -1.
         11   -1    0    0    0    0 -0.00000000000E+00 -0.00000000000E+00 -0.45593999997E+02  0.45594000000E+02  0.51100000000E-03 0.  1.
    9900012    2    1    2    0    0 -0.29130377791E+02  0.28286492937E+02 -0.21121018898E+01  0.50528861208E+02  0.30000004128E+02 0.  0.
         12    1    1    2    0    0  0.29130377791E+02 -0.28286492937E+02  0.21121018898E+01  0.40659138792E+02  0.00000000000E+00 0. -1.
         11    1    3    3    0    0 -0.30643371832E+02  0.18648342491E+02  0.26360775750E+01  0.35968400300E+02  0.51100000000E-03 0. -1.
        -11    1    3    3    0    0 -0.20630433506E+01  0.95245913206E+01 -0.50384433134E+01  0.10970865917E+02  0.51100000000E-03 0.  1.
         12    1    3    3    0    0  0.35760373911E+01  0.11355912478E+00  0.29026384860E+00  0.35895949910E+01  0.00000000000E+00 0. -1.
</event>
<event>
 7    1  0.3054835E-011  0.5052887E+02  0.7816164E-02  0.1300439E+00
        -11   -1    0    0    0    0  0.00000000000E+00  0.00000000000E+00  0.45593999997E+02  0.45594000000E+02  0.51100000000E-03 0. -1.
         11   -1    0    0    0    0 -0.00000000000E+00 -0.00000000000E+00 -0.45593999997E+02  0.45594000000E+02  0.51100000000E-03 0.  1.
    9900012    2    1    2    0    0 -0.34818195118E+02  0.16667855496E+02  0.12768754866E+02  0.50528865492E+02  0.30000017150E+02 0.  0.
         12    1    1    2    0    0  0.34818195118E+02 -0.16667855496E+02 -0.12768754866E+02  0.40659134508E+02  0.00000000000E+00 0. -1.
         11    1    3    3    0    0 -0.35882632295E+01  0.11707906715E+02 -0.46813201510E+01  0.13109747185E+02  0.51100000000E-03 0. -1.
        -11    1    3    3    0    0 -0.24859886576E+02  0.67826203157E+01  0.10525472291E+02  0.27835291738E+02  0.51100000000E-03 0.  1.
         12    1    3    3    0    0 -0.63700453126E+01 -0.18226715345E+01  0.69246027253E+01  0.95838265692E+01  0.00000000000E+00 0. -1.
</event>
<event>
 7    1  0.3054835E-011  0.5052885E+02  0.7816164E-02  0.1300439E+00
        -11   -1    0    0    0    0  0.00000000000E+00  0.00000000000E+00  0.45593999997E+02  0.45594000000E+02  0.51100000000E-03 0.  1.
         11   -1    0    0    0    0 -0.00000000000E+00 -0.00000000000E+00 -0.45593999997E+02  0.45594000000E+02  0.51100000000E-03 0. -1.
    9900012    2    1    2    0    0  0.28240814370E+02  0.89278276532E+01  0.27855283483E+02  0.50528849483E+02  0.29999968488E+02 0.  0.
         12    1    1    2    0    0 -0.28240814370E+02 -0.89278276532E+01 -0.27855283483E+02  0.40659150517E+02  0.00000000000E+00 0. -1.
         11    1    3    3    0    0  0.43116607572E+01  0.89519656435E+01 -0.22331305418E+01  0.10184055167E+02  0.51100000000E-03 0. -1.
        -11    1    3    3    0    0  0.54157789461E+01  0.15981613763E+01  0.16166270256E+02  0.17124049627E+02  0.51100000000E-03 0.  1.
         12    1    3    3    0    0  0.18513374666E+02 -0.16222993667E+01  0.13922143768E+02  0.23220744688E+02  0.00000000000E+00 0. -1.
</event>
<event>
 7    1  0.3054835E-011  0.5052886E+02  0.7816164E-02  0.1300439E+00
        -11   -1    0    0    0    0  0.00000000000E+00  0.00000000000E+00  0.45593999997E+02  0.45594000000E+02  0.51100000000E-03 0. -1.
         11   -1    0    0    0    0 -0.00000000000E+00 -0.00000000000E+00 -0.45593999997E+02  0.45594000000E+02  0.51100000000E-03 0.  1.
    9900012    2    1    2    0    0  0.16010755592E+02  0.19598677204E+02 -0.31823159055E+02  0.50528857178E+02  0.29999991879E+02 0.  0.
         12    1    1    2    0    0 -0.16010755592E+02 -0.19598677204E+02  0.31823159055E+02  0.40659142822E+02  0.00000000000E+00 0. -1.
         11    1    3    3    0    0  0.11069710257E+02  0.15826464030E+02 -0.28063013366E+01  0.19516423246E+02  0.51100000000E-03 0. -1.
        -11    1    3    3    0    0  0.60871541407E+01  0.29889758211E+01 -0.10865452260E+02  0.12808023855E+02  0.51100000000E-03 0.  1.
         12    1    3    3    0    0 -0.11461088058E+01  0.78323735270E+00 -0.18151405459E+02  0.18204410078E+02  0.00000000000E+00 0. -1.
</event>
<event>
 7    1  0.3054835E-011  0.5052886E+02  0.7816164E-02  0.1300439E+00
        -11   -1    0    0    0    0  0.00000000000E+00  0.00000000000E+00  0.45593999997E+02  0.45594000000E+02  0.51100000000E-03 0.  1.
         11   -1    0    0    0    0 -0.00000000000E+00 -0.00000000000E+00 -0.45593999997E+02  0.45594000000E+02  0.51100000000E-03 0. -1.
    9900012    2    1    2    0    0 -0.10776972667E+02 -0.28642201399E+02  0.26770256617E+02  0.50528862279E+02  0.30000007384E+02 0.  0.
         12    1    1    2    0    0  0.10776972667E+02  0.28642201399E+02 -0.26770256617E+02  0.40659137721E+02  0.00000000000E+00 0. -1.
         11    1    3    3    0    0 -0.56771495137E+01 -0.15571306513E+02  0.14030606891E+00  0.16574537676E+02  0.51100000000E-03 0. -1.
        -11    1    3    3    0    0 -0.10473758094E+02 -0.64206936380E+01  0.18111934842E+02  0.21885316982E+02  0.51100000000E-03 0.  1.
        -12    1    3    3    0    0  0.53739349415E+01 -0.66502012482E+01  0.85180157066E+01  0.12069007622E+02  0.00000000000E+00 0.  1.
</event>
<event>
 7    1  0.3054835E-011  0.5052886E+02  0.7816164E-02  0.1300439E+00
        -11   -1    0    0    0    0  0.00000000000E+00  0.00000000000E+00  0.45593999997E+02  0.45594000000E+02  0.51100000000E-03 0. -1.
         11   -1    0    0    0    0 -0.00000000000E+00 -0.00000000000E+00 -0.45593999997E+02  0.45594000000E+02  0.51100000000E-03 0.  1.
    9900012    2    1    2    0    0 -0.39183422144E+02  0.10853998561E+02  0.12611711532E+00  0.50528858823E+02  0.29999996879E+02 0.  0.
         12    1    1    2    0    0  0.39183422144E+02 -0.10853998561E+02 -0.12611711532E+00  0.40659141177E+02  0.00000000000E+00 0. -1.
         11    1    3    3    0    0 -0.61657292754E+01 -0.22007662528E+01 -0.85035380524E+01  0.10731716977E+02  0.51100000000E-03 0. -1.
        -11    1    3    3    0    0 -0.29389050269E+02  0.16590400933E+02  0.80707675526E+01  0.34700071585E+02  0.51100000000E-03 0.  1.
        -12    1    3    3    0    0 -0.36286425995E+01 -0.35356361195E+01  0.55888761507E+00  0.50970702615E+01  0.00000000000E+00 0.  1.
</event>
<event>
 7    1  0.3054835E-011  0.5052886E+02  0.7816164E-02  0.1300439E+00
        -11   -1    0    0    0    0  0.00000000000E+00  0.00000000000E+00  0.45593999997E+02  0.45594000000E+02  0.51100000000E-03 0.  1.
         11   -1    0    0    0    0 -0.00000000000E+00 -0.00000000000E+00 -0.45593999997E+02  0.45594000000E+02  0.51100000000E-03 0. -1.
    9900012    2    1    2    0    0  0.21620223575E+02 -0.48771153241E+01  0.34087316902E+02  0.50528862099E+02  0.30000006835E+02 0.  0.
         12    1    1    2    0    0 -0.21620223575E+02  0.48771153241E+01 -0.34087316902E+02  0.40659137901E+02  0.00000000000E+00 0. -1.
         11    1    3    3    0    0 -0.32038634730E+01  0.23732627095E+01  0.43681926413E+01  0.59142391104E+01  0.51100000000E-03 0. -1.
        -11    1    3    3    0    0  0.15067072335E+02 -0.36587540700E+01  0.30472494983E+02  0.34190292494E+02  0.51100000000E-03 0.  1.
        -12    1    3    3    0    0  0.97570147127E+01 -0.35916239636E+01 -0.75337072225E+00  0.10424330494E+02  0.00000000000E+00 0.  1.
</event>
<event>
 7    1  0.3054835E-011  0.5052886E+02  0.7816164E-02  0.1300439E+00
        -11   -1    0    0    0    0  0.00000000000E+00  0.00000000000E+00  0.45593999997E+02  0.45594000000E+02  0.51100000000E-03 0. -1.
         11   -1    0    0    0    0 -0.00000000000E+00 -0.00000000000E+00 -0.45593999997E+02  0.45594000000E+02  0.51100000000E-03 0.  1.
    9900012    2    1    2    0    0 -0.16812777606E+01  0.22068808263E+02 -0.34107286883E+02  0.50528855745E+02  0.29999987521E+02 0.  0.
         12    1    1    2    0    0  0.16812777606E+01 -0.22068808263E+02  0.34107286883E+02  0.40659144255E+02  0.00000000000E+00 0. -1.
         11    1    3    3    0    0  0.11007716655E+02  0.12287903751E+02 -0.17256739062E+02  0.23873781599E+02  0.51100000000E-03 0. -1.
        -11    1    3    3    0    0 -0.49364463569E+01  0.74103100048E+01 -0.11406476082E+01  0.89767630151E+01  0.51100000000E-03 0.  1.
         12    1    3    3    0    0 -0.77525480585E+01  0.23705945076E+01 -0.15709900213E+02  0.17678311130E+02  0.00000000000E+00 0. -1.
</event>
<event>
 7    1  0.3054835E-011  0.5052886E+02  0.7816164E-02  0.1300439E+00
        -11   -1    0    0    0    0  0.00000000000E+00  0.00000000000E+00  0.45593999997E+02  0.45594000000E+02  0.51100000000E-03 0.  1.
         11   -1    0    0    0    0 -0.00000000000E+00 -0.00000000000E+00 -0.45593999997E+02  0.45594000000E+02  0.51100000000E-03 0. -1.
    9900012    2    1    2    0    0 -0.10254530421E+02 -0.17156448357E+02  0.35407159534E+02  0.50528855142E+02  0.29999985689E+02 0.  0.
         12    1    1    2    0    0  0.10254530421E+02  0.17156448357E+02 -0.35407159534E+02  0.40659144858E+02  0.00000000000E+00 0. -1.
         11    1    3    3    0    0 -0.11700774171E+02 -0.54246307570E+01  0.13105380038E+02  0.18387107474E+02  0.51100000000E-03 0. -1.
        -11    1    3    3    0    0  0.50057524672E+01  0.24045654990E+01  0.66326473013E-01  0.55537277988E+01  0.51100000000E-03 0.  1.
        -12    1    3    3    0    0 -0.35595087163E+01 -0.14136383099E+02  0.22235453023E+02  0.26588019869E+02  0.00000000000E+00 0.  1.
</event>
<event>
 7    1  0.3054835E-011  0.5052886E+02  0.7816164E-02  0.1300439E+00
        -11   -1    0    0    0    0  0.00000000000E+00  0.00000000000E+00  0.45593999997E+02  0.45594000000E+02  0.51100000000E-03 0.  1.
         11   -1    0    0    0    0 -0.00000000000E+00 -0.00000000000E+00 -0.45593999997E+02  0.45594000000E+02  0.51100000000E-03 0. -1.
    9900012    2    1    2    0    0  0.57365745820E+01  0.34325508863E+02  0.21024197691E+02  0.50528859144E+02  0.29999997853E+02 0.  0.
         12    1    1    2    0    0 -0.57365745820E+01 -0.34325508863E+02 -0.21024197691E+02  0.40659140856E+02  0.00000000000E+00 0. -1.
         11    1    3    3    0    0  0.46000566123E+01 -0.39521878253E+01  0.62366956748E+01  0.86992346011E+01  0.51100000000E-03 0. -1.
        -11    1    3    3    0    0  0.18239468577E+01  0.22929510045E+02  0.12840240976E+02  0.26343139555E+02  0.51100000000E-03 0.  1.
         12    1    3    3    0    0 -0.68742888796E+00  0.15348186643E+02  0.19472610400E+01  0.15486484987E+02  0.00000000000E+00 0. -1.
</event>
<event>
 7    1  0.3054835E-011  0.5052887E+02  0.7816164E-02  0.1300439E+00
        -11   -1    0    0    0    0  0.00000000000E+00  0.00000000000E+00  0.45593999997E+02  0.45594000000E+02  0.51100000000E-03 0.  1.
         11   -1    0    0    0    0 -0.00000000000E+00 -0.00000000000E+00 -0.45593999997E+02  0.45594000000E+02  0.51100000000E-03 0. -1.
    9900012    2    1    2    0    0 -0.15202164463E+02  0.40327477759E+01  0.37493943777E+02  0.50528872133E+02  0.30000037335E+02 0.  0.
         12    1    1    2    0    0  0.15202164463E+02 -0.40327477759E+01 -0.37493943777E+02  0.40659127867E+02  0.00000000000E+00 0. -1.
         11    1    3    3    0    0 -0.18460644365E+01  0.49466400060E+01 -0.38517217900E+01  0.65355154550E+01  0.51100000000E-03 0. -1.
        -11    1    3    3    0    0 -0.12543983180E+02 -0.28973699521E+01  0.34749232290E+02  0.37057460945E+02  0.51100000000E-03 0.  1.
         12    1    3    3    0    0 -0.81211684615E+00  0.19834777220E+01  0.65964332767E+01  0.69358957330E+01  0.00000000000E+00 0. -1.
</event>
<event>
 7    1  0.3054835E-011  0.5052885E+02  0.7816164E-02  0.1300439E+00
        -11   -1    0    0    0    0  0.00000000000E+00  0.00000000000E+00  0.45593999997E+02  0.45594000000E+02  0.51100000000E-03 0. -1.
         11   -1    0    0    0    0 -0.00000000000E+00 -0.00000000000E+00 -0.45593999997E+02  0.45594000000E+02  0.51100000000E-03 0.  1.
    9900012    2    1    2    0    0  0.14036649222E+02  0.31405911228E+02 -0.21675043673E+02  0.50528852202E+02  0.29999976752E+02 0.  0.
         12    1    1    2    0    0 -0.14036649222E+02 -0.31405911228E+02  0.21675043673E+02  0.40659147798E+02  0.00000000000E+00 0. -1.
         11    1    3    3    0    0  0.10155940227E+02  0.23414679535E+01 -0.44795438419E+00  0.10431982432E+02  0.51100000000E-03 0. -1.
        -11    1    3    3    0    0 -0.62087203133E+01  0.14494154687E+02 -0.65047969915E+01  0.17056995990E+02  0.51100000000E-03 0.  1.
        -12    1    3    3    0    0  0.10089429308E+02  0.14570288587E+02 -0.14722292298E+02  0.23039873780E+02  0.00000000000E+00 0.  1.
</event>
<event>
 7    1  0.3054835E-011  0.5052886E+02  0.7816164E-02  0.1300439E+00
        -11   -1    0    0    0    0  0.00000000000E+00  0.00000000000E+00  0.45593999997E+02  0.45594000000E+02  0.51100000000E-03 0. -1.
         11   -1    0    0    0    0 -0.00000000000E+00 -0.00000000000E+00 -0.45593999997E+02  0.45594000000E+02  0.51100000000E-03 0.  1.
    9900012    2    1    2    0    0  0.22120538487E+02  0.62437038233E+01 -0.33538988337E+02  0.50528858358E+02  0.29999995465E+02 0.  0.
         12    1    1    2    0    0 -0.22120538487E+02 -0.62437038233E+01  0.33538988337E+02  0.40659141642E+02  0.00000000000E+00 0. -1.
         11    1    3    3    0    0  0.15737376833E+02  0.14358806625E+02 -0.28913543161E+02  0.35914249758E+02  0.51100000000E-03 0.  1.
        -11    1    3    3    0    0 -0.42688483436E-01 -0.21775644217E+01  0.25111249572E+01  0.33240574497E+01  0.51100000000E-03 0. -1.
        -12    1    3    3    0    0  0.64258501376E+01 -0.59375383804E+01 -0.71365701326E+01  0.11290551150E+02  0.00000000000E+00 0.  1.
</event>
<event>
 7    1  0.3054835E-011  0.5052885E+02  0.7816164E-02  0.1300439E+00
        -11   -1    0    0    0    0  0.00000000000E+00  0.00000000000E+00  0.45593999997E+02  0.45594000000E+02  0.51100000000E-03 0.  1.
         11   -1    0    0    0    0 -0.00000000000E+00 -0.00000000000E+00 -0.45593999997E+02  0.45594000000E+02  0.51100000000E-03 0. -1.
    9900012    2    1    2    0    0  0.27498446029E+02  0.40962151100E+00  0.29947183916E+02  0.50528854063E+02  0.29999982411E+02 0.  0.
         12    1    1    2    0    0 -0.27498446029E+02 -0.40962151100E+00 -0.29947183916E+02  0.40659145937E+02  0.00000000000E+00 0. -1.
         11    1    3    3    0    0 -0.37972024954E+01  0.45670000828E+01  0.12262913428E+02  0.13625537881E+02  0.51100000000E-03 0. -1.
        -11    1    3    3    0    0  0.10307636610E+01 -0.15377537893E+01  0.19631534902E+01  0.26983573390E+01  0.51100000000E-03 0.  1.
         12    1    3    3    0    0  0.30264884864E+02 -0.26196247825E+01  0.15721116998E+02  0.34204958843E+02  0.00000000000E+00 0. -1.
</event>
<event>
 7    1  0.3054835E-011  0.5052886E+02  0.7816164E-02  0.1300439E+00
        -11   -1    0    0    0    0  0.00000000000E+00  0.00000000000E+00  0.45593999997E+02  0.45594000000E+02  0.51100000000E-03 0.  1.
         11   -1    0    0    0    0 -0.00000000000E+00 -0.00000000000E+00 -0.45593999997E+02  0.45594000000E+02  0.51100000000E-03 0. -1.
    9900012    2    1    2    0    0  0.19541020240E+02  0.30854142399E+02  0.17869971666E+02  0.50528862497E+02  0.30000008045E+02 0.  0.
         12    1    1    2    0    0 -0.19541020240E+02 -0.30854142399E+02 -0.17869971666E+02  0.40659137503E+02  0.00000000000E+00 0. -1.
         11    1    3    3    0    0  0.19656017110E+02  0.17366891716E+02  0.33945334942E+01  0.26447888279E+02  0.51100000000E-03 0. -1.
        -11    1    3    3    0    0 -0.40057172574E+01  0.54433547439E+01  0.13493941706E+02  0.15091797264E+02  0.51100000000E-03 0.  1.
         12    1    3    3    0    0  0.38907203878E+01  0.80438959385E+01  0.98149646495E+00  0.89891769543E+01  0.00000000000E+00 0. -1.
</event>
<event>
 7    1  0.3054835E-011  0.5052886E+02  0.7816164E-02  0.1300439E+00
        -11   -1    0    0    0    0  0.00000000000E+00  0.00000000000E+00  0.45593999997E+02  0.45594000000E+02  0.51100000000E-03 0.  1.
         11   -1    0    0    0    0 -0.00000000000E+00 -0.00000000000E+00 -0.45593999997E+02  0.45594000000E+02  0.51100000000E-03 0. -1.
    9900012    2    1    2    0    0 -0.10825273237E+02  0.17775089530E+02  0.34928857649E+02  0.50528862710E+02  0.30000008695E+02 0.  0.
         12    1    1    2    0    0  0.10825273237E+02 -0.17775089530E+02 -0.34928857649E+02  0.40659137290E+02  0.00000000000E+00 0. -1.
         11    1    3    3    0    0 -0.19209226505E+02  0.17166251176E+02  0.21685310904E+02  0.33673836604E+02  0.51100000000E-03 0. -1.
        -11    1    3    3    0    0  0.29503888466E+01 -0.27249685741E+01  0.44575767513E+01  0.60000199025E+01  0.51100000000E-03 0.  1.
         12    1    3    3    0    0  0.54335644214E+01  0.33338069273E+01  0.87859699938E+01  0.10855006204E+02  0.00000000000E+00 0. -1.
</event>
<event>
 7    1  0.3054835E-011  0.5052886E+02  0.7816164E-02  0.1300439E+00
        -11   -1    0    0    0    0  0.00000000000E+00  0.00000000000E+00  0.45593999997E+02  0.45594000000E+02  0.51100000000E-03 0. -1.
         11   -1    0    0    0    0 -0.00000000000E+00 -0.00000000000E+00 -0.45593999997E+02  0.45594000000E+02  0.51100000000E-03 0.  1.
    9900012    2    1    2    0    0 -0.11366379817E+01  0.25591656172E+02 -0.31574369913E+02  0.50528860229E+02  0.30000001152E+02 0.  0.
         12    1    1    2    0    0  0.11366379817E+01 -0.25591656172E+02  0.31574369913E+02  0.40659139771E+02  0.00000000000E+00 0. -1.
         11    1    3    3    0    0 -0.10680121329E+01 -0.48640252433E-01  0.47258266132E+01  0.48452505848E+01  0.51100000000E-03 0. -1.
        -11    1    3    3    0    0  0.44578980803E+01  0.13007771393E+02 -0.22955467037E+02  0.26758707724E+02  0.51100000000E-03 0.  1.
        -12    1    3    3    0    0 -0.45265239290E+01  0.12632525032E+02 -0.13344729489E+02  0.18924901920E+02  0.00000000000E+00 0.  1.
</event>
<event>
 7    1  0.3054835E-011  0.5052886E+02  0.7816164E-02  0.1300439E+00
        -11   -1    0    0    0    0  0.00000000000E+00  0.00000000000E+00  0.45593999997E+02  0.45594000000E+02  0.51100000000E-03 0.  1.
         11   -1    0    0    0    0 -0.00000000000E+00 -0.00000000000E+00 -0.45593999997E+02  0.45594000000E+02  0.51100000000E-03 0. -1.
    9900012    2    1    2    0    0  0.19220204914E+02 -0.78646807982E+01  0.34955631791E+02  0.50528859885E+02  0.30000000106E+02 0.  0.
         12    1    1    2    0    0 -0.19220204914E+02  0.78646807982E+01 -0.34955631791E+02  0.40659140115E+02  0.00000000000E+00 0. -1.
         11    1    3    3    0    0  0.15564709240E+01 -0.14864376961E+02  0.14734901696E+02  0.20987844873E+02  0.51100000000E-03 0. -1.
        -11    1    3    3    0    0  0.16080985432E+02  0.34500739100E+01  0.19630874909E+02  0.25610004928E+02  0.51100000000E-03 0.  1.
         12    1    3    3    0    0  0.15827485583E+01  0.35496222531E+01  0.58985518683E+00  0.39310100840E+01  0.00000000000E+00 0. -1.
</event>
<event>
 7    1  0.3054835E-011  0.5052886E+02  0.7816164E-02  0.1300439E+00
        -11   -1    0    0    0    0  0.00000000000E+00  0.00000000000E+00  0.45593999997E+02  0.45594000000E+02  0.51100000000E-03 0.  1.
         11   -1    0    0    0    0 -0.00000000000E+00 -0.00000000000E+00 -0.45593999997E+02  0.45594000000E+02  0.51100000000E-03 0. -1.
    9900012    2    1    2    0    0 -0.26456930044E+02  0.46967789255E+01  0.30514540673E+02  0.50528855000E+02  0.29999985259E+02 0.  0.
         12    1    1    2    0    0  0.26456930044E+02 -0.46967789255E+01 -0.30514540673E+02  0.40659145000E+02  0.00000000000E+00 0. -1.
         11    1    3    3    0    0 -0.11653247908E+02 -0.11105304613E+01 -0.58590558114E+00  0.11720697519E+02  0.51100000000E-03 0. -1.
        -11    1    3    3    0    0 -0.63523620664E+01  0.65155419217E+01  0.28530290835E+02  0.29946323410E+02  0.51100000000E-03 0.  1.
        -12    1    3    3    0    0 -0.84513200696E+01 -0.70823253492E+00  0.25701554190E+01  0.88618340720E+01  0.00000000000E+00 0.  1.
</event>
<event>
 7    1  0.3054835E-011  0.5052886E+02  0.7816164E-02  0.1300439E+00
        -11   -1    0    0    0    0  0.00000000000E+00  0.00000000000E+00  0.45593999997E+02  0.45594000000E+02  0.51100000000E-03 0. -1.
         11   -1    0    0    0    0 -0.00000000000E+00 -0.00000000000E+00 -0.45593999997E+02  0.45594000000E+02  0.51100000000E-03 0.  1.
    9900012    2    1    2    0    0  0.39679613407E+02 -0.17238989222E+01  0.87018599032E+01  0.50528856952E+02  0.29999991191E+02 0.  0.
         12    1    1    2    0    0 -0.39679613407E+02  0.17238989222E+01 -0.87018599032E+01  0.40659143048E+02  0.00000000000E+00 0. -1.
         11    1    3    3    0    0  0.11043786640E+02  0.10075210668E+02 -0.27966995982E+01  0.15208439179E+02  0.51100000000E-03 0. -1.
        -11    1    3    3    0    0  0.77933208497E+01 -0.91876457484E+01  0.17906120042E+01  0.12180105742E+02  0.51100000000E-03 0.  1.
         12    1    3    3    0    0  0.20842505918E+02 -0.26114638418E+01  0.97079474971E+01  0.23140312032E+02  0.00000000000E+00 0. -1.
</event>
<event>
 7    1  0.3054835E-011  0.5052887E+02  0.7816164E-02  0.1300439E+00
        -11   -1    0    0    0    0  0.00000000000E+00  0.00000000000E+00  0.45593999997E+02  0.45594000000E+02  0.51100000000E-03 0.  1.
         11   -1    0    0    0    0 -0.00000000000E+00 -0.00000000000E+00 -0.45593999997E+02  0.45594000000E+02  0.51100000000E-03 0. -1.
    9900012    2    1    2    0    0  0.96292047027E+01 -0.29248554192E+02  0.26551189384E+02  0.50528866177E+02  0.30000019230E+02 0.  0.
         12    1    1    2    0    0 -0.96292047027E+01  0.29248554192E+02 -0.26551189384E+02  0.40659133823E+02  0.00000000000E+00 0. -1.
         11    1    3    3    0    0 -0.62027761882E+01  0.54482514748E+00  0.62386775898E+01  0.88143272695E+01  0.51100000000E-03 0. -1.
        -11    1    3    3    0    0  0.12878309284E+02 -0.25432673466E+02  0.22187172414E+02  0.36123985794E+02  0.51100000000E-03 0.  1.
        -12    1    3    3    0    0  0.29536716067E+01 -0.43607058739E+01 -0.18746606191E+01  0.55905531136E+01  0.00000000000E+00 0.  1.
</event>
<event>
 7    1  0.3054835E-011  0.5052888E+02  0.7816164E-02  0.1300439E+00
        -11   -1    0    0    0    0  0.00000000000E+00  0.00000000000E+00  0.45593999997E+02  0.45594000000E+02  0.51100000000E-03 0.  1.
         11   -1    0    0    0    0 -0.00000000000E+00 -0.00000000000E+00 -0.45593999997E+02  0.45594000000E+02  0.51100000000E-03 0. -1.
    9900012    2    1    2    0    0  0.16197640832E+02 -0.54188521643E+01  0.36897649341E+02  0.50528879816E+02  0.30000060688E+02 0.  0.
         12    1    1    2    0    0 -0.16197640832E+02  0.54188521643E+01 -0.36897649341E+02  0.40659120184E+02  0.00000000000E+00 0. -1.
         11    1    3    3    0    0 -0.22192513501E+01  0.52462097471E-01  0.33566298086E+01  0.40242754329E+01  0.51100000000E-03 0. -1.
        -11    1    3    3    0    0  0.19093879360E+02  0.48217948956E+01  0.13231145346E+02  0.23725284876E+02  0.51100000000E-03 0.  1.
        -12    1    3    3    0    0 -0.67698717788E+00 -0.10293109157E+02  0.20309874186E+02  0.22779319507E+02  0.00000000000E+00 0.  1.
</event>
<event>
 7    1  0.3054835E-011  0.5052885E+02  0.7816164E-02  0.1300439E+00
        -11   -1    0    0    0    0  0.00000000000E+00  0.00000000000E+00  0.45593999997E+02  0.45594000000E+02  0.51100000000E-03 0.  1.
         11   -1    0    0    0    0 -0.00000000000E+00 -0.00000000000E+00 -0.45593999997E+02  0.45594000000E+02  0.51100000000E-03 0. -1.
    9900012    2    1    2    0    0 -0.35658837791E+02 -0.71271051711E+00 -0.19521935841E+02  0.50528847920E+02  0.29999963738E+02 0.  0.
         12    1    1    2    0    0  0.35658837791E+02  0.71271051711E+00  0.19521935841E+02  0.40659152080E+02  0.00000000000E+00 0. -1.
         11    1    3    3    0    0  0.26900077813E+01  0.18280028992E+01 -0.29106404972E+01  0.43645807162E+01  0.51100000000E-03 0. -1.
        -11    1    3    3    0    0 -0.33632165548E+02  0.51353974584E+01 -0.13940832097E+02  0.36767399504E+02  0.51100000000E-03 0.  1.
        -12    1    3    3    0    0 -0.47166800248E+01 -0.76761108746E+01 -0.26704632468E+01  0.93968676999E+01  0.00000000000E+00 0.  1.
</event>
<event>
 7    1  0.3054835E-011  0.5052886E+02  0.7816164E-02  0.1300439E+00
        -11   -1    0    0    0    0  0.00000000000E+00  0.00000000000E+00  0.45593999997E+02  0.45594000000E+02  0.51100000000E-03 0. -1.
         11   -1    0    0    0    0 -0.00000000000E+00 -0.00000000000E+00 -0.45593999997E+02  0.45594000000E+02  0.51100000000E-03 0.  1.
    9900012    2    1    2    0    0  0.37112978285E+02  0.13621724038E+02 -0.94995474519E+01  0.50528856813E+02  0.29999990767E+02 0.  0.
         12    1    1    2    0    0 -0.37112978285E+02 -0.13621724038E+02  0.94995474519E+01  0.40659143187E+02  0.00000000000E+00 0. -1.
         11    1    3    3    0    0  0.17459029083E+01 -0.30616813781E+01  0.15777468397E+01  0.38615223911E+01  0.51100000000E-03 0. -1.
        -11    1    3    3    0    0  0.37833426940E+02  0.11433451580E+02 -0.93328104011E+01  0.40610261749E+02  0.51100000000E-03 0.  1.
        -12    1    3    3    0    0 -0.24663515634E+01  0.52499538363E+01 -0.17444838905E+01  0.60570726726E+01  0.00000000000E+00 0.  1.
</event>
<event>
 7    1  0.3054835E-011  0.5052886E+02  0.7816164E-02  0.1300439E+00
        -11   -1    0    0    0    0  0.00000000000E+00  0.00000000000E+00  0.45593999997E+02  0.45594000000E+02  0.51100000000E-03 0. -1.
         11   -1    0    0    0    0 -0.00000000000E+00 -0.00000000000E+00 -0.45593999997E+02  0.45594000000E+02  0.51100000000E-03 0.  1.
    9900012    2    1    2    0    0 -0.84297163893E+01  0.33534065977E+01 -0.39634079132E+02  0.50528859787E+02  0.29999999809E+02 0.  0.
         12    1    1    2    0    0  0.84297163893E+01 -0.33534065977E+01  0.39634079132E+02  0.40659140213E+02  0.00000000000E+00 0. -1.
         11    1    3    3    0    0 -0.17374628718E+02  0.14508083101E+01 -0.28059734818E+02  0.33035303633E+02  0.51100000000E-03 0. -1.
        -11    1    3    3    0    0  0.71775271319E+01  0.69064446874E+00 -0.17254990029E+01  0.74142587344E+01  0.51100000000E-03 0.  1.
        -12    1    3    3    0    0  0.17673851972E+01  0.12119538189E+01 -0.98488453114E+01  0.10079297419E+02  0.00000000000E+00 0.  1.
</event>
<event>
 7    1  0.3054835E-011  0.5052886E+02  0.7816164E-02  0.1300439E+00
        -11   -1    0    0    0    0  0.00000000000E+00  0.00000000000E+00  0.45593999997E+02  0.45594000000E+02  0.51100000000E-03 0. -1.
         11   -1    0    0    0    0 -0.00000000000E+00 -0.00000000000E+00 -0.45593999997E+02  0.45594000000E+02  0.51100000000E-03 0.  1.
    9900012    2    1    2    0    0  0.17508856558E+02  0.36317794882E+02 -0.52557721555E+01  0.50528862970E+02  0.30000009482E+02 0.  0.
         12    1    1    2    0    0 -0.17508856558E+02 -0.36317794882E+02  0.52557721555E+01  0.40659137030E+02  0.00000000000E+00 0. -1.
         11    1    3    3    0    0 -0.39186606864E+01  0.10343889582E+00  0.36134780503E+01  0.53313999157E+01  0.51100000000E-03 0. -1.
        -11    1    3    3    0    0  0.16275746565E+02  0.14050038017E+02 -0.55065465676E+01  0.22195169517E+02  0.51100000000E-03 0.  1.
         12    1    3    3    0    0  0.51517706798E+01  0.22164317970E+02 -0.33627036381E+01  0.23002293537E+02  0.00000000000E+00 0. -1.
</event>
<event>
 7    1  0.3054835E-011  0.5052884E+02  0.7816164E-02  0.1300439E+00
        -11   -1    0    0    0    0  0.00000000000E+00  0.00000000000E+00  0.45593999997E+02  0.45594000000E+02  0.51100000000E-03 0. -1.
         11   -1    0    0    0    0 -0.00000000000E+00 -0.00000000000E+00 -0.45593999997E+02  0.45594000000E+02  0.51100000000E-03 0.  1.
    9900012    2    1    2    0    0  0.31377838926E+02 -0.23052117282E+02  0.11713160012E+02  0.50528843537E+02  0.29999950415E+02 0.  0.
         12    1    1    2    0    0 -0.31377838926E+02  0.23052117282E+02 -0.11713160012E+02  0.40659156463E+02  0.00000000000E+00 0. -1.
         11    1    3    3    0    0  0.12141972146E+02 -0.61136630352E+01  0.13844340640E+02  0.19402838228E+02  0.51100000000E-03 0. -1.
        -11    1    3    3    0    0  0.19506137102E+02 -0.16206142347E+02 -0.69094578534E+01  0.26284387809E+02  0.51100000000E-03 0.  1.
         12    1    3    3    0    0 -0.27027032239E+00 -0.73231189951E+00  0.47782772258E+01  0.48416174996E+01  0.00000000000E+00 0. -1.
</event>
<event>
 7    1  0.3054835E-011  0.5052886E+02  0.7816164E-02  0.1300439E+00
        -11   -1    0    0    0    0  0.00000000000E+00  0.00000000000E+00  0.45593999997E+02  0.45594000000E+02  0.51100000000E-03 0.  1.
         11   -1    0    0    0    0 -0.00000000000E+00 -0.00000000000E+00 -0.45593999997E+02  0.45594000000E+02  0.51100000000E-03 0. -1.
    9900012    2    1    2    0    0  0.32702035135E+02  0.23790093199E+02  0.42159385301E+01  0.50528858665E+02  0.29999996400E+02 0.  0.
         12    1    1    2    0    0 -0.32702035135E+02 -0.23790093199E+02 -0.42159385301E+01  0.40659141335E+02  0.00000000000E+00 0. -1.
         11    1    3    3    0    0 -0.39315111817E+01 -0.25476590801E+01 -0.13785454313E+01  0.48834142490E+01  0.51100000000E-03 0. -1.
        -11    1    3    3    0    0  0.29346973388E+02  0.22612439249E+02  0.55506863418E+01  0.37461678753E+02  0.51100000000E-03 0.  1.
         12    1    3    3    0    0  0.72865729279E+01  0.37253130301E+01  0.43797619630E-01  0.81837656636E+01  0.00000000000E+00 0. -1.
</event>
<event>
 7    1  0.3054835E-011  0.5052876E+02  0.7816164E-02  0.1300439E+00
        -11   -1    0    0    0    0  0.00000000000E+00  0.00000000000E+00  0.45593999997E+02  0.45594000000E+02  0.51100000000E-03 0.  1.
         11   -1    0    0    0    0 -0.00000000000E+00 -0.00000000000E+00 -0.45593999997E+02  0.45594000000E+02  0.51100000000E-03 0. -1.
    9900012    2    1    2    0    0  0.40763299824E+01 -0.10481206036E+02  0.39073025959E+02  0.50528763611E+02  0.29999707471E+02 0.  0.
         12    1    1    2    0    0 -0.40763299824E+01  0.10481206036E+02 -0.39073025959E+02  0.40659236389E+02  0.00000000000E+00 0. -1.
         11    1    3    3    0    0 -0.34306578762E+01 -0.59493492025E+01  0.81801464011E+00  0.69161635037E+01  0.51100000000E-03 0. -1.
        -11    1    3    3    0    0 -0.71100987679E+00  0.22560937072E+01  0.30097599584E+02  0.30190412300E+02  0.51100000000E-03 0.  1.
        -12    1    3    3    0    0  0.82179977354E+01 -0.67879505408E+01  0.81574117349E+01  0.13422187807E+02  0.00000000000E+00 0.  1.
</event>
<event>
 7    1  0.3054835E-011  0.5052886E+02  0.7816164E-02  0.1300439E+00
        -11   -1    0    0    0    0  0.00000000000E+00  0.00000000000E+00  0.45593999997E+02  0.45594000000E+02  0.51100000000E-03 0.  1.
         11   -1    0    0    0    0 -0.00000000000E+00 -0.00000000000E+00 -0.45593999997E+02  0.45594000000E+02  0.51100000000E-03 0. -1.
    9900012    2    1    2    0    0 -0.14918262187E+02 -0.23622706114E+02  0.29539449512E+02  0.50528857506E+02  0.29999992875E+02 0.  0.
         12    1    1    2    0    0  0.14918262187E+02  0.23622706114E+02 -0.29539449512E+02  0.40659142494E+02  0.00000000000E+00 0. -1.
         11    1    3    3    0    0  0.32227967639E+01 -0.69179621649E+01  0.77493721530E+01  0.10876460294E+02  0.51100000000E-03 0. -1.
        -11    1    3    3    0    0 -0.22087248674E+02 -0.82963569999E+01  0.13388318894E+02  0.27127904020E+02  0.51100000000E-03 0.  1.
        -12    1    3    3    0    0  0.39461897225E+01 -0.84083869493E+01  0.84017584653E+01  0.12524493192E+02  0.00000000000E+00 0.  1.
</event>
<event>
 7    1  0.3054835E-011  0.5052887E+02  0.7816164E-02  0.1300439E+00
        -11   -1    0    0    0    0  0.00000000000E+00  0.00000000000E+00  0.45593999997E+02  0.45594000000E+02  0.51100000000E-03 0. -1.
         11   -1    0    0    0    0 -0.00000000000E+00 -0.00000000000E+00 -0.45593999997E+02  0.45594000000E+02  0.51100000000E-03 0.  1.
    9900012    2    1    2    0    0  0.26533146748E+02 -0.30805390853E+02  0.42978289452E+00  0.50528871931E+02  0.30000036723E+02 0.  0.
         12    1    1    2    0    0 -0.26533146748E+02  0.30805390853E+02 -0.42978289452E+00  0.40659128069E+02  0.00000000000E+00 0. -1.
         11    1    3    3    0    0  0.25212130329E+02 -0.27331712013E+02 -0.32003848656E+01  0.37321796056E+02  0.51100000000E-03 0.  1.
        -11    1    3    3    0    0  0.18562454774E+01 -0.52744440463E-01  0.76670014441E+01  0.78886843423E+01  0.51100000000E-03 0. -1.
         12    1    3    3    0    0 -0.53522905793E+00 -0.34209343994E+01 -0.40368336840E+01  0.53183915333E+01  0.00000000000E+00 0. -1.
</event>
<event>
 7    1  0.3054835E-011  0.5052885E+02  0.7816164E-02  0.1300439E+00
        -11   -1    0    0    0    0  0.00000000000E+00  0.00000000000E+00  0.45593999997E+02  0.45594000000E+02  0.51100000000E-03 0.  1.
         11   -1    0    0    0    0 -0.00000000000E+00 -0.00000000000E+00 -0.45593999997E+02  0.45594000000E+02  0.51100000000E-03 0. -1.
    9900012    2    1    2    0    0 -0.25055873280E+02 -0.17035336009E+02  0.27113960446E+02  0.50528852077E+02  0.29999976374E+02 0.  0.
         12    1    1    2    0    0  0.25055873280E+02  0.17035336009E+02 -0.27113960446E+02  0.40659147923E+02  0.00000000000E+00 0. -1.
         11    1    3    3    0    0 -0.14731483462E+02  0.32998488210E+01  0.13824598316E+01  0.15159709848E+02  0.51100000000E-03 0. -1.
        -11    1    3    3    0    0 -0.66708681424E+00 -0.86730832363E+01  0.12691490945E+02  0.15386400499E+02  0.51100000000E-03 0.  1.
        -12    1    3    3    0    0 -0.96573030037E+01 -0.11662101594E+02  0.13040009669E+02  0.19982741730E+02  0.00000000000E+00 0.  1.
</event>
<event>
 7    1  0.3054835E-011  0.5052887E+02  0.7816164E-02  0.1300439E+00
        -11   -1    0    0    0    0  0.00000000000E+00  0.00000000000E+00  0.45593999997E+02  0.45594000000E+02  0.51100000000E-03 0.  1.
         11   -1    0    0    0    0 -0.00000000000E+00 -0.00000000000E+00 -0.45593999997E+02  0.45594000000E+02  0.51100000000E-03 0. -1.
    9900012    2    1    2    0    0 -0.38014243785E+02  0.81326850829E+01  0.11913930622E+02  0.50528867691E+02  0.30000023834E+02 0.  0.
         12    1    1    2    0    0  0.38014243785E+02 -0.81326850829E+01 -0.11913930622E+02  0.40659132309E+02  0.00000000000E+00 0. -1.
         11    1    3    3    0    0 -0.32019388336E+01  0.40178837922E+01 -0.76542646772E+01  0.92186533980E+01  0.51100000000E-03 0. -1.
        -11    1    3    3    0    0 -0.15584789820E+02 -0.17995754603E+01  0.12247787336E+02  0.19903076156E+02  0.51100000000E-03 0.  1.
        -12    1    3    3    0    0 -0.19227515131E+02  0.59143767510E+01  0.73204079632E+01  0.21407138137E+02  0.00000000000E+00 0.  1.
</event>
<event>
 7    1  0.3054835E-011  0.5052885E+02  0.7816164E-02  0.1300439E+00
        -11   -1    0    0    0    0  0.00000000000E+00  0.00000000000E+00  0.45593999997E+02  0.45594000000E+02  0.51100000000E-03 0. -1.
         11   -1    0    0    0    0 -0.00000000000E+00 -0.00000000000E+00 -0.45593999997E+02  0.45594000000E+02  0.51100000000E-03 0.  1.
    9900012    2    1    2    0    0  0.32270760262E+02 -0.61807592239E+00 -0.24726150318E+02  0.50528849796E+02  0.29999969440E+02 0.  0.
         12    1    1    2    0    0 -0.32270760262E+02  0.61807592239E+00  0.24726150318E+02  0.40659150204E+02  0.00000000000E+00 0. -1.
         11    1    3    3    0    0  0.11914087405E+02 -0.11910384614E+02 -0.14202542828E+02  0.22034404085E+02  0.51100000000E-03 0.  1.
        -11    1    3    3    0    0  0.21217884355E+02  0.12756824043E+02 -0.95450114851E+01  0.26533797706E+02  0.51100000000E-03 0. -1.
         12    1    3    3    0    0 -0.86121149804E+00 -0.14645153514E+01 -0.97859600517E+00  0.19606480052E+01  0.00000000000E+00 0. -1.
</event>
<event>
 7    1  0.3054835E-011  0.5052885E+02  0.7816164E-02  0.1300439E+00
        -11   -1    0    0    0    0  0.00000000000E+00  0.00000000000E+00  0.45593999997E+02  0.45594000000E+02  0.51100000000E-03 0.  1.
         11   -1    0    0    0    0 -0.00000000000E+00 -0.00000000000E+00 -0.45593999997E+02  0.45594000000E+02  0.51100000000E-03 0. -1.
    9900012    2    1    2    0    0 -0.37246820258E+02  0.87904440872E+01  0.13732052035E+02  0.50528846299E+02  0.29999958811E+02 0.  0.
         12    1    1    2    0    0  0.37246820258E+02 -0.87904440872E+01 -0.13732052035E+02  0.40659153701E+02  0.00000000000E+00 0. -1.
         11    1    3    3    0    0 -0.13778203266E+02  0.30949152588E+01 -0.17556340496E+01  0.14230236712E+02  0.51100000000E-03 0. -1.
        -11    1    3    3    0    0 -0.15075526928E+02  0.10088842607E+02  0.18930803026E+02  0.26218916087E+02  0.51100000000E-03 0.  1.
        -12    1    3    3    0    0 -0.83930900644E+01 -0.43933137789E+01 -0.34431169421E+01  0.10079693501E+02  0.00000000000E+00 0.  1.
</event>
<event>
 7    1  0.3054835E-011  0.5052886E+02  0.7816164E-02  0.1300439E+00
        -11   -1    0    0    0    0  0.00000000000E+00  0.00000000000E+00  0.45593999997E+02  0.45594000000E+02  0.51100000000E-03 0.  1.
         11   -1    0    0    0    0 -0.00000000000E+00 -0.00000000000E+00 -0.45593999997E+02  0.45594000000E+02  0.51100000000E-03 0. -1.
    9900012    2    1    2    0    0  0.27213792051E+02  0.23343526014E+02  0.19174332807E+02  0.50528859291E+02  0.29999998302E+02 0.  0.
         12    1    1    2    0    0 -0.27213792051E+02 -0.23343526014E+02 -0.19174332807E+02  0.40659140709E+02  0.00000000000E+00 0. -1.
         11    1    3    3    0    0  0.89800748507E+01  0.17333896548E+02 -0.26119072574E+00  0.19523676261E+02  0.51100000000E-03 0. -1.
        -11    1    3    3    0    0 -0.73587633187E+00 -0.12075437913E+01  0.71324247309E+01  0.72712556541E+01  0.51100000000E-03 0.  1.
        -12    1    3    3    0    0  0.18969593532E+02  0.72171732573E+01  0.12303098801E+02  0.23733927377E+02  0.00000000000E+00 0.  1.
</event>
<event>
 7    1  0.3054835E-011  0.5052887E+02  0.7816164E-02  0.1300439E+00
        -11   -1    0    0    0    0  0.00000000000E+00  0.00000000000E+00  0.45593999997E+02  0.45594000000E+02  0.51100000000E-03 0. -1.
         11   -1    0    0    0    0 -0.00000000000E+00 -0.00000000000E+00 -0.45593999997E+02  0.45594000000E+02  0.51100000000E-03 0.  1.
    9900012    2    1    2    0    0  0.97081656768E+01  0.15312184939E+02 -0.36393042617E+02  0.50528867700E+02  0.30000023862E+02 0.  0.
         12    1    1    2    0    0 -0.97081656768E+01 -0.15312184939E+02  0.36393042617E+02  0.40659132300E+02  0.00000000000E+00 0. -1.
         11    1    3    3    0    0 -0.10149364589E+01 -0.46966334076E+01 -0.16551080011E+02  0.17234462892E+02  0.51100000000E-03 0. -1.
        -11    1    3    3    0    0  0.81461108613E+01  0.54202701001E+01 -0.17986025489E+01  0.99485386621E+01  0.51100000000E-03 0.  1.
         12    1    3    3    0    0  0.25769912745E+01  0.14588548246E+02 -0.18043360057E+02  0.23345866146E+02  0.00000000000E+00 0. -1.
</event>
<event>
 7    1  0.3054835E-011  0.5052886E+02  0.7816164E-02  0.1300439E+00
        -11   -1    0    0    0    0  0.00000000000E+00  0.00000000000E+00  0.45593999997E+02  0.45594000000E+02  0.51100000000E-03 0.  1.
         11   -1    0    0    0    0 -0.00000000000E+00 -0.00000000000E+00 -0.45593999997E+02  0.45594000000E+02  0.51100000000E-03 0. -1.
    9900012    2    1    2    0    0  0.21401616479E+02 -0.33089638018E+02  0.10010611764E+02  0.50528859823E+02  0.29999999917E+02 0.  0.
         12    1    1    2    0    0 -0.21401616479E+02  0.33089638018E+02 -0.10010611764E+02  0.40659140177E+02  0.00000000000E+00 0. -1.
         11    1    3    3    0    0  0.12603926716E+02 -0.51727008917E+01  0.43393867493E+01  0.14298464281E+02  0.51100000000E-03 0. -1.
        -11    1    3    3    0    0 -0.23128684248E+00 -0.25565002424E+02  0.51732512891E+00  0.25571282097E+02  0.51100000000E-03 0.  1.
         12    1    3    3    0    0  0.90289766052E+01 -0.23519347025E+01  0.51538998856E+01  0.10659113444E+02  0.00000000000E+00 0. -1.
</event>
<event>
 7    1  0.3054835E-011  0.5052885E+02  0.7816164E-02  0.1300439E+00
        -11   -1    0    0    0    0  0.00000000000E+00  0.00000000000E+00  0.45593999997E+02  0.45594000000E+02  0.51100000000E-03 0.  1.
         11   -1    0    0    0    0 -0.00000000000E+00 -0.00000000000E+00 -0.45593999997E+02  0.45594000000E+02  0.51100000000E-03 0. -1.
    9900012    2    1    2    0    0  0.26114423315E+02 -0.18123859167E+02  0.25352099951E+02  0.50528851607E+02  0.29999974944E+02 0.  0.
         12    1    1    2    0    0 -0.26114423315E+02  0.18123859167E+02 -0.25352099951E+02  0.40659148393E+02  0.00000000000E+00 0. -1.
         11    1    3    3    0    0  0.41483943102E+01  0.94120892378E+00  0.78547992756E+00  0.43257402336E+01  0.51100000000E-03 0. -1.
        -11    1    3    3    0    0  0.25988769303E+01 -0.16776792106E+02  0.32021447410E+01  0.17276245132E+02  0.51100000000E-03 0.  1.
        -12    1    3    3    0    0  0.19367152074E+02 -0.22882759848E+01  0.21364475282E+02  0.28926866241E+02  0.00000000000E+00 0.  1.
</event>
<event>
 7    1  0.3054835E-011  0.5052885E+02  0.7816164E-02  0.1300439E+00
        -11   -1    0    0    0    0  0.00000000000E+00  0.00000000000E+00  0.45593999997E+02  0.45594000000E+02  0.51100000000E-03 0.  1.
         11   -1    0    0    0    0 -0.00000000000E+00 -0.00000000000E+00 -0.45593999997E+02  0.45594000000E+02  0.51100000000E-03 0. -1.
    9900012    2    1    2    0    0  0.12214834103E+01  0.40304742521E+02  0.52155438056E+01  0.50528853568E+02  0.29999980905E+02 0.  0.
         12    1    1    2    0    0 -0.12214834103E+01 -0.40304742521E+02 -0.52155438056E+01  0.40659146432E+02  0.00000000000E+00 0. -1.
         11    1    3    3    0    0 -0.87404892009E+01  0.15688622679E+02  0.90462245967E+01  0.20108784468E+02  0.51100000000E-03 0. -1.
        -11    1    3    3    0    0  0.99914582699E+01  0.17633566575E+02  0.31913754685E+01  0.20517231445E+02  0.51100000000E-03 0.  1.
         12    1    3    3    0    0 -0.29485658759E-01  0.69825532660E+01 -0.70220562597E+01  0.99028376555E+01  0.00000000000E+00 0. -1.
</event>
<event>
 7    1  0.3054835E-011  0.5052886E+02  0.7816164E-02  0.1300439E+00
        -11   -1    0    0    0    0  0.00000000000E+00  0.00000000000E+00  0.45593999997E+02  0.45594000000E+02  0.51100000000E-03 0.  1.
         11   -1    0    0    0    0 -0.00000000000E+00 -0.00000000000E+00 -0.45593999997E+02  0.45594000000E+02  0.51100000000E-03 0. -1.
    9900012    2    1    2    0    0 -0.18220754680E+01 -0.32475360053E+02  0.24396653672E+02  0.50528859823E+02  0.29999999917E+02 0.  0.
         12    1    1    2    0    0  0.18220754680E+01  0.32475360053E+02 -0.24396653672E+02  0.40659140177E+02  0.00000000000E+00 0. -1.
         11    1    3    3    0    0 -0.97387657177E+01 -0.20209084395E+01  0.57208633459E+01  0.11474140766E+02  0.51100000000E-03 0. -1.
        -11    1    3    3    0    0  0.76448090599E+00 -0.22024209888E+02  0.73580794819E+01  0.23233415293E+02  0.51100000000E-03 0.  1.
        -12    1    3    3    0    0  0.71522093438E+01 -0.84302417250E+01  0.11317710844E+02  0.15821303764E+02  0.00000000000E+00 0.  1.
</event>
<event>
 7    1  0.3054835E-011  0.5052887E+02  0.7816164E-02  0.1300439E+00
        -11   -1    0    0    0    0  0.00000000000E+00  0.00000000000E+00  0.45593999997E+02  0.45594000000E+02  0.51100000000E-03 0.  1.
         11   -1    0    0    0    0 -0.00000000000E+00 -0.00000000000E+00 -0.45593999997E+02  0.45594000000E+02  0.51100000000E-03 0. -1.
    9900012    2    1    2    0    0  0.25870113539E+02 -0.19847281898E+02  0.24289651361E+02  0.50528873884E+02  0.30000042659E+02 0.  0.
         12    1    1    2    0    0 -0.25870113539E+02  0.19847281898E+02 -0.24289651361E+02  0.40659126116E+02  0.00000000000E+00 0. -1.
         11    1    3    3    0    0  0.74624777961E+01  0.77980121294E+00  0.28268928650E+01  0.80179790671E+01  0.51100000000E-03 0. -1.
        -11    1    3    3    0    0 -0.52384316940E+01 -0.40364649438E+01  0.87079669413E+01  0.10934482355E+02  0.51100000000E-03 0.  1.
        -12    1    3    3    0    0  0.23646067437E+02 -0.16590618167E+02  0.12754791555E+02  0.31576412462E+02  0.00000000000E+00 0.  1.
</event>
<event>
 7    1  0.3054835E-011  0.5052886E+02  0.7816164E-02  0.1300439E+00
        -11   -1    0    0    0    0  0.00000000000E+00  0.00000000000E+00  0.45593999997E+02  0.45594000000E+02  0.51100000000E-03 0.  1.
         11   -1    0    0    0    0 -0.00000000000E+00 -0.00000000000E+00 -0.45593999997E+02  0.45594000000E+02  0.51100000000E-03 0. -1.
    9900012    2    1    2    0    0 -0.35967299970E+02  0.92135728758E+01  0.16571942431E+02  0.50528857508E+02  0.29999992881E+02 0.  0.
         12    1    1    2    0    0  0.35967299970E+02 -0.92135728758E+01 -0.16571942431E+02  0.40659142492E+02  0.00000000000E+00 0. -1.
         11    1    3    3    0    0 -0.74066790145E+01  0.89674313852E+01  0.16770421249E+02  0.20408839967E+02  0.51100000000E-03 0. -1.
        -11    1    3    3    0    0 -0.13531455233E+02 -0.30564873238E+01  0.34726268651E+01  0.14300403249E+02  0.51100000000E-03 0.  1.
         12    1    3    3    0    0 -0.15029165722E+02  0.33026288145E+01 -0.36711056831E+01  0.15819614292E+02  0.00000000000E+00 0. -1.
</event>
<event>
 7    1  0.3054835E-011  0.5052886E+02  0.7816164E-02  0.1300439E+00
        -11   -1    0    0    0    0  0.00000000000E+00  0.00000000000E+00  0.45593999997E+02  0.45594000000E+02  0.51100000000E-03 0.  1.
         11   -1    0    0    0    0 -0.00000000000E+00 -0.00000000000E+00 -0.45593999997E+02  0.45594000000E+02  0.51100000000E-03 0. -1.
    9900012    2    1    2    0    0  0.26252993446E+02  0.29902356367E+02  0.83543507973E+01  0.50528858858E+02  0.29999996984E+02 0.  0.
         12    1    1    2    0    0 -0.26252993446E+02 -0.29902356367E+02 -0.83543507973E+01  0.40659141142E+02  0.00000000000E+00 0. -1.
         11    1    3    3    0    0 -0.14683205638E+01  0.23490824383E+01 -0.25988315986E+01  0.37984311918E+01  0.51100000000E-03 0. -1.
        -11    1    3    3    0    0  0.23515644001E+02  0.31667341703E+02  0.84606221521E+01  0.40340899479E+02  0.51100000000E-03 0.  1.
        -12    1    3    3    0    0  0.42056700093E+01 -0.41140677746E+01  0.24925602437E+01  0.63895281868E+01  0.00000000000E+00 0.  1.
</event>
<event>
 7    1  0.3054835E-011  0.5052886E+02  0.7816164E-02  0.1300439E+00
        -11   -1    0    0    0    0  0.00000000000E+00  0.00000000000E+00  0.45593999997E+02  0.45594000000E+02  0.51100000000E-03 0. -1.
         11   -1    0    0    0    0 -0.00000000000E+00 -0.00000000000E+00 -0.45593999997E+02  0.45594000000E+02  0.51100000000E-03 0.  1.
    9900012    2    1    2    0    0 -0.20409576413E+02 -0.53190617281E+01 -0.34760931887E+02  0.50528860651E+02  0.30000002433E+02 0.  0.
         12    1    1    2    0    0  0.20409576413E+02  0.53190617281E+01  0.34760931887E+02  0.40659139349E+02  0.00000000000E+00 0. -1.
         11    1    3    3    0    0 -0.55194621418E+01 -0.52742201973E+01  0.37223960882E+01  0.84934147386E+01  0.51100000000E-03 0. -1.
        -11    1    3    3    0    0 -0.12017488441E+02  0.33392011899E+01 -0.28477545943E+02  0.31089241165E+02  0.51100000000E-03 0.  1.
        -12    1    3    3    0    0 -0.28726258298E+01 -0.33840427207E+01 -0.10005782032E+02  0.10946204747E+02  0.00000000000E+00 0.  1.
</event>
<event>
 7    1  0.3054835E-011  0.5052885E+02  0.7816164E-02  0.1300439E+00
        -11   -1    0    0    0    0  0.00000000000E+00  0.00000000000E+00  0.45593999997E+02  0.45594000000E+02  0.51100000000E-03 0. -1.
         11   -1    0    0    0    0 -0.00000000000E+00 -0.00000000000E+00 -0.45593999997E+02  0.45594000000E+02  0.51100000000E-03 0.  1.
    9900012    2    1    2    0    0  0.18970095003E+02 -0.32085141188E+02 -0.16243321050E+02  0.50528852589E+02  0.29999977930E+02 0.  0.
         12    1    1    2    0    0 -0.18970095003E+02  0.32085141188E+02  0.16243321050E+02  0.40659147411E+02  0.00000000000E+00 0. -1.
         11    1    3    3    0    0 -0.76387542029E+01 -0.52812442135E+01 -0.62988471911E+01  0.11221300389E+02  0.51100000000E-03 0. -1.
        -11    1    3    3    0    0  0.25122716413E+02 -0.26423422088E+02 -0.98659258514E+01  0.37771478763E+02  0.51100000000E-03 0.  1.
         12    1    3    3    0    0  0.14861327921E+01 -0.38047488660E+00 -0.78548007506E-01  0.15360734372E+01  0.00000000000E+00 0. -1.
</event>
<event>
 7    1  0.3054835E-011  0.5052886E+02  0.7816164E-02  0.1300439E+00
        -11   -1    0    0    0    0  0.00000000000E+00  0.00000000000E+00  0.45593999997E+02  0.45594000000E+02  0.51100000000E-03 0. -1.
         11   -1    0    0    0    0 -0.00000000000E+00 -0.00000000000E+00 -0.45593999997E+02  0.45594000000E+02  0.51100000000E-03 0.  1.
    9900012    2    1    2    0    0  0.13430919207E+02 -0.29781976608E+02 -0.24203509697E+02  0.50528860768E+02  0.30000002790E+02 0.  0.
         12    1    1    2    0    0 -0.13430919207E+02  0.29781976608E+02  0.24203509697E+02  0.40659139232E+02  0.00000000000E+00 0. -1.
         11    1    3    3    0    0 -0.63479824259E+01 -0.10698491040E+01 -0.11499342295E+01  0.65394041761E+01  0.51100000000E-03 0. -1.
        -11    1    3    3    0    0  0.73706147173E+01 -0.38286826719E+01 -0.10746285749E+02  0.13581878735E+02  0.51100000000E-03 0.  1.
         12    1    3    3    0    0  0.12408286916E+02 -0.24883444832E+02 -0.12307289719E+02  0.30407577857E+02  0.00000000000E+00 0. -1.
</event>
<event>
 7    1  0.3054835E-011  0.5052886E+02  0.7816164E-02  0.1300439E+00
        -11   -1    0    0    0    0  0.00000000000E+00  0.00000000000E+00  0.45593999997E+02  0.45594000000E+02  0.51100000000E-03 0. -1.
         11   -1    0    0    0    0 -0.00000000000E+00 -0.00000000000E+00 -0.45593999997E+02  0.45594000000E+02  0.51100000000E-03 0.  1.
    9900012    2    1    2    0    0 -0.35625973164E+02 -0.86556750796E+01  0.17579401071E+02  0.50528855679E+02  0.29999987320E+02 0.  0.
         12    1    1    2    0    0  0.35625973164E+02  0.86556750796E+01 -0.17579401071E+02  0.40659144321E+02  0.00000000000E+00 0. -1.
         11    1    3    3    0    0  0.40540846651E+01 -0.17437000997E+00  0.51612360710E+01  0.65653914898E+01  0.51100000000E-03 0. -1.
        -11    1    3    3    0    0 -0.31358582604E+02 -0.72359474091E+01  0.14495855134E+02  0.35296592671E+02  0.51100000000E-03 0.  1.
         12    1    3    3    0    0 -0.83214752244E+01 -0.12453576606E+01 -0.20776901338E+01  0.86668715177E+01  0.00000000000E+00 0. -1.
</event>
<event>
 7    1  0.3054835E-011  0.5052885E+02  0.7816164E-02  0.1300439E+00
        -11   -1    0    0    0    0  0.00000000000E+00  0.00000000000E+00  0.45593999997E+02  0.45594000000E+02  0.51100000000E-03 0.  1.
         11   -1    0    0    0    0 -0.00000000000E+00 -0.00000000000E+00 -0.45593999997E+02  0.45594000000E+02  0.51100000000E-03 0. -1.
    9900012    2    1    2    0    0  0.27013014457E+02  0.30063609653E+02  0.44319958055E+01  0.50528853892E+02  0.29999981889E+02 0.  0.
         12    1    1    2    0    0 -0.27013014457E+02 -0.30063609653E+02 -0.44319958055E+01  0.40659146108E+02  0.00000000000E+00 0. -1.
         11    1    3    3    0    0 -0.54202556303E+01  0.39872494058E+01 -0.11976067978E+01  0.68345878606E+01  0.51100000000E-03 0. -1.
        -11    1    3    3    0    0  0.12078781840E+02  0.16480470563E+02  0.56183225488E+01  0.21191234727E+02  0.51100000000E-03 0.  1.
         12    1    3    3    0    0  0.20354488247E+02  0.95958896847E+01  0.11280054443E-01  0.22503031304E+02  0.00000000000E+00 0. -1.
</event>
<event>
 7    1  0.3054835E-011  0.5052886E+02  0.7816164E-02  0.1300439E+00
        -11   -1    0    0    0    0  0.00000000000E+00  0.00000000000E+00  0.45593999997E+02  0.45594000000E+02  0.51100000000E-03 0.  1.
         11   -1    0    0    0    0 -0.00000000000E+00 -0.00000000000E+00 -0.45593999997E+02  0.45594000000E+02  0.51100000000E-03 0. -1.
    9900012    2    1    2    0    0  0.30162370347E+02  0.22847540155E+02  0.14879080369E+02  0.50528859469E+02  0.29999998843E+02 0.  0.
         12    1    1    2    0    0 -0.30162370347E+02 -0.22847540155E+02 -0.14879080369E+02  0.40659140531E+02  0.00000000000E+00 0. -1.
         11    1    3    3    0    0  0.78424300942E+01 -0.47140607046E+01  0.72216250732E+01  0.11656669639E+02  0.51100000000E-03 0. -1.
        -11    1    3    3    0    0  0.22109193261E+02  0.19919361986E+02  0.29756330710E+01  0.29907387064E+02  0.51100000000E-03 0.  1.
         12    1    3    3    0    0  0.21074699189E+00  0.76422388732E+01  0.46818222247E+01  0.89648027660E+01  0.00000000000E+00 0. -1.
</event>
<event>
 7    1  0.3054835E-011  0.5052885E+02  0.7816164E-02  0.1300439E+00
        -11   -1    0    0    0    0  0.00000000000E+00  0.00000000000E+00  0.45593999997E+02  0.45594000000E+02  0.51100000000E-03 0.  1.
         11   -1    0    0    0    0 -0.00000000000E+00 -0.00000000000E+00 -0.45593999997E+02  0.45594000000E+02  0.51100000000E-03 0. -1.
    9900012    2    1    2    0    0  0.75426584978E+01  0.12805006150E+02  0.37845822477E+02  0.50528853936E+02  0.29999982024E+02 0.  0.
         12    1    1    2    0    0 -0.75426584978E+01 -0.12805006150E+02 -0.37845822477E+02  0.40659146064E+02  0.00000000000E+00 0. -1.
         11    1    3    3    0    0  0.36841565059E+01  0.30353350790E+01 -0.27092334190E+01  0.54887352078E+01  0.51100000000E-03 0. -1.
        -11    1    3    3    0    0  0.70913738472E+01  0.10274895344E+02  0.39758390536E+02  0.41672421044E+02  0.51100000000E-03 0.  1.
        -12    1    3    3    0    0 -0.32328718553E+01 -0.50522427285E+00  0.79666535915E+00  0.33676976843E+01  0.00000000000E+00 0.  1.
</event>
<event>
 7    1  0.3054835E-011  0.5052886E+02  0.7816164E-02  0.1300439E+00
        -11   -1    0    0    0    0  0.00000000000E+00  0.00000000000E+00  0.45593999997E+02  0.45594000000E+02  0.51100000000E-03 0. -1.
         11   -1    0    0    0    0 -0.00000000000E+00 -0.00000000000E+00 -0.45593999997E+02  0.45594000000E+02  0.51100000000E-03 0.  1.
    9900012    2    1    2    0    0  0.10729330121E+02 -0.22868251284E+01 -0.39151211426E+02  0.50528862649E+02  0.30000008508E+02 0.  0.
         12    1    1    2    0    0 -0.10729330121E+02  0.22868251284E+01  0.39151211426E+02  0.40659137351E+02  0.00000000000E+00 0. -1.
         11    1    3    3    0    0 -0.36018704192E-03  0.62559943907E+00  0.15532555712E+01  0.16745082617E+01  0.51100000000E-03 0. -1.
        -11    1    3    3    0    0  0.17773859638E+02  0.22563477291E+01 -0.23421152746E+02  0.29488160128E+02  0.51100000000E-03 0.  1.
        -12    1    3    3    0    0 -0.70441693297E+01 -0.51687722966E+01 -0.17283314251E+02  0.19366194260E+02  0.00000000000E+00 0.  1.
</event>
<event>
 7    1  0.3054835E-011  0.5052887E+02  0.7816164E-02  0.1300439E+00
        -11   -1    0    0    0    0  0.00000000000E+00  0.00000000000E+00  0.45593999997E+02  0.45594000000E+02  0.51100000000E-03 0.  1.
         11   -1    0    0    0    0 -0.00000000000E+00 -0.00000000000E+00 -0.45593999997E+02  0.45594000000E+02  0.51100000000E-03 0. -1.
    9900012    2    1    2    0    0  0.14073585667E+02 -0.38124569147E+02 -0.12713667311E+01  0.50528868682E+02  0.30000026846E+02 0.  0.
         12    1    1    2    0    0 -0.14073585667E+02  0.38124569147E+02  0.12713667311E+01  0.40659131318E+02  0.00000000000E+00 0. -1.
         11    1    3    3    0    0  0.73704895648E+01 -0.76654865162E+01 -0.32639956927E+01  0.11123734449E+02  0.51100000000E-03 0. -1.
        -11    1    3    3    0    0  0.37771281220E+01 -0.10998667313E+02  0.12519544479E+02  0.17087316166E+02  0.51100000000E-03 0.  1.
        -12    1    3    3    0    0  0.29259679798E+01 -0.19460415317E+02 -0.10526915518E+02  0.22317818067E+02  0.00000000000E+00 0.  1.
</event>
<event>
 7    1  0.3054835E-011  0.5052885E+02  0.7816164E-02  0.1300439E+00
        -11   -1    0    0    0    0  0.00000000000E+00  0.00000000000E+00  0.45593999997E+02  0.45594000000E+02  0.51100000000E-03 0.  1.
         11   -1    0    0    0    0 -0.00000000000E+00 -0.00000000000E+00 -0.45593999997E+02  0.45594000000E+02  0.51100000000E-03 0. -1.
    9900012    2    1    2    0    0 -0.19443573879E+02  0.18672869514E+02  0.30437437858E+02  0.50528852881E+02  0.29999978817E+02 0.  0.
         12    1    1    2    0    0  0.19443573879E+02 -0.18672869514E+02 -0.30437437858E+02  0.40659147119E+02  0.00000000000E+00 0. -1.
         11    1    3    3    0    0  0.34116488698E+01  0.81070223515E+01  0.20448995174E+01  0.90302144889E+01  0.51100000000E-03 0. -1.
        -11    1    3    3    0    0 -0.20892828483E+02  0.14763778451E+01  0.20379826818E+02  0.29223745738E+02  0.51100000000E-03 0.  1.
        -12    1    3    3    0    0 -0.19623942658E+01  0.90894693173E+01  0.80127115233E+01  0.12274892655E+02  0.00000000000E+00 0.  1.
</event>
<event>
 7    1  0.3054835E-011  0.5052886E+02  0.7816164E-02  0.1300439E+00
        -11   -1    0    0    0    0  0.00000000000E+00  0.00000000000E+00  0.45593999997E+02  0.45594000000E+02  0.51100000000E-03 0.  1.
         11   -1    0    0    0    0 -0.00000000000E+00 -0.00000000000E+00 -0.45593999997E+02  0.45594000000E+02  0.51100000000E-03 0. -1.
    9900012    2    1    2    0    0  0.17201000328E+02 -0.33469554880E+02  0.15397410879E+02  0.50528858618E+02  0.29999996256E+02 0.  0.
         12    1    1    2    0    0 -0.17201000328E+02  0.33469554880E+02 -0.15397410879E+02  0.40659141382E+02  0.00000000000E+00 0. -1.
         11    1    3    3    0    0 -0.37253650745E+01 -0.16834842334E+01  0.60530852127E+00  0.41326580756E+01  0.51100000000E-03 0. -1.
        -11    1    3    3    0    0  0.56421575099E+01 -0.22634836396E+02  0.16390935799E+02  0.28510218110E+02  0.51100000000E-03 0.  1.
        -12    1    3    3    0    0  0.15284207893E+02 -0.91512342501E+01 -0.15988334413E+01  0.17885982433E+02  0.00000000000E+00 0.  1.
</event>
<event>
 7    1  0.3054835E-011  0.5052886E+02  0.7816164E-02  0.1300439E+00
        -11   -1    0    0    0    0  0.00000000000E+00  0.00000000000E+00  0.45593999997E+02  0.45594000000E+02  0.51100000000E-03 0. -1.
         11   -1    0    0    0    0 -0.00000000000E+00 -0.00000000000E+00 -0.45593999997E+02  0.45594000000E+02  0.51100000000E-03 0.  1.
    9900012    2    1    2    0    0 -0.14749825505E+02  0.42110407669E+01 -0.37654686135E+02  0.50528860748E+02  0.30000002730E+02 0.  0.
         12    1    1    2    0    0  0.14749825505E+02 -0.42110407669E+01  0.37654686135E+02  0.40659139252E+02  0.00000000000E+00 0. -1.
         11    1    3    3    0    0 -0.13807628654E+01 -0.32911411047E+01 -0.63021069888E+01  0.72425595352E+01  0.51100000000E-03 0. -1.
        -11    1    3    3    0    0  0.14738591063E+01  0.80164197559E+01  0.47443263672E+00  0.81645779411E+01  0.51100000000E-03 0.  1.
        -12    1    3    3    0    0 -0.14842921746E+02 -0.51423788440E+00 -0.31827011783E+02  0.35121723272E+02  0.00000000000E+00 0.  1.
</event>
<event>
 7    1  0.3054835E-011  0.5052886E+02  0.7816164E-02  0.1300439E+00
        -11   -1    0    0    0    0  0.00000000000E+00  0.00000000000E+00  0.45593999997E+02  0.45594000000E+02  0.51100000000E-03 0. -1.
         11   -1    0    0    0    0 -0.00000000000E+00 -0.00000000000E+00 -0.45593999997E+02  0.45594000000E+02  0.51100000000E-03 0.  1.
    9900012    2    1    2    0    0  0.17495244053E+02  0.30694184441E+02 -0.20123344519E+02  0.50528861819E+02  0.30000005986E+02 0.  0.
         12    1    1    2    0    0 -0.17495244053E+02 -0.30694184441E+02  0.20123344519E+02  0.40659138181E+02  0.00000000000E+00 0. -1.
         11    1    3    3    0    0  0.10559516889E+02  0.83175734788E+01  0.46573526429E+01  0.14225904520E+02  0.51100000000E-03 0. -1.
        -11    1    3    3    0    0  0.28772878276E+01  0.62615932531E+01 -0.16190190690E+02  0.17595698626E+02  0.51100000000E-03 0.  1.
        -12    1    3    3    0    0  0.40584393362E+01  0.16115017709E+02 -0.85905064717E+01  0.18707258673E+02  0.00000000000E+00 0.  1.
</event>
<event>
 7    1  0.3054835E-011  0.5052892E+02  0.7816164E-02  0.1300439E+00
        -11   -1    0    0    0    0  0.00000000000E+00  0.00000000000E+00  0.45593999997E+02  0.45594000000E+02  0.51100000000E-03 0. -1.
         11   -1    0    0    0    0 -0.00000000000E+00 -0.00000000000E+00 -0.45593999997E+02  0.45594000000E+02  0.51100000000E-03 0.  1.
    9900012    2    1    2    0    0  0.26084548024E+02  0.22105245765E+02 -0.22002624374E+02  0.50528917186E+02  0.30000174277E+02 0.  0.
         12    1    1    2    0    0 -0.26084548024E+02 -0.22105245765E+02  0.22002624374E+02  0.40659082814E+02  0.00000000000E+00 0. -1.
         11    1    3    3    0    0  0.14623834053E+01  0.13308690073E+02 -0.17057716857E+02  0.21684683565E+02  0.51100000000E-03 0. -1.
        -11    1    3    3    0    0  0.21401586447E+02  0.89515056768E+01 -0.78639440729E+01  0.24494876464E+02  0.51100000000E-03 0.  1.
         12    1    3    3    0    0  0.32205781717E+01 -0.15494998415E+00  0.29190365566E+01  0.43493571567E+01  0.00000000000E+00 0. -1.
</event>
<event>
 7    1  0.3054835E-011  0.5052886E+02  0.7816164E-02  0.1300439E+00
        -11   -1    0    0    0    0  0.00000000000E+00  0.00000000000E+00  0.45593999997E+02  0.45594000000E+02  0.51100000000E-03 0.  1.
         11   -1    0    0    0    0 -0.00000000000E+00 -0.00000000000E+00 -0.45593999997E+02  0.45594000000E+02  0.51100000000E-03 0. -1.
    9900012    2    1    2    0    0 -0.34494614232E+02 -0.24329941898E+01 -0.21386163990E+02  0.50528857339E+02  0.29999992366E+02 0.  0.
         12    1    1    2    0    0  0.34494614232E+02  0.24329941898E+01  0.21386163990E+02  0.40659142661E+02  0.00000000000E+00 0. -1.
         11    1    3    3    0    0  0.27971549992E+01  0.11125482079E+01  0.42827251505E+00  0.30406014558E+01  0.51100000000E-03 0. -1.
        -11    1    3    3    0    0 -0.22423892467E+02 -0.11117196434E+02 -0.95830886398E+01  0.26800346977E+02  0.51100000000E-03 0.  1.
        -12    1    3    3    0    0 -0.14867876764E+02  0.75716540358E+01 -0.12231347865E+02  0.20687908906E+02  0.00000000000E+00 0.  1.
</event>
<event>
 7    1  0.3054835E-011  0.5052886E+02  0.7816164E-02  0.1300439E+00
        -11   -1    0    0    0    0  0.00000000000E+00  0.00000000000E+00  0.45593999997E+02  0.45594000000E+02  0.51100000000E-03 0.  1.
         11   -1    0    0    0    0 -0.00000000000E+00 -0.00000000000E+00 -0.45593999997E+02  0.45594000000E+02  0.51100000000E-03 0. -1.
    9900012    2    1    2    0    0  0.52112561677E+00 -0.11882859738E+02  0.38880484091E+02  0.50528856249E+02  0.29999989054E+02 0.  0.
         12    1    1    2    0    0 -0.52112561677E+00  0.11882859738E+02 -0.38880484091E+02  0.40659143751E+02  0.00000000000E+00 0. -1.
         11    1    3    3    0    0  0.41361785426E+01 -0.42757137595E+01 -0.11676288498E+00  0.59500701611E+01  0.51100000000E-03 0. -1.
        -11    1    3    3    0    0 -0.40613595305E+01 -0.11524653921E+02  0.38746894739E+02  0.40627997014E+02  0.51100000000E-03 0.  1.
         12    1    3    3    0    0  0.44630660467E+00  0.39175079421E+01  0.25035223676E+00  0.39507890736E+01  0.00000000000E+00 0. -1.
</event>
<event>
 7    1  0.3054835E-011  0.5052885E+02  0.7816164E-02  0.1300439E+00
        -11   -1    0    0    0    0  0.00000000000E+00  0.00000000000E+00  0.45593999997E+02  0.45594000000E+02  0.51100000000E-03 0.  1.
         11   -1    0    0    0    0 -0.00000000000E+00 -0.00000000000E+00 -0.45593999997E+02  0.45594000000E+02  0.51100000000E-03 0. -1.
    9900012    2    1    2    0    0  0.99585422309E+01 -0.34679712447E+02  0.18743295978E+02  0.50528853884E+02  0.29999981865E+02 0.  0.
         12    1    1    2    0    0 -0.99585422309E+01  0.34679712447E+02 -0.18743295978E+02  0.40659146116E+02  0.00000000000E+00 0. -1.
         11    1    3    3    0    0 -0.11268930772E+01  0.24653295289E+01 -0.18331474755E+01  0.32723336660E+01  0.51100000000E-03 0. -1.
        -11    1    3    3    0    0  0.13821271742E+02 -0.23897997319E+02  0.19269699276E+02  0.33666944305E+02  0.51100000000E-03 0.  1.
         12    1    3    3    0    0 -0.27358364337E+01 -0.13247044657E+02  0.13067441776E+01  0.13589575912E+02  0.00000000000E+00 0. -1.
</event>
<event>
 7    1  0.3054835E-011  0.5052885E+02  0.7816164E-02  0.1300439E+00
        -11   -1    0    0    0    0  0.00000000000E+00  0.00000000000E+00  0.45593999997E+02  0.45594000000E+02  0.51100000000E-03 0. -1.
         11   -1    0    0    0    0 -0.00000000000E+00 -0.00000000000E+00 -0.45593999997E+02  0.45594000000E+02  0.51100000000E-03 0.  1.
    9900012    2    1    2    0    0 -0.90095693674E+01 -0.30807047984E+02 -0.24958359379E+02  0.50528852830E+02  0.29999978663E+02 0.  0.
         12    1    1    2    0    0  0.90095693674E+01  0.30807047984E+02  0.24958359379E+02  0.40659147170E+02  0.00000000000E+00 0. -1.
         11    1    3    3    0    0 -0.11199104589E+02 -0.12778742883E+02 -0.18834218462E+02  0.25366197953E+02  0.51100000000E-03 0. -1.
        -11    1    3    3    0    0  0.30237471097E+01 -0.15569155596E+02 -0.11230711102E+02  0.19433747057E+02  0.51100000000E-03 0.  1.
         12    1    3    3    0    0 -0.83421188801E+00 -0.24591495055E+01  0.51065701846E+01  0.57289078204E+01  0.00000000000E+00 0. -1.
</event>
<event>
 7    1  0.3054835E-011  0.5052887E+02  0.7816164E-02  0.1300439E+00
        -11   -1    0    0    0    0  0.00000000000E+00  0.00000000000E+00  0.45593999997E+02  0.45594000000E+02  0.51100000000E-03 0.  1.
         11   -1    0    0    0    0 -0.00000000000E+00 -0.00000000000E+00 -0.45593999997E+02  0.45594000000E+02  0.51100000000E-03 0. -1.
    9900012    2    1    2    0    0  0.38087325625E+01 -0.35474128609E+02  0.19499861122E+02  0.50528870298E+02  0.30000031758E+02 0.  0.
         12    1    1    2    0    0 -0.38087325625E+01  0.35474128609E+02 -0.19499861122E+02  0.40659129702E+02  0.00000000000E+00 0. -1.
         11    1    3    3    0    0 -0.19649674875E+00 -0.15278769447E+02 -0.54761156475E+01  0.16231674271E+02  0.51100000000E-03 0. -1.
        -11    1    3    3    0    0  0.68978816870E+01 -0.18626922013E+02  0.19065295436E+02  0.27532317116E+02  0.51100000000E-03 0.  1.
         12    1    3    3    0    0 -0.28926523758E+01 -0.15684371490E+01  0.59106813332E+01  0.67648789109E+01  0.00000000000E+00 0. -1.
</event>
<event>
 7    1  0.3054835E-011  0.5052886E+02  0.7816164E-02  0.1300439E+00
        -11   -1    0    0    0    0  0.00000000000E+00  0.00000000000E+00  0.45593999997E+02  0.45594000000E+02  0.51100000000E-03 0.  1.
         11   -1    0    0    0    0 -0.00000000000E+00 -0.00000000000E+00 -0.45593999997E+02  0.45594000000E+02  0.51100000000E-03 0. -1.
    9900012    2    1    2    0    0 -0.21262608444E+02 -0.79729754383E+01  0.33726822589E+02  0.50528863054E+02  0.30000009740E+02 0.  0.
         12    1    1    2    0    0  0.21262608444E+02  0.79729754383E+01 -0.33726822589E+02  0.40659136946E+02  0.00000000000E+00 0. -1.
         11    1    3    3    0    0  0.10300754645E+00 -0.11031976207E+02  0.12181446559E+02  0.16434803015E+02  0.51100000000E-03 0. -1.
        -11    1    3    3    0    0 -0.12216192921E+02  0.55213049867E+01  0.20591888145E+02  0.24571244085E+02  0.51100000000E-03 0.  1.
         12    1    3    3    0    0 -0.91494230692E+01 -0.24623042176E+01  0.95348788506E+00  0.95228159547E+01  0.00000000000E+00 0. -1.
</event>
<event>
 7    1  0.3054835E-011  0.5052885E+02  0.7816164E-02  0.1300439E+00
        -11   -1    0    0    0    0  0.00000000000E+00  0.00000000000E+00  0.45593999997E+02  0.45594000000E+02  0.51100000000E-03 0.  1.
         11   -1    0    0    0    0 -0.00000000000E+00 -0.00000000000E+00 -0.45593999997E+02  0.45594000000E+02  0.51100000000E-03 0. -1.
    9900012    2    1    2    0    0  0.70453281584E+01  0.29866855134E+02  0.26673969589E+02  0.50528851730E+02  0.29999975317E+02 0.  0.
         12    1    1    2    0    0 -0.70453281584E+01 -0.29866855134E+02 -0.26673969589E+02  0.40659148270E+02  0.00000000000E+00 0. -1.
         11    1    3    3    0    0  0.26167261344E+01  0.11805890507E+01  0.27720866778E+01  0.39906780100E+01  0.51100000000E-03 0. -1.
        -11    1    3    3    0    0  0.65647875873E+01  0.13330048761E+02 -0.33066287530E+01  0.15222366111E+02  0.51100000000E-03 0.  1.
        -12    1    3    3    0    0 -0.21361855634E+01  0.15356217322E+02  0.27208511664E+02  0.31315807609E+02  0.00000000000E+00 0.  1.
</event>
<event>
 7    1  0.3054835E-011  0.5052885E+02  0.7816164E-02  0.1300439E+00
        -11   -1    0    0    0    0  0.00000000000E+00  0.00000000000E+00  0.45593999997E+02  0.45594000000E+02  0.51100000000E-03 0. -1.
         11   -1    0    0    0    0 -0.00000000000E+00 -0.00000000000E+00 -0.45593999997E+02  0.45594000000E+02  0.51100000000E-03 0.  1.
    9900012    2    1    2    0    0  0.74134335996E+01 -0.38924465521E+02  0.91155433034E+01  0.50528854122E+02  0.29999982590E+02 0.  0.
         12    1    1    2    0    0 -0.74134335996E+01  0.38924465521E+02 -0.91155433034E+01  0.40659145878E+02  0.00000000000E+00 0. -1.
         11    1    3    3    0    0  0.66339758866E+01 -0.36160095873E+01  0.33558640671E+01  0.82672235543E+01  0.51100000000E-03 0. -1.
        -11    1    3    3    0    0 -0.75822771607E+01 -0.99878806689E+01  0.89496150621E+01  0.15405982514E+02  0.51100000000E-03 0.  1.
        -12    1    3    3    0    0  0.83617348738E+01 -0.25320575264E+02 -0.31899358259E+01  0.26855648054E+02  0.00000000000E+00 0.  1.
</event>
<event>
 7    1  0.3054835E-011  0.5052886E+02  0.7816164E-02  0.1300439E+00
        -11   -1    0    0    0    0  0.00000000000E+00  0.00000000000E+00  0.45593999997E+02  0.45594000000E+02  0.51100000000E-03 0.  1.
         11   -1    0    0    0    0 -0.00000000000E+00 -0.00000000000E+00 -0.45593999997E+02  0.45594000000E+02  0.51100000000E-03 0. -1.
    9900012    2    1    2    0    0  0.19549803542E+02 -0.28560423683E+02 -0.21337127156E+02  0.50528860624E+02  0.30000002353E+02 0.  0.
         12    1    1    2    0    0 -0.19549803542E+02  0.28560423683E+02  0.21337127156E+02  0.40659139376E+02  0.00000000000E+00 0. -1.
         11    1    3    3    0    0  0.20802982099E+01 -0.69218710200E+01  0.46295065134E+01  0.85832552030E+01  0.51100000000E-03 0.  1.
        -11    1    3    3    0    0  0.28368412029E+01 -0.48724121014E+01 -0.17074509831E+02  0.17981294556E+02  0.51100000000E-03 0. -1.
         12    1    3    3    0    0  0.14632664130E+02 -0.16766140562E+02 -0.88921238384E+01  0.23964310865E+02  0.00000000000E+00 0. -1.
</event>
<event>
 7    1  0.3054835E-011  0.5052885E+02  0.7816164E-02  0.1300439E+00
        -11   -1    0    0    0    0  0.00000000000E+00  0.00000000000E+00  0.45593999997E+02  0.45594000000E+02  0.51100000000E-03 0. -1.
         11   -1    0    0    0    0 -0.00000000000E+00 -0.00000000000E+00 -0.45593999997E+02  0.45594000000E+02  0.51100000000E-03 0.  1.
    9900012    2    1    2    0    0 -0.26156651746E+02 -0.11008035573E+02 -0.29117329682E+02  0.50528853851E+02  0.29999981766E+02 0.  0.
         12    1    1    2    0    0  0.26156651746E+02  0.11008035573E+02  0.29117329682E+02  0.40659146149E+02  0.00000000000E+00 0. -1.
         11    1    3    3    0    0 -0.25599831858E+01 -0.14821045398E+01  0.20722652339E+01  0.36117075240E+01  0.51100000000E-03 0. -1.
        -11    1    3    3    0    0 -0.20068283513E+02 -0.15510456714E+02 -0.30882716500E+02  0.39963138632E+02  0.51100000000E-03 0.  1.
        -12    1    3    3    0    0 -0.35283850466E+01  0.59845256806E+01 -0.30687841572E+00  0.69540076949E+01  0.00000000000E+00 0.  1.
</event>
<event>
 7    1  0.3054835E-011  0.5052886E+02  0.7816164E-02  0.1300439E+00
        -11   -1    0    0    0    0  0.00000000000E+00  0.00000000000E+00  0.45593999997E+02  0.45594000000E+02  0.51100000000E-03 0. -1.
         11   -1    0    0    0    0 -0.00000000000E+00 -0.00000000000E+00 -0.45593999997E+02  0.45594000000E+02  0.51100000000E-03 0.  1.
    9900012    2    1    2    0    0  0.26679723080E+02  0.29789684600E+02 -0.73439071600E+01  0.50528857061E+02  0.29999991522E+02 0.  0.
         12    1    1    2    0    0 -0.26679723080E+02 -0.29789684600E+02  0.73439071600E+01  0.40659142939E+02  0.00000000000E+00 0. -1.
         11    1    3    3    0    0 -0.11148894751E+01  0.11337525628E+02  0.16854795745E+00  0.11393457534E+02  0.51100000000E-03 0. -1.
        -11    1    3    3    0    0  0.21065046919E+02  0.30384517840E+01 -0.17417028470E+01  0.21354201460E+02  0.51100000000E-03 0.  1.
        -12    1    3    3    0    0  0.67295656361E+01  0.15413707188E+02 -0.57707522704E+01  0.17781198067E+02  0.00000000000E+00 0.  1.
</event>
<event>
 7    1  0.3054835E-011  0.5052886E+02  0.7816164E-02  0.1300439E+00
        -11   -1    0    0    0    0  0.00000000000E+00  0.00000000000E+00  0.45593999997E+02  0.45594000000E+02  0.51100000000E-03 0.  1.
         11   -1    0    0    0    0 -0.00000000000E+00 -0.00000000000E+00 -0.45593999997E+02  0.45594000000E+02  0.51100000000E-03 0. -1.
    9900012    2    1    2    0    0  0.17577681859E+02 -0.76260671372E+01  0.35861314681E+02  0.50528859697E+02  0.29999999536E+02 0.  0.
         12    1    1    2    0    0 -0.17577681859E+02  0.76260671372E+01 -0.35861314681E+02  0.40659140303E+02  0.00000000000E+00 0. -1.
         11    1    3    3    0    0 -0.14110268049E+01 -0.36541096439E+01  0.25528690196E+02  0.25827457043E+02  0.51100000000E-03 0. -1.
        -11    1    3    3    0    0  0.16881779645E+02  0.10786387945E+01  0.71023971590E+01  0.18346716090E+02  0.51100000000E-03 0.  1.
        -12    1    3    3    0    0  0.21069290191E+01 -0.50505962878E+01  0.32302273256E+01  0.63546865642E+01  0.00000000000E+00 0.  1.
</event>
<event>
 7    1  0.3054835E-011  0.5052885E+02  0.7816164E-02  0.1300439E+00
        -11   -1    0    0    0    0  0.00000000000E+00  0.00000000000E+00  0.45593999997E+02  0.45594000000E+02  0.51100000000E-03 0.  1.
         11   -1    0    0    0    0 -0.00000000000E+00 -0.00000000000E+00 -0.45593999997E+02  0.45594000000E+02  0.51100000000E-03 0. -1.
    9900012    2    1    2    0    0  0.24449812626E+01 -0.23788389230E+02  0.32883148834E+02  0.50528845154E+02  0.29999955331E+02 0.  0.
         12    1    1    2    0    0 -0.24449812626E+01  0.23788389230E+02 -0.32883148834E+02  0.40659154846E+02  0.00000000000E+00 0. -1.
         11    1    3    3    0    0 -0.49739754868E+01  0.25956240416E+01  0.59736109448E+01  0.81952257009E+01  0.51100000000E-03 0. -1.
        -11    1    3    3    0    0 -0.42023139507E+01 -0.17144287964E+02  0.12381326615E+02  0.21561152598E+02  0.51100000000E-03 0.  1.
        -12    1    3    3    0    0  0.11621270700E+02 -0.92397253077E+01  0.14528211274E+02  0.20772466856E+02  0.00000000000E+00 0.  1.
</event>
<event>
 7    1  0.3054835E-011  0.5052886E+02  0.7816164E-02  0.1300439E+00
        -11   -1    0    0    0    0  0.00000000000E+00  0.00000000000E+00  0.45593999997E+02  0.45594000000E+02  0.51100000000E-03 0. -1.
         11   -1    0    0    0    0 -0.00000000000E+00 -0.00000000000E+00 -0.45593999997E+02  0.45594000000E+02  0.51100000000E-03 0.  1.
    9900012    2    1    2    0    0 -0.19816577558E+02 -0.31260718650E+02 -0.16829628268E+02  0.50528860015E+02  0.30000000502E+02 0.  0.
         12    1    1    2    0    0  0.19816577558E+02  0.31260718650E+02  0.16829628268E+02  0.40659139985E+02  0.00000000000E+00 0. -1.
         11    1    3    3    0    0 -0.40455573699E+01  0.42628184055E+01  0.18869187444E+01  0.61724077798E+01  0.51100000000E-03 0. -1.
        -11    1    3    3    0    0 -0.13005929566E+02 -0.17863572386E+02 -0.12753163295E+02  0.25512831998E+02  0.51100000000E-03 0.  1.
         12    1    3    3    0    0 -0.27650906225E+01 -0.17659964670E+02 -0.59633837181E+01  0.18843620237E+02  0.00000000000E+00 0. -1.
</event>
<event>
 7    1  0.3054835E-011  0.5052886E+02  0.7816164E-02  0.1300439E+00
        -11   -1    0    0    0    0  0.00000000000E+00  0.00000000000E+00  0.45593999997E+02  0.45594000000E+02  0.51100000000E-03 0.  1.
         11   -1    0    0    0    0 -0.00000000000E+00 -0.00000000000E+00 -0.45593999997E+02  0.45594000000E+02  0.51100000000E-03 0. -1.
    9900012    2    1    2    0    0  0.23211698418E+02  0.20431770690E+02  0.26399342699E+02  0.50528862135E+02  0.30000006947E+02 0.  0.
         12    1    1    2    0    0 -0.23211698418E+02 -0.20431770690E+02 -0.26399342699E+02  0.40659137865E+02  0.00000000000E+00 0. -1.
         11    1    3    3    0    0 -0.19393002570E+00 -0.65348745696E+00 -0.47354717753E+01  0.47842813366E+01  0.51100000000E-03 0. -1.
        -11    1    3    3    0    0  0.23981327212E+02  0.19671448278E+02  0.31464992611E+02  0.44182753337E+02  0.51100000000E-03 0.  1.
        -12    1    3    3    0    0 -0.57569876818E+00  0.14138098688E+01 -0.33017813697E+00  0.15618274613E+01  0.00000000000E+00 0.  1.
</event>
<event>
 7    1  0.3054835E-011  0.5052887E+02  0.7816164E-02  0.1300439E+00
        -11   -1    0    0    0    0  0.00000000000E+00  0.00000000000E+00  0.45593999997E+02  0.45594000000E+02  0.51100000000E-03 0.  1.
         11   -1    0    0    0    0 -0.00000000000E+00 -0.00000000000E+00 -0.45593999997E+02  0.45594000000E+02  0.51100000000E-03 0. -1.
    9900012    2    1    2    0    0  0.27989500590E+01  0.29624264258E+02  0.27708000630E+02  0.50528874909E+02  0.30000045774E+02 0.  0.
         12    1    1    2    0    0 -0.27989500590E+01 -0.29624264258E+02 -0.27708000630E+02  0.40659125091E+02  0.00000000000E+00 0. -1.
         11    1    3    3    0    0 -0.42932420541E+01  0.19208230992E+01  0.25877497579E+01  0.53682341402E+01  0.51100000000E-03 0. -1.
        -11    1    3    3    0    0  0.11890885065E+02  0.25533642871E+02  0.11260649530E+02  0.30334176996E+02  0.51100000000E-03 0.  1.
        -12    1    3    3    0    0 -0.47986929521E+01  0.21697982872E+01  0.13859601342E+02  0.14826463773E+02  0.00000000000E+00 0.  1.
</event>
<event>
 7    1  0.3054835E-011  0.5052887E+02  0.7816164E-02  0.1300439E+00
        -11   -1    0    0    0    0  0.00000000000E+00  0.00000000000E+00  0.45593999997E+02  0.45594000000E+02  0.51100000000E-03 0.  1.
         11   -1    0    0    0    0 -0.00000000000E+00 -0.00000000000E+00 -0.45593999997E+02  0.45594000000E+02  0.51100000000E-03 0. -1.
    9900012    2    1    2    0    0  0.15739401581E+02  0.15914833484E+02  0.33943391401E+02  0.50528874250E+02  0.30000043770E+02 0.  0.
         12    1    1    2    0    0 -0.15739401581E+02 -0.15914833484E+02 -0.33943391401E+02  0.40659125750E+02  0.00000000000E+00 0. -1.
         11    1    3    3    0    0  0.14441062521E+02  0.16137845841E+02  0.20913674015E+02  0.30105748889E+02  0.51100000000E-03 0. -1.
        -11    1    3    3    0    0  0.22716893868E+01 -0.43586034747E+01  0.14967227646E+02  0.15753599607E+02  0.51100000000E-03 0.  1.
        -12    1    3    3    0    0 -0.97335032632E+00  0.41355911185E+01 -0.19375102598E+01  0.46695257537E+01  0.00000000000E+00 0.  1.
</event>
<event>
 7    1  0.3054835E-011  0.5052887E+02  0.7816164E-02  0.1300439E+00
        -11   -1    0    0    0    0  0.00000000000E+00  0.00000000000E+00  0.45593999997E+02  0.45594000000E+02  0.51100000000E-03 0.  1.
         11   -1    0    0    0    0 -0.00000000000E+00 -0.00000000000E+00 -0.45593999997E+02  0.45594000000E+02  0.51100000000E-03 0. -1.
    9900012    2    1    2    0    0 -0.15813705204E+02 -0.35700049524E+02  0.11340098081E+02  0.50528872701E+02  0.30000039061E+02 0.  0.
         12    1    1    2    0    0  0.15813705204E+02  0.35700049524E+02 -0.11340098081E+02  0.40659127299E+02  0.00000000000E+00 0. -1.
         11    1    3    3    0    0 -0.41068169023E+01 -0.18207123806E+02 -0.64617624597E+01  0.19751447458E+02  0.51100000000E-03 0. -1.
        -11    1    3    3    0    0  0.55764221891E+00 -0.71163940304E+01  0.11469219949E+02  0.13509146358E+02  0.51100000000E-03 0.  1.
         12    1    3    3    0    0 -0.12264530520E+02 -0.10376531688E+02  0.63326405922E+01  0.17268278884E+02  0.00000000000E+00 0. -1.
</event>
<event>
 7    1  0.3054835E-011  0.5052887E+02  0.7816164E-02  0.1300439E+00
        -11   -1    0    0    0    0  0.00000000000E+00  0.00000000000E+00  0.45593999997E+02  0.45594000000E+02  0.51100000000E-03 0.  1.
         11   -1    0    0    0    0 -0.00000000000E+00 -0.00000000000E+00 -0.45593999997E+02  0.45594000000E+02  0.51100000000E-03 0. -1.
    9900012    2    1    2    0    0 -0.31606918358E+02  0.11351795631E+02  0.22919520620E+02  0.50528868460E+02  0.30000026171E+02 0.  0.
         12    1    1    2    0    0  0.31606918358E+02 -0.11351795631E+02 -0.22919520620E+02  0.40659131540E+02  0.00000000000E+00 0. -1.
         11    1    3    3    0    0 -0.76897488922E+01  0.34486539830E+01  0.35732179359E+01  0.91538701650E+01  0.51100000000E-03 0.  1.
        -11    1    3    3    0    0 -0.75826804459E+01  0.16453766843E+02  0.89170599703E+01  0.20192509622E+02  0.51100000000E-03 0. -1.
        -12    1    3    3    0    0 -0.16334489020E+02 -0.85506251954E+01  0.10429242714E+02  0.21182488672E+02  0.00000000000E+00 0.  1.
</event>
<event>
 7    1  0.3054835E-011  0.5052879E+02  0.7816164E-02  0.1300439E+00
        -11   -1    0    0    0    0  0.00000000000E+00  0.00000000000E+00  0.45593999997E+02  0.45594000000E+02  0.51100000000E-03 0.  1.
         11   -1    0    0    0    0 -0.00000000000E+00 -0.00000000000E+00 -0.45593999997E+02  0.45594000000E+02  0.51100000000E-03 0. -1.
    9900012    2    1    2    0    0 -0.40383901143E+02 -0.19867837382E+01 -0.42853439061E+01  0.50528794971E+02  0.29999802795E+02 0.  0.
         12    1    1    2    0    0  0.40383901143E+02  0.19867837382E+01  0.42853439061E+01  0.40659205029E+02  0.00000000000E+00 0. -1.
         11    1    3    3    0    0 -0.81018740790E+00 -0.47223499171E+00  0.69341823166E+01  0.69973062091E+01  0.51100000000E-03 0. -1.
        -11    1    3    3    0    0 -0.32576424740E+02  0.27042342031E+01 -0.45891610640E+01  0.33009040141E+02  0.51100000000E-03 0.  1.
        -12    1    3    3    0    0 -0.69972889948E+01 -0.42187829495E+01 -0.66303651587E+01  0.10522448621E+02  0.00000000000E+00 0.  1.
</event>
<event>
 7    1  0.3054835E-011  0.5052885E+02  0.7816164E-02  0.1300439E+00
        -11   -1    0    0    0    0  0.00000000000E+00  0.00000000000E+00  0.45593999997E+02  0.45594000000E+02  0.51100000000E-03 0.  1.
         11   -1    0    0    0    0 -0.00000000000E+00 -0.00000000000E+00 -0.45593999997E+02  0.45594000000E+02  0.51100000000E-03 0. -1.
    9900012    2    1    2    0    0 -0.28510810586E+02 -0.28323247310E+02  0.61720426289E+01  0.50528846434E+02  0.29999959222E+02 0.  0.
         12    1    1    2    0    0  0.28510810586E+02  0.28323247310E+02 -0.61720426289E+01  0.40659153566E+02  0.00000000000E+00 0. -1.
         11    1    3    3    0    0 -0.20768946611E+02 -0.19222524429E+02 -0.46960973292E+01  0.28686371662E+02  0.51100000000E-03 0. -1.
        -11    1    3    3    0    0  0.30635577380E+00  0.11719270842E+01  0.84920109485E+01  0.85779669597E+01  0.51100000000E-03 0.  1.
        -12    1    3    3    0    0 -0.80482197489E+01 -0.10272649965E+02  0.23761290097E+01  0.13264507812E+02  0.00000000000E+00 0.  1.
</event>
<event>
 7    1  0.3054835E-011  0.5052886E+02  0.7816164E-02  0.1300439E+00
        -11   -1    0    0    0    0  0.00000000000E+00  0.00000000000E+00  0.45593999997E+02  0.45594000000E+02  0.51100000000E-03 0.  1.
         11   -1    0    0    0    0 -0.00000000000E+00 -0.00000000000E+00 -0.45593999997E+02  0.45594000000E+02  0.51100000000E-03 0. -1.
    9900012    2    1    2    0    0 -0.51998092176E+01  0.20654884476E+02  0.34633850577E+02  0.50528857431E+02  0.29999992648E+02 0.  0.
         12    1    1    2    0    0  0.51998092176E+01 -0.20654884476E+02 -0.34633850577E+02  0.40659142569E+02  0.00000000000E+00 0. -1.
         11    1    3    3    0    0 -0.12404597578E+02  0.17220252714E+02  0.34745298822E+02  0.40714210481E+02  0.51100000000E-03 0. -1.
        -11    1    3    3    0    0  0.17339286008E+01  0.18992524129E+01 -0.25587647055E+01  0.36278017035E+01  0.51100000000E-03 0.  1.
        -12    1    3    3    0    0  0.54708597592E+01  0.15353793493E+01  0.24473164606E+01  0.61868452469E+01  0.00000000000E+00 0.  1.
</event>
<event>
 7    1  0.3054835E-011  0.5052886E+02  0.7816164E-02  0.1300439E+00
        -11   -1    0    0    0    0  0.00000000000E+00  0.00000000000E+00  0.45593999997E+02  0.45594000000E+02  0.51100000000E-03 0.  1.
         11   -1    0    0    0    0 -0.00000000000E+00 -0.00000000000E+00 -0.45593999997E+02  0.45594000000E+02  0.51100000000E-03 0. -1.
    9900012    2    1    2    0    0 -0.24490591468E+01  0.37224572347E+02 -0.16170936632E+02  0.50528857502E+02  0.29999992862E+02 0.  0.
         12    1    1    2    0    0  0.24490591468E+01 -0.37224572347E+02  0.16170936632E+02  0.40659142498E+02  0.00000000000E+00 0. -1.
         11    1    3    3    0    0  0.71983797510E+01  0.95745614143E+01 -0.93388067558E+01  0.15188884396E+02  0.51100000000E-03 0. -1.
        -11    1    3    3    0    0 -0.14641237088E+02  0.25116527548E+02 -0.58347081550E+01  0.29652143246E+02  0.51100000000E-03 0.  1.
        -12    1    3    3    0    0  0.49937981902E+01  0.25334833848E+01 -0.99742172068E+00  0.56878298598E+01  0.00000000000E+00 0.  1.
</event>
<event>
 7    1  0.3054835E-011  0.5052884E+02  0.7816164E-02  0.1300439E+00
        -11   -1    0    0    0    0  0.00000000000E+00  0.00000000000E+00  0.45593999997E+02  0.45594000000E+02  0.51100000000E-03 0.  1.
         11   -1    0    0    0    0 -0.00000000000E+00 -0.00000000000E+00 -0.45593999997E+02  0.45594000000E+02  0.51100000000E-03 0. -1.
    9900012    2    1    2    0    0 -0.30430423524E+02 -0.14745343517E+02  0.22577230956E+02  0.50528841266E+02  0.29999943513E+02 0.  0.
         12    1    1    2    0    0  0.30430423524E+02  0.14745343517E+02 -0.22577230956E+02  0.40659158734E+02  0.00000000000E+00 0. -1.
         11    1    3    3    0    0 -0.16841481510E+02  0.53977864737E+01  0.11730240439E+02  0.21221925909E+02  0.51100000000E-03 0. -1.
        -11    1    3    3    0    0 -0.14094442897E+02 -0.16885883929E+02  0.49409169478E+01  0.22543270773E+02  0.51100000000E-03 0.  1.
        -12    1    3    3    0    0  0.50550088228E+00 -0.32572460618E+01  0.59060735696E+01  0.67636445841E+01  0.00000000000E+00 0.  1.
</event>
<event>
 7    1  0.3054835E-011  0.5052886E+02  0.7816164E-02  0.1300439E+00
        -11   -1    0    0    0    0  0.00000000000E+00  0.00000000000E+00  0.45593999997E+02  0.45594000000E+02  0.51100000000E-03 0. -1.
         11   -1    0    0    0    0 -0.00000000000E+00 -0.00000000000E+00 -0.45593999997E+02  0.45594000000E+02  0.51100000000E-03 0.  1.
    9900012    2    1    2    0    0  0.25244706609E+02  0.31346315749E+02 -0.57688142100E+01  0.50528856622E+02  0.29999990189E+02 0.  0.
         12    1    1    2    0    0 -0.25244706609E+02 -0.31346315749E+02  0.57688142100E+01  0.40659143378E+02  0.00000000000E+00 0. -1.
         11    1    3    3    0    0  0.14518586557E+01 -0.26033436444E+01  0.10106256147E+01  0.31474840876E+01  0.51100000000E-03 0. -1.
        -11    1    3    3    0    0  0.26677041237E+02  0.26945395301E+02 -0.11340492249E+01  0.37934218392E+02  0.51100000000E-03 0.  1.
        -12    1    3    3    0    0 -0.28841932837E+01  0.70042640927E+01 -0.56453905999E+01  0.94471541431E+01  0.00000000000E+00 0.  1.
</event>
<event>
 7    1  0.3054835E-011  0.5052885E+02  0.7816164E-02  0.1300439E+00
        -11   -1    0    0    0    0  0.00000000000E+00  0.00000000000E+00  0.45593999997E+02  0.45594000000E+02  0.51100000000E-03 0.  1.
         11   -1    0    0    0    0 -0.00000000000E+00 -0.00000000000E+00 -0.45593999997E+02  0.45594000000E+02  0.51100000000E-03 0. -1.
    9900012    2    1    2    0    0  0.25208779437E+02  0.23198060211E+02  0.21898263890E+02  0.50528849496E+02  0.29999968529E+02 0.  0.
         12    1    1    2    0    0 -0.25208779437E+02 -0.23198060211E+02 -0.21898263890E+02  0.40659150504E+02  0.00000000000E+00 0. -1.
         11    1    3    3    0    0 -0.62646412870E+01  0.47266458808E+01  0.62694050196E+01  0.10044518470E+02  0.51100000000E-03 0. -1.
        -11    1    3    3    0    0  0.13654912197E+02  0.39256032237E+01  0.43023325968E+01  0.14845102014E+02  0.51100000000E-03 0.  1.
         12    1    3    3    0    0  0.17818508527E+02  0.14545811106E+02  0.11326526274E+02  0.25639229012E+02  0.00000000000E+00 0. -1.
</event>
<event>
 7    1  0.3054835E-011  0.5052885E+02  0.7816164E-02  0.1300439E+00
        -11   -1    0    0    0    0  0.00000000000E+00  0.00000000000E+00  0.45593999997E+02  0.45594000000E+02  0.51100000000E-03 0. -1.
         11   -1    0    0    0    0 -0.00000000000E+00 -0.00000000000E+00 -0.45593999997E+02  0.45594000000E+02  0.51100000000E-03 0.  1.
    9900012    2    1    2    0    0  0.24535094331E+02 -0.16240246028E+02 -0.28061540098E+02  0.50528850014E+02  0.29999970103E+02 0.  0.
         12    1    1    2    0    0 -0.24535094331E+02  0.16240246028E+02  0.28061540098E+02  0.40659149986E+02  0.00000000000E+00 0. -1.
         11    1    3    3    0    0  0.43641988055E+01 -0.16293105333E+02 -0.26874426076E+01  0.17080218402E+02  0.51100000000E-03 0. -1.
        -11    1    3    3    0    0  0.39203379590E+01 -0.20140765468E+01 -0.10231951163E+02  0.11140842828E+02  0.51100000000E-03 0.  1.
         12    1    3    3    0    0  0.16250557567E+02  0.20669358525E+01 -0.15142146328E+02  0.22307788785E+02  0.00000000000E+00 0. -1.
</event>
<event>
 7    1  0.3054835E-011  0.5052886E+02  0.7816164E-02  0.1300439E+00
        -11   -1    0    0    0    0  0.00000000000E+00  0.00000000000E+00  0.45593999997E+02  0.45594000000E+02  0.51100000000E-03 0.  1.
         11   -1    0    0    0    0 -0.00000000000E+00 -0.00000000000E+00 -0.45593999997E+02  0.45594000000E+02  0.51100000000E-03 0. -1.
    9900012    2    1    2    0    0 -0.16674506426E+02 -0.26388396229E+02 -0.26053385371E+02  0.50528861921E+02  0.30000006294E+02 0.  0.
         12    1    1    2    0    0  0.16674506426E+02  0.26388396229E+02  0.26053385371E+02  0.40659138079E+02  0.00000000000E+00 0. -1.
         11    1    3    3    0    0 -0.63018949571E+00 -0.12372294166E+01  0.41652479927E+01  0.43905770158E+01  0.51100000000E-03 0. -1.
        -11    1    3    3    0    0  0.19973428847E+01 -0.12780156041E+02 -0.99983205321E+01  0.16348950448E+02  0.51100000000E-03 0.  1.
         12    1    3    3    0    0 -0.18041659815E+02 -0.12371010772E+02 -0.20220312831E+02  0.29789334457E+02  0.00000000000E+00 0. -1.
</event>
<event>
 7    1  0.3054835E-011  0.5052887E+02  0.7816164E-02  0.1300439E+00
        -11   -1    0    0    0    0  0.00000000000E+00  0.00000000000E+00  0.45593999997E+02  0.45594000000E+02  0.51100000000E-03 0. -1.
         11   -1    0    0    0    0 -0.00000000000E+00 -0.00000000000E+00 -0.45593999997E+02  0.45594000000E+02  0.51100000000E-03 0.  1.
    9900012    2    1    2    0    0 -0.74599225723E+01  0.35898467610E+02  0.17573106762E+02  0.50528874299E+02  0.30000043919E+02 0.  0.
         12    1    1    2    0    0  0.74599225723E+01 -0.35898467610E+02 -0.17573106762E+02  0.40659125701E+02  0.00000000000E+00 0. -1.
         11    1    3    3    0    0 -0.12493277221E+01 -0.27456957840E+01 -0.18807940267E+00  0.30224227399E+01  0.51100000000E-03 0. -1.
        -11    1    3    3    0    0 -0.44900670243E+01  0.30394440878E+02  0.34753741353E+01  0.30920235507E+02  0.51100000000E-03 0.  1.
         12    1    3    3    0    0 -0.17205278260E+01  0.82497225160E+01  0.14285812030E+02  0.16586216052E+02  0.00000000000E+00 0. -1.
</event>
<event>
 7    1  0.3054835E-011  0.5052886E+02  0.7816164E-02  0.1300439E+00
        -11   -1    0    0    0    0  0.00000000000E+00  0.00000000000E+00  0.45593999997E+02  0.45594000000E+02  0.51100000000E-03 0. -1.
         11   -1    0    0    0    0 -0.00000000000E+00 -0.00000000000E+00 -0.45593999997E+02  0.45594000000E+02  0.51100000000E-03 0.  1.
    9900012    2    1    2    0    0  0.53183179015E+01  0.40292633688E+02 -0.11768093848E+01  0.50528859390E+02  0.29999998602E+02 0.  0.
         12    1    1    2    0    0 -0.53183179015E+01 -0.40292633688E+02  0.11768093848E+01  0.40659140610E+02  0.00000000000E+00 0. -1.
         11    1    3    3    0    0  0.11102413803E+02  0.69508279378E+01 -0.21656455546E+01  0.13276581721E+02  0.51100000000E-03 0. -1.
        -11    1    3    3    0    0 -0.97555504632E+01  0.20626711555E+02 -0.37300979237E+01  0.23120242758E+02  0.51100000000E-03 0.  1.
         12    1    3    3    0    0  0.39714545616E+01  0.12715094196E+02  0.47189340936E+01  0.14132034911E+02  0.00000000000E+00 0. -1.
</event>
<event>
 7    1  0.3054835E-011  0.5052886E+02  0.7816164E-02  0.1300439E+00
        -11   -1    0    0    0    0  0.00000000000E+00  0.00000000000E+00  0.45593999997E+02  0.45594000000E+02  0.51100000000E-03 0.  1.
         11   -1    0    0    0    0 -0.00000000000E+00 -0.00000000000E+00 -0.45593999997E+02  0.45594000000E+02  0.51100000000E-03 0. -1.
    9900012    2    1    2    0    0  0.20410346429E+02 -0.30823253299E+02  0.16926615941E+02  0.50528861882E+02  0.30000006176E+02 0.  0.
         12    1    1    2    0    0 -0.20410346429E+02  0.30823253299E+02 -0.16926615941E+02  0.40659138118E+02  0.00000000000E+00 0. -1.
         11    1    3    3    0    0  0.80425704052E+01 -0.12828664174E+01 -0.45890324628E+01  0.93481497727E+01  0.51100000000E-03 0. -1.
        -11    1    3    3    0    0  0.11293880742E+02 -0.27247703492E+02  0.12886341387E+02  0.32187682154E+02  0.51100000000E-03 0.  1.
        -12    1    3    3    0    0  0.10738952824E+01 -0.22926833893E+01  0.86293070162E+01  0.89930299555E+01  0.00000000000E+00 0.  1.
</event>
<event>
 7    1  0.3054835E-011  0.5052897E+02  0.7816164E-02  0.1300438E+00
        -11   -1    0    0    0    0  0.00000000000E+00  0.00000000000E+00  0.45593999997E+02  0.45594000000E+02  0.51100000000E-03 0. -1.
         11   -1    0    0    0    0 -0.00000000000E+00 -0.00000000000E+00 -0.45593999997E+02  0.45594000000E+02  0.51100000000E-03 0.  1.
    9900012    2    1    2    0    0  0.23638208190E+02  0.33061220981E+02 -0.11607184881E+01  0.50528972877E+02  0.30000343554E+02 0.  0.
         12    1    1    2    0    0 -0.23638208190E+02 -0.33061220981E+02  0.11607184881E+01  0.40659027123E+02  0.00000000000E+00 0. -1.
         11    1    3    3    0    0 -0.11274220288E+01  0.29240183455E+01  0.31523623839E+01  0.44450368476E+01  0.51100000000E-03 0.  1.
        -11    1    3    3    0    0  0.13596841334E+02  0.28268543437E+02 -0.10625607782E+02  0.33119302277E+02  0.51100000000E-03 0. -1.
        -12    1    3    3    0    0  0.11168788884E+02  0.18686591991E+01  0.63125269101E+01  0.12964633752E+02  0.00000000000E+00 0.  1.
</event>
<event>
 7    1  0.3054835E-011  0.5052886E+02  0.7816164E-02  0.1300439E+00
        -11   -1    0    0    0    0  0.00000000000E+00  0.00000000000E+00  0.45593999997E+02  0.45594000000E+02  0.51100000000E-03 0.  1.
         11   -1    0    0    0    0 -0.00000000000E+00 -0.00000000000E+00 -0.45593999997E+02  0.45594000000E+02  0.51100000000E-03 0. -1.
    9900012    2    1    2    0    0  0.13054907897E+02  0.12346400787E+02  0.36473299033E+02  0.50528858654E+02  0.29999996366E+02 0.  0.
         12    1    1    2    0    0 -0.13054907897E+02 -0.12346400787E+02 -0.36473299033E+02  0.40659141346E+02  0.00000000000E+00 0. -1.
         11    1    3    3    0    0  0.24501834122E+01 -0.16691976141E+01 -0.26665865613E+01  0.39875184737E+01  0.51100000000E-03 0. -1.
        -11    1    3    3    0    0  0.11103600389E+02  0.41634657143E+01  0.32640728004E+02  0.34728108403E+02  0.51100000000E-03 0.  1.
        -12    1    3    3    0    0 -0.49887590372E+00  0.98521326871E+01  0.64991575906E+01  0.11813231778E+02  0.00000000000E+00 0.  1.
</event>
<event>
 7    1  0.3054835E-011  0.5052886E+02  0.7816164E-02  0.1300439E+00
        -11   -1    0    0    0    0  0.00000000000E+00  0.00000000000E+00  0.45593999997E+02  0.45594000000E+02  0.51100000000E-03 0.  1.
         11   -1    0    0    0    0 -0.00000000000E+00 -0.00000000000E+00 -0.45593999997E+02  0.45594000000E+02  0.51100000000E-03 0. -1.
    9900012    2    1    2    0    0  0.50667986734E+00 -0.34463254315E+02  0.21568327161E+02  0.50528863770E+02  0.30000011916E+02 0.  0.
         12    1    1    2    0    0 -0.50667986734E+00  0.34463254315E+02 -0.21568327161E+02  0.40659136230E+02  0.00000000000E+00 0. -1.
         11    1    3    3    0    0  0.58924058546E+01  0.20194835178E+01  0.65652555269E+01  0.90499359571E+01  0.51100000000E-03 0. -1.
        -11    1    3    3    0    0 -0.57277206208E+01 -0.86184784994E+01  0.13123644339E+01  0.10431071653E+02  0.51100000000E-03 0.  1.
         12    1    3    3    0    0  0.34199463360E+00 -0.27864259333E+02  0.13690707200E+02  0.31047856160E+02  0.00000000000E+00 0. -1.
</event>
<event>
 7    1  0.3054835E-011  0.5052886E+02  0.7816164E-02  0.1300439E+00
        -11   -1    0    0    0    0  0.00000000000E+00  0.00000000000E+00  0.45593999997E+02  0.45594000000E+02  0.51100000000E-03 0.  1.
         11   -1    0    0    0    0 -0.00000000000E+00 -0.00000000000E+00 -0.45593999997E+02  0.45594000000E+02  0.51100000000E-03 0. -1.
    9900012    2    1    2    0    0 -0.20679090654E+02 -0.35006884696E+02 -0.24281738753E+00  0.50528859248E+02  0.29999998171E+02 0.  0.
         12    1    1    2    0    0  0.20679090654E+02  0.35006884696E+02  0.24281738753E+00  0.40659140752E+02  0.00000000000E+00 0. -1.
         11    1    3    3    0    0 -0.90926940746E+01  0.89456034984E+00 -0.59495079104E+01  0.10902933935E+02  0.51100000000E-03 0. -1.
        -11    1    3    3    0    0 -0.48067426264E+01 -0.29414933344E+02  0.49408569640E+01  0.30211837847E+02  0.51100000000E-03 0.  1.
        -12    1    3    3    0    0 -0.67796539529E+01 -0.64865117020E+01  0.76583355885E+00  0.94140874662E+01  0.00000000000E+00 0.  1.
</event>
<event>
 7    1  0.3054835E-011  0.5052887E+02  0.7816164E-02  0.1300439E+00
        -11   -1    0    0    0    0  0.00000000000E+00  0.00000000000E+00  0.45593999997E+02  0.45594000000E+02  0.51100000000E-03 0.  1.
         11   -1    0    0    0    0 -0.00000000000E+00 -0.00000000000E+00 -0.45593999997E+02  0.45594000000E+02  0.51100000000E-03 0. -1.
    9900012    2    1    2    0    0 -0.24092842724E+02 -0.10515631963E+02  0.31018084588E+02  0.50528866246E+02  0.30000019442E+02 0.  0.
         12    1    1    2    0    0  0.24092842724E+02  0.10515631963E+02 -0.31018084588E+02  0.40659133754E+02  0.00000000000E+00 0. -1.
         11    1    3    3    0    0 -0.38039505924E+01 -0.40100063853E+01 -0.42896611149E+01  0.69965265712E+01  0.51100000000E-03 0. -1.
        -11    1    3    3    0    0 -0.22240624821E+02 -0.71309131635E+01  0.31580362566E+02  0.39278678886E+02  0.51100000000E-03 0.  1.
         12    1    3    3    0    0  0.19517326895E+01  0.62528758576E+00  0.37273831368E+01  0.42536607886E+01  0.00000000000E+00 0. -1.
</event>
<event>
 7    1  0.3054835E-011  0.5052886E+02  0.7816164E-02  0.1300439E+00
        -11   -1    0    0    0    0  0.00000000000E+00  0.00000000000E+00  0.45593999997E+02  0.45594000000E+02  0.51100000000E-03 0. -1.
         11   -1    0    0    0    0 -0.00000000000E+00 -0.00000000000E+00 -0.45593999997E+02  0.45594000000E+02  0.51100000000E-03 0.  1.
    9900012    2    1    2    0    0  0.38810312864E+02 -0.11893311748E+02 -0.23397605437E+01  0.50528859227E+02  0.29999998108E+02 0.  0.
         12    1    1    2    0    0 -0.38810312864E+02  0.11893311748E+02  0.23397605437E+01  0.40659140773E+02  0.00000000000E+00 0. -1.
         11    1    3    3    0    0  0.65679599715E+01  0.61397500384E+01 -0.87903364345E+01  0.12573966901E+02  0.51100000000E-03 0. -1.
        -11    1    3    3    0    0  0.13786401880E+02 -0.69628057432E+01 -0.14455288655E+00  0.15445596020E+02  0.51100000000E-03 0.  1.
         12    1    3    3    0    0  0.18455951013E+02 -0.11070256043E+02  0.65951287774E+01  0.22509296307E+02  0.00000000000E+00 0. -1.
</event>
<event>
 7    1  0.3054835E-011  0.5052890E+02  0.7816164E-02  0.1300439E+00
        -11   -1    0    0    0    0  0.00000000000E+00  0.00000000000E+00  0.45593999997E+02  0.45594000000E+02  0.51100000000E-03 0. -1.
         11   -1    0    0    0    0 -0.00000000000E+00 -0.00000000000E+00 -0.45593999997E+02  0.45594000000E+02  0.51100000000E-03 0.  1.
    9900012    2    1    2    0    0 -0.35605958063E+02 -0.10563813220E+02  0.16546431653E+02  0.50528895242E+02  0.30000107576E+02 0.  0.
         12    1    1    2    0    0  0.35605958063E+02  0.10563813220E+02 -0.16546431653E+02  0.40659104758E+02  0.00000000000E+00 0. -1.
         11    1    3    3    0    0  0.46263488047E+01 -0.14350772534E+01  0.35659146303E+00  0.48569236888E+01  0.51100000000E-03 0. -1.
        -11    1    3    3    0    0 -0.26119242260E+02 -0.49710225525E+00  0.10857939446E+02  0.28290577515E+02  0.51100000000E-03 0.  1.
         12    1    3    3    0    0 -0.14113064608E+02 -0.86316337111E+01  0.53319007438E+01  0.17381394037E+02  0.00000000000E+00 0. -1.
</event>
<event>
 7    1  0.3054835E-011  0.5052885E+02  0.7816164E-02  0.1300439E+00
        -11   -1    0    0    0    0  0.00000000000E+00  0.00000000000E+00  0.45593999997E+02  0.45594000000E+02  0.51100000000E-03 0.  1.
         11   -1    0    0    0    0 -0.00000000000E+00 -0.00000000000E+00 -0.45593999997E+02  0.45594000000E+02  0.51100000000E-03 0. -1.
    9900012    2    1    2    0    0  0.33117615265E+02  0.23290361229E+02  0.37348377827E+01  0.50528851210E+02  0.29999973739E+02 0.  0.
         12    1    1    2    0    0 -0.33117615265E+02 -0.23290361229E+02 -0.37348377827E+01  0.40659148790E+02  0.00000000000E+00 0. -1.
         11    1    3    3    0    0  0.48725957083E+01 -0.71870795609E+01  0.19230258826E+01  0.88934993314E+01  0.51100000000E-03 0. -1.
        -11    1    3    3    0    0  0.76223533636E+01  0.71827525033E+01  0.44252448939E-01  0.10473498120E+02  0.51100000000E-03 0.  1.
         12    1    3    3    0    0  0.20622666193E+02  0.23294688287E+02  0.17675594512E+01  0.31161853759E+02  0.00000000000E+00 0. -1.
</event>
<event>
 7    1  0.3054835E-011  0.5052886E+02  0.7816164E-02  0.1300439E+00
        -11   -1    0    0    0    0  0.00000000000E+00  0.00000000000E+00  0.45593999997E+02  0.45594000000E+02  0.51100000000E-03 0.  1.
         11   -1    0    0    0    0 -0.00000000000E+00 -0.00000000000E+00 -0.45593999997E+02  0.45594000000E+02  0.51100000000E-03 0. -1.
    9900012    2    1    2    0    0  0.28564036136E+02  0.28770200056E+02  0.30882267510E+01  0.50528859378E+02  0.29999998566E+02 0.  0.
         12    1    1    2    0    0 -0.28564036136E+02 -0.28770200056E+02 -0.30882267510E+01  0.40659140622E+02  0.00000000000E+00 0. -1.
         11    1    3    3    0    0  0.35412078373E+01  0.18918813930E+02 -0.74264582019E+01  0.20630413354E+02  0.51100000000E-03 0. -1.
        -11    1    3    3    0    0  0.19846666055E+02  0.10828309478E+02  0.74503347253E+01  0.23804409832E+02  0.51100000000E-03 0.  1.
        -12    1    3    3    0    0  0.51761622434E+01 -0.97692335124E+00  0.30643502275E+01  0.60940361930E+01  0.00000000000E+00 0.  1.
</event>
<event>
 7    1  0.3054835E-011  0.5052888E+02  0.7816164E-02  0.1300439E+00
        -11   -1    0    0    0    0  0.00000000000E+00  0.00000000000E+00  0.45593999997E+02  0.45594000000E+02  0.51100000000E-03 0. -1.
         11   -1    0    0    0    0 -0.00000000000E+00 -0.00000000000E+00 -0.45593999997E+02  0.45594000000E+02  0.51100000000E-03 0.  1.
    9900012    2    1    2    0    0  0.30839386116E+02  0.90587827649E+01 -0.24900497506E+02  0.50528879778E+02  0.30000060573E+02 0.  0.
         12    1    1    2    0    0 -0.30839386116E+02 -0.90587827649E+01  0.24900497506E+02  0.40659120222E+02  0.00000000000E+00 0. -1.
         11    1    3    3    0    0 -0.11926267857E+01  0.28277732232E+01 -0.23605744996E+01  0.38718176973E+01  0.51100000000E-03 0. -1.
        -11    1    3    3    0    0  0.12466965328E+02 -0.75657978175E+01 -0.16391698073E+02  0.21939787763E+02  0.51100000000E-03 0.  1.
        -12    1    3    3    0    0  0.19565047574E+02  0.13796807359E+02 -0.61482249325E+01  0.24717274318E+02  0.00000000000E+00 0.  1.
</event>
<event>
 7    1  0.3054835E-011  0.5052886E+02  0.7816164E-02  0.1300439E+00
        -11   -1    0    0    0    0  0.00000000000E+00  0.00000000000E+00  0.45593999997E+02  0.45594000000E+02  0.51100000000E-03 0.  1.
         11   -1    0    0    0    0 -0.00000000000E+00 -0.00000000000E+00 -0.45593999997E+02  0.45594000000E+02  0.51100000000E-03 0. -1.
    9900012    2    1    2    0    0 -0.25343099081E+02  0.11889311090E+02  0.29487920716E+02  0.50528857640E+02  0.29999993284E+02 0.  0.
         12    1    1    2    0    0  0.25343099081E+02 -0.11889311090E+02 -0.29487920716E+02  0.40659142360E+02  0.00000000000E+00 0. -1.
         11    1    3    3    0    0 -0.25563975706E+00  0.93657852363E+01  0.54360114353E+01  0.10832059147E+02  0.51100000000E-03 0. -1.
        -11    1    3    3    0    0 -0.13011053396E+02 -0.27486168960E+01  0.12443031448E+01  0.13356297986E+02  0.51100000000E-03 0.  1.
        -12    1    3    3    0    0 -0.12076405928E+02  0.52721427502E+01  0.22807606136E+02  0.26340500508E+02  0.00000000000E+00 0.  1.
</event>
<event>
 7    1  0.3054835E-011  0.5052885E+02  0.7816164E-02  0.1300439E+00
        -11   -1    0    0    0    0  0.00000000000E+00  0.00000000000E+00  0.45593999997E+02  0.45594000000E+02  0.51100000000E-03 0.  1.
         11   -1    0    0    0    0 -0.00000000000E+00 -0.00000000000E+00 -0.45593999997E+02  0.45594000000E+02  0.51100000000E-03 0. -1.
    9900012    2    1    2    0    0 -0.33450570380E+02  0.93615858943E+01  0.21132584682E+02  0.50528854847E+02  0.29999984793E+02 0.  0.
         12    1    1    2    0    0  0.33450570380E+02 -0.93615858943E+01 -0.21132584682E+02  0.40659145153E+02  0.00000000000E+00 0. -1.
         11    1    3    3    0    0 -0.33328722923E+01 -0.53129479269E+01 -0.32885975612E+01  0.70816895986E+01  0.51100000000E-03 0. -1.
        -11    1    3    3    0    0 -0.22306904095E+02  0.10235749353E+02  0.10097449110E+02  0.26539160007E+02  0.51100000000E-03 0.  1.
        -12    1    3    3    0    0 -0.78107939935E+01  0.44387844687E+01  0.14323733133E+02  0.16908005242E+02  0.00000000000E+00 0.  1.
</event>
<event>
 7    1  0.3054835E-011  0.5052878E+02  0.7816164E-02  0.1300439E+00
        -11   -1    0    0    0    0  0.00000000000E+00  0.00000000000E+00  0.45593999997E+02  0.45594000000E+02  0.51100000000E-03 0.  1.
         11   -1    0    0    0    0 -0.00000000000E+00 -0.00000000000E+00 -0.45593999997E+02  0.45594000000E+02  0.51100000000E-03 0. -1.
    9900012    2    1    2    0    0  0.13498609110E+02  0.29118978553E+02  0.24960868958E+02  0.50528777934E+02  0.29999751008E+02 0.  0.
         12    1    1    2    0    0 -0.13498609110E+02 -0.29118978553E+02 -0.24960868958E+02  0.40659222066E+02  0.00000000000E+00 0. -1.
         11    1    3    3    0    0  0.93895054343E+01  0.30318627617E+02  0.10088552562E+02  0.33304067108E+02  0.51100000000E-03 0. -1.
        -11    1    3    3    0    0  0.62631032482E+01 -0.12141117927E+01  0.12405415851E+02  0.13949726608E+02  0.51100000000E-03 0.  1.
         12    1    3    3    0    0 -0.21539995726E+01  0.14462728298E-01  0.24669005452E+01  0.32749842181E+01  0.00000000000E+00 0. -1.
</event>
<event>
 7    1  0.3054835E-011  0.5052886E+02  0.7816164E-02  0.1300439E+00
        -11   -1    0    0    0    0  0.00000000000E+00  0.00000000000E+00  0.45593999997E+02  0.45594000000E+02  0.51100000000E-03 0.  1.
         11   -1    0    0    0    0 -0.00000000000E+00 -0.00000000000E+00 -0.45593999997E+02  0.45594000000E+02  0.51100000000E-03 0. -1.
    9900012    2    1    2    0    0  0.37615952413E+01  0.35754421437E+01  0.40326566770E+02  0.50528863601E+02  0.30000011400E+02 0.  0.
         12    1    1    2    0    0 -0.37615952413E+01 -0.35754421437E+01 -0.40326566770E+02  0.40659136399E+02  0.00000000000E+00 0. -1.
         11    1    3    3    0    0  0.12986286867E+01  0.93388720708E+01  0.53269008841E+01  0.10829443260E+02  0.51100000000E-03 0. -1.
        -11    1    3    3    0    0 -0.33325562075E+00 -0.11520547031E+02  0.16522382663E+02  0.20145053793E+02  0.51100000000E-03 0.  1.
        -12    1    3    3    0    0  0.27962221753E+01  0.57571171035E+01  0.18477283223E+02  0.19554366548E+02  0.00000000000E+00 0.  1.
</event>
<event>
 7    1  0.3054835E-011  0.5052885E+02  0.7816164E-02  0.1300439E+00
        -11   -1    0    0    0    0  0.00000000000E+00  0.00000000000E+00  0.45593999997E+02  0.45594000000E+02  0.51100000000E-03 0.  1.
         11   -1    0    0    0    0 -0.00000000000E+00 -0.00000000000E+00 -0.45593999997E+02  0.45594000000E+02  0.51100000000E-03 0. -1.
    9900012    2    1    2    0    0  0.34401855110E+02  0.12338895368E+02  0.17816590151E+02  0.50528845330E+02  0.29999955864E+02 0.  0.
         12    1    1    2    0    0 -0.34401855110E+02 -0.12338895368E+02 -0.17816590151E+02  0.40659154670E+02  0.00000000000E+00 0. -1.
         11    1    3    3    0    0  0.84670397527E+01 -0.31003450498E+00 -0.61481555702E+01  0.10468366670E+02  0.51100000000E-03 0. -1.
        -11    1    3    3    0    0  0.98671727461E+01  0.12570311160E+02  0.10792151649E+02  0.19283266273E+02  0.51100000000E-03 0.  1.
         12    1    3    3    0    0  0.16067642611E+02  0.78618712916E-01  0.13172594072E+02  0.20777212387E+02  0.00000000000E+00 0. -1.
</event>
<event>
 7    1  0.3054835E-011  0.5052887E+02  0.7816164E-02  0.1300439E+00
        -11   -1    0    0    0    0  0.00000000000E+00  0.00000000000E+00  0.45593999997E+02  0.45594000000E+02  0.51100000000E-03 0.  1.
         11   -1    0    0    0    0 -0.00000000000E+00 -0.00000000000E+00 -0.45593999997E+02  0.45594000000E+02  0.51100000000E-03 0. -1.
    9900012    2    1    2    0    0 -0.17326988831E+02 -0.17189514756E+02  0.32518624108E+02  0.50528869741E+02  0.30000030065E+02 0.  0.
         12    1    1    2    0    0  0.17326988831E+02  0.17189514756E+02 -0.32518624108E+02  0.40659130259E+02  0.00000000000E+00 0. -1.
         11    1    3    3    0    0 -0.15377634490E+02 -0.10045712146E+01  0.61669878151E+01  0.16598570565E+02  0.51100000000E-03 0. -1.
        -11    1    3    3    0    0 -0.12542642404E+01 -0.17648842361E+02  0.17338134554E+02  0.24772277359E+02  0.51100000000E-03 0.  1.
         12    1    3    3    0    0 -0.69509010138E+00  0.14638988199E+01  0.90135017392E+01  0.91580218174E+01  0.00000000000E+00 0. -1.
</event>
<event>
 7    1  0.3054835E-011  0.5052886E+02  0.7816164E-02  0.1300439E+00
        -11   -1    0    0    0    0  0.00000000000E+00  0.00000000000E+00  0.45593999997E+02  0.45594000000E+02  0.51100000000E-03 0. -1.
         11   -1    0    0    0    0 -0.00000000000E+00 -0.00000000000E+00 -0.45593999997E+02  0.45594000000E+02  0.51100000000E-03 0.  1.
    9900012    2    1    2    0    0  0.20479063010E+02 -0.17438483623E+02 -0.30490533202E+02  0.50528863908E+02  0.30000012334E+02 0.  0.
         12    1    1    2    0    0 -0.20479063010E+02  0.17438483623E+02  0.30490533202E+02  0.40659136092E+02  0.00000000000E+00 0. -1.
         11    1    3    3    0    0 -0.89890899956E+00  0.16859867281E+01  0.25022845966E+01  0.31483356080E+01  0.51100000000E-03 0. -1.
        -11    1    3    3    0    0  0.12905497329E+02 -0.18161237501E+02 -0.31714601422E+02  0.38758203680E+02  0.51100000000E-03 0.  1.
        -12    1    3    3    0    0  0.84724746814E+01 -0.96323284947E+00 -0.12782163764E+01  0.86223246201E+01  0.00000000000E+00 0.  1.
</event>
<event>
 7    1  0.3054835E-011  0.5052888E+02  0.7816164E-02  0.1300439E+00
        -11   -1    0    0    0    0  0.00000000000E+00  0.00000000000E+00  0.45593999997E+02  0.45594000000E+02  0.51100000000E-03 0.  1.
         11   -1    0    0    0    0 -0.00000000000E+00 -0.00000000000E+00 -0.45593999997E+02  0.45594000000E+02  0.51100000000E-03 0. -1.
    9900012    2    1    2    0    0  0.85570324804E+01  0.17464437424E+02  0.35706229696E+02  0.50528877794E+02  0.30000054543E+02 0.  0.
         12    1    1    2    0    0 -0.85570324804E+01 -0.17464437424E+02 -0.35706229696E+02  0.40659122206E+02  0.00000000000E+00 0. -1.
         11    1    3    3    0    0 -0.36740730466E+01  0.21651284764E+01  0.21906261042E+02  0.22317501365E+02  0.51100000000E-03 0. -1.
        -11    1    3    3    0    0  0.11064391522E+02  0.16698658229E+02  0.15794886709E+02  0.25509692135E+02  0.51100000000E-03 0.  1.
         12    1    3    3    0    0  0.11667140050E+01 -0.13993492817E+01 -0.19949180545E+01  0.27016842943E+01  0.00000000000E+00 0. -1.
</event>
<event>
 7    1  0.3054835E-011  0.5052885E+02  0.7816164E-02  0.1300439E+00
        -11   -1    0    0    0    0  0.00000000000E+00  0.00000000000E+00  0.45593999997E+02  0.45594000000E+02  0.51100000000E-03 0.  1.
         11   -1    0    0    0    0 -0.00000000000E+00 -0.00000000000E+00 -0.45593999997E+02  0.45594000000E+02  0.51100000000E-03 0. -1.
    9900012    2    1    2    0    0  0.18622427373E+02 -0.36021221275E+02 -0.29738020208E+01  0.50528847502E+02  0.29999962468E+02 0.  0.
         12    1    1    2    0    0 -0.18622427373E+02  0.36021221275E+02  0.29738020208E+01  0.40659152498E+02  0.00000000000E+00 0. -1.
         11    1    3    3    0    0  0.17093834823E+02 -0.29529498353E+02  0.58791214367E+01  0.34623034689E+02  0.51100000000E-03 0. -1.
        -11    1    3    3    0    0  0.57996717055E+01 -0.22351697569E+01 -0.74730065820E+01  0.97199795972E+01  0.51100000000E-03 0.  1.
         12    1    3    3    0    0 -0.42710791557E+01 -0.42565531649E+01 -0.13799168755E+01  0.61858332166E+01  0.00000000000E+00 0. -1.
</event>
<event>
 7    1  0.3054835E-011  0.5052886E+02  0.7816164E-02  0.1300439E+00
        -11   -1    0    0    0    0  0.00000000000E+00  0.00000000000E+00  0.45593999997E+02  0.45594000000E+02  0.51100000000E-03 0.  1.
         11   -1    0    0    0    0 -0.00000000000E+00 -0.00000000000E+00 -0.45593999997E+02  0.45594000000E+02  0.51100000000E-03 0. -1.
    9900012    2    1    2    0    0 -0.18539162535E+02  0.28858525363E+02  0.21832324883E+02  0.50528862731E+02  0.30000008759E+02 0.  0.
         12    1    1    2    0    0  0.18539162535E+02 -0.28858525363E+02 -0.21832324883E+02  0.40659137269E+02  0.00000000000E+00 0. -1.
         11    1    3    3    0    0 -0.12179332935E+02  0.15290723446E+02  0.82951748778E+01  0.21235637518E+02  0.51100000000E-03 0. -1.
        -11    1    3    3    0    0  0.26677692987E+01 -0.40949033751E+01  0.67389378756E+01  0.83245726998E+01  0.51100000000E-03 0.  1.
        -12    1    3    3    0    0 -0.90275988982E+01  0.17662705292E+02  0.67982121293E+01  0.20968652514E+02  0.00000000000E+00 0.  1.
</event>
<event>
 7    1  0.3054835E-011  0.5052887E+02  0.7816164E-02  0.1300439E+00
        -11   -1    0    0    0    0  0.00000000000E+00  0.00000000000E+00  0.45593999997E+02  0.45594000000E+02  0.51100000000E-03 0.  1.
         11   -1    0    0    0    0 -0.00000000000E+00 -0.00000000000E+00 -0.45593999997E+02  0.45594000000E+02  0.51100000000E-03 0. -1.
    9900012    2    1    2    0    0  0.78870411475E+01  0.31561482971E+02  0.24389174921E+02  0.50528874595E+02  0.30000044819E+02 0.  0.
         12    1    1    2    0    0 -0.78870411475E+01 -0.31561482971E+02 -0.24389174921E+02  0.40659125405E+02  0.00000000000E+00 0. -1.
         11    1    3    3    0    0  0.44526412141E+01  0.10911172815E+02 -0.25214581576E+01  0.12051450430E+02  0.51100000000E-03 0. -1.
        -11    1    3    3    0    0 -0.46635390439E+01  0.14471352648E+02  0.22990116573E+02  0.27562911751E+02  0.51100000000E-03 0.  1.
        -12    1    3    3    0    0  0.80979389774E+01  0.61789575080E+01  0.39205165060E+01  0.10914512414E+02  0.00000000000E+00 0.  1.
</event>
<event>
 7    1  0.3054835E-011  0.5052885E+02  0.7816164E-02  0.1300439E+00
        -11   -1    0    0    0    0  0.00000000000E+00  0.00000000000E+00  0.45593999997E+02  0.45594000000E+02  0.51100000000E-03 0.  1.
         11   -1    0    0    0    0 -0.00000000000E+00 -0.00000000000E+00 -0.45593999997E+02  0.45594000000E+02  0.51100000000E-03 0. -1.
    9900012    2    1    2    0    0  0.17203149935E+02  0.22019283649E+02  0.29535898089E+02  0.50528849788E+02  0.29999969414E+02 0.  0.
         12    1    1    2    0    0 -0.17203149935E+02 -0.22019283649E+02 -0.29535898089E+02  0.40659150212E+02  0.00000000000E+00 0. -1.
         11    1    3    3    0    0 -0.39482950434E+01  0.13628212381E+02  0.21408817302E+02  0.25683743205E+02  0.51100000000E-03 0. -1.
        -11    1    3    3    0    0  0.13428435779E+02  0.60460604177E+01  0.80291307008E+01  0.16773332231E+02  0.51100000000E-03 0.  1.
         12    1    3    3    0    0  0.77230091987E+01  0.23450108507E+01  0.97950085322E-01  0.80717743522E+01  0.00000000000E+00 0. -1.
</event>
<event>
 7    1  0.3054835E-011  0.5052886E+02  0.7816164E-02  0.1300439E+00
        -11   -1    0    0    0    0  0.00000000000E+00  0.00000000000E+00  0.45593999997E+02  0.45594000000E+02  0.51100000000E-03 0.  1.
         11   -1    0    0    0    0 -0.00000000000E+00 -0.00000000000E+00 -0.45593999997E+02  0.45594000000E+02  0.51100000000E-03 0. -1.
    9900012    2    1    2    0    0 -0.35928911660E+02  0.15732944045E+02  0.10712314132E+02  0.50528857172E+02  0.29999991861E+02 0.  0.
         12    1    1    2    0    0  0.35928911660E+02 -0.15732944045E+02 -0.10712314132E+02  0.40659142828E+02  0.00000000000E+00 0. -1.
         11    1    3    3    0    0  0.26655525066E+01  0.94003584562E+01  0.38560997002E+01  0.10504352166E+02  0.51100000000E-03 0. -1.
        -11    1    3    3    0    0 -0.27197613795E+02  0.50154015615E+01  0.70858383035E+01  0.28549493054E+02  0.51100000000E-03 0.  1.
         12    1    3    3    0    0 -0.11396850372E+02  0.13171840272E+01 -0.22962387174E+00  0.11475011952E+02  0.00000000000E+00 0. -1.
</event>
<event>
 7    1  0.3054835E-011  0.5052880E+02  0.7816164E-02  0.1300439E+00
        -11   -1    0    0    0    0  0.00000000000E+00  0.00000000000E+00  0.45593999997E+02  0.45594000000E+02  0.51100000000E-03 0.  1.
         11   -1    0    0    0    0 -0.00000000000E+00 -0.00000000000E+00 -0.45593999997E+02  0.45594000000E+02  0.51100000000E-03 0. -1.
    9900012    2    1    2    0    0 -0.32067534016E+02 -0.21197837825E+02  0.13247471952E+02  0.50528799572E+02  0.29999816778E+02 0.  0.
         12    1    1    2    0    0  0.32067534016E+02  0.21197837825E+02 -0.13247471952E+02  0.40659200428E+02  0.00000000000E+00 0. -1.
         11    1    3    3    0    0  0.24760440579E+01 -0.12726964595E+02  0.36934227449E+01  0.13481386939E+02  0.51100000000E-03 0. -1.
        -11    1    3    3    0    0 -0.62900991460E+01 -0.24126332659E-01  0.20912433495E+01  0.66286671628E+01  0.51100000000E-03 0.  1.
         12    1    3    3    0    0 -0.28253478928E+02 -0.84467468976E+01  0.74628058572E+01  0.30418745470E+02  0.00000000000E+00 0. -1.
</event>
<event>
 7    1  0.3054835E-011  0.5052886E+02  0.7816164E-02  0.1300439E+00
        -11   -1    0    0    0    0  0.00000000000E+00  0.00000000000E+00  0.45593999997E+02  0.45594000000E+02  0.51100000000E-03 0.  1.
         11   -1    0    0    0    0 -0.00000000000E+00 -0.00000000000E+00 -0.45593999997E+02  0.45594000000E+02  0.51100000000E-03 0. -1.
    9900012    2    1    2    0    0 -0.27103440633E+02 -0.49521114978E+01  0.29900596970E+02  0.50528860786E+02  0.30000002845E+02 0.  0.
         12    1    1    2    0    0  0.27103440633E+02  0.49521114978E+01 -0.29900596970E+02  0.40659139214E+02  0.00000000000E+00 0. -1.
         11    1    3    3    0    0 -0.49163508400E+01  0.18159759590E+01 -0.23034648700E+01  0.57248777222E+01  0.51100000000E-03 0. -1.
        -11    1    3    3    0    0 -0.20821247594E+02 -0.31249201984E+01  0.34403376836E+02  0.40334623038E+02  0.51100000000E-03 0.  1.
        -12    1    3    3    0    0 -0.13658421993E+01 -0.36431672585E+01 -0.21993149963E+01  0.44693600258E+01  0.00000000000E+00 0.  1.
</event>
<event>
 7    1  0.3054835E-011  0.5052879E+02  0.7816164E-02  0.1300439E+00
        -11   -1    0    0    0    0  0.00000000000E+00  0.00000000000E+00  0.45593999997E+02  0.45594000000E+02  0.51100000000E-03 0.  1.
         11   -1    0    0    0    0 -0.00000000000E+00 -0.00000000000E+00 -0.45593999997E+02  0.45594000000E+02  0.51100000000E-03 0. -1.
    9900012    2    1    2    0    0  0.80954743808E+01 -0.31486530538E+02  0.24417891147E+02  0.50528785560E+02  0.29999774188E+02 0.  0.
         12    1    1    2    0    0 -0.80954743808E+01  0.31486530538E+02 -0.24417891147E+02  0.40659214440E+02  0.00000000000E+00 0. -1.
         11    1    3    3    0    0  0.99555346331E+01 -0.30624247311E+02  0.22893496014E+02  0.39510370198E+02  0.51100000000E-03 0. -1.
        -11    1    3    3    0    0 -0.24660845809E+01 -0.61748026255E+00  0.59889978284E+01  0.65062239651E+01  0.51100000000E-03 0.  1.
         12    1    3    3    0    0  0.60602432861E+00 -0.24480296466E+00 -0.44646026949E+01  0.45121913969E+01  0.00000000000E+00 0. -1.
</event>
<event>
 7    1  0.3054835E-011  0.5052887E+02  0.7816164E-02  0.1300439E+00
        -11   -1    0    0    0    0  0.00000000000E+00  0.00000000000E+00  0.45593999997E+02  0.45594000000E+02  0.51100000000E-03 0.  1.
         11   -1    0    0    0    0 -0.00000000000E+00 -0.00000000000E+00 -0.45593999997E+02  0.45594000000E+02  0.51100000000E-03 0. -1.
    9900012    2    1    2    0    0 -0.19784351258E+02  0.28671077778E+02  0.20969357648E+02  0.50528865530E+02  0.30000017265E+02 0.  0.
         12    1    1    2    0    0  0.19784351258E+02 -0.28671077778E+02 -0.20969357648E+02  0.40659134470E+02  0.00000000000E+00 0. -1.
         11    1    3    3    0    0 -0.29052709380E+01  0.36913585305E+01 -0.57978161559E+01  0.74619970157E+01  0.51100000000E-03 0. -1.
        -11    1    3    3    0    0 -0.19437095088E+02  0.23546406505E+02  0.25817490667E+02  0.39984706443E+02  0.51100000000E-03 0.  1.
        -12    1    3    3    0    0  0.25580147677E+01  0.14333127425E+01  0.94968313740E+00  0.30821620709E+01  0.00000000000E+00 0.  1.
</event>
<event>
 7    1  0.3054835E-011  0.5052885E+02  0.7816164E-02  0.1300439E+00
        -11   -1    0    0    0    0  0.00000000000E+00  0.00000000000E+00  0.45593999997E+02  0.45594000000E+02  0.51100000000E-03 0. -1.
         11   -1    0    0    0    0 -0.00000000000E+00 -0.00000000000E+00 -0.45593999997E+02  0.45594000000E+02  0.51100000000E-03 0.  1.
    9900012    2    1    2    0    0  0.26051317267E+02  0.12678770356E+02 -0.28526197763E+02  0.50528852101E+02  0.29999976445E+02 0.  0.
         12    1    1    2    0    0 -0.26051317267E+02 -0.12678770356E+02  0.28526197763E+02  0.40659147899E+02  0.00000000000E+00 0. -1.
         11    1    3    3    0    0 -0.25667734190E+01  0.26516486964E+01  0.31823343525E+00  0.37041651385E+01  0.51100000000E-03 0. -1.
        -11    1    3    3    0    0  0.27289562871E+02  0.87061612049E+01 -0.14036870065E+02  0.31899078452E+02  0.51100000000E-03 0.  1.
        -12    1    3    3    0    0  0.13285278151E+01  0.13209604546E+01 -0.14807561133E+02  0.14925608510E+02  0.00000000000E+00 0.  1.
</event>
<event>
 7    1  0.3054835E-011  0.5052886E+02  0.7816164E-02  0.1300439E+00
        -11   -1    0    0    0    0  0.00000000000E+00  0.00000000000E+00  0.45593999997E+02  0.45594000000E+02  0.51100000000E-03 0.  1.
         11   -1    0    0    0    0 -0.00000000000E+00 -0.00000000000E+00 -0.45593999997E+02  0.45594000000E+02  0.51100000000E-03 0. -1.
    9900012    2    1    2    0    0  0.40086742026E+02  0.61206941112E+01  0.29590189823E+01  0.50528861101E+02  0.30000003802E+02 0.  0.
         12    1    1    2    0    0 -0.40086742026E+02 -0.61206941112E+01 -0.29590189823E+01  0.40659138899E+02  0.00000000000E+00 0. -1.
         11    1    3    3    0    0  0.26585422170E+02  0.12681392665E+02 -0.29181856621E+01  0.29599293905E+02  0.51100000000E-03 0.  1.
        -11    1    3    3    0    0  0.64122563208E+01 -0.34571609063E+01  0.98337591109E+01  0.12238129398E+02  0.51100000000E-03 0. -1.
        -12    1    3    3    0    0  0.70890635357E+01 -0.31035376471E+01 -0.39565544664E+01  0.86914377974E+01  0.00000000000E+00 0.  1.
</event>
<event>
 7    1  0.3054835E-011  0.5052886E+02  0.7816164E-02  0.1300439E+00
        -11   -1    0    0    0    0  0.00000000000E+00  0.00000000000E+00  0.45593999997E+02  0.45594000000E+02  0.51100000000E-03 0.  1.
         11   -1    0    0    0    0 -0.00000000000E+00 -0.00000000000E+00 -0.45593999997E+02  0.45594000000E+02  0.51100000000E-03 0. -1.
    9900012    2    1    2    0    0  0.12249704268E+02 -0.59815620154E+01  0.38305759771E+02  0.50528861170E+02  0.30000004012E+02 0.  0.
         12    1    1    2    0    0 -0.12249704268E+02  0.59815620154E+01 -0.38305759771E+02  0.40659138830E+02  0.00000000000E+00 0. -1.
         11    1    3    3    0    0 -0.62902348165E+01 -0.23750144755E+01  0.65020170766E+00  0.67550359234E+01  0.51100000000E-03 0. -1.
        -11    1    3    3    0    0  0.17686684814E+02 -0.22132735888E+01  0.23352837240E+02  0.29378094001E+02  0.51100000000E-03 0.  1.
        -12    1    3    3    0    0  0.85325427045E+00 -0.13932739511E+01  0.14302720823E+02  0.14395731245E+02  0.00000000000E+00 0.  1.
</event>
<event>
 7    1  0.3054835E-011  0.5052886E+02  0.7816164E-02  0.1300439E+00
        -11   -1    0    0    0    0  0.00000000000E+00  0.00000000000E+00  0.45593999997E+02  0.45594000000E+02  0.51100000000E-03 0.  1.
         11   -1    0    0    0    0 -0.00000000000E+00 -0.00000000000E+00 -0.45593999997E+02  0.45594000000E+02  0.51100000000E-03 0. -1.
    9900012    2    1    2    0    0  0.10593701590E+02 -0.17882116627E+02  0.34945226108E+02  0.50528862820E+02  0.30000009029E+02 0.  0.
         12    1    1    2    0    0 -0.10593701590E+02  0.17882116627E+02 -0.34945226108E+02  0.40659137180E+02  0.00000000000E+00 0. -1.
         11    1    3    3    0    0 -0.41210016958E+01 -0.20432433409E+02  0.18841791032E+02  0.28097688153E+02  0.51100000000E-03 0. -1.
        -11    1    3    3    0    0  0.93604405350E+01  0.29879480118E+01  0.12755599091E+02  0.16101272893E+02  0.51100000000E-03 0.  1.
         12    1    3    3    0    0  0.53542627504E+01 -0.43763123045E+00  0.33478359848E+01  0.63299017746E+01  0.00000000000E+00 0. -1.
</event>
<event>
 7    1  0.3054835E-011  0.5052886E+02  0.7816164E-02  0.1300439E+00
        -11   -1    0    0    0    0  0.00000000000E+00  0.00000000000E+00  0.45593999997E+02  0.45594000000E+02  0.51100000000E-03 0.  1.
         11   -1    0    0    0    0 -0.00000000000E+00 -0.00000000000E+00 -0.45593999997E+02  0.45594000000E+02  0.51100000000E-03 0. -1.
    9900012    2    1    2    0    0 -0.13636570629E+02  0.10648190611E+02  0.36794370861E+02  0.50528858975E+02  0.29999997340E+02 0.  0.
         12    1    1    2    0    0  0.13636570629E+02 -0.10648190611E+02 -0.36794370861E+02  0.40659141025E+02  0.00000000000E+00 0. -1.
         11    1    3    3    0    0 -0.14213744138E+02  0.13170214627E+02  0.84705050054E+01  0.21147920254E+02  0.51100000000E-03 0. -1.
        -11    1    3    3    0    0  0.49927249312E+00  0.25445704424E+01  0.12478178176E+02  0.12744765302E+02  0.51100000000E-03 0.  1.
         12    1    3    3    0    0  0.77901015643E-01 -0.50665944584E+01  0.15845687680E+02  0.16636173419E+02  0.00000000000E+00 0. -1.
</event>
<event>
 7    1  0.3054835E-011  0.5052885E+02  0.7816164E-02  0.1300439E+00
        -11   -1    0    0    0    0  0.00000000000E+00  0.00000000000E+00  0.45593999997E+02  0.45594000000E+02  0.51100000000E-03 0.  1.
         11   -1    0    0    0    0 -0.00000000000E+00 -0.00000000000E+00 -0.45593999997E+02  0.45594000000E+02  0.51100000000E-03 0. -1.
    9900012    2    1    2    0    0  0.22066827138E+02  0.92027974309E+01  0.32886620730E+02  0.50528853876E+02  0.29999981841E+02 0.  0.
         12    1    1    2    0    0 -0.22066827138E+02 -0.92027974309E+01 -0.32886620730E+02  0.40659146124E+02  0.00000000000E+00 0. -1.
         11    1    3    3    0    0  0.78326482509E+01  0.70369207473E+00  0.26260281003E+01  0.82910545169E+01  0.51100000000E-03 0. -1.
        -11    1    3    3    0    0  0.92485798043E+01  0.17145064991E+02  0.19587299555E+02  0.27625202010E+02  0.51100000000E-03 0.  1.
        -12    1    3    3    0    0  0.49855990829E+01 -0.86459596352E+01  0.10673293075E+02  0.14612597349E+02  0.00000000000E+00 0.  1.
</event>
<event>
 7    1  0.3054835E-011  0.5052885E+02  0.7816164E-02  0.1300439E+00
        -11   -1    0    0    0    0  0.00000000000E+00  0.00000000000E+00  0.45593999997E+02  0.45594000000E+02  0.51100000000E-03 0.  1.
         11   -1    0    0    0    0 -0.00000000000E+00 -0.00000000000E+00 -0.45593999997E+02  0.45594000000E+02  0.51100000000E-03 0. -1.
    9900012    2    1    2    0    0 -0.12430222150E+01 -0.39761851954E+02  0.84033757504E+01  0.50528847291E+02  0.29999961826E+02 0.  0.
         12    1    1    2    0    0  0.12430222150E+01  0.39761851954E+02 -0.84033757504E+01  0.40659152709E+02  0.00000000000E+00 0. -1.
         11    1    3    3    0    0  0.19891182242E+01 -0.34929372138E+02  0.15244549757E+01  0.35019160363E+02  0.51100000000E-03 0. -1.
        -11    1    3    3    0    0 -0.56890508809E+01 -0.71568435221E+01  0.77852823980E+01  0.12008177689E+02  0.51100000000E-03 0.  1.
         12    1    3    3    0    0  0.24569104417E+01  0.23243637069E+01 -0.90636162327E+00  0.35015092392E+01  0.00000000000E+00 0. -1.
</event>
<event>
 7    1  0.3054835E-011  0.5052887E+02  0.7816164E-02  0.1300439E+00
        -11   -1    0    0    0    0  0.00000000000E+00  0.00000000000E+00  0.45593999997E+02  0.45594000000E+02  0.51100000000E-03 0. -1.
         11   -1    0    0    0    0 -0.00000000000E+00 -0.00000000000E+00 -0.45593999997E+02  0.45594000000E+02  0.51100000000E-03 0.  1.
    9900012    2    1    2    0    0  0.40311304914E+02 -0.38942009365E+01 -0.36054277856E+01  0.50528865549E+02  0.30000017322E+02 0.  0.
         12    1    1    2    0    0 -0.40311304914E+02  0.38942009365E+01  0.36054277856E+01  0.40659134451E+02  0.00000000000E+00 0. -1.
         11    1    3    3    0    0  0.15649746611E+01  0.55780056459E+01 -0.69415819400E+01  0.90415072177E+01  0.51100000000E-03 0.  1.
        -11    1    3    3    0    0  0.25294431721E+02 -0.20827057762E+01 -0.14190794598E+01  0.25419672032E+02  0.51100000000E-03 0. -1.
         12    1    3    3    0    0  0.13451898532E+02 -0.73895008061E+01  0.47552336142E+01  0.16067686299E+02  0.00000000000E+00 0. -1.
</event>
<event>
 7    1  0.3054835E-011  0.5052885E+02  0.7816164E-02  0.1300439E+00
        -11   -1    0    0    0    0  0.00000000000E+00  0.00000000000E+00  0.45593999997E+02  0.45594000000E+02  0.51100000000E-03 0.  1.
         11   -1    0    0    0    0 -0.00000000000E+00 -0.00000000000E+00 -0.45593999997E+02  0.45594000000E+02  0.51100000000E-03 0. -1.
    9900012    2    1    2    0    0  0.33339980746E+02  0.22547219348E+02 -0.57649853482E+01  0.50528850076E+02  0.29999970291E+02 0.  0.
         12    1    1    2    0    0 -0.33339980746E+02 -0.22547219348E+02  0.57649853482E+01  0.40659149924E+02  0.00000000000E+00 0. -1.
         11    1    3    3    0    0  0.12702070795E+02 -0.46555821030E+01  0.27603930680E+01  0.13807129222E+02  0.51100000000E-03 0. -1.
        -11    1    3    3    0    0  0.21257931271E+02  0.22422799262E+02 -0.73145419312E+01  0.31751914786E+02  0.51100000000E-03 0.  1.
         12    1    3    3    0    0 -0.62002131900E+00  0.47800021894E+01 -0.12108364849E+01  0.49698060686E+01  0.00000000000E+00 0. -1.
</event>
<event>
 7    1  0.3054835E-011  0.5052886E+02  0.7816164E-02  0.1300439E+00
        -11   -1    0    0    0    0  0.00000000000E+00  0.00000000000E+00  0.45593999997E+02  0.45594000000E+02  0.51100000000E-03 0. -1.
         11   -1    0    0    0    0 -0.00000000000E+00 -0.00000000000E+00 -0.45593999997E+02  0.45594000000E+02  0.51100000000E-03 0.  1.
    9900012    2    1    2    0    0  0.13624436117E+02 -0.68079416091E+01 -0.37698709095E+02  0.50528855938E+02  0.29999988109E+02 0.  0.
         12    1    1    2    0    0 -0.13624436117E+02  0.68079416091E+01  0.37698709095E+02  0.40659144062E+02  0.00000000000E+00 0. -1.
         11    1    3    3    0    0  0.17441341386E+02 -0.60029273901E+01 -0.14493901619E+02  0.23458659616E+02  0.51100000000E-03 0. -1.
        -11    1    3    3    0    0  0.20994994485E+01  0.27041494916E+01 -0.18310768171E+02  0.18628058237E+02  0.51100000000E-03 0.  1.
         12    1    3    3    0    0 -0.59164047176E+01 -0.35091637106E+01 -0.48940393048E+01  0.84421380851E+01  0.00000000000E+00 0. -1.
</event>
<event>
 7    1  0.3054835E-011  0.5052886E+02  0.7816164E-02  0.1300439E+00
        -11   -1    0    0    0    0  0.00000000000E+00  0.00000000000E+00  0.45593999997E+02  0.45594000000E+02  0.51100000000E-03 0.  1.
         11   -1    0    0    0    0 -0.00000000000E+00 -0.00000000000E+00 -0.45593999997E+02  0.45594000000E+02  0.51100000000E-03 0. -1.
    9900012    2    1    2    0    0 -0.23637491965E+02 -0.26025544147E+01  0.32979713620E+02  0.50528858022E+02  0.29999994445E+02 0.  0.
         12    1    1    2    0    0  0.23637491965E+02  0.26025544147E+01 -0.32979713620E+02  0.40659141978E+02  0.00000000000E+00 0. -1.
         11    1    3    3    0    0 -0.20993345517E+02 -0.12464350405E+02  0.23726715469E+02  0.34044641490E+02  0.51100000000E-03 0. -1.
        -11    1    3    3    0    0  0.14062635402E+01  0.56866087148E+01  0.37458152966E+00  0.58698728609E+01  0.51100000000E-03 0.  1.
         12    1    3    3    0    0 -0.40504099889E+01  0.41751872754E+01  0.88784166216E+01  0.10614343671E+02  0.00000000000E+00 0. -1.
</event>
<event>
 7    1  0.3054835E-011  0.5052886E+02  0.7816164E-02  0.1300439E+00
        -11   -1    0    0    0    0  0.00000000000E+00  0.00000000000E+00  0.45593999997E+02  0.45594000000E+02  0.51100000000E-03 0.  1.
         11   -1    0    0    0    0 -0.00000000000E+00 -0.00000000000E+00 -0.45593999997E+02  0.45594000000E+02  0.51100000000E-03 0. -1.
    9900012    2    1    2    0    0  0.13851111072E+02 -0.18235748121E+02  0.33597174823E+02  0.50528856581E+02  0.29999990064E+02 0.  0.
         12    1    1    2    0    0 -0.13851111072E+02  0.18235748121E+02 -0.33597174823E+02  0.40659143419E+02  0.00000000000E+00 0. -1.
         11    1    3    3    0    0  0.10734209576E+02  0.65098598188E+00 -0.62930087586E-01  0.10754115418E+02  0.51100000000E-03 0. -1.
        -11    1    3    3    0    0  0.60415543632E+01 -0.15902148984E+02  0.27125372701E+02  0.32018191171E+02  0.51100000000E-03 0.  1.
        -12    1    3    3    0    0 -0.29246528670E+01 -0.29845851195E+01  0.65347322091E+01  0.77565499916E+01  0.00000000000E+00 0.  1.
</event>
<event>
 7    1  0.3054835E-011  0.5052885E+02  0.7816164E-02  0.1300439E+00
        -11   -1    0    0    0    0  0.00000000000E+00  0.00000000000E+00  0.45593999997E+02  0.45594000000E+02  0.51100000000E-03 0.  1.
         11   -1    0    0    0    0 -0.00000000000E+00 -0.00000000000E+00 -0.45593999997E+02  0.45594000000E+02  0.51100000000E-03 0. -1.
    9900012    2    1    2    0    0  0.38784526917E+02 -0.99837686359E+01  0.70178992470E+01  0.50528854975E+02  0.29999985182E+02 0.  0.
         12    1    1    2    0    0 -0.38784526917E+02  0.99837686359E+01 -0.70178992470E+01  0.40659145025E+02  0.00000000000E+00 0. -1.
         11    1    3    3    0    0  0.32625725883E+02 -0.11567357761E+02  0.39835113446E+01  0.34844082968E+02  0.51100000000E-03 0.  1.
        -11    1    3    3    0    0 -0.26230475503E+01 -0.18893721563E+00 -0.36558289290E+01  0.45034610182E+01  0.51100000000E-03 0. -1.
         12    1    3    3    0    0  0.87818485841E+01  0.17725263408E+01  0.66902168314E+01  0.11181310989E+02  0.00000000000E+00 0. -1.
</event>
<event>
 7    1  0.3054835E-011  0.5052886E+02  0.7816164E-02  0.1300439E+00
        -11   -1    0    0    0    0  0.00000000000E+00  0.00000000000E+00  0.45593999997E+02  0.45594000000E+02  0.51100000000E-03 0. -1.
         11   -1    0    0    0    0 -0.00000000000E+00 -0.00000000000E+00 -0.45593999997E+02  0.45594000000E+02  0.51100000000E-03 0.  1.
    9900012    2    1    2    0    0  0.60386971117E+01  0.29941590146E+02  0.26836562714E+02  0.50528858573E+02  0.29999996120E+02 0.  0.
         12    1    1    2    0    0 -0.60386971117E+01 -0.29941590146E+02 -0.26836562714E+02  0.40659141427E+02  0.00000000000E+00 0. -1.
         11    1    3    3    0    0 -0.13951847659E+01 -0.36765329530E+01  0.76229098709E+01  0.85774232872E+01  0.51100000000E-03 0. -1.
        -11    1    3    3    0    0  0.24001655322E+01  0.26292601729E+02  0.78891682540E+01  0.27555411016E+02  0.51100000000E-03 0.  1.
         12    1    3    3    0    0  0.50337163455E+01  0.73255213698E+01  0.11324484589E+02  0.14396024270E+02  0.00000000000E+00 0. -1.
</event>
<event>
 7    1  0.3054835E-011  0.5052886E+02  0.7816164E-02  0.1300439E+00
        -11   -1    0    0    0    0  0.00000000000E+00  0.00000000000E+00  0.45593999997E+02  0.45594000000E+02  0.51100000000E-03 0.  1.
         11   -1    0    0    0    0 -0.00000000000E+00 -0.00000000000E+00 -0.45593999997E+02  0.45594000000E+02  0.51100000000E-03 0. -1.
    9900012    2    1    2    0    0  0.33247998056E+02  0.23145158019E+02 -0.34695855278E+01  0.50528859106E+02  0.29999997739E+02 0.  0.
         12    1    1    2    0    0 -0.33247998056E+02 -0.23145158019E+02  0.34695855278E+01  0.40659140894E+02  0.00000000000E+00 0. -1.
         11    1    3    3    0    0  0.30734358639E+02  0.20780045401E+02 -0.99280878036E+01  0.38405442525E+02  0.51100000000E-03 0.  1.
        -11    1    3    3    0    0  0.50864115736E+01 -0.14221455319E+01  0.17699450817E+01  0.55701693388E+01  0.51100000000E-03 0. -1.
         12    1    3    3    0    0 -0.25727721561E+01  0.37872581500E+01  0.46885571942E+01  0.65532472428E+01  0.00000000000E+00 0. -1.
</event>
<event>
 7    1  0.3054835E-011  0.5052886E+02  0.7816164E-02  0.1300439E+00
        -11   -1    0    0    0    0  0.00000000000E+00  0.00000000000E+00  0.45593999997E+02  0.45594000000E+02  0.51100000000E-03 0.  1.
         11   -1    0    0    0    0 -0.00000000000E+00 -0.00000000000E+00 -0.45593999997E+02  0.45594000000E+02  0.51100000000E-03 0. -1.
    9900012    2    1    2    0    0  0.54761569507E+01 -0.18976911890E+02  0.35539469772E+02  0.50528863370E+02  0.30000010698E+02 0.  0.
         12    1    1    2    0    0 -0.54761569507E+01  0.18976911890E+02 -0.35539469772E+02  0.40659136630E+02  0.00000000000E+00 0. -1.
         11    1    3    3    0    0 -0.96279841943E+01 -0.71290791195E+00  0.46729114771E+01  0.10725782921E+02  0.51100000000E-03 0. -1.
        -11    1    3    3    0    0  0.11216408055E+02 -0.17004744667E+02  0.21681251405E+02  0.29749719555E+02  0.51100000000E-03 0.  1.
         12    1    3    3    0    0  0.38877330902E+01 -0.12592593118E+01  0.91853068901E+01  0.10053360894E+02  0.00000000000E+00 0. -1.
</event>
<event>
 7    1  0.3054835E-011  0.5052886E+02  0.7816164E-02  0.1300439E+00
        -11   -1    0    0    0    0  0.00000000000E+00  0.00000000000E+00  0.45593999997E+02  0.45594000000E+02  0.51100000000E-03 0. -1.
         11   -1    0    0    0    0 -0.00000000000E+00 -0.00000000000E+00 -0.45593999997E+02  0.45594000000E+02  0.51100000000E-03 0.  1.
    9900012    2    1    2    0    0 -0.19466734116E+02  0.32100897524E+02 -0.15612316275E+02  0.50528858611E+02  0.29999996235E+02 0.  0.
         12    1    1    2    0    0  0.19466734116E+02 -0.32100897524E+02  0.15612316275E+02  0.40659141389E+02  0.00000000000E+00 0. -1.
         11    1    3    3    0    0  0.57667800759E+01  0.55920700368E+01 -0.33523163567E+01  0.87043107112E+01  0.51100000000E-03 0. -1.
        -11    1    3    3    0    0 -0.17573697258E+02  0.15964174786E+02 -0.15551743017E+02  0.28382149726E+02  0.51100000000E-03 0.  1.
        -12    1    3    3    0    0 -0.76598169341E+01  0.10544652701E+02  0.32917430985E+01  0.13442398174E+02  0.00000000000E+00 0.  1.
</event>
<event>
 7    1  0.3054835E-011  0.5052886E+02  0.7816164E-02  0.1300439E+00
        -11   -1    0    0    0    0  0.00000000000E+00  0.00000000000E+00  0.45593999997E+02  0.45594000000E+02  0.51100000000E-03 0.  1.
         11   -1    0    0    0    0 -0.00000000000E+00 -0.00000000000E+00 -0.45593999997E+02  0.45594000000E+02  0.51100000000E-03 0. -1.
    9900012    2    1    2    0    0 -0.32259933516E+02 -0.99075202090E+01  0.22678260816E+02  0.50528858582E+02  0.29999996147E+02 0.  0.
         12    1    1    2    0    0  0.32259933516E+02  0.99075202090E+01 -0.22678260816E+02  0.40659141418E+02  0.00000000000E+00 0. -1.
         11    1    3    3    0    0 -0.10711908979E+02 -0.32425739603E+01 -0.48418998375E+01  0.12194395195E+02  0.51100000000E-03 0. -1.
        -11    1    3    3    0    0 -0.12264621854E+01 -0.42269782904E+01  0.11592585880E+02  0.12399983976E+02  0.51100000000E-03 0.  1.
        -12    1    3    3    0    0 -0.20321562352E+02 -0.24379679583E+01  0.15927574773E+02  0.25934479411E+02  0.00000000000E+00 0.  1.
</event>
<event>
 7    1  0.3054835E-011  0.5052886E+02  0.7816164E-02  0.1300439E+00
        -11   -1    0    0    0    0  0.00000000000E+00  0.00000000000E+00  0.45593999997E+02  0.45594000000E+02  0.51100000000E-03 0.  1.
         11   -1    0    0    0    0 -0.00000000000E+00 -0.00000000000E+00 -0.45593999997E+02  0.45594000000E+02  0.51100000000E-03 0. -1.
    9900012    2    1    2    0    0  0.21830437388E+02  0.59947047877E+01  0.33773680210E+02  0.50528856416E+02  0.29999989563E+02 0.  0.
         12    1    1    2    0    0 -0.21830437388E+02 -0.59947047877E+01 -0.33773680210E+02  0.40659143584E+02  0.00000000000E+00 0. -1.
         11    1    3    3    0    0  0.22946336587E+02 -0.50418727828E+01  0.13436996342E+02  0.27064879732E+02  0.51100000000E-03 0. -1.
        -11    1    3    3    0    0 -0.12687175846E+01  0.69203066969E+01  0.16022390975E+02  0.17499065744E+02  0.51100000000E-03 0.  1.
         12    1    3    3    0    0  0.15281838519E+00  0.41162708736E+01  0.43142928930E+01  0.59649109407E+01  0.00000000000E+00 0. -1.
</event>
<event>
 7    1  0.3054835E-011  0.5052887E+02  0.7816164E-02  0.1300439E+00
        -11   -1    0    0    0    0  0.00000000000E+00  0.00000000000E+00  0.45593999997E+02  0.45594000000E+02  0.51100000000E-03 0.  1.
         11   -1    0    0    0    0 -0.00000000000E+00 -0.00000000000E+00 -0.45593999997E+02  0.45594000000E+02  0.51100000000E-03 0. -1.
    9900012    2    1    2    0    0 -0.18866328223E+02  0.14648169126E+02  0.32903763188E+02  0.50528870258E+02  0.30000031637E+02 0.  0.
         12    1    1    2    0    0  0.18866328223E+02 -0.14648169126E+02 -0.32903763188E+02  0.40659129742E+02  0.00000000000E+00 0. -1.
         11    1    3    3    0    0 -0.14576395816E+02  0.11326590303E+02  0.87697169125E+01  0.20436998259E+02  0.51100000000E-03 0. -1.
        -11    1    3    3    0    0  0.64741155848E+01  0.17477228565E+01  0.12357544373E+02  0.14059787017E+02  0.51100000000E-03 0.  1.
         12    1    3    3    0    0 -0.10764047993E+02  0.15738559672E+01  0.11776501903E+02  0.16032084982E+02  0.00000000000E+00 0. -1.
</event>
<event>
 7    1  0.3054835E-011  0.5052886E+02  0.7816164E-02  0.1300439E+00
        -11   -1    0    0    0    0  0.00000000000E+00  0.00000000000E+00  0.45593999997E+02  0.45594000000E+02  0.51100000000E-03 0.  1.
         11   -1    0    0    0    0 -0.00000000000E+00 -0.00000000000E+00 -0.45593999997E+02  0.45594000000E+02  0.51100000000E-03 0. -1.
    9900012    2    1    2    0    0 -0.36657192872E+02  0.11541351010E+01  0.17552317630E+02  0.50528859929E+02  0.30000000241E+02 0.  0.
         12    1    1    2    0    0  0.36657192872E+02 -0.11541351010E+01 -0.17552317630E+02  0.40659140071E+02  0.00000000000E+00 0. -1.
         11    1    3    3    0    0 -0.25163083842E+02 -0.70032204327E+01  0.18050663338E+02  0.31749839875E+02  0.51100000000E-03 0.  1.
        -11    1    3    3    0    0 -0.34475760966E+01  0.85548360439E+01  0.33986603411E+01  0.98296435873E+01  0.51100000000E-03 0. -1.
        -12    1    3    3    0    0 -0.80465329334E+01 -0.39748051010E+00 -0.38970060491E+01  0.89493764672E+01  0.00000000000E+00 0.  1.
</event>
<event>
 7    1  0.3054835E-011  0.5052887E+02  0.7816164E-02  0.1300439E+00
        -11   -1    0    0    0    0  0.00000000000E+00  0.00000000000E+00  0.45593999997E+02  0.45594000000E+02  0.51100000000E-03 0.  1.
         11   -1    0    0    0    0 -0.00000000000E+00 -0.00000000000E+00 -0.45593999997E+02  0.45594000000E+02  0.51100000000E-03 0. -1.
    9900012    2    1    2    0    0 -0.31079571574E+02 -0.20504145034E+02  0.16334178105E+02  0.50528866867E+02  0.30000021329E+02 0.  0.
         12    1    1    2    0    0  0.31079571574E+02  0.20504145034E+02 -0.16334178105E+02  0.40659133133E+02  0.00000000000E+00 0. -1.
         11    1    3    3    0    0 -0.16518877301E+01  0.15133434833E+01  0.82213937174E+01  0.85211652072E+01  0.51100000000E-03 0.  1.
        -11    1    3    3    0    0 -0.12181653379E+02 -0.20574835995E+02  0.47128146564E+01  0.24370621197E+02  0.51100000000E-03 0. -1.
         12    1    3    3    0    0 -0.17246030465E+02 -0.14426525221E+01  0.33999697308E+01  0.17637080463E+02  0.00000000000E+00 0. -1.
</event>
<event>
 7    1  0.3054835E-011  0.5052886E+02  0.7816164E-02  0.1300439E+00
        -11   -1    0    0    0    0  0.00000000000E+00  0.00000000000E+00  0.45593999997E+02  0.45594000000E+02  0.51100000000E-03 0.  1.
         11   -1    0    0    0    0 -0.00000000000E+00 -0.00000000000E+00 -0.45593999997E+02  0.45594000000E+02  0.51100000000E-03 0. -1.
    9900012    2    1    2    0    0  0.26129192361E+02  0.14705390867E+02  0.27462379234E+02  0.50528862193E+02  0.30000007123E+02 0.  0.
         12    1    1    2    0    0 -0.26129192361E+02 -0.14705390867E+02 -0.27462379234E+02  0.40659137807E+02  0.00000000000E+00 0. -1.
         11    1    3    3    0    0  0.95770022305E+01 -0.80755195032E+01  0.50404092998E+01  0.13503285272E+02  0.51100000000E-03 0. -1.
        -11    1    3    3    0    0  0.39019249596E+01  0.11589842863E+02  0.66675793624E+01  0.13928606922E+02  0.51100000000E-03 0.  1.
         12    1    3    3    0    0  0.12650265171E+02  0.11191067507E+02  0.15754390572E+02  0.23096969999E+02  0.00000000000E+00 0. -1.
</event>
<event>
 7    1  0.3054835E-011  0.5052886E+02  0.7816164E-02  0.1300439E+00
        -11   -1    0    0    0    0  0.00000000000E+00  0.00000000000E+00  0.45593999997E+02  0.45594000000E+02  0.51100000000E-03 0. -1.
         11   -1    0    0    0    0 -0.00000000000E+00 -0.00000000000E+00 -0.45593999997E+02  0.45594000000E+02  0.51100000000E-03 0.  1.
    9900012    2    1    2    0    0  0.32480542437E+02 -0.72549162179E+01 -0.23356930070E+02  0.50528860454E+02  0.30000001837E+02 0.  0.
         12    1    1    2    0    0 -0.32480542437E+02  0.72549162179E+01  0.23356930070E+02  0.40659139546E+02  0.00000000000E+00 0. -1.
         11    1    3    3    0    0  0.89102698744E+01 -0.73161898576E+01  0.22455379922E+01  0.11745721962E+02  0.51100000000E-03 0. -1.
        -11    1    3    3    0    0  0.15890675768E+02  0.75146150991E+01 -0.11210983846E+02  0.20848721196E+02  0.51100000000E-03 0.  1.
        -12    1    3    3    0    0  0.76795967942E+01 -0.74533414594E+01 -0.14391484216E+02  0.17934417297E+02  0.00000000000E+00 0.  1.
</event>
<event>
 7    1  0.3054835E-011  0.5052887E+02  0.7816164E-02  0.1300439E+00
        -11   -1    0    0    0    0  0.00000000000E+00  0.00000000000E+00  0.45593999997E+02  0.45594000000E+02  0.51100000000E-03 0.  1.
         11   -1    0    0    0    0 -0.00000000000E+00 -0.00000000000E+00 -0.45593999997E+02  0.45594000000E+02  0.51100000000E-03 0. -1.
    9900012    2    1    2    0    0  0.79385828961E+01 -0.39772562375E+02 -0.28787841618E+01  0.50528865546E+02  0.30000017315E+02 0.  0.
         12    1    1    2    0    0 -0.79385828961E+01  0.39772562375E+02  0.28787841618E+01  0.40659134454E+02  0.00000000000E+00 0. -1.
         11    1    3    3    0    0  0.57020167219E+01  0.29629974130E+01  0.27951696440E+01  0.70075189594E+01  0.51100000000E-03 0. -1.
        -11    1    3    3    0    0  0.35436752868E+01 -0.39174052455E+02 -0.55673604624E+01  0.39726055972E+02  0.51100000000E-03 0.  1.
         12    1    3    3    0    0 -0.13071091126E+01 -0.35615073326E+01 -0.10659334345E+00  0.37952906151E+01  0.00000000000E+00 0. -1.
</event>
<event>
 7    1  0.3054835E-011  0.5052886E+02  0.7816164E-02  0.1300439E+00
        -11   -1    0    0    0    0  0.00000000000E+00  0.00000000000E+00  0.45593999997E+02  0.45594000000E+02  0.51100000000E-03 0.  1.
         11   -1    0    0    0    0 -0.00000000000E+00 -0.00000000000E+00 -0.45593999997E+02  0.45594000000E+02  0.51100000000E-03 0. -1.
    9900012    2    1    2    0    0  0.27561186747E+02  0.25761530567E+02  0.15162120642E+02  0.50528863580E+02  0.30000011338E+02 0.  0.
         12    1    1    2    0    0 -0.27561186747E+02 -0.25761530567E+02 -0.15162120642E+02  0.40659136420E+02  0.00000000000E+00 0. -1.
         11    1    3    3    0    0  0.11378890043E+02 -0.91547925289E+00  0.13313124989E+02  0.17537289931E+02  0.51100000000E-03 0. -1.
        -11    1    3    3    0    0  0.15115512387E+02  0.19019997900E+02 -0.19589160550E+01  0.24373682266E+02  0.51100000000E-03 0.  1.
         12    1    3    3    0    0  0.10667843168E+01  0.76570119194E+01  0.38079117079E+01  0.86178913829E+01  0.00000000000E+00 0. -1.
</event>
<event>
 7    1  0.3054835E-011  0.5052886E+02  0.7816164E-02  0.1300439E+00
        -11   -1    0    0    0    0  0.00000000000E+00  0.00000000000E+00  0.45593999997E+02  0.45594000000E+02  0.51100000000E-03 0.  1.
         11   -1    0    0    0    0 -0.00000000000E+00 -0.00000000000E+00 -0.45593999997E+02  0.45594000000E+02  0.51100000000E-03 0. -1.
    9900012    2    1    2    0    0 -0.17189993325E+02  0.30712155167E+02  0.20357635673E+02  0.50528859875E+02  0.30000000077E+02 0.  0.
         12    1    1    2    0    0  0.17189993325E+02 -0.30712155167E+02 -0.20357635673E+02  0.40659140125E+02  0.00000000000E+00 0. -1.
         11    1    3    3    0    0  0.20271503432E+01  0.14018954293E+02  0.12429309648E+01  0.14219187586E+02  0.51100000000E-03 0. -1.
        -11    1    3    3    0    0 -0.15342587587E+02  0.10613266032E+02  0.21730696191E+02  0.28640174004E+02  0.51100000000E-03 0.  1.
         12    1    3    3    0    0 -0.38745560807E+01  0.60799348422E+01 -0.26159914832E+01  0.76694982853E+01  0.00000000000E+00 0. -1.
</event>
<event>
 7    1  0.3054835E-011  0.5052886E+02  0.7816164E-02  0.1300439E+00
        -11   -1    0    0    0    0  0.00000000000E+00  0.00000000000E+00  0.45593999997E+02  0.45594000000E+02  0.51100000000E-03 0.  1.
         11   -1    0    0    0    0 -0.00000000000E+00 -0.00000000000E+00 -0.45593999997E+02  0.45594000000E+02  0.51100000000E-03 0. -1.
    9900012    2    1    2    0    0  0.11777916152E+01 -0.20990926099E+02  0.34801721854E+02  0.50528855696E+02  0.29999987372E+02 0.  0.
         12    1    1    2    0    0 -0.11777916152E+01  0.20990926099E+02 -0.34801721854E+02  0.40659144304E+02  0.00000000000E+00 0. -1.
         11    1    3    3    0    0 -0.70042436749E+01  0.13761178947E+01  0.50194493730E+01  0.87262822660E+01  0.51100000000E-03 0. -1.
        -11    1    3    3    0    0  0.83734707807E+01 -0.16405829263E+01  0.73687999641E+01  0.11274118077E+02  0.51100000000E-03 0.  1.
        -12    1    3    3    0    0 -0.19143549057E+00 -0.20726461067E+02  0.22413472517E+02  0.30528455352E+02  0.00000000000E+00 0.  1.
</event>
<event>
 7    1  0.3054835E-011  0.5052886E+02  0.7816164E-02  0.1300439E+00
        -11   -1    0    0    0    0  0.00000000000E+00  0.00000000000E+00  0.45593999997E+02  0.45594000000E+02  0.51100000000E-03 0. -1.
         11   -1    0    0    0    0 -0.00000000000E+00 -0.00000000000E+00 -0.45593999997E+02  0.45594000000E+02  0.51100000000E-03 0.  1.
    9900012    2    1    2    0    0  0.18487524117E+02  0.14750851810E+02 -0.33072490183E+02  0.50528858543E+02  0.29999996028E+02 0.  0.
         12    1    1    2    0    0 -0.18487524117E+02 -0.14750851810E+02  0.33072490183E+02  0.40659141457E+02  0.00000000000E+00 0. -1.
         11    1    3    3    0    0 -0.39810694963E+01  0.35174757963E+01  0.48369230514E+00  0.53343705176E+01  0.51100000000E-03 0. -1.
        -11    1    3    3    0    0  0.20917439629E+02  0.87916651291E+01 -0.16908051629E+02  0.28296905600E+02  0.51100000000E-03 0.  1.
         12    1    3    3    0    0  0.15511539842E+01  0.24417108844E+01 -0.16648130859E+02  0.16897582425E+02  0.00000000000E+00 0. -1.
</event>
<event>
 7    1  0.3054835E-011  0.5052886E+02  0.7816164E-02  0.1300439E+00
        -11   -1    0    0    0    0  0.00000000000E+00  0.00000000000E+00  0.45593999997E+02  0.45594000000E+02  0.51100000000E-03 0.  1.
         11   -1    0    0    0    0 -0.00000000000E+00 -0.00000000000E+00 -0.45593999997E+02  0.45594000000E+02  0.51100000000E-03 0. -1.
    9900012    2    1    2    0    0  0.14012363989E+02 -0.34210515598E+02  0.16925127529E+02  0.50528860020E+02  0.30000000516E+02 0.  0.
         12    1    1    2    0    0 -0.14012363989E+02  0.34210515598E+02 -0.16925127529E+02  0.40659139980E+02  0.00000000000E+00 0. -1.
         11    1    3    3    0    0 -0.47257643699E+00  0.14315522613E+01 -0.13038009569E+01  0.19931300915E+01  0.51100000000E-03 0. -1.
        -11    1    3    3    0    0  0.20850860313E+01 -0.19165303673E+02  0.20073962203E+02  0.27832003295E+02  0.51100000000E-03 0.  1.
        -12    1    3    3    0    0  0.12399854394E+02 -0.16476764186E+02 -0.18450337169E+01  0.20703726633E+02  0.00000000000E+00 0.  1.
</event>
<event>
 7    1  0.3054835E-011  0.5052887E+02  0.7816164E-02  0.1300439E+00
        -11   -1    0    0    0    0  0.00000000000E+00  0.00000000000E+00  0.45593999997E+02  0.45594000000E+02  0.51100000000E-03 0. -1.
         11   -1    0    0    0    0 -0.00000000000E+00 -0.00000000000E+00 -0.45593999997E+02  0.45594000000E+02  0.51100000000E-03 0.  1.
    9900012    2    1    2    0    0 -0.39194331949E+02 -0.96379047816E+01 -0.49071712331E+01  0.50528865786E+02  0.30000018043E+02 0.  0.
         12    1    1    2    0    0  0.39194331949E+02  0.96379047816E+01  0.49071712331E+01  0.40659134214E+02  0.00000000000E+00 0. -1.
         11    1    3    3    0    0 -0.11422788029E+02 -0.91783186798E+01 -0.13490667483E+02  0.19917824418E+02  0.51100000000E-03 0. -1.
        -11    1    3    3    0    0 -0.94400629253E+01 -0.39371052943E+01  0.57648943861E+01  0.11740936661E+02  0.51100000000E-03 0.  1.
         12    1    3    3    0    0 -0.18331480995E+02  0.34775191926E+01  0.28186018635E+01  0.18870104707E+02  0.00000000000E+00 0. -1.
</event>
<event>
 7    1  0.3054835E-011  0.5052886E+02  0.7816164E-02  0.1300439E+00
        -11   -1    0    0    0    0  0.00000000000E+00  0.00000000000E+00  0.45593999997E+02  0.45594000000E+02  0.51100000000E-03 0.  1.
         11   -1    0    0    0    0 -0.00000000000E+00 -0.00000000000E+00 -0.45593999997E+02  0.45594000000E+02  0.51100000000E-03 0. -1.
    9900012    2    1    2    0    0  0.76101511954E+01 -0.21931943842E+02  0.33380254857E+02  0.50528856179E+02  0.29999988843E+02 0.  0.
         12    1    1    2    0    0 -0.76101511954E+01  0.21931943842E+02 -0.33380254857E+02  0.40659143821E+02  0.00000000000E+00 0. -1.
         11    1    3    3    0    0 -0.26755432707E+01 -0.27268041578E+01  0.89205567549E+01  0.97041396211E+01  0.51100000000E-03 0. -1.
        -11    1    3    3    0    0  0.13357184302E+02 -0.10389307328E+01  0.57907059920E+01  0.14595411118E+02  0.51100000000E-03 0.  1.
        -12    1    3    3    0    0 -0.30714898361E+01 -0.18166208951E+02  0.18668992110E+02  0.26229305440E+02  0.00000000000E+00 0.  1.
</event>
<event>
 7    1  0.3054835E-011  0.5052883E+02  0.7816164E-02  0.1300439E+00
        -11   -1    0    0    0    0  0.00000000000E+00  0.00000000000E+00  0.45593999997E+02  0.45594000000E+02  0.51100000000E-03 0. -1.
         11   -1    0    0    0    0 -0.00000000000E+00 -0.00000000000E+00 -0.45593999997E+02  0.45594000000E+02  0.51100000000E-03 0.  1.
    9900012    2    1    2    0    0  0.75590484079E+01  0.30164938549E+02 -0.26193616406E+02  0.50528827961E+02  0.29999903070E+02 0.  0.
         12    1    1    2    0    0 -0.75590484079E+01 -0.30164938549E+02  0.26193616406E+02  0.40659172039E+02  0.00000000000E+00 0. -1.
         11    1    3    3    0    0  0.96353922038E+01  0.77517111132E+01 -0.23348715867E+02  0.26421437149E+02  0.51100000000E-03 0. -1.
        -11    1    3    3    0    0 -0.84508392082E+00  0.15359099649E+00 -0.15549880116E+01  0.17764416694E+01  0.51100000000E-03 0.  1.
         12    1    3    3    0    0 -0.12312598751E+01  0.22259636439E+02 -0.12899125272E+01  0.22330949142E+02  0.00000000000E+00 0. -1.
</event>
<event>
 7    1  0.3054835E-011  0.5052886E+02  0.7816164E-02  0.1300439E+00
        -11   -1    0    0    0    0  0.00000000000E+00  0.00000000000E+00  0.45593999997E+02  0.45594000000E+02  0.51100000000E-03 0.  1.
         11   -1    0    0    0    0 -0.00000000000E+00 -0.00000000000E+00 -0.45593999997E+02  0.45594000000E+02  0.51100000000E-03 0. -1.
    9900012    2    1    2    0    0  0.17590739540E+01 -0.16663715875E+02  0.37045808900E+02  0.50528859269E+02  0.29999998233E+02 0.  0.
         12    1    1    2    0    0 -0.17590739540E+01  0.16663715875E+02 -0.37045808900E+02  0.40659140731E+02  0.00000000000E+00 0. -1.
         11    1    3    3    0    0  0.15207306189E+01 -0.12866409447E+02  0.72349775153E+00  0.12976153626E+02  0.51100000000E-03 0. -1.
        -11    1    3    3    0    0 -0.22251704349E+01 -0.53627921730E+01  0.15980865922E+02  0.17002911493E+02  0.51100000000E-03 0.  1.
         12    1    3    3    0    0  0.24635137700E+01  0.15654857444E+01  0.20341445227E+02  0.20549794150E+02  0.00000000000E+00 0. -1.
</event>
<event>
 7    1  0.3054835E-011  0.5052886E+02  0.7816164E-02  0.1300439E+00
        -11   -1    0    0    0    0  0.00000000000E+00  0.00000000000E+00  0.45593999997E+02  0.45594000000E+02  0.51100000000E-03 0. -1.
         11   -1    0    0    0    0 -0.00000000000E+00 -0.00000000000E+00 -0.45593999997E+02  0.45594000000E+02  0.51100000000E-03 0.  1.
    9900012    2    1    2    0    0 -0.38776782007E+02  0.18243861368E+01  0.12091268956E+02  0.50528855978E+02  0.29999988232E+02 0.  0.
         12    1    1    2    0    0  0.38776782007E+02 -0.18243861368E+01 -0.12091268956E+02  0.40659144022E+02  0.00000000000E+00 0. -1.
         11    1    3    3    0    0 -0.79663171157E+01 -0.10101746100E+02  0.64074773919E+01  0.14372308425E+02  0.51100000000E-03 0. -1.
        -11    1    3    3    0    0 -0.31110511520E+02  0.11307307961E+02  0.77347836155E+01  0.33993323141E+02  0.51100000000E-03 0.  1.
        -12    1    3    3    0    0  0.30004662828E+00  0.61882427640E+00 -0.20509920515E+01  0.21632244127E+01  0.00000000000E+00 0.  1.
</event>
<event>
 7    1  0.3054835E-011  0.5052883E+02  0.7816164E-02  0.1300439E+00
        -11   -1    0    0    0    0  0.00000000000E+00  0.00000000000E+00  0.45593999997E+02  0.45594000000E+02  0.51100000000E-03 0. -1.
         11   -1    0    0    0    0 -0.00000000000E+00 -0.00000000000E+00 -0.45593999997E+02  0.45594000000E+02  0.51100000000E-03 0.  1.
    9900012    2    1    2    0    0 -0.79559517670E+01 -0.24707022250E+02 -0.31295912588E+02  0.50528828074E+02  0.29999903414E+02 0.  0.
         12    1    1    2    0    0  0.79559517670E+01  0.24707022250E+02  0.31295912588E+02  0.40659171926E+02  0.00000000000E+00 0. -1.
         11    1    3    3    0    0 -0.18913420097E+01 -0.10995134123E+02  0.35326927186E+01  0.11702566688E+02  0.51100000000E-03 0. -1.
        -11    1    3    3    0    0 -0.32792132424E+01 -0.13550202086E+02 -0.25173919686E+02  0.28776508625E+02  0.51100000000E-03 0.  1.
         12    1    3    3    0    0 -0.27853965149E+01 -0.16168604138E+00 -0.96546856210E+01  0.10049752761E+02  0.00000000000E+00 0. -1.
</event>
<event>
 7    1  0.3054835E-011  0.5052886E+02  0.7816164E-02  0.1300439E+00
        -11   -1    0    0    0    0  0.00000000000E+00  0.00000000000E+00  0.45593999997E+02  0.45594000000E+02  0.51100000000E-03 0.  1.
         11   -1    0    0    0    0 -0.00000000000E+00 -0.00000000000E+00 -0.45593999997E+02  0.45594000000E+02  0.51100000000E-03 0. -1.
    9900012    2    1    2    0    0  0.32662911836E+02  0.24073104722E+02 -0.26049188185E+01  0.50528858561E+02  0.29999996081E+02 0.  0.
         12    1    1    2    0    0 -0.32662911836E+02 -0.24073104722E+02  0.26049188185E+01  0.40659141439E+02  0.00000000000E+00 0. -1.
         11    1    3    3    0    0  0.78379858890E-01 -0.33655840885E+01  0.44819290745E+01  0.56054427255E+01  0.51100000000E-03 0. -1.
        -11    1    3    3    0    0  0.28855735490E+02  0.18105132298E+02 -0.74320055209E+01  0.34866660186E+02  0.51100000000E-03 0.  1.
         12    1    3    3    0    0  0.37287964872E+01  0.93335565119E+01  0.34515762794E+00  0.10056755649E+02  0.00000000000E+00 0. -1.
</event>
<event>
 7    1  0.3054835E-011  0.5052886E+02  0.7816164E-02  0.1300439E+00
        -11   -1    0    0    0    0  0.00000000000E+00  0.00000000000E+00  0.45593999997E+02  0.45594000000E+02  0.51100000000E-03 0.  1.
         11   -1    0    0    0    0 -0.00000000000E+00 -0.00000000000E+00 -0.45593999997E+02  0.45594000000E+02  0.51100000000E-03 0. -1.
    9900012    2    1    2    0    0 -0.36754174225E+02 -0.14718613202E+01 -0.17324259621E+02  0.50528859943E+02  0.30000000284E+02 0.  0.
         12    1    1    2    0    0  0.36754174225E+02  0.14718613202E+01  0.17324259621E+02  0.40659140057E+02  0.00000000000E+00 0. -1.
         11    1    3    3    0    0 -0.19106669462E+02 -0.40494043786E+01  0.30953404643E+01  0.19774823049E+02  0.51100000000E-03 0. -1.
        -11    1    3    3    0    0 -0.60038299049E+01  0.55215649464E+01 -0.14240376508E+01  0.82801893986E+01  0.51100000000E-03 0.  1.
         12    1    3    3    0    0 -0.11643674859E+02 -0.29440218879E+01 -0.18995562434E+02  0.22473847496E+02  0.00000000000E+00 0. -1.
</event>
<event>
 7    1  0.3054835E-011  0.5052886E+02  0.7816164E-02  0.1300439E+00
        -11   -1    0    0    0    0  0.00000000000E+00  0.00000000000E+00  0.45593999997E+02  0.45594000000E+02  0.51100000000E-03 0. -1.
         11   -1    0    0    0    0 -0.00000000000E+00 -0.00000000000E+00 -0.45593999997E+02  0.45594000000E+02  0.51100000000E-03 0.  1.
    9900012    2    1    2    0    0 -0.23434512541E+02 -0.29811379486E+02 -0.14672113977E+02  0.50528860149E+02  0.30000000908E+02 0.  0.
         12    1    1    2    0    0  0.23434512541E+02  0.29811379486E+02  0.14672113977E+02  0.40659139851E+02  0.00000000000E+00 0. -1.
         11    1    3    3    0    0 -0.57058671918E+01 -0.99206023338E+01  0.54754614680E+01  0.12686841594E+02  0.51100000000E-03 0. -1.
        -11    1    3    3    0    0 -0.16051317514E+02 -0.21118622515E+02 -0.22441991442E+02  0.34745992445E+02  0.51100000000E-03 0.  1.
        -12    1    3    3    0    0 -0.16773278354E+01  0.12278453624E+01  0.22944159975E+01  0.30960261095E+01  0.00000000000E+00 0.  1.
</event>
<event>
 7    1  0.3054835E-011  0.5052886E+02  0.7816164E-02  0.1300439E+00
        -11   -1    0    0    0    0  0.00000000000E+00  0.00000000000E+00  0.45593999997E+02  0.45594000000E+02  0.51100000000E-03 0.  1.
         11   -1    0    0    0    0 -0.00000000000E+00 -0.00000000000E+00 -0.45593999997E+02  0.45594000000E+02  0.51100000000E-03 0. -1.
    9900012    2    1    2    0    0  0.25276684281E+02 -0.15963970720E+02  0.27557333869E+02  0.50528858600E+02  0.29999996200E+02 0.  0.
         12    1    1    2    0    0 -0.25276684281E+02  0.15963970720E+02 -0.27557333869E+02  0.40659141400E+02  0.00000000000E+00 0. -1.
         11    1    3    3    0    0 -0.40369493934E+01  0.15757552432E+01  0.50379021395E+01  0.66453309338E+01  0.51100000000E-03 0. -1.
        -11    1    3    3    0    0  0.18261264280E+02 -0.14133573326E+02  0.22609989652E+02  0.32317848016E+02  0.51100000000E-03 0.  1.
         12    1    3    3    0    0  0.11052369395E+02 -0.34061526377E+01 -0.90557922685E-01  0.11565679650E+02  0.00000000000E+00 0. -1.
</event>
<event>
 7    1  0.3054835E-011  0.5052885E+02  0.7816164E-02  0.1300439E+00
        -11   -1    0    0    0    0  0.00000000000E+00  0.00000000000E+00  0.45593999997E+02  0.45594000000E+02  0.51100000000E-03 0. -1.
         11   -1    0    0    0    0 -0.00000000000E+00 -0.00000000000E+00 -0.45593999997E+02  0.45594000000E+02  0.51100000000E-03 0.  1.
    9900012    2    1    2    0    0 -0.38980019578E+02 -0.11538633559E+02  0.76454937157E+00  0.50528849413E+02  0.29999968277E+02 0.  0.
         12    1    1    2    0    0  0.38980019578E+02  0.11538633559E+02 -0.76454937157E+00  0.40659150587E+02  0.00000000000E+00 0. -1.
         11    1    3    3    0    0 -0.72417845630E+01 -0.43043974306E+01  0.84475761822E+01  0.11930332121E+02  0.51100000000E-03 0. -1.
        -11    1    3    3    0    0 -0.32806194199E+02 -0.25869450300E+01 -0.78341935362E+01  0.33827699464E+02  0.51100000000E-03 0.  1.
        -12    1    3    3    0    0  0.10679591840E+01 -0.46472910987E+01  0.15116672561E+00  0.47708178286E+01  0.00000000000E+00 0.  1.
</event>
<event>
 7    1  0.3054835E-011  0.5052886E+02  0.7816164E-02  0.1300439E+00
        -11   -1    0    0    0    0  0.00000000000E+00  0.00000000000E+00  0.45593999997E+02  0.45594000000E+02  0.51100000000E-03 0.  1.
         11   -1    0    0    0    0 -0.00000000000E+00 -0.00000000000E+00 -0.45593999997E+02  0.45594000000E+02  0.51100000000E-03 0. -1.
    9900012    2    1    2    0    0  0.15872941672E+02  0.13866354223E+02  0.34769806590E+02  0.50528861949E+02  0.30000006380E+02 0.  0.
         12    1    1    2    0    0 -0.15872941672E+02 -0.13866354223E+02 -0.34769806590E+02  0.40659138051E+02  0.00000000000E+00 0. -1.
         11    1    3    3    0    0  0.44941559602E+01  0.14970295547E+02  0.16835468328E+02  0.22972596297E+02  0.51100000000E-03 0. -1.
        -11    1    3    3    0    0  0.11501366319E+02 -0.36562723273E+01  0.20592933609E+02  0.23868780225E+02  0.51100000000E-03 0.  1.
         12    1    3    3    0    0 -0.12258060764E+00  0.25523310028E+01 -0.26585953466E+01  0.36874854264E+01  0.00000000000E+00 0. -1.
</event>
<event>
 7    1  0.3054835E-011  0.5052887E+02  0.7816164E-02  0.1300439E+00
        -11   -1    0    0    0    0  0.00000000000E+00  0.00000000000E+00  0.45593999997E+02  0.45594000000E+02  0.51100000000E-03 0.  1.
         11   -1    0    0    0    0 -0.00000000000E+00 -0.00000000000E+00 -0.45593999997E+02  0.45594000000E+02  0.51100000000E-03 0. -1.
    9900012    2    1    2    0    0  0.23530255422E+02  0.24592764018E+00  0.33157679683E+02  0.50528866677E+02  0.30000020751E+02 0.  0.
         12    1    1    2    0    0 -0.23530255422E+02 -0.24592764018E+00 -0.33157679683E+02  0.40659133323E+02  0.00000000000E+00 0. -1.
         11    1    3    3    0    0 -0.43250813648E+01  0.16797562652E+00 -0.12022365574E+01  0.44922063203E+01  0.51100000000E-03 0. -1.
        -11    1    3    3    0    0  0.17817205201E+02 -0.56093067701E+01  0.24834919652E+02  0.31075558853E+02  0.51100000000E-03 0.  1.
         12    1    3    3    0    0  0.10038131586E+02  0.56872587838E+01  0.95249965882E+01  0.14961101504E+02  0.00000000000E+00 0. -1.
</event>
<event>
 7    1  0.3054835E-011  0.5052886E+02  0.7816164E-02  0.1300439E+00
        -11   -1    0    0    0    0  0.00000000000E+00  0.00000000000E+00  0.45593999997E+02  0.45594000000E+02  0.51100000000E-03 0.  1.
         11   -1    0    0    0    0 -0.00000000000E+00 -0.00000000000E+00 -0.45593999997E+02  0.45594000000E+02  0.51100000000E-03 0. -1.
    9900012    2    1    2    0    0  0.28451347303E+02  0.16550653104E+02 -0.23869690632E+02  0.50528863113E+02  0.30000009918E+02 0.  0.
         12    1    1    2    0    0 -0.28451347303E+02 -0.16550653104E+02  0.23869690632E+02  0.40659136887E+02  0.00000000000E+00 0. -1.
         11    1    3    3    0    0  0.10698936381E+02  0.10740566078E+02 -0.20477471911E+02  0.25478497904E+02  0.51100000000E-03 0. -1.
        -11    1    3    3    0    0  0.18847689349E+02  0.52266772652E+00 -0.36171685562E+00  0.18858404352E+02  0.51100000000E-03 0.  1.
         12    1    3    3    0    0 -0.10952784279E+01  0.52874192997E+01 -0.30305018662E+01  0.61919608564E+01  0.00000000000E+00 0. -1.
</event>
<event>
 7    1  0.3054835E-011  0.5052885E+02  0.7816164E-02  0.1300439E+00
        -11   -1    0    0    0    0  0.00000000000E+00  0.00000000000E+00  0.45593999997E+02  0.45594000000E+02  0.51100000000E-03 0.  1.
         11   -1    0    0    0    0 -0.00000000000E+00 -0.00000000000E+00 -0.45593999997E+02  0.45594000000E+02  0.51100000000E-03 0. -1.
    9900012    2    1    2    0    0  0.31995515603E+01  0.36810966136E+02  0.16967079662E+02  0.50528854039E+02  0.29999982337E+02 0.  0.
         12    1    1    2    0    0 -0.31995515603E+01 -0.36810966136E+02 -0.16967079662E+02  0.40659145961E+02  0.00000000000E+00 0. -1.
         11    1    3    3    0    0 -0.73604375556E+01  0.20845098944E+01 -0.40804240957E+00  0.76607911719E+01  0.51100000000E-03 0. -1.
        -11    1    3    3    0    0  0.74176194692E+01  0.22142046279E+02  0.18580053223E+02  0.29841408647E+02  0.51100000000E-03 0.  1.
        -12    1    3    3    0    0  0.31423696467E+01  0.12584409962E+02 -0.12049311514E+01  0.13026654220E+02  0.00000000000E+00 0.  1.
</event>
<event>
 7    1  0.3054835E-011  0.5052886E+02  0.7816164E-02  0.1300439E+00
        -11   -1    0    0    0    0  0.00000000000E+00  0.00000000000E+00  0.45593999997E+02  0.45594000000E+02  0.51100000000E-03 0. -1.
         11   -1    0    0    0    0 -0.00000000000E+00 -0.00000000000E+00 -0.45593999997E+02  0.45594000000E+02  0.51100000000E-03 0.  1.
    9900012    2    1    2    0    0  0.10775987909E+02  0.17777407245E+02 -0.34942914889E+02  0.50528862962E+02  0.30000009460E+02 0.  0.
         12    1    1    2    0    0 -0.10775987909E+02 -0.17777407245E+02  0.34942914889E+02  0.40659137038E+02  0.00000000000E+00 0. -1.
         11    1    3    3    0    0  0.92698269391E+01 -0.12367404035E+01 -0.10911995172E+02  0.14371181482E+02  0.51100000000E-03 0. -1.
        -11    1    3    3    0    0  0.38684114717E+01  0.19893133829E+02 -0.11347874154E+02  0.23226614668E+02  0.51100000000E-03 0.  1.
        -12    1    3    3    0    0 -0.23622505019E+01 -0.87898618116E+00 -0.12683045563E+02  0.12931066811E+02  0.00000000000E+00 0.  1.
</event>
<event>
 7    1  0.3054835E-011  0.5052886E+02  0.7816164E-02  0.1300439E+00
        -11   -1    0    0    0    0  0.00000000000E+00  0.00000000000E+00  0.45593999997E+02  0.45594000000E+02  0.51100000000E-03 0.  1.
         11   -1    0    0    0    0 -0.00000000000E+00 -0.00000000000E+00 -0.45593999997E+02  0.45594000000E+02  0.51100000000E-03 0. -1.
    9900012    2    1    2    0    0  0.20457656216E+01 -0.15248775008E+01  0.40578996871E+02  0.50528863322E+02  0.30000010553E+02 0.  0.
         12    1    1    2    0    0 -0.20457656216E+01  0.15248775008E+01 -0.40578996871E+02  0.40659136678E+02  0.00000000000E+00 0. -1.
         11    1    3    3    0    0  0.66421813660E+00  0.84034060999E+01  0.20281809346E+02  0.21963838699E+02  0.51100000000E-03 0. -1.
        -11    1    3    3    0    0  0.87780616688E+01 -0.61894291371E+01  0.67558349935E+01  0.12688762998E+02  0.51100000000E-03 0.  1.
         12    1    3    3    0    0 -0.73965141838E+01 -0.37388544635E+01  0.13541352532E+02  0.15876261624E+02  0.00000000000E+00 0. -1.
</event>
<event>
 7    1  0.3054835E-011  0.5052884E+02  0.7816164E-02  0.1300439E+00
        -11   -1    0    0    0    0  0.00000000000E+00  0.00000000000E+00  0.45593999997E+02  0.45594000000E+02  0.51100000000E-03 0.  1.
         11   -1    0    0    0    0 -0.00000000000E+00 -0.00000000000E+00 -0.45593999997E+02  0.45594000000E+02  0.51100000000E-03 0. -1.
    9900012    2    1    2    0    0 -0.79492038637E+01 -0.39836305729E+02  0.17452757002E+01  0.50528842563E+02  0.29999947456E+02 0.  0.
         12    1    1    2    0    0  0.79492038637E+01  0.39836305729E+02 -0.17452757002E+01  0.40659157437E+02  0.00000000000E+00 0. -1.
         11    1    3    3    0    0 -0.84994833538E+01 -0.16602629254E+02 -0.98231233129E+01  0.21080376356E+02  0.51100000000E-03 0. -1.
        -11    1    3    3    0    0  0.58866465793E+01 -0.72627878857E+01  0.78417236597E+01  0.12202185298E+02  0.51100000000E-03 0.  1.
        -12    1    3    3    0    0 -0.53363670892E+01 -0.15970888589E+02  0.37266753534E+01  0.17246280910E+02  0.00000000000E+00 0.  1.
</event>
<event>
 7    1  0.3054835E-011  0.5052886E+02  0.7816164E-02  0.1300439E+00
        -11   -1    0    0    0    0  0.00000000000E+00  0.00000000000E+00  0.45593999997E+02  0.45594000000E+02  0.51100000000E-03 0.  1.
         11   -1    0    0    0    0 -0.00000000000E+00 -0.00000000000E+00 -0.45593999997E+02  0.45594000000E+02  0.51100000000E-03 0. -1.
    9900012    2    1    2    0    0 -0.37886598814E+02 -0.14585929838E+02  0.22409619623E+01  0.50528860443E+02  0.30000001803E+02 0.  0.
         12    1    1    2    0    0  0.37886598814E+02  0.14585929838E+02 -0.22409619623E+01  0.40659139557E+02  0.00000000000E+00 0. -1.
         11    1    3    3    0    0 -0.22387772754E+02  0.37473514730E+01 -0.42825187429E-01  0.22699269728E+02  0.51100000000E-03 0. -1.
        -11    1    3    3    0    0 -0.15080191412E+02 -0.18897758951E+02 -0.12665546169E+01  0.24210361981E+02  0.51100000000E-03 0.  1.
         12    1    3    3    0    0 -0.41863464917E+00  0.56447763931E+00  0.35503417666E+01  0.36192287347E+01  0.00000000000E+00 0. -1.
</event>
<event>
 7    1  0.3054835E-011  0.5052886E+02  0.7816164E-02  0.1300439E+00
        -11   -1    0    0    0    0  0.00000000000E+00  0.00000000000E+00  0.45593999997E+02  0.45594000000E+02  0.51100000000E-03 0.  1.
         11   -1    0    0    0    0 -0.00000000000E+00 -0.00000000000E+00 -0.45593999997E+02  0.45594000000E+02  0.51100000000E-03 0. -1.
    9900012    2    1    2    0    0  0.73394019927E+01 -0.63519733004E+01  0.39483559857E+02  0.50528857296E+02  0.29999992237E+02 0.  0.
         12    1    1    2    0    0 -0.73394019927E+01  0.63519733004E+01 -0.39483559857E+02  0.40659142704E+02  0.00000000000E+00 0. -1.
         11    1    3    3    0    0  0.54174140595E+01  0.44348494247E+01 -0.23848544136E+00  0.70052223433E+01  0.51100000000E-03 0. -1.
        -11    1    3    3    0    0 -0.20650678200E+00 -0.89489777515E+01  0.39715208998E+02  0.40711480861E+02  0.51100000000E-03 0.  1.
        -12    1    3    3    0    0  0.21284947152E+01 -0.18378449737E+01  0.68363003753E-02  0.28121540916E+01  0.00000000000E+00 0.  1.
</event>
<event>
 7    1  0.3054835E-011  0.5052885E+02  0.7816164E-02  0.1300439E+00
        -11   -1    0    0    0    0  0.00000000000E+00  0.00000000000E+00  0.45593999997E+02  0.45594000000E+02  0.51100000000E-03 0.  1.
         11   -1    0    0    0    0 -0.00000000000E+00 -0.00000000000E+00 -0.45593999997E+02  0.45594000000E+02  0.51100000000E-03 0. -1.
    9900012    2    1    2    0    0  0.42220968629E+01  0.19708092478E+02  0.35311911744E+02  0.50528854386E+02  0.29999983392E+02 0.  0.
         12    1    1    2    0    0 -0.42220968629E+01 -0.19708092478E+02 -0.35311911744E+02  0.40659145614E+02  0.00000000000E+00 0. -1.
         11    1    3    3    0    0  0.47658987212E+01 -0.28274499176E+01  0.16977670422E+02  0.17859158907E+02  0.51100000000E-03 0. -1.
        -11    1    3    3    0    0  0.16058865161E+01  0.14222464092E+02  0.23212851887E+01  0.14499852466E+02  0.51100000000E-03 0.  1.
        -12    1    3    3    0    0 -0.21496883745E+01  0.83130783039E+01  0.16012956133E+02  0.18169843013E+02  0.00000000000E+00 0.  1.
</event>
<event>
 7    1  0.3054835E-011  0.5052887E+02  0.7816164E-02  0.1300439E+00
        -11   -1    0    0    0    0  0.00000000000E+00  0.00000000000E+00  0.45593999997E+02  0.45594000000E+02  0.51100000000E-03 0. -1.
         11   -1    0    0    0    0 -0.00000000000E+00 -0.00000000000E+00 -0.45593999997E+02  0.45594000000E+02  0.51100000000E-03 0.  1.
    9900012    2    1    2    0    0 -0.41668756720E+01  0.59918328071E+01 -0.39998749844E+02  0.50528869385E+02  0.30000028984E+02 0.  0.
         12    1    1    2    0    0  0.41668756720E+01 -0.59918328071E+01  0.39998749844E+02  0.40659130615E+02  0.00000000000E+00 0. -1.
         11    1    3    3    0    0 -0.81119257782E+01  0.13182219238E+02 -0.18893279876E+02  0.24423969141E+02  0.51100000000E-03 0. -1.
        -11    1    3    3    0    0  0.80716006679E+01 -0.71825237623E+01 -0.17778619089E+02  0.20804294795E+02  0.51100000000E-03 0.  1.
        -12    1    3    3    0    0 -0.41265505617E+01 -0.78626686523E-02 -0.33268508787E+01  0.53006054492E+01  0.00000000000E+00 0.  1.
</event>
<event>
 7    1  0.3054835E-011  0.5052886E+02  0.7816164E-02  0.1300439E+00
        -11   -1    0    0    0    0  0.00000000000E+00  0.00000000000E+00  0.45593999997E+02  0.45594000000E+02  0.51100000000E-03 0.  1.
         11   -1    0    0    0    0 -0.00000000000E+00 -0.00000000000E+00 -0.45593999997E+02  0.45594000000E+02  0.51100000000E-03 0. -1.
    9900012    2    1    2    0    0 -0.55985275855E+01 -0.14370936208E+02  0.37620445804E+02  0.50528864973E+02  0.30000015573E+02 0.  0.
         12    1    1    2    0    0  0.55985275855E+01  0.14370936208E+02 -0.37620445804E+02  0.40659135027E+02  0.00000000000E+00 0. -1.
         11    1    3    3    0    0 -0.22967801459E+01 -0.19055919639E+02  0.13335949325E+02  0.23372009263E+02  0.51100000000E-03 0. -1.
        -11    1    3    3    0    0  0.19406013824E+01  0.20146284898E+01  0.74708415211E+00  0.28953059716E+01  0.51100000000E-03 0.  1.
         12    1    3    3    0    0 -0.52423488221E+01  0.26703549413E+01  0.23537412327E+02  0.24261549739E+02  0.00000000000E+00 0. -1.
</event>
<event>
 7    1  0.3054835E-011  0.5052882E+02  0.7816164E-02  0.1300439E+00
        -11   -1    0    0    0    0  0.00000000000E+00  0.00000000000E+00  0.45593999997E+02  0.45594000000E+02  0.51100000000E-03 0. -1.
         11   -1    0    0    0    0 -0.00000000000E+00 -0.00000000000E+00 -0.45593999997E+02  0.45594000000E+02  0.51100000000E-03 0.  1.
    9900012    2    1    2    0    0  0.31517327021E+02 -0.20069278297E+02  0.16032810235E+02  0.50528820988E+02  0.29999881875E+02 0.  0.
         12    1    1    2    0    0 -0.31517327021E+02  0.20069278297E+02 -0.16032810235E+02  0.40659179012E+02  0.00000000000E+00 0. -1.
         11    1    3    3    0    0  0.16647467779E+02 -0.10013220159E+02  0.20437505759E+02  0.28197418380E+02  0.51100000000E-03 0. -1.
        -11    1    3    3    0    0  0.69049430744E+01  0.17946380958E+01  0.69798559898E+00  0.71684132772E+01  0.51100000000E-03 0.  1.
         12    1    3    3    0    0  0.79649161681E+01 -0.11850696234E+02 -0.51026811236E+01  0.15162989330E+02  0.00000000000E+00 0. -1.
</event>
<event>
 7    1  0.3054835E-011  0.5052886E+02  0.7816164E-02  0.1300439E+00
        -11   -1    0    0    0    0  0.00000000000E+00  0.00000000000E+00  0.45593999997E+02  0.45594000000E+02  0.51100000000E-03 0.  1.
         11   -1    0    0    0    0 -0.00000000000E+00 -0.00000000000E+00 -0.45593999997E+02  0.45594000000E+02  0.51100000000E-03 0. -1.
    9900012    2    1    2    0    0 -0.15381295084E+02 -0.87229786624E+00  0.37627391670E+02  0.50528859012E+02  0.29999997451E+02 0.  0.
         12    1    1    2    0    0  0.15381295084E+02  0.87229786624E+00 -0.37627391670E+02  0.40659140988E+02  0.00000000000E+00 0. -1.
         11    1    3    3    0    0 -0.53540011636E+01  0.36442831204E+01 -0.11814081058E+00  0.64776604908E+01  0.51100000000E-03 0. -1.
        -11    1    3    3    0    0 -0.12552697242E+02 -0.27228444268E+01  0.38727237663E+02  0.40801752745E+02  0.51100000000E-03 0.  1.
        -12    1    3    3    0    0  0.25254033222E+01 -0.17937365598E+01 -0.98170518181E+00  0.32494457758E+01  0.00000000000E+00 0.  1.
</event>
<event>
 7    1  0.3054835E-011  0.5052886E+02  0.7816164E-02  0.1300439E+00
        -11   -1    0    0    0    0  0.00000000000E+00  0.00000000000E+00  0.45593999997E+02  0.45594000000E+02  0.51100000000E-03 0. -1.
         11   -1    0    0    0    0 -0.00000000000E+00 -0.00000000000E+00 -0.45593999997E+02  0.45594000000E+02  0.51100000000E-03 0.  1.
    9900012    2    1    2    0    0  0.37145267292E+02  0.16267980299E+02 -0.29576129508E+01  0.50528861549E+02  0.30000005164E+02 0.  0.
         12    1    1    2    0    0 -0.37145267292E+02 -0.16267980299E+02  0.29576129508E+01  0.40659138451E+02  0.00000000000E+00 0. -1.
         11    1    3    3    0    0 -0.22218935759E+01  0.56560405290E+00 -0.69294430798E+01  0.72988972224E+01  0.51100000000E-03 0. -1.
        -11    1    3    3    0    0  0.17596001667E+02  0.59426611353E+01 -0.18706245013E+01  0.18666379733E+02  0.51100000000E-03 0.  1.
         12    1    3    3    0    0  0.21771159201E+02  0.97597151106E+01  0.58424546303E+01  0.24563584594E+02  0.00000000000E+00 0. -1.
</event>
<event>
 7    1  0.3054835E-011  0.5052885E+02  0.7816164E-02  0.1300439E+00
        -11   -1    0    0    0    0  0.00000000000E+00  0.00000000000E+00  0.45593999997E+02  0.45594000000E+02  0.51100000000E-03 0. -1.
         11   -1    0    0    0    0 -0.00000000000E+00 -0.00000000000E+00 -0.45593999997E+02  0.45594000000E+02  0.51100000000E-03 0.  1.
    9900012    2    1    2    0    0  0.18334117389E+01  0.39455013776E+02 -0.96491745966E+01  0.50528854890E+02  0.29999984924E+02 0.  0.
         12    1    1    2    0    0 -0.18334117389E+01 -0.39455013776E+02  0.96491745966E+01  0.40659145110E+02  0.00000000000E+00 0. -1.
         11    1    3    3    0    0  0.35628632934E+01  0.44148088135E+02 -0.85875310226E+01  0.45116442348E+02  0.51100000000E-03 0. -1.
        -11    1    3    3    0    0 -0.75944475769E+00 -0.36243234584E+01 -0.13483940552E+01  0.39408937641E+01  0.51100000000E-03 0.  1.
         12    1    3    3    0    0 -0.97000679687E+00 -0.10687509010E+01  0.28675048115E+00  0.14715187776E+01  0.00000000000E+00 0. -1.
</event>
<event>
 7    1  0.3054835E-011  0.5052888E+02  0.7816164E-02  0.1300439E+00
        -11   -1    0    0    0    0  0.00000000000E+00  0.00000000000E+00  0.45593999997E+02  0.45594000000E+02  0.51100000000E-03 0.  1.
         11   -1    0    0    0    0 -0.00000000000E+00 -0.00000000000E+00 -0.45593999997E+02  0.45594000000E+02  0.51100000000E-03 0. -1.
    9900012    2    1    2    0    0  0.28059298205E+02 -0.18067623780E+02  0.23225004182E+02  0.50528879694E+02  0.30000060319E+02 0.  0.
         12    1    1    2    0    0 -0.28059298205E+02  0.18067623780E+02 -0.23225004182E+02  0.40659120306E+02  0.00000000000E+00 0. -1.
         11    1    3    3    0    0 -0.18672607940E+01 -0.73906577440E+01  0.95530553406E+01  0.12221675473E+02  0.51100000000E-03 0. -1.
        -11    1    3    3    0    0  0.11964569149E+02  0.32311415071E+01  0.84435645320E+01  0.14996165264E+02  0.51100000000E-03 0.  1.
         12    1    3    3    0    0  0.17961989850E+02 -0.13908107543E+02  0.52283843089E+01  0.23311038957E+02  0.00000000000E+00 0. -1.
</event>
<event>
 7    1  0.3054835E-011  0.5052886E+02  0.7816164E-02  0.1300439E+00
        -11   -1    0    0    0    0  0.00000000000E+00  0.00000000000E+00  0.45593999997E+02  0.45594000000E+02  0.51100000000E-03 0.  1.
         11   -1    0    0    0    0 -0.00000000000E+00 -0.00000000000E+00 -0.45593999997E+02  0.45594000000E+02  0.51100000000E-03 0. -1.
    9900012    2    1    2    0    0 -0.39515245364E+01  0.14347485026E+01  0.40441222387E+02  0.50528861820E+02  0.30000005988E+02 0.  0.
         12    1    1    2    0    0  0.39515245364E+01 -0.14347485026E+01 -0.40441222387E+02  0.40659138180E+02  0.00000000000E+00 0. -1.
         11    1    3    3    0    0  0.93235449222E+01  0.29500108458E+01  0.24339880251E+01  0.10077467533E+02  0.51100000000E-03 0. -1.
        -11    1    3    3    0    0 -0.58373147690E+01 -0.17136209290E+00  0.11647922846E+02  0.13029877804E+02  0.51100000000E-03 0.  1.
         12    1    3    3    0    0 -0.74377546895E+01 -0.13439002503E+01  0.26359311515E+02  0.27421516483E+02  0.00000000000E+00 0. -1.
</event>
<event>
 7    1  0.3054835E-011  0.5052887E+02  0.7816164E-02  0.1300439E+00
        -11   -1    0    0    0    0  0.00000000000E+00  0.00000000000E+00  0.45593999997E+02  0.45594000000E+02  0.51100000000E-03 0. -1.
         11   -1    0    0    0    0 -0.00000000000E+00 -0.00000000000E+00 -0.45593999997E+02  0.45594000000E+02  0.51100000000E-03 0.  1.
    9900012    2    1    2    0    0  0.16026207239E+02 -0.36059065163E+02 -0.98015053739E+01  0.50528868104E+02  0.30000025090E+02 0.  0.
         12    1    1    2    0    0 -0.16026207239E+02  0.36059065163E+02  0.98015053739E+01  0.40659131896E+02  0.00000000000E+00 0. -1.
         11    1    3    3    0    0  0.15908568569E+02 -0.92577182992E+01 -0.17806982046E+01  0.18492127741E+02  0.51100000000E-03 0. -1.
        -11    1    3    3    0    0 -0.25934924385E+01 -0.60793538196E+01 -0.89400147715E+01  0.11117940919E+02  0.51100000000E-03 0.  1.
         12    1    3    3    0    0  0.27111311083E+01 -0.20721993044E+02  0.91920760218E+00  0.20918799445E+02  0.00000000000E+00 0. -1.
</event>
<event>
 7    1  0.3054835E-011  0.5052885E+02  0.7816164E-02  0.1300439E+00
        -11   -1    0    0    0    0  0.00000000000E+00  0.00000000000E+00  0.45593999997E+02  0.45594000000E+02  0.51100000000E-03 0.  1.
         11   -1    0    0    0    0 -0.00000000000E+00 -0.00000000000E+00 -0.45593999997E+02  0.45594000000E+02  0.51100000000E-03 0. -1.
    9900012    2    1    2    0    0  0.10821767554E+02 -0.80985714053E+00  0.39184176085E+02  0.50528853710E+02  0.29999981336E+02 0.  0.
         12    1    1    2    0    0 -0.10821767554E+02  0.80985714053E+00 -0.39184176085E+02  0.40659146290E+02  0.00000000000E+00 0. -1.
         11    1    3    3    0    0 -0.16448401255E+01 -0.54476272226E+01 -0.27021969390E+01  0.62995245815E+01  0.51100000000E-03 0. -1.
        -11    1    3    3    0    0  0.24399392598E+01  0.32581535976E+01  0.12878820786E+02  0.13506772137E+02  0.51100000000E-03 0.  1.
         12    1    3    3    0    0  0.10026668419E+02  0.13796164844E+01  0.29007552238E+02  0.30722556992E+02  0.00000000000E+00 0. -1.
</event>
<event>
 7    1  0.3054835E-011  0.5052886E+02  0.7816164E-02  0.1300439E+00
        -11   -1    0    0    0    0  0.00000000000E+00  0.00000000000E+00  0.45593999997E+02  0.45594000000E+02  0.51100000000E-03 0. -1.
         11   -1    0    0    0    0 -0.00000000000E+00 -0.00000000000E+00 -0.45593999997E+02  0.45594000000E+02  0.51100000000E-03 0.  1.
    9900012    2    1    2    0    0  0.18112469608E+02 -0.16511055440E+02 -0.32442083458E+02  0.50528864665E+02  0.30000014637E+02 0.  0.
         12    1    1    2    0    0 -0.18112469608E+02  0.16511055440E+02  0.32442083458E+02  0.40659135335E+02  0.00000000000E+00 0. -1.
         11    1    3    3    0    0  0.18040427959E+02 -0.60370241792E+01 -0.16033780814E+02  0.24879405727E+02  0.51100000000E-03 0. -1.
        -11    1    3    3    0    0 -0.25238652602E+01 -0.13985964429E+02 -0.83485964676E+01  0.16482601739E+02  0.51100000000E-03 0.  1.
         12    1    3    3    0    0  0.25959069091E+01  0.35119331679E+01 -0.80597061765E+01  0.91668571990E+01  0.00000000000E+00 0. -1.
</event>
<event>
 7    1  0.3054835E-011  0.5052886E+02  0.7816164E-02  0.1300439E+00
        -11   -1    0    0    0    0  0.00000000000E+00  0.00000000000E+00  0.45593999997E+02  0.45594000000E+02  0.51100000000E-03 0. -1.
         11   -1    0    0    0    0 -0.00000000000E+00 -0.00000000000E+00 -0.45593999997E+02  0.45594000000E+02  0.51100000000E-03 0.  1.
    9900012    2    1    2    0    0  0.39249004406E+02 -0.10219507470E+02 -0.28710006995E+01  0.50528864190E+02  0.30000013192E+02 0.  0.
         12    1    1    2    0    0 -0.39249004406E+02  0.10219507470E+02  0.28710006995E+01  0.40659135810E+02  0.00000000000E+00 0. -1.
         11    1    3    3    0    0  0.66848010258E+01  0.61571210815E+01  0.45673659092E+01  0.10171407787E+02  0.51100000000E-03 0. -1.
        -11    1    3    3    0    0  0.30077333915E+02 -0.18065965255E+02 -0.32978756657E+01  0.35240617194E+02  0.51100000000E-03 0.  1.
         12    1    3    3    0    0  0.24868694653E+01  0.16893367043E+01 -0.41404909431E+01  0.51168392087E+01  0.00000000000E+00 0. -1.
</event>
<event>
 7    1  0.3054835E-011  0.5052886E+02  0.7816164E-02  0.1300439E+00
        -11   -1    0    0    0    0  0.00000000000E+00  0.00000000000E+00  0.45593999997E+02  0.45594000000E+02  0.51100000000E-03 0.  1.
         11   -1    0    0    0    0 -0.00000000000E+00 -0.00000000000E+00 -0.45593999997E+02  0.45594000000E+02  0.51100000000E-03 0. -1.
    9900012    2    1    2    0    0  0.18314079580E+02 -0.24252765483E+02  0.27010434458E+02  0.50528859404E+02  0.29999998644E+02 0.  0.
         12    1    1    2    0    0 -0.18314079580E+02  0.24252765483E+02 -0.27010434458E+02  0.40659140596E+02  0.00000000000E+00 0. -1.
         11    1    3    3    0    0  0.13540614743E+01 -0.67326878706E+01 -0.27557768873E+01  0.73997888451E+01  0.51100000000E-03 0. -1.
        -11    1    3    3    0    0  0.81685056289E+01 -0.29099358026E+01  0.23354132032E+02  0.24911998993E+02  0.51100000000E-03 0.  1.
        -12    1    3    3    0    0  0.87915124767E+01 -0.14610141809E+02  0.64120793127E+01  0.18217071566E+02  0.00000000000E+00 0.  1.
</event>
<event>
 7    1  0.3054835E-011  0.5052886E+02  0.7816164E-02  0.1300439E+00
        -11   -1    0    0    0    0  0.00000000000E+00  0.00000000000E+00  0.45593999997E+02  0.45594000000E+02  0.51100000000E-03 0.  1.
         11   -1    0    0    0    0 -0.00000000000E+00 -0.00000000000E+00 -0.45593999997E+02  0.45594000000E+02  0.51100000000E-03 0. -1.
    9900012    2    1    2    0    0 -0.13677234808E+02 -0.37212528980E+02  0.90181219216E+01  0.50528860952E+02  0.30000003351E+02 0.  0.
         12    1    1    2    0    0  0.13677234808E+02  0.37212528980E+02 -0.90181219216E+01  0.40659139048E+02  0.00000000000E+00 0. -1.
         11    1    3    3    0    0 -0.99974204057E+01 -0.18780469274E+02 -0.95956165242E+01  0.23339457955E+02  0.51100000000E-03 0. -1.
        -11    1    3    3    0    0 -0.50626822931E+01 -0.10887433435E+02  0.97452176783E+01  0.15464030092E+02  0.51100000000E-03 0.  1.
         12    1    3    3    0    0  0.13828678905E+01 -0.75446262711E+01  0.88685207675E+01  0.11725372906E+02  0.00000000000E+00 0. -1.
</event>
<event>
 7    1  0.3054835E-011  0.5052887E+02  0.7816164E-02  0.1300439E+00
        -11   -1    0    0    0    0  0.00000000000E+00  0.00000000000E+00  0.45593999997E+02  0.45594000000E+02  0.51100000000E-03 0.  1.
         11   -1    0    0    0    0 -0.00000000000E+00 -0.00000000000E+00 -0.45593999997E+02  0.45594000000E+02  0.51100000000E-03 0. -1.
    9900012    2    1    2    0    0 -0.26675540693E+02  0.15600343962E+02  0.26423659120E+02  0.50528868624E+02  0.30000026670E+02 0.  0.
         12    1    1    2    0    0  0.26675540693E+02 -0.15600343962E+02 -0.26423659120E+02  0.40659131376E+02  0.00000000000E+00 0. -1.
         11    1    3    3    0    0 -0.33977934913E+01  0.12211040578E+02  0.57728729748E+01  0.13927690952E+02  0.51100000000E-03 0. -1.
        -11    1    3    3    0    0 -0.58895480431E+01 -0.46314564078E+01  0.14783122335E+02  0.16573408546E+02  0.51100000000E-03 0.  1.
        -12    1    3    3    0    0 -0.17388199158E+02  0.80207597915E+01  0.58676638105E+01  0.20027769127E+02  0.00000000000E+00 0.  1.
</event>
<event>
 7    1  0.3054835E-011  0.5052886E+02  0.7816164E-02  0.1300439E+00
        -11   -1    0    0    0    0  0.00000000000E+00  0.00000000000E+00  0.45593999997E+02  0.45594000000E+02  0.51100000000E-03 0.  1.
         11   -1    0    0    0    0 -0.00000000000E+00 -0.00000000000E+00 -0.45593999997E+02  0.45594000000E+02  0.51100000000E-03 0. -1.
    9900012    2    1    2    0    0 -0.51218039480E+01  0.35728796235E+02  0.18718594469E+02  0.50528861605E+02  0.30000005336E+02 0.  0.
         12    1    1    2    0    0  0.51218039480E+01 -0.35728796235E+02 -0.18718594469E+02  0.40659138395E+02  0.00000000000E+00 0. -1.
         11    1    3    3    0    0 -0.10726471424E+02  0.30983408544E+02  0.85954682730E+01  0.33895587756E+02  0.51100000000E-03 0. -1.
        -11    1    3    3    0    0  0.62302840435E+00  0.70083663400E+01  0.82662257557E+01  0.10855222322E+02  0.51100000000E-03 0.  1.
         12    1    3    3    0    0  0.49816390719E+01 -0.22629786493E+01  0.18569004404E+01  0.57780515276E+01  0.00000000000E+00 0. -1.
</event>
<event>
 7    1  0.3054835E-011  0.5052886E+02  0.7816164E-02  0.1300439E+00
        -11   -1    0    0    0    0  0.00000000000E+00  0.00000000000E+00  0.45593999997E+02  0.45594000000E+02  0.51100000000E-03 0.  1.
         11   -1    0    0    0    0 -0.00000000000E+00 -0.00000000000E+00 -0.45593999997E+02  0.45594000000E+02  0.51100000000E-03 0. -1.
    9900012    2    1    2    0    0 -0.13043923852E+02 -0.31721607766E+02  0.21834868139E+02  0.50528858157E+02  0.29999994854E+02 0.  0.
         12    1    1    2    0    0  0.13043923852E+02  0.31721607766E+02 -0.21834868139E+02  0.40659141843E+02  0.00000000000E+00 0. -1.
         11    1    3    3    0    0  0.24425638225E+01 -0.18238550937E+02  0.44585702324E+01  0.18933824418E+02  0.51100000000E-03 0. -1.
        -11    1    3    3    0    0 -0.16376619793E+02 -0.63961801085E+01  0.68380949758E+01  0.18864366912E+02  0.51100000000E-03 0.  1.
         12    1    3    3    0    0  0.89013211862E+00 -0.70868767208E+01  0.10538202931E+02  0.12730666827E+02  0.00000000000E+00 0. -1.
</event>
<event>
 7    1  0.3054835E-011  0.5052887E+02  0.7816164E-02  0.1300439E+00
        -11   -1    0    0    0    0  0.00000000000E+00  0.00000000000E+00  0.45593999997E+02  0.45594000000E+02  0.51100000000E-03 0.  1.
         11   -1    0    0    0    0 -0.00000000000E+00 -0.00000000000E+00 -0.45593999997E+02  0.45594000000E+02  0.51100000000E-03 0. -1.
    9900012    2    1    2    0    0  0.15241902646E+02  0.10955235080E+02  0.36067054244E+02  0.50528866048E+02  0.30000018838E+02 0.  0.
         12    1    1    2    0    0 -0.15241902646E+02 -0.10955235080E+02 -0.36067054244E+02  0.40659133952E+02  0.00000000000E+00 0. -1.
         11    1    3    3    0    0  0.25047945904E+01 -0.36049595448E+01  0.73129725259E+01  0.85293198254E+01  0.51100000000E-03 0. -1.
        -11    1    3    3    0    0  0.12464596242E+02  0.16514811996E+02  0.32055566702E+02  0.38153171973E+02  0.51100000000E-03 0.  1.
        -12    1    3    3    0    0  0.27251181324E+00 -0.19546173720E+01 -0.33014849843E+01  0.38463742487E+01  0.00000000000E+00 0.  1.
</event>
<event>
 7    1  0.3054835E-011  0.5052887E+02  0.7816164E-02  0.1300439E+00
        -11   -1    0    0    0    0  0.00000000000E+00  0.00000000000E+00  0.45593999997E+02  0.45594000000E+02  0.51100000000E-03 0.  1.
         11   -1    0    0    0    0 -0.00000000000E+00 -0.00000000000E+00 -0.45593999997E+02  0.45594000000E+02  0.51100000000E-03 0. -1.
    9900012    2    1    2    0    0 -0.66420110238E+01 -0.30973598854E+02  0.25488917281E+02  0.50528867685E+02  0.30000023816E+02 0.  0.
         12    1    1    2    0    0  0.66420110238E+01  0.30973598854E+02 -0.25488917281E+02  0.40659132315E+02  0.00000000000E+00 0. -1.
         11    1    3    3    0    0  0.51021832928E+01  0.85659282870E+00 -0.15595717313E+01  0.54035441956E+01  0.51100000000E-03 0. -1.
        -11    1    3    3    0    0 -0.16710366310E+01 -0.16815173360E+02  0.18719397952E+02  0.25218213230E+02  0.51100000000E-03 0.  1.
        -12    1    3    3    0    0 -0.10073157686E+02 -0.15015018323E+02  0.83290910603E+01  0.19907110260E+02  0.00000000000E+00 0.  1.
</event>
<event>
 7    1  0.3054835E-011  0.5052886E+02  0.7816164E-02  0.1300439E+00
        -11   -1    0    0    0    0  0.00000000000E+00  0.00000000000E+00  0.45593999997E+02  0.45594000000E+02  0.51100000000E-03 0.  1.
         11   -1    0    0    0    0 -0.00000000000E+00 -0.00000000000E+00 -0.45593999997E+02  0.45594000000E+02  0.51100000000E-03 0. -1.
    9900012    2    1    2    0    0 -0.15641742961E+02  0.43572862929E+01  0.37276212166E+02  0.50528855147E+02  0.29999985705E+02 0.  0.
         12    1    1    2    0    0  0.15641742961E+02 -0.43572862929E+01 -0.37276212166E+02  0.40659144853E+02  0.00000000000E+00 0. -1.
         11    1    3    3    0    0 -0.16478350497E+02  0.30876140039E+01  0.56908030286E+01  0.17704650087E+02  0.51100000000E-03 0. -1.
        -11    1    3    3    0    0  0.22162512567E+01  0.43353113139E+01  0.24533356347E+02  0.25011842550E+02  0.51100000000E-03 0.  1.
         12    1    3    3    0    0 -0.13796437205E+01 -0.30656390249E+01  0.70520527902E+01  0.78123625096E+01  0.00000000000E+00 0. -1.
</event>
<event>
 7    1  0.3054835E-011  0.5052886E+02  0.7816164E-02  0.1300439E+00
        -11   -1    0    0    0    0  0.00000000000E+00  0.00000000000E+00  0.45593999997E+02  0.45594000000E+02  0.51100000000E-03 0.  1.
         11   -1    0    0    0    0 -0.00000000000E+00 -0.00000000000E+00 -0.45593999997E+02  0.45594000000E+02  0.51100000000E-03 0. -1.
    9900012    2    1    2    0    0  0.71726685781E+01 -0.79175746581E+01  0.39230475143E+02  0.50528863967E+02  0.30000012514E+02 0.  0.
         12    1    1    2    0    0 -0.71726685781E+01  0.79175746581E+01 -0.39230475143E+02  0.40659136033E+02  0.00000000000E+00 0. -1.
         11    1    3    3    0    0  0.63184810897E+00 -0.17369081568E+02  0.16474203555E+02  0.23947517817E+02  0.51100000000E-03 0. -1.
        -11    1    3    3    0    0  0.53781503393E+01  0.48887778288E+01  0.19622571870E+02  0.20925342931E+02  0.51100000000E-03 0.  1.
        -12    1    3    3    0    0  0.11626701298E+01  0.45627290808E+01  0.31336997181E+01  0.56560032195E+01  0.00000000000E+00 0.  1.
</event>
<event>
 7    1  0.3054835E-011  0.5052886E+02  0.7816164E-02  0.1300439E+00
        -11   -1    0    0    0    0  0.00000000000E+00  0.00000000000E+00  0.45593999997E+02  0.45594000000E+02  0.51100000000E-03 0. -1.
         11   -1    0    0    0    0 -0.00000000000E+00 -0.00000000000E+00 -0.45593999997E+02  0.45594000000E+02  0.51100000000E-03 0.  1.
    9900012    2    1    2    0    0 -0.36340536789E+02 -0.77560297551E+01 -0.16503790383E+02  0.50528859469E+02  0.29999998842E+02 0.  0.
         12    1    1    2    0    0  0.36340536789E+02  0.77560297551E+01  0.16503790383E+02  0.40659140531E+02  0.00000000000E+00 0. -1.
         11    1    3    3    0    0 -0.29810507446E+02 -0.63573973234E+01 -0.51029184162E+01  0.30905058349E+02  0.51100000000E-03 0. -1.
        -11    1    3    3    0    0  0.20899551050E+01  0.29910986211E+01 -0.89198559393E+01  0.96373447350E+01  0.51100000000E-03 0.  1.
        -12    1    3    3    0    0 -0.86199844484E+01 -0.43897310528E+01 -0.24810160277E+01  0.99864563853E+01  0.00000000000E+00 0.  1.
</event>
<event>
 7    1  0.3054835E-011  0.5052886E+02  0.7816164E-02  0.1300439E+00
        -11   -1    0    0    0    0  0.00000000000E+00  0.00000000000E+00  0.45593999997E+02  0.45594000000E+02  0.51100000000E-03 0.  1.
         11   -1    0    0    0    0 -0.00000000000E+00 -0.00000000000E+00 -0.45593999997E+02  0.45594000000E+02  0.51100000000E-03 0. -1.
    9900012    2    1    2    0    0 -0.39434489160E+02 -0.88813950499E+01  0.43826392077E+01  0.50528860317E+02  0.30000001419E+02 0.  0.
         12    1    1    2    0    0  0.39434489160E+02  0.88813950499E+01 -0.43826392077E+01  0.40659139683E+02  0.00000000000E+00 0. -1.
         11    1    3    3    0    0 -0.66706395727E+01 -0.14060762358E+02  0.12263325415E+01  0.15611097404E+02  0.51100000000E-03 0. -1.
        -11    1    3    3    0    0 -0.81653969263E+01  0.57554084489E+01  0.25267727050E+01  0.10304514251E+02  0.51100000000E-03 0.  1.
         12    1    3    3    0    0 -0.24598452661E+02 -0.57604114132E+00  0.62953396122E+00  0.24613248663E+02  0.00000000000E+00 0. -1.
</event>
<event>
 7    1  0.3054835E-011  0.5052887E+02  0.7816164E-02  0.1300439E+00
        -11   -1    0    0    0    0  0.00000000000E+00  0.00000000000E+00  0.45593999997E+02  0.45594000000E+02  0.51100000000E-03 0. -1.
         11   -1    0    0    0    0 -0.00000000000E+00 -0.00000000000E+00 -0.45593999997E+02  0.45594000000E+02  0.51100000000E-03 0.  1.
    9900012    2    1    2    0    0 -0.19651539798E+02  0.20322574753E+02 -0.29222851384E+02  0.50528866905E+02  0.30000021444E+02 0.  0.
         12    1    1    2    0    0  0.19651539798E+02 -0.20322574753E+02  0.29222851384E+02  0.40659133095E+02  0.00000000000E+00 0. -1.
         11    1    3    3    0    0 -0.24907827886E+01 -0.41877148570E+01 -0.14579795178E+02  0.15372422786E+02  0.51100000000E-03 0. -1.
        -11    1    3    3    0    0 -0.14506779231E+02  0.12753987802E+02 -0.12238331394E+02  0.22866735754E+02  0.51100000000E-03 0.  1.
         12    1    3    3    0    0 -0.26539777791E+01  0.11756301808E+02 -0.24047248123E+01  0.12289708365E+02  0.00000000000E+00 0. -1.
</event>
<event>
 7    1  0.3054835E-011  0.5052887E+02  0.7816164E-02  0.1300439E+00
        -11   -1    0    0    0    0  0.00000000000E+00  0.00000000000E+00  0.45593999997E+02  0.45594000000E+02  0.51100000000E-03 0. -1.
         11   -1    0    0    0    0 -0.00000000000E+00 -0.00000000000E+00 -0.45593999997E+02  0.45594000000E+02  0.51100000000E-03 0.  1.
    9900012    2    1    2    0    0  0.37173093454E+02 -0.94550251375E+01 -0.13488096876E+02  0.50528866529E+02  0.30000020301E+02 0.  0.
         12    1    1    2    0    0 -0.37173093454E+02  0.94550251375E+01  0.13488096876E+02  0.40659133471E+02  0.00000000000E+00 0. -1.
         11    1    3    3    0    0  0.21880375809E+02 -0.15381807451E+02 -0.76695863130E+01  0.27823971688E+02  0.51100000000E-03 0. -1.
        -11    1    3    3    0    0  0.14465136910E+02  0.95122966436E+01 -0.20428225773E+01  0.17432644596E+02  0.51100000000E-03 0.  1.
         12    1    3    3    0    0  0.82758073496E+00 -0.35855143301E+01 -0.37756879859E+01  0.52722502455E+01  0.00000000000E+00 0. -1.
</event>
<event>
 7    1  0.3054835E-011  0.5052879E+02  0.7816164E-02  0.1300439E+00
        -11   -1    0    0    0    0  0.00000000000E+00  0.00000000000E+00  0.45593999997E+02  0.45594000000E+02  0.51100000000E-03 0.  1.
         11   -1    0    0    0    0 -0.00000000000E+00 -0.00000000000E+00 -0.45593999997E+02  0.45594000000E+02  0.51100000000E-03 0. -1.
    9900012    2    1    2    0    0  0.19664590736E+02 -0.34382855120E+02 -0.91812026482E+01  0.50528790255E+02  0.29999788459E+02 0.  0.
         12    1    1    2    0    0 -0.19664590736E+02  0.34382855120E+02  0.91812026482E+01  0.40659209745E+02  0.00000000000E+00 0. -1.
         11    1    3    3    0    0  0.34711046897E+01  0.49062271417E+01 -0.29904195252E-01  0.60100355285E+01  0.51100000000E-03 0. -1.
        -11    1    3    3    0    0  0.14466613922E+02 -0.27158795422E+02 -0.96702425695E+01  0.32255180650E+02  0.51100000000E-03 0.  1.
         12    1    3    3    0    0  0.17268721237E+01 -0.12130286840E+02  0.51894411650E+00  0.12263574077E+02  0.00000000000E+00 0. -1.
</event>
<event>
 7    1  0.3054835E-011  0.5052886E+02  0.7816164E-02  0.1300439E+00
        -11   -1    0    0    0    0  0.00000000000E+00  0.00000000000E+00  0.45593999997E+02  0.45594000000E+02  0.51100000000E-03 0. -1.
         11   -1    0    0    0    0 -0.00000000000E+00 -0.00000000000E+00 -0.45593999997E+02  0.45594000000E+02  0.51100000000E-03 0.  1.
    9900012    2    1    2    0    0  0.32688643316E+02  0.24007568195E+02 -0.28731296656E+01  0.50528860725E+02  0.30000002660E+02 0.  0.
         12    1    1    2    0    0 -0.32688643316E+02 -0.24007568195E+02  0.28731296656E+01  0.40659139275E+02  0.00000000000E+00 0. -1.
         11    1    3    3    0    0  0.86276985796E+01 -0.42399834358E+01 -0.56948394467E+01  0.11173443467E+02  0.51100000000E-03 0. -1.
        -11    1    3    3    0    0  0.13922781290E+02  0.24724710378E+02  0.35577185707E+01  0.28597421279E+02  0.51100000000E-03 0.  1.
        -12    1    3    3    0    0  0.10138163446E+02  0.35228412538E+01 -0.73600878963E+00  0.10757995980E+02  0.00000000000E+00 0.  1.
</event>
<event>
 7    1  0.3054835E-011  0.5052890E+02  0.7816164E-02  0.1300439E+00
        -11   -1    0    0    0    0  0.00000000000E+00  0.00000000000E+00  0.45593999997E+02  0.45594000000E+02  0.51100000000E-03 0.  1.
         11   -1    0    0    0    0 -0.00000000000E+00 -0.00000000000E+00 -0.45593999997E+02  0.45594000000E+02  0.51100000000E-03 0. -1.
    9900012    2    1    2    0    0  0.22042918760E+02  0.30402239702E+02 -0.15587695287E+02  0.50528896583E+02  0.30000111653E+02 0.  0.
         12    1    1    2    0    0 -0.22042918760E+02 -0.30402239702E+02  0.15587695287E+02  0.40659103417E+02  0.00000000000E+00 0. -1.
         11    1    3    3    0    0  0.70960848718E+01  0.10019010929E+02  0.80488536049E+01  0.14680566921E+02  0.51100000000E-03 0. -1.
        -11    1    3    3    0    0  0.12959013384E+02  0.16083001828E+02 -0.13543322807E+02  0.24698594466E+02  0.51100000000E-03 0.  1.
         12    1    3    3    0    0  0.19878205045E+01  0.43002269440E+01 -0.10093226085E+02  0.11149735196E+02  0.00000000000E+00 0. -1.
</event>
<event>
 7    1  0.3054835E-011  0.5052885E+02  0.7816164E-02  0.1300439E+00
        -11   -1    0    0    0    0  0.00000000000E+00  0.00000000000E+00  0.45593999997E+02  0.45594000000E+02  0.51100000000E-03 0.  1.
         11   -1    0    0    0    0 -0.00000000000E+00 -0.00000000000E+00 -0.45593999997E+02  0.45594000000E+02  0.51100000000E-03 0. -1.
    9900012    2    1    2    0    0  0.33614982755E+02  0.22470272442E+02  0.42762070609E+01  0.50528853968E+02  0.29999982120E+02 0.  0.
         12    1    1    2    0    0 -0.33614982755E+02 -0.22470272442E+02 -0.42762070609E+01  0.40659146032E+02  0.00000000000E+00 0. -1.
         11    1    3    3    0    0  0.59284157709E+01  0.97167480684E+01 -0.10630666133E+02  0.15574734966E+02  0.51100000000E-03 0. -1.
        -11    1    3    3    0    0  0.10947926037E+02  0.94886718543E+01  0.56559465041E+01  0.15552546710E+02  0.51100000000E-03 0.  1.
         12    1    3    3    0    0  0.16738640948E+02  0.32648525192E+01  0.92509266895E+01  0.19401572291E+02  0.00000000000E+00 0. -1.
</event>
<event>
 7    1  0.3054835E-011  0.5052886E+02  0.7816164E-02  0.1300439E+00
        -11   -1    0    0    0    0  0.00000000000E+00  0.00000000000E+00  0.45593999997E+02  0.45594000000E+02  0.51100000000E-03 0.  1.
         11   -1    0    0    0    0 -0.00000000000E+00 -0.00000000000E+00 -0.45593999997E+02  0.45594000000E+02  0.51100000000E-03 0. -1.
    9900012    2    1    2    0    0  0.22643137790E+02 -0.17674896617E+02  0.28775891052E+02  0.50528861234E+02  0.30000004206E+02 0.  0.
         12    1    1    2    0    0 -0.22643137790E+02  0.17674896617E+02 -0.28775891052E+02  0.40659138766E+02  0.00000000000E+00 0. -1.
         11    1    3    3    0    0  0.38640071762E+01  0.15526535137E+01  0.90355066995E+01  0.99489530087E+01  0.51100000000E-03 0. -1.
        -11    1    3    3    0    0  0.19191476055E+01 -0.15984924782E+02  0.16602219868E+02  0.23126492441E+02  0.51100000000E-03 0.  1.
        -12    1    3    3    0    0  0.16859983009E+02 -0.32426253484E+01  0.31381644842E+01  0.17453415784E+02  0.00000000000E+00 0.  1.
</event>
<event>
 7    1  0.3054835E-011  0.5052885E+02  0.7816164E-02  0.1300439E+00
        -11   -1    0    0    0    0  0.00000000000E+00  0.00000000000E+00  0.45593999997E+02  0.45594000000E+02  0.51100000000E-03 0.  1.
         11   -1    0    0    0    0 -0.00000000000E+00 -0.00000000000E+00 -0.45593999997E+02  0.45594000000E+02  0.51100000000E-03 0. -1.
    9900012    2    1    2    0    0  0.71198891927E+01  0.18539913058E+02  0.35478799176E+02  0.50528851100E+02  0.29999973403E+02 0.  0.
         12    1    1    2    0    0 -0.71198891927E+01 -0.18539913058E+02 -0.35478799176E+02  0.40659148900E+02  0.00000000000E+00 0. -1.
         11    1    3    3    0    0 -0.49504145886E+00  0.18763682433E+02  0.15130534121E+02  0.24109207941E+02  0.51100000000E-03 0. -1.
        -11    1    3    3    0    0  0.90536151954E+01  0.36050053519E+01  0.20081166654E+02  0.22320781038E+02  0.51100000000E-03 0.  1.
        -12    1    3    3    0    0 -0.14386845438E+01 -0.38287747271E+01  0.26709840057E+00  0.40988621205E+01  0.00000000000E+00 0.  1.
</event>
<event>
 7    1  0.3054835E-011  0.5052887E+02  0.7816164E-02  0.1300439E+00
        -11   -1    0    0    0    0  0.00000000000E+00  0.00000000000E+00  0.45593999997E+02  0.45594000000E+02  0.51100000000E-03 0. -1.
         11   -1    0    0    0    0 -0.00000000000E+00 -0.00000000000E+00 -0.45593999997E+02  0.45594000000E+02  0.51100000000E-03 0.  1.
    9900012    2    1    2    0    0  0.24849492143E+02  0.16991870352E+02 -0.27330274581E+02  0.50528870318E+02  0.30000031820E+02 0.  0.
         12    1    1    2    0    0 -0.24849492143E+02 -0.16991870352E+02  0.27330274581E+02  0.40659129682E+02  0.00000000000E+00 0. -1.
         11    1    3    3    0    0  0.60516934848E+00  0.84427425040E+01  0.24525295127E+01  0.88125496992E+01  0.51100000000E-03 0. -1.
        -11    1    3    3    0    0  0.20027312107E+02  0.43268614296E+01 -0.13926388111E+02  0.24774164893E+02  0.51100000000E-03 0.  1.
        -12    1    3    3    0    0  0.42170106872E+01  0.42222664182E+01 -0.15856415982E+02  0.16942155726E+02  0.00000000000E+00 0.  1.
</event>
<event>
 7    1  0.3054835E-011  0.5052887E+02  0.7816164E-02  0.1300439E+00
        -11   -1    0    0    0    0  0.00000000000E+00  0.00000000000E+00  0.45593999997E+02  0.45594000000E+02  0.51100000000E-03 0. -1.
         11   -1    0    0    0    0 -0.00000000000E+00 -0.00000000000E+00 -0.45593999997E+02  0.45594000000E+02  0.51100000000E-03 0.  1.
    9900012    2    1    2    0    0  0.14360238751E+02 -0.28657536352E+02 -0.25013881153E+02  0.50528866991E+02  0.30000021705E+02 0.  0.
         12    1    1    2    0    0 -0.14360238751E+02  0.28657536352E+02  0.25013881153E+02  0.40659133009E+02  0.00000000000E+00 0. -1.
         11    1    3    3    0    0 -0.61884096242E+01 -0.23941133985E+01  0.12532698760E+01  0.67526941501E+01  0.51100000000E-03 0. -1.
        -11    1    3    3    0    0  0.16505015424E+02 -0.20536514819E+02 -0.25596739245E+02  0.36733595458E+02  0.51100000000E-03 0.  1.
        -12    1    3    3    0    0  0.40436329509E+01 -0.57269081348E+01 -0.67041178377E+00  0.70425773823E+01  0.00000000000E+00 0.  1.
</event>
<event>
 7    1  0.3054835E-011  0.5052888E+02  0.7816164E-02  0.1300439E+00
        -11   -1    0    0    0    0  0.00000000000E+00  0.00000000000E+00  0.45593999997E+02  0.45594000000E+02  0.51100000000E-03 0.  1.
         11   -1    0    0    0    0 -0.00000000000E+00 -0.00000000000E+00 -0.45593999997E+02  0.45594000000E+02  0.51100000000E-03 0. -1.
    9900012    2    1    2    0    0 -0.46545178234E+01  0.22837514501E+02  0.33315879241E+02  0.50528875387E+02  0.30000047226E+02 0.  0.
         12    1    1    2    0    0  0.46545178234E+01 -0.22837514501E+02 -0.33315879241E+02  0.40659124613E+02  0.00000000000E+00 0. -1.
         11    1    3    3    0    0  0.87702583613E+01  0.23654992680E+01  0.80257227790E+01  0.12121272412E+02  0.51100000000E-03 0. -1.
        -11    1    3    3    0    0 -0.15968295905E+02  0.15070474802E+02  0.23529519732E+02  0.32182976617E+02  0.51100000000E-03 0.  1.
        -12    1    3    3    0    0  0.25435197202E+01  0.54015404312E+01  0.17606367300E+01  0.62246263576E+01  0.00000000000E+00 0.  1.
</event>
<event>
 7    1  0.3054835E-011  0.5052886E+02  0.7816164E-02  0.1300439E+00
        -11   -1    0    0    0    0  0.00000000000E+00  0.00000000000E+00  0.45593999997E+02  0.45594000000E+02  0.51100000000E-03 0. -1.
         11   -1    0    0    0    0 -0.00000000000E+00 -0.00000000000E+00 -0.45593999997E+02  0.45594000000E+02  0.51100000000E-03 0.  1.
    9900012    2    1    2    0    0 -0.56194447899E+01  0.34185269955E+02 -0.21282737188E+02  0.50528859037E+02  0.29999997529E+02 0.  0.
         12    1    1    2    0    0  0.56194447899E+01 -0.34185269955E+02  0.21282737188E+02  0.40659140963E+02  0.00000000000E+00 0. -1.
         11    1    3    3    0    0  0.56731859869E+00 -0.49366102367E+00 -0.49445167956E-01  0.75365554763E+00  0.51100000000E-03 0. -1.
        -11    1    3    3    0    0  0.73095511179E+01  0.10133030916E+02  0.28713698043E+01  0.12820008498E+02  0.51100000000E-03 0.  1.
        -12    1    3    3    0    0 -0.13496314507E+02  0.24545900063E+02 -0.24104661825E+02  0.36955194991E+02  0.00000000000E+00 0.  1.
</event>
<event>
 7    1  0.3054835E-011  0.5052887E+02  0.7816164E-02  0.1300439E+00
        -11   -1    0    0    0    0  0.00000000000E+00  0.00000000000E+00  0.45593999997E+02  0.45594000000E+02  0.51100000000E-03 0. -1.
         11   -1    0    0    0    0 -0.00000000000E+00 -0.00000000000E+00 -0.45593999997E+02  0.45594000000E+02  0.51100000000E-03 0.  1.
    9900012    2    1    2    0    0  0.37253699445E+02  0.11923733737E+02 -0.11097353706E+02  0.50528870547E+02  0.30000032515E+02 0.  0.
         12    1    1    2    0    0 -0.37253699445E+02 -0.11923733737E+02  0.11097353706E+02  0.40659129453E+02  0.00000000000E+00 0. -1.
         11    1    3    3    0    0  0.22643555352E+02 -0.29887703721E+01 -0.15863073009E+01  0.22894971466E+02  0.51100000000E-03 0. -1.
        -11    1    3    3    0    0  0.12839530603E+02  0.43585939064E+01 -0.10113590629E+02  0.16915543226E+02  0.51100000000E-03 0.  1.
         12    1    3    3    0    0  0.17706134900E+01  0.10553910203E+02  0.60254422467E+00  0.10718355855E+02  0.00000000000E+00 0. -1.
</event>
<event>
 7    1  0.3054835E-011  0.5052886E+02  0.7816164E-02  0.1300439E+00
        -11   -1    0    0    0    0  0.00000000000E+00  0.00000000000E+00  0.45593999997E+02  0.45594000000E+02  0.51100000000E-03 0.  1.
         11   -1    0    0    0    0 -0.00000000000E+00 -0.00000000000E+00 -0.45593999997E+02  0.45594000000E+02  0.51100000000E-03 0. -1.
    9900012    2    1    2    0    0  0.18398684218E+02 -0.14904466496E+02  0.33053151953E+02  0.50528861341E+02  0.30000004532E+02 0.  0.
         12    1    1    2    0    0 -0.18398684218E+02  0.14904466496E+02 -0.33053151953E+02  0.40659138659E+02  0.00000000000E+00 0. -1.
         11    1    3    3    0    0  0.20331107013E+02 -0.92671903773E+01  0.29107729005E+02  0.36694612928E+02  0.51100000000E-03 0.  1.
        -11    1    3    3    0    0 -0.58808928540E+01 -0.25758066175E+01 -0.13426791768E+01  0.65591514789E+01  0.51100000000E-03 0. -1.
        -12    1    3    3    0    0  0.39484700594E+01 -0.30614695010E+01  0.52881021251E+01  0.72750969341E+01  0.00000000000E+00 0.  1.
</event>
<event>
 7    1  0.3054835E-011  0.5052886E+02  0.7816164E-02  0.1300439E+00
        -11   -1    0    0    0    0  0.00000000000E+00  0.00000000000E+00  0.45593999997E+02  0.45594000000E+02  0.51100000000E-03 0.  1.
         11   -1    0    0    0    0 -0.00000000000E+00 -0.00000000000E+00 -0.45593999997E+02  0.45594000000E+02  0.51100000000E-03 0. -1.
    9900012    2    1    2    0    0  0.37617315476E+02 -0.14029643740E+02 -0.64243463842E+01  0.50528861378E+02  0.30000004643E+02 0.  0.
         12    1    1    2    0    0 -0.37617315476E+02  0.14029643740E+02  0.64243463842E+01  0.40659138622E+02  0.00000000000E+00 0. -1.
         11    1    3    3    0    0  0.27870968021E+02 -0.10725903458E+01 -0.10376758834E+02  0.29759341939E+02  0.51100000000E-03 0. -1.
        -11    1    3    3    0    0 -0.15201767187E+01 -0.37228024774E+01  0.46970104355E+01  0.61832113690E+01  0.51100000000E-03 0.  1.
        -12    1    3    3    0    0  0.11266524173E+02 -0.92342509169E+01 -0.74459798610E+00  0.14586308069E+02  0.00000000000E+00 0.  1.
</event>
<event>
 7    1  0.3054835E-011  0.5052892E+02  0.7816164E-02  0.1300439E+00
        -11   -1    0    0    0    0  0.00000000000E+00  0.00000000000E+00  0.45593999997E+02  0.45594000000E+02  0.51100000000E-03 0. -1.
         11   -1    0    0    0    0 -0.00000000000E+00 -0.00000000000E+00 -0.45593999997E+02  0.45594000000E+02  0.51100000000E-03 0.  1.
    9900012    2    1    2    0    0  0.23229290128E+02 -0.53177514859E+01 -0.32943626730E+02  0.50528918077E+02  0.30000176987E+02 0.  0.
         12    1    1    2    0    0 -0.23229290128E+02  0.53177514859E+01  0.32943626730E+02  0.40659081923E+02  0.00000000000E+00 0. -1.
         11    1    3    3    0    0  0.28638066892E+02 -0.91260332415E+01 -0.22783449159E+02  0.37716162502E+02  0.51100000000E-03 0. -1.
        -11    1    3    3    0    0 -0.31399969915E+01  0.51767469545E-01 -0.59674508268E+01  0.67433471369E+01  0.51100000000E-03 0.  1.
         12    1    3    3    0    0 -0.22687797729E+01  0.37565142860E+01 -0.41927267439E+01  0.60694084380E+01  0.00000000000E+00 0. -1.
</event>
<event>
 7    1  0.3054835E-011  0.5052886E+02  0.7816164E-02  0.1300439E+00
        -11   -1    0    0    0    0  0.00000000000E+00  0.00000000000E+00  0.45593999997E+02  0.45594000000E+02  0.51100000000E-03 0. -1.
         11   -1    0    0    0    0 -0.00000000000E+00 -0.00000000000E+00 -0.45593999997E+02  0.45594000000E+02  0.51100000000E-03 0.  1.
    9900012    2    1    2    0    0 -0.20608852288E+02  0.14157849992E+02 -0.32062384305E+02  0.50528855932E+02  0.29999988090E+02 0.  0.
         12    1    1    2    0    0  0.20608852288E+02 -0.14157849992E+02  0.32062384305E+02  0.40659144068E+02  0.00000000000E+00 0. -1.
         11    1    3    3    0    0 -0.15508430916E+01 -0.61746826915E+01 -0.96044726216E+00  0.64384998128E+01  0.51100000000E-03 0. -1.
        -11    1    3    3    0    0 -0.10022652825E+02  0.14259728236E+02 -0.93807852408E+01  0.19793750302E+02  0.51100000000E-03 0.  1.
        -12    1    3    3    0    0 -0.90353563716E+01  0.60728044474E+01 -0.21721151802E+02  0.24296605817E+02  0.00000000000E+00 0.  1.
</event>
<event>
 7    1  0.3054835E-011  0.5052884E+02  0.7816164E-02  0.1300439E+00
        -11   -1    0    0    0    0  0.00000000000E+00  0.00000000000E+00  0.45593999997E+02  0.45594000000E+02  0.51100000000E-03 0. -1.
         11   -1    0    0    0    0 -0.00000000000E+00 -0.00000000000E+00 -0.45593999997E+02  0.45594000000E+02  0.51100000000E-03 0.  1.
    9900012    2    1    2    0    0 -0.18867890392E+02  0.26527099537E+02 -0.24361504601E+02  0.50528841080E+02  0.29999942945E+02 0.  0.
         12    1    1    2    0    0  0.18867890392E+02 -0.26527099537E+02  0.24361504601E+02  0.40659158920E+02  0.00000000000E+00 0. -1.
         11    1    3    3    0    0  0.23457564977E+01  0.16128737852E+01 -0.90448146413E+01  0.94822258753E+01  0.51100000000E-03 0. -1.
        -11    1    3    3    0    0 -0.59701381281E+01  0.21519693088E+02 -0.10687427746E+02  0.24758046206E+02  0.51100000000E-03 0.  1.
        -12    1    3    3    0    0 -0.15243508761E+02  0.33945326641E+01 -0.46292622141E+01  0.16288568998E+02  0.00000000000E+00 0.  1.
</event>
<event>
 7    1  0.3054835E-011  0.5052887E+02  0.7816164E-02  0.1300439E+00
        -11   -1    0    0    0    0  0.00000000000E+00  0.00000000000E+00  0.45593999997E+02  0.45594000000E+02  0.51100000000E-03 0.  1.
         11   -1    0    0    0    0 -0.00000000000E+00 -0.00000000000E+00 -0.45593999997E+02  0.45594000000E+02  0.51100000000E-03 0. -1.
    9900012    2    1    2    0    0  0.16006420353E+01 -0.17745067816E+02  0.36547445132E+02  0.50528865326E+02  0.30000016646E+02 0.  0.
         12    1    1    2    0    0 -0.16006420353E+01  0.17745067816E+02 -0.36547445132E+02  0.40659134674E+02  0.00000000000E+00 0. -1.
         11    1    3    3    0    0 -0.36799319153E+01 -0.10826596225E+02  0.75284224195E+01  0.13690662114E+02  0.51100000000E-03 0. -1.
        -11    1    3    3    0    0  0.11033099700E+02  0.28108920855E+01  0.14207293157E+02  0.18206525820E+02  0.51100000000E-03 0.  1.
        -12    1    3    3    0    0 -0.57525257498E+01 -0.97293636765E+01  0.14811729555E+02  0.18631677393E+02  0.00000000000E+00 0.  1.
</event>
<event>
 7    1  0.3054835E-011  0.5052885E+02  0.7816164E-02  0.1300439E+00
        -11   -1    0    0    0    0  0.00000000000E+00  0.00000000000E+00  0.45593999997E+02  0.45594000000E+02  0.51100000000E-03 0.  1.
         11   -1    0    0    0    0 -0.00000000000E+00 -0.00000000000E+00 -0.45593999997E+02  0.45594000000E+02  0.51100000000E-03 0. -1.
    9900012    2    1    2    0    0 -0.23925759830E+02  0.23901910042E+01  0.32787373225E+02  0.50528845563E+02  0.29999956574E+02 0.  0.
         12    1    1    2    0    0  0.23925759830E+02 -0.23901910042E+01 -0.32787373225E+02  0.40659154437E+02  0.00000000000E+00 0. -1.
         11    1    3    3    0    0 -0.20327501025E+02 -0.33863341338E+01  0.18768195733E+02  0.27873279823E+02  0.51100000000E-03 0. -1.
        -11    1    3    3    0    0  0.26206549014E+01  0.38450102694E+01  0.15323365958E+02  0.16014289889E+02  0.51100000000E-03 0.  1.
         12    1    3    3    0    0 -0.62189137071E+01  0.19315148686E+01 -0.13041884658E+01  0.66412758517E+01  0.00000000000E+00 0. -1.
</event>
<event>
 7    1  0.3054835E-011  0.5052885E+02  0.7816164E-02  0.1300439E+00
        -11   -1    0    0    0    0  0.00000000000E+00  0.00000000000E+00  0.45593999997E+02  0.45594000000E+02  0.51100000000E-03 0. -1.
         11   -1    0    0    0    0 -0.00000000000E+00 -0.00000000000E+00 -0.45593999997E+02  0.45594000000E+02  0.51100000000E-03 0.  1.
    9900012    2    1    2    0    0 -0.94691832145E+01 -0.25069640795E+02 -0.30578005012E+02  0.50528847146E+02  0.29999961384E+02 0.  0.
         12    1    1    2    0    0  0.94691832145E+01  0.25069640795E+02  0.30578005012E+02  0.40659152854E+02  0.00000000000E+00 0. -1.
         11    1    3    3    0    0 -0.69975149366E+01 -0.11493091725E+02 -0.86854561839E+01  0.16015415139E+02  0.51100000000E-03 0. -1.
        -11    1    3    3    0    0 -0.31689999424E+01  0.10788378101E+01 -0.19332007034E+02  0.19619708150E+02  0.51100000000E-03 0.  1.
        -12    1    3    3    0    0  0.69733166448E+00 -0.14655386880E+02 -0.25605417933E+01  0.14893723857E+02  0.00000000000E+00 0.  1.
</event>
<event>
 7    1  0.3054835E-011  0.5052884E+02  0.7816164E-02  0.1300439E+00
        -11   -1    0    0    0    0  0.00000000000E+00  0.00000000000E+00  0.45593999997E+02  0.45594000000E+02  0.51100000000E-03 0.  1.
         11   -1    0    0    0    0 -0.00000000000E+00 -0.00000000000E+00 -0.45593999997E+02  0.45594000000E+02  0.51100000000E-03 0. -1.
    9900012    2    1    2    0    0 -0.17111655712E+02  0.35240090296E+02  0.10885528062E+02  0.50528838100E+02  0.29999933887E+02 0.  0.
         12    1    1    2    0    0  0.17111655712E+02 -0.35240090296E+02 -0.10885528062E+02  0.40659161900E+02  0.00000000000E+00 0. -1.
         11    1    3    3    0    0  0.39675840190E+01  0.42993305239E+01 -0.40697624015E+01  0.71266354030E+01  0.51100000000E-03 0. -1.
        -11    1    3    3    0    0 -0.15948487329E+02  0.29341419692E+02  0.75266235888E+01  0.34233364142E+02  0.51100000000E-03 0.  1.
         12    1    3    3    0    0 -0.51307524020E+01  0.15993400803E+01  0.74286668744E+01  0.91688385542E+01  0.00000000000E+00 0. -1.
</event>
<event>
 7    1  0.3054835E-011  0.5052886E+02  0.7816164E-02  0.1300439E+00
        -11   -1    0    0    0    0  0.00000000000E+00  0.00000000000E+00  0.45593999997E+02  0.45594000000E+02  0.51100000000E-03 0.  1.
         11   -1    0    0    0    0 -0.00000000000E+00 -0.00000000000E+00 -0.45593999997E+02  0.45594000000E+02  0.51100000000E-03 0. -1.
    9900012    2    1    2    0    0 -0.37971797366E+02 -0.80259604212E+01 -0.12119907590E+02  0.50528860857E+02  0.30000003060E+02 0.  0.
         12    1    1    2    0    0  0.37971797366E+02  0.80259604212E+01  0.12119907590E+02  0.40659139143E+02  0.00000000000E+00 0. -1.
         11    1    3    3    0    0 -0.20825887153E+01 -0.52859768242E+01  0.11660917366E+01  0.57998704246E+01  0.51100000000E-03 0. -1.
        -11    1    3    3    0    0 -0.35894520732E+02  0.17943894103E+01 -0.64312733321E+01  0.36510241424E+02  0.51100000000E-03 0.  1.
        -12    1    3    3    0    0  0.53120814242E-02 -0.45343730074E+01 -0.68547259948E+01  0.82187490077E+01  0.00000000000E+00 0.  1.
</event>
<event>
 7    1  0.3054835E-011  0.5052886E+02  0.7816164E-02  0.1300439E+00
        -11   -1    0    0    0    0  0.00000000000E+00  0.00000000000E+00  0.45593999997E+02  0.45594000000E+02  0.51100000000E-03 0. -1.
         11   -1    0    0    0    0 -0.00000000000E+00 -0.00000000000E+00 -0.45593999997E+02  0.45594000000E+02  0.51100000000E-03 0.  1.
    9900012    2    1    2    0    0  0.34764047517E+02  0.77769320731E+01  0.19599650302E+02  0.50528856327E+02  0.29999989291E+02 0.  0.
         12    1    1    2    0    0 -0.34764047517E+02 -0.77769320731E+01 -0.19599650302E+02  0.40659143673E+02  0.00000000000E+00 0. -1.
         11    1    3    3    0    0  0.24397712381E+02 -0.28281313422E+01  0.18174685034E+02  0.30554310215E+02  0.51100000000E-03 0. -1.
        -11    1    3    3    0    0  0.11707465500E+02  0.10825832786E+02  0.45370954710E+01  0.16578559633E+02  0.51100000000E-03 0.  1.
         12    1    3    3    0    0 -0.13411303638E+01 -0.22076937115E+00 -0.31121302026E+01  0.33959864791E+01  0.00000000000E+00 0. -1.
</event>
<event>
 7    1  0.3054835E-011  0.5052886E+02  0.7816164E-02  0.1300439E+00
        -11   -1    0    0    0    0  0.00000000000E+00  0.00000000000E+00  0.45593999997E+02  0.45594000000E+02  0.51100000000E-03 0. -1.
         11   -1    0    0    0    0 -0.00000000000E+00 -0.00000000000E+00 -0.45593999997E+02  0.45594000000E+02  0.51100000000E-03 0.  1.
    9900012    2    1    2    0    0 -0.36885300872E+02  0.77560634372E+01  0.15247427412E+02  0.50528856094E+02  0.29999988584E+02 0.  0.
         12    1    1    2    0    0  0.36885300872E+02 -0.77560634372E+01 -0.15247427412E+02  0.40659143906E+02  0.00000000000E+00 0. -1.
         11    1    3    3    0    0 -0.10674422558E+01 -0.80364973787E+01  0.32577844786E+01  0.87371553184E+01  0.51100000000E-03 0. -1.
        -11    1    3    3    0    0 -0.10865182702E+02  0.73890179432E+01  0.73520865825E+01  0.15056658284E+02  0.51100000000E-03 0.  1.
         12    1    3    3    0    0 -0.24952675915E+02  0.84035428727E+01  0.46375563506E+01  0.26735042492E+02  0.00000000000E+00 0. -1.
</event>
<event>
 7    1  0.3054835E-011  0.5052886E+02  0.7816164E-02  0.1300439E+00
        -11   -1    0    0    0    0  0.00000000000E+00  0.00000000000E+00  0.45593999997E+02  0.45594000000E+02  0.51100000000E-03 0.  1.
         11   -1    0    0    0    0 -0.00000000000E+00 -0.00000000000E+00 -0.45593999997E+02  0.45594000000E+02  0.51100000000E-03 0. -1.
    9900012    2    1    2    0    0 -0.35290599553E+02 -0.85681700496E+01  0.18284585713E+02  0.50528855525E+02  0.29999986853E+02 0.  0.
         12    1    1    2    0    0  0.35290599553E+02  0.85681700496E+01 -0.18284585713E+02  0.40659144475E+02  0.00000000000E+00 0. -1.
         11    1    3    3    0    0 -0.22568230656E+02 -0.47268398047E+00 -0.19489560087E+01  0.22657159903E+02  0.51100000000E-03 0. -1.
        -11    1    3    3    0    0 -0.67063864173E-01 -0.93584142295E+00  0.10112203480E+02  0.10155636672E+02  0.51100000000E-03 0.  1.
         12    1    3    3    0    0 -0.12655305033E+02 -0.71596446462E+01  0.10121338242E+02  0.17716058950E+02  0.00000000000E+00 0. -1.
</event>
<event>
 7    1  0.3054835E-011  0.5052883E+02  0.7816164E-02  0.1300439E+00
        -11   -1    0    0    0    0  0.00000000000E+00  0.00000000000E+00  0.45593999997E+02  0.45594000000E+02  0.51100000000E-03 0.  1.
         11   -1    0    0    0    0 -0.00000000000E+00 -0.00000000000E+00 -0.45593999997E+02  0.45594000000E+02  0.51100000000E-03 0. -1.
    9900012    2    1    2    0    0 -0.35381647576E+02  0.59963207784E+01  0.19114171073E+02  0.50528826572E+02  0.29999898847E+02 0.  0.
         12    1    1    2    0    0  0.35381647576E+02 -0.59963207784E+01 -0.19114171073E+02  0.40659173428E+02  0.00000000000E+00 0. -1.
         11    1    3    3    0    0 -0.18443972499E+02 -0.47403412799E+01 -0.43429162796E+01  0.19532329075E+02  0.51100000000E-03 0. -1.
        -11    1    3    3    0    0 -0.81141672820E+01  0.35569885349E+01  0.11066563626E+02  0.14176061119E+02  0.51100000000E-03 0.  1.
         12    1    3    3    0    0 -0.88235077948E+01  0.71796735234E+01  0.12390523727E+02  0.16820436378E+02  0.00000000000E+00 0. -1.
</event>
<event>
 7    1  0.3054835E-011  0.5052887E+02  0.7816164E-02  0.1300439E+00
        -11   -1    0    0    0    0  0.00000000000E+00  0.00000000000E+00  0.45593999997E+02  0.45594000000E+02  0.51100000000E-03 0.  1.
         11   -1    0    0    0    0 -0.00000000000E+00 -0.00000000000E+00 -0.45593999997E+02  0.45594000000E+02  0.51100000000E-03 0. -1.
    9900012    2    1    2    0    0  0.31677696658E+02 -0.51190065952E+01  0.24969657679E+02  0.50528874349E+02  0.30000044072E+02 0.  0.
         12    1    1    2    0    0 -0.31677696658E+02  0.51190065952E+01 -0.24969657679E+02  0.40659125651E+02  0.00000000000E+00 0. -1.
         11    1    3    3    0    0  0.20659651955E+01 -0.49008414927E+01  0.86227468250E+00  0.53879474213E+01  0.51100000000E-03 0. -1.
        -11    1    3    3    0    0  0.92769716745E+01  0.13770812844E+01  0.22855965240E+02  0.24705337554E+02  0.51100000000E-03 0.  1.
        -12    1    3    3    0    0  0.20334759788E+02 -0.15952463869E+01  0.12514177558E+01  0.20435589374E+02  0.00000000000E+00 0.  1.
</event>
<event>
 7    1  0.3054835E-011  0.5052886E+02  0.7816164E-02  0.1300439E+00
        -11   -1    0    0    0    0  0.00000000000E+00  0.00000000000E+00  0.45593999997E+02  0.45594000000E+02  0.51100000000E-03 0. -1.
         11   -1    0    0    0    0 -0.00000000000E+00 -0.00000000000E+00 -0.45593999997E+02  0.45594000000E+02  0.51100000000E-03 0.  1.
    9900012    2    1    2    0    0 -0.37153902076E+02  0.13735793318E+02  0.91695990240E+01  0.50528855841E+02  0.29999987814E+02 0.  0.
         12    1    1    2    0    0  0.37153902076E+02 -0.13735793318E+02 -0.91695990240E+01  0.40659144159E+02  0.00000000000E+00 0. -1.
         11    1    3    3    0    0 -0.41113723404E+00 -0.62296143749E+00  0.97616002444E+01  0.97900947069E+01  0.51100000000E-03 0. -1.
        -11    1    3    3    0    0 -0.28458275407E+02  0.15304132811E+02  0.58607044649E+00  0.32317694829E+02  0.51100000000E-03 0.  1.
        -12    1    3    3    0    0 -0.82844894347E+01 -0.94537805572E+00 -0.11780716669E+01  0.84210663050E+01  0.00000000000E+00 0.  1.
</event>
<event>
 7    1  0.3054835E-011  0.5052886E+02  0.7816164E-02  0.1300439E+00
        -11   -1    0    0    0    0  0.00000000000E+00  0.00000000000E+00  0.45593999997E+02  0.45594000000E+02  0.51100000000E-03 0.  1.
         11   -1    0    0    0    0 -0.00000000000E+00 -0.00000000000E+00 -0.45593999997E+02  0.45594000000E+02  0.51100000000E-03 0. -1.
    9900012    2    1    2    0    0 -0.11833498744E+02  0.15088636032E+02  0.35853405334E+02  0.50528864448E+02  0.30000013975E+02 0.  0.
         12    1    1    2    0    0  0.11833498744E+02 -0.15088636032E+02 -0.35853405334E+02  0.40659135552E+02  0.00000000000E+00 0. -1.
         11    1    3    3    0    0 -0.11437040541E+02  0.37148134289E+01  0.94686647991E+01  0.15305598599E+02  0.51100000000E-03 0. -1.
        -11    1    3    3    0    0 -0.43499842817E+01  0.78543275887E+01  0.28225566427E+02  0.29619173275E+02  0.51100000000E-03 0.  1.
         12    1    3    3    0    0  0.39535260782E+01  0.35194950145E+01 -0.18408258920E+01  0.56040925735E+01  0.00000000000E+00 0. -1.
</event>
<event>
 7    1  0.3054835E-011  0.5052884E+02  0.7816164E-02  0.1300439E+00
        -11   -1    0    0    0    0  0.00000000000E+00  0.00000000000E+00  0.45593999997E+02  0.45594000000E+02  0.51100000000E-03 0. -1.
         11   -1    0    0    0    0 -0.00000000000E+00 -0.00000000000E+00 -0.45593999997E+02  0.45594000000E+02  0.51100000000E-03 0.  1.
    9900012    2    1    2    0    0 -0.32677666633E+02  0.15262251967E+02 -0.18772339007E+02  0.50528844285E+02  0.29999952688E+02 0.  0.
         12    1    1    2    0    0  0.32677666633E+02 -0.15262251967E+02  0.18772339007E+02  0.40659155715E+02  0.00000000000E+00 0. -1.
         11    1    3    3    0    0  0.41169483591E+01  0.56819503274E+01 -0.87179860405E+01  0.11190938485E+02  0.51100000000E-03 0. -1.
        -11    1    3    3    0    0 -0.15331098872E+02  0.35573714504E+01 -0.42434855372E+01  0.16300449504E+02  0.51100000000E-03 0.  1.
         12    1    3    3    0    0 -0.21463516120E+02  0.60229301896E+01 -0.58108674290E+01  0.23037456295E+02  0.00000000000E+00 0. -1.
</event>
<event>
 7    1  0.3054835E-011  0.5052886E+02  0.7816164E-02  0.1300439E+00
        -11   -1    0    0    0    0  0.00000000000E+00  0.00000000000E+00  0.45593999997E+02  0.45594000000E+02  0.51100000000E-03 0. -1.
         11   -1    0    0    0    0 -0.00000000000E+00 -0.00000000000E+00 -0.45593999997E+02  0.45594000000E+02  0.51100000000E-03 0.  1.
    9900012    2    1    2    0    0  0.59878715634E+01 -0.24387271545E+02 -0.31977677918E+02  0.50528861983E+02  0.30000006484E+02 0.  0.
         12    1    1    2    0    0 -0.59878715634E+01  0.24387271545E+02  0.31977677918E+02  0.40659138017E+02  0.00000000000E+00 0. -1.
         11    1    3    3    0    0  0.13762769630E+01 -0.60798924014E+01  0.43533734382E+01  0.76033604705E+01  0.51100000000E-03 0. -1.
        -11    1    3    3    0    0 -0.12948666025E+01 -0.15976623964E+02 -0.21718774468E+02  0.26993227993E+02  0.51100000000E-03 0.  1.
        -12    1    3    3    0    0  0.59064612028E+01 -0.23307551787E+01 -0.14612276888E+02  0.15932273520E+02  0.00000000000E+00 0.  1.
</event>
<event>
 7    1  0.3054835E-011  0.5052887E+02  0.7816164E-02  0.1300439E+00
        -11   -1    0    0    0    0  0.00000000000E+00  0.00000000000E+00  0.45593999997E+02  0.45594000000E+02  0.51100000000E-03 0.  1.
         11   -1    0    0    0    0 -0.00000000000E+00 -0.00000000000E+00 -0.45593999997E+02  0.45594000000E+02  0.51100000000E-03 0. -1.
    9900012    2    1    2    0    0 -0.68638036516E+01 -0.19204137130E+02  0.35174628350E+02  0.50528866179E+02  0.30000019238E+02 0.  0.
         12    1    1    2    0    0  0.68638036516E+01  0.19204137130E+02 -0.35174628350E+02  0.40659133821E+02  0.00000000000E+00 0. -1.
         11    1    3    3    0    0 -0.85093844127E+01 -0.92376213158E+00  0.96963808968E+01  0.12933783759E+02  0.51100000000E-03 0. -1.
        -11    1    3    3    0    0 -0.18734272831E+00 -0.20514765664E+02  0.11909262800E+02  0.23721746315E+02  0.51100000000E-03 0.  1.
        -12    1    3    3    0    0  0.18329234894E+01  0.22343906651E+01  0.13568984653E+02  0.13873336105E+02  0.00000000000E+00 0.  1.
</event>
<event>
 7    1  0.3054835E-011  0.5052886E+02  0.7816164E-02  0.1300439E+00
        -11   -1    0    0    0    0  0.00000000000E+00  0.00000000000E+00  0.45593999997E+02  0.45594000000E+02  0.51100000000E-03 0. -1.
         11   -1    0    0    0    0 -0.00000000000E+00 -0.00000000000E+00 -0.45593999997E+02  0.45594000000E+02  0.51100000000E-03 0.  1.
    9900012    2    1    2    0    0  0.16155557369E+02 -0.30886865409E+02 -0.20932394175E+02  0.50528860627E+02  0.30000002361E+02 0.  0.
         12    1    1    2    0    0 -0.16155557369E+02  0.30886865409E+02  0.20932394175E+02  0.40659139373E+02  0.00000000000E+00 0. -1.
         11    1    3    3    0    0  0.13692071576E+02 -0.89448684223E+01  0.21142169641E+01  0.16491009938E+02  0.51100000000E-03 0. -1.
        -11    1    3    3    0    0  0.68300793062E+01 -0.13003937926E+02 -0.10648592688E+02  0.18142351320E+02  0.51100000000E-03 0.  1.
         12    1    3    3    0    0 -0.43665935132E+01 -0.89380590603E+01 -0.12398018451E+02  0.15895499369E+02  0.00000000000E+00 0. -1.
</event>
<event>
 7    1  0.3054835E-011  0.5052886E+02  0.7816164E-02  0.1300439E+00
        -11   -1    0    0    0    0  0.00000000000E+00  0.00000000000E+00  0.45593999997E+02  0.45594000000E+02  0.51100000000E-03 0.  1.
         11   -1    0    0    0    0 -0.00000000000E+00 -0.00000000000E+00 -0.45593999997E+02  0.45594000000E+02  0.51100000000E-03 0. -1.
    9900012    2    1    2    0    0  0.30794560233E+02  0.24299784062E+02  0.10694906364E+02  0.50528862435E+02  0.30000007857E+02 0.  0.
         12    1    1    2    0    0 -0.30794560233E+02 -0.24299784062E+02 -0.10694906364E+02  0.40659137565E+02  0.00000000000E+00 0. -1.
         11    1    3    3    0    0 -0.12644949608E+01  0.11909781989E+02 -0.33625150465E+01  0.12439789477E+02  0.51100000000E-03 0. -1.
        -11    1    3    3    0    0  0.27131346847E+02  0.11766347290E+02  0.14795423982E+02  0.33067529109E+02  0.51100000000E-03 0.  1.
        -12    1    3    3    0    0  0.49277083466E+01  0.62365478335E+00 -0.73800257158E+00  0.50215438496E+01  0.00000000000E+00 0.  1.
</event>
<event>
 7    1  0.3054835E-011  0.5052886E+02  0.7816164E-02  0.1300439E+00
        -11   -1    0    0    0    0  0.00000000000E+00  0.00000000000E+00  0.45593999997E+02  0.45594000000E+02  0.51100000000E-03 0.  1.
         11   -1    0    0    0    0 -0.00000000000E+00 -0.00000000000E+00 -0.45593999997E+02  0.45594000000E+02  0.51100000000E-03 0. -1.
    9900012    2    1    2    0    0  0.29570230849E+02 -0.27903646723E+02  0.39205150085E+00  0.50528858871E+02  0.29999997026E+02 0.  0.
         12    1    1    2    0    0 -0.29570230849E+02  0.27903646723E+02 -0.39205150085E+00  0.40659141129E+02  0.00000000000E+00 0. -1.
         11    1    3    3    0    0  0.27057692083E+02 -0.19104149583E+02 -0.85363669816E+00  0.33133305419E+02  0.51100000000E-03 0. -1.
        -11    1    3    3    0    0  0.81366426473E+01 -0.83397445465E+01  0.14962460707E+01  0.11747129234E+02  0.51100000000E-03 0.  1.
         12    1    3    3    0    0 -0.56241038804E+01 -0.45975259347E+00 -0.25055787167E+00  0.56484242185E+01  0.00000000000E+00 0. -1.
</event>
<event>
 7    1  0.3054835E-011  0.5052885E+02  0.7816164E-02  0.1300439E+00
        -11   -1    0    0    0    0  0.00000000000E+00  0.00000000000E+00  0.45593999997E+02  0.45594000000E+02  0.51100000000E-03 0. -1.
         11   -1    0    0    0    0 -0.00000000000E+00 -0.00000000000E+00 -0.45593999997E+02  0.45594000000E+02  0.51100000000E-03 0.  1.
    9900012    2    1    2    0    0  0.10712242084E+02  0.36077287063E+02  0.15389716692E+02  0.50528854015E+02  0.29999982265E+02 0.  0.
         12    1    1    2    0    0 -0.10712242084E+02 -0.36077287063E+02 -0.15389716692E+02  0.40659145985E+02  0.00000000000E+00 0. -1.
         11    1    3    3    0    0 -0.82353212440E+00 -0.97661292504E+00  0.88714465978E+01  0.89629539196E+01  0.51100000000E-03 0. -1.
        -11    1    3    3    0    0  0.17263018970E+01  0.26750364531E+02  0.36510568330E+01  0.27053508775E+02  0.51100000000E-03 0.  1.
         12    1    3    3    0    0  0.98094723116E+01  0.10303535457E+02  0.28672132617E+01  0.14512391321E+02  0.00000000000E+00 0. -1.
</event>
<event>
 7    1  0.3054835E-011  0.5052886E+02  0.7816164E-02  0.1300439E+00
        -11   -1    0    0    0    0  0.00000000000E+00  0.00000000000E+00  0.45593999997E+02  0.45594000000E+02  0.51100000000E-03 0.  1.
         11   -1    0    0    0    0 -0.00000000000E+00 -0.00000000000E+00 -0.45593999997E+02  0.45594000000E+02  0.51100000000E-03 0. -1.
    9900012    2    1    2    0    0 -0.13468557378E+02  0.24428757054E+02  0.29580394345E+02  0.50528856641E+02  0.29999990247E+02 0.  0.
         12    1    1    2    0    0  0.13468557378E+02 -0.24428757054E+02 -0.29580394345E+02  0.40659143359E+02  0.00000000000E+00 0. -1.
         11    1    3    3    0    0 -0.14038384884E+01 -0.29172452484E+01  0.60845447779E+01  0.68922251673E+01  0.51100000000E-03 0. -1.
        -11    1    3    3    0    0 -0.17630399842E+02  0.23457713592E+02  0.22022989684E+02  0.36689336332E+02  0.51100000000E-03 0.  1.
        -12    1    3    3    0    0  0.55656809528E+01  0.38882887098E+01  0.14728598833E+01  0.69472951423E+01  0.00000000000E+00 0.  1.
</event>
<event>
 7    1  0.3054835E-011  0.5052872E+02  0.7816164E-02  0.1300439E+00
        -11   -1    0    0    0    0  0.00000000000E+00  0.00000000000E+00  0.45593999997E+02  0.45594000000E+02  0.51100000000E-03 0.  1.
         11   -1    0    0    0    0 -0.00000000000E+00 -0.00000000000E+00 -0.45593999997E+02  0.45594000000E+02  0.51100000000E-03 0. -1.
    9900012    2    1    2    0    0 -0.27369809169E+02 -0.27451068147E+02 -0.12268225112E+02  0.50528721308E+02  0.29999578883E+02 0.  0.
         12    1    1    2    0    0  0.27369809169E+02  0.27451068147E+02  0.12268225112E+02  0.40659278692E+02  0.00000000000E+00 0. -1.
         11    1    3    3    0    0 -0.13700746702E+02 -0.20760475398E+01 -0.31583536277E+01  0.14212516719E+02  0.51100000000E-03 0. -1.
        -11    1    3    3    0    0  0.33296041869E+01 -0.13341182650E+02 -0.68638865589E+01  0.15368355718E+02  0.51100000000E-03 0.  1.
        -12    1    3    3    0    0 -0.16998666654E+02 -0.12033837958E+02 -0.22459849258E+01  0.20947848870E+02  0.00000000000E+00 0.  1.
</event>
<event>
 7    1  0.3054835E-011  0.5052886E+02  0.7816164E-02  0.1300439E+00
        -11   -1    0    0    0    0  0.00000000000E+00  0.00000000000E+00  0.45593999997E+02  0.45594000000E+02  0.51100000000E-03 0.  1.
         11   -1    0    0    0    0 -0.00000000000E+00 -0.00000000000E+00 -0.45593999997E+02  0.45594000000E+02  0.51100000000E-03 0. -1.
    9900012    2    1    2    0    0  0.13022725991E+02  0.38512358206E+02 -0.61034922667E+00  0.50528860154E+02  0.30000000925E+02 0.  0.
         12    1    1    2    0    0 -0.13022725991E+02 -0.38512358206E+02  0.61034922667E+00  0.40659139846E+02  0.00000000000E+00 0. -1.
         11    1    3    3    0    0  0.10934215321E+02  0.12942572037E+02 -0.10191644858E+02  0.19772123325E+02  0.51100000000E-03 0. -1.
        -11    1    3    3    0    0  0.69777202673E+01  0.20496833524E+02  0.46192462455E+01  0.22139245714E+02  0.51100000000E-03 0.  1.
         12    1    3    3    0    0 -0.48892095972E+01  0.50729526453E+01  0.49620493854E+01  0.86174911157E+01  0.00000000000E+00 0. -1.
</event>
<event>
 7    1  0.3054835E-011  0.5052891E+02  0.7816164E-02  0.1300439E+00
        -11   -1    0    0    0    0  0.00000000000E+00  0.00000000000E+00  0.45593999997E+02  0.45594000000E+02  0.51100000000E-03 0. -1.
         11   -1    0    0    0    0 -0.00000000000E+00 -0.00000000000E+00 -0.45593999997E+02  0.45594000000E+02  0.51100000000E-03 0.  1.
    9900012    2    1    2    0    0 -0.24597046687E+02  0.18620112194E+02 -0.26484682331E+02  0.50528908987E+02  0.30000149357E+02 0.  0.
         12    1    1    2    0    0  0.24597046687E+02 -0.18620112194E+02  0.26484682331E+02  0.40659091013E+02  0.00000000000E+00 0. -1.
         11    1    3    3    0    0 -0.51344724669E+01 -0.46445729802E+01  0.76870563353E+00  0.69660443793E+01  0.51100000000E-03 0. -1.
        -11    1    3    3    0    0 -0.95144937753E+01  0.15846725158E+02 -0.69092812992E+01  0.19732776246E+02  0.51100000000E-03 0.  1.
         12    1    3    3    0    0 -0.99480804452E+01  0.74179600158E+01 -0.20344106665E+02  0.23830088362E+02  0.00000000000E+00 0. -1.
</event>
<event>
 7    1  0.3054835E-011  0.5052887E+02  0.7816164E-02  0.1300439E+00
        -11   -1    0    0    0    0  0.00000000000E+00  0.00000000000E+00  0.45593999997E+02  0.45594000000E+02  0.51100000000E-03 0. -1.
         11   -1    0    0    0    0 -0.00000000000E+00 -0.00000000000E+00 -0.45593999997E+02  0.45594000000E+02  0.51100000000E-03 0.  1.
    9900012    2    1    2    0    0 -0.20025876935E+02 -0.26142116008E+02 -0.23847832991E+02  0.50528866773E+02  0.30000021044E+02 0.  0.
         12    1    1    2    0    0  0.20025876935E+02  0.26142116008E+02  0.23847832991E+02  0.40659133227E+02  0.00000000000E+00 0. -1.
         11    1    3    3    0    0 -0.35958537618E+01 -0.24574211000E+01  0.38450479304E+01  0.58097742286E+01  0.51100000000E-03 0. -1.
        -11    1    3    3    0    0 -0.19832874103E+02 -0.13822702137E+02 -0.22666555824E+02  0.33138840395E+02  0.51100000000E-03 0.  1.
         12    1    3    3    0    0  0.34028509291E+01 -0.98619927715E+01 -0.50263250971E+01  0.11580252150E+02  0.00000000000E+00 0. -1.
</event>
<event>
 7    1  0.3333014E-011  0.5052884E+02  0.7816164E-02  0.1300439E+00
        -11   -1    0    0    0    0  0.00000000000E+00  0.00000000000E+00  0.45593999997E+02  0.45594000000E+02  0.51100000000E-03 0. -1.
         11   -1    0    0    0    0 -0.00000000000E+00 -0.00000000000E+00 -0.45593999997E+02  0.45594000000E+02  0.51100000000E-03 0.  1.
    9900012    2    1    2    0    0 -0.12412997207E+01  0.28240832594E+02 -0.29224684507E+02  0.50528835779E+02  0.29999926833E+02 0.  0.
         12    1    1    2    0    0  0.12412997207E+01 -0.28240832594E+02  0.29224684507E+02  0.40659164221E+02  0.00000000000E+00 0. -1.
         11    1    3    3    0    0  0.96858482595E+01  0.69108877190E+01 -0.33009706196E+01  0.12347972824E+02  0.51100000000E-03 0. -1.
        -11    1    3    3    0    0 -0.37459100144E+01  0.11680109992E+02 -0.22579206569E+02  0.25695863107E+02  0.51100000000E-03 0.  1.
         12    1    3    3    0    0 -0.71812379658E+01  0.96498348833E+01 -0.33445073187E+01  0.12484999848E+02  0.00000000000E+00 0. -1.
</event>
<event>
 7    1  0.3054835E-011  0.5052882E+02  0.7816164E-02  0.1300439E+00
        -11   -1    0    0    0    0  0.00000000000E+00  0.00000000000E+00  0.45593999997E+02  0.45594000000E+02  0.51100000000E-03 0.  1.
         11   -1    0    0    0    0 -0.00000000000E+00 -0.00000000000E+00 -0.45593999997E+02  0.45594000000E+02  0.51100000000E-03 0. -1.
    9900012    2    1    2    0    0  0.39501776490E+02  0.25686568672E+01  0.92833650875E+01  0.50528816396E+02  0.29999867918E+02 0.  0.
         12    1    1    2    0    0 -0.39501776490E+02 -0.25686568672E+01 -0.92833650875E+01  0.40659183604E+02  0.00000000000E+00 0. -1.
         11    1    3    3    0    0  0.23744253439E+02 -0.28915576181E+01 -0.56682188861E+01  0.24582094753E+02  0.51100000000E-03 0. -1.
        -11    1    3    3    0    0  0.74898828891E+01  0.81351142535E+01  0.12951417558E+02  0.17029904481E+02  0.51100000000E-03 0.  1.
        -12    1    3    3    0    0  0.82676401618E+01 -0.26748997682E+01  0.20001664154E+01  0.89168171622E+01  0.00000000000E+00 0.  1.
</event>
<event>
 7    1  0.3054835E-011  0.5052886E+02  0.7816164E-02  0.1300439E+00
        -11   -1    0    0    0    0  0.00000000000E+00  0.00000000000E+00  0.45593999997E+02  0.45594000000E+02  0.51100000000E-03 0.  1.
         11   -1    0    0    0    0 -0.00000000000E+00 -0.00000000000E+00 -0.45593999997E+02  0.45594000000E+02  0.51100000000E-03 0. -1.
    9900012    2    1    2    0    0  0.18663452528E+02 -0.31032081248E+02  0.18489209824E+02  0.50528863182E+02  0.30000010127E+02 0.  0.
         12    1    1    2    0    0 -0.18663452528E+02  0.31032081248E+02 -0.18489209824E+02  0.40659136818E+02  0.00000000000E+00 0. -1.
         11    1    3    3    0    0 -0.57275220664E+01 -0.85239059197E+01  0.18989873790E+01  0.10443545111E+02  0.51100000000E-03 0. -1.
        -11    1    3    3    0    0  0.26023615421E+02 -0.22225253585E+02  0.13925414349E+02  0.36947362850E+02  0.51100000000E-03 0.  1.
        -12    1    3    3    0    0 -0.16326408266E+01 -0.28292174375E+00  0.26648080963E+01  0.31379552215E+01  0.00000000000E+00 0.  1.
</event>
<event>
 7    1  0.3054835E-011  0.5052887E+02  0.7816164E-02  0.1300439E+00
        -11   -1    0    0    0    0  0.00000000000E+00  0.00000000000E+00  0.45593999997E+02  0.45594000000E+02  0.51100000000E-03 0.  1.
         11   -1    0    0    0    0 -0.00000000000E+00 -0.00000000000E+00 -0.45593999997E+02  0.45594000000E+02  0.51100000000E-03 0. -1.
    9900012    2    1    2    0    0  0.38704919104E+02 -0.89296512156E+01  0.86807590869E+01  0.50528868036E+02  0.30000024883E+02 0.  0.
         12    1    1    2    0    0 -0.38704919104E+02  0.89296512156E+01 -0.86807590869E+01  0.40659131964E+02  0.00000000000E+00 0. -1.
         11    1    3    3    0    0  0.35207486666E+02 -0.86651209964E+01  0.74330878164E+01  0.37012190343E+02  0.51100000000E-03 0.  1.
        -11    1    3    3    0    0  0.18349124522E+01 -0.26908044925E+01 -0.53668146760E+01  0.62777410389E+01  0.51100000000E-03 0. -1.
         12    1    3    3    0    0  0.16625199863E+01  0.24262742733E+01  0.66144859465E+01  0.72389366547E+01  0.00000000000E+00 0. -1.
</event>
<event>
 7    1  0.3054835E-011  0.5052886E+02  0.7816164E-02  0.1300439E+00
        -11   -1    0    0    0    0  0.00000000000E+00  0.00000000000E+00  0.45593999997E+02  0.45594000000E+02  0.51100000000E-03 0. -1.
         11   -1    0    0    0    0 -0.00000000000E+00 -0.00000000000E+00 -0.45593999997E+02  0.45594000000E+02  0.51100000000E-03 0.  1.
    9900012    2    1    2    0    0  0.14802469721E+02  0.36542892330E+02  0.99332598943E+01  0.50528859062E+02  0.29999997606E+02 0.  0.
         12    1    1    2    0    0 -0.14802469721E+02 -0.36542892330E+02 -0.99332598943E+01  0.40659140938E+02  0.00000000000E+00 0. -1.
         11    1    3    3    0    0 -0.85283636372E+01  0.55788028332E+01  0.30775130640E+01  0.10645520856E+02  0.51100000000E-03 0. -1.
        -11    1    3    3    0    0  0.23026004209E+02  0.31172876930E+02  0.71525143974E+01  0.39409435271E+02  0.51100000000E-03 0.  1.
        -12    1    3    3    0    0  0.30482914920E+00 -0.20878743361E+00 -0.29676756711E+00  0.47390293470E+00  0.00000000000E+00 0.  1.
</event>
<event>
 7    1  0.3054835E-011  0.5052885E+02  0.7816164E-02  0.1300439E+00
        -11   -1    0    0    0    0  0.00000000000E+00  0.00000000000E+00  0.45593999997E+02  0.45594000000E+02  0.51100000000E-03 0.  1.
         11   -1    0    0    0    0 -0.00000000000E+00 -0.00000000000E+00 -0.45593999997E+02  0.45594000000E+02  0.51100000000E-03 0. -1.
    9900012    2    1    2    0    0  0.35307370009E+02  0.18471963107E+02 -0.80834609266E+01  0.50528854183E+02  0.29999982776E+02 0.  0.
         12    1    1    2    0    0 -0.35307370009E+02 -0.18471963107E+02  0.80834609266E+01  0.40659145817E+02  0.00000000000E+00 0. -1.
         11    1    3    3    0    0  0.28713418634E+01  0.76951168808E+01 -0.11750076292E+02  0.14336098529E+02  0.51100000000E-03 0. -1.
        -11    1    3    3    0    0  0.28755981806E+02  0.11026238405E+02 -0.26929878463E+00  0.30798651676E+02  0.51100000000E-03 0.  1.
         12    1    3    3    0    0  0.36800463398E+01 -0.24939217926E+00  0.39359141503E+01  0.53941039776E+01  0.00000000000E+00 0. -1.
</event>
<event>
 7    1  0.3054835E-011  0.5052887E+02  0.7816164E-02  0.1300439E+00
        -11   -1    0    0    0    0  0.00000000000E+00  0.00000000000E+00  0.45593999997E+02  0.45594000000E+02  0.51100000000E-03 0.  1.
         11   -1    0    0    0    0 -0.00000000000E+00 -0.00000000000E+00 -0.45593999997E+02  0.45594000000E+02  0.51100000000E-03 0. -1.
    9900012    2    1    2    0    0  0.24812102451E+02  0.31958046909E+02  0.40258370460E+01  0.50528873666E+02  0.30000041995E+02 0.  0.
         12    1    1    2    0    0 -0.24812102451E+02 -0.31958046909E+02 -0.40258370460E+01  0.40659126334E+02  0.00000000000E+00 0. -1.
         11    1    3    3    0    0  0.47310442079E+01  0.92409335710E+00 -0.27920355203E+01  0.55706543994E+01  0.51100000000E-03 0. -1.
        -11    1    3    3    0    0  0.12392729700E+02  0.33058589240E+02  0.95114425710E+01  0.36563883984E+02  0.51100000000E-03 0.  1.
        -12    1    3    3    0    0  0.76883285436E+01 -0.20246356878E+01 -0.26935700048E+01  0.83943352824E+01  0.00000000000E+00 0.  1.
</event>
<event>
 7    1  0.3054835E-011  0.5052886E+02  0.7816164E-02  0.1300439E+00
        -11   -1    0    0    0    0  0.00000000000E+00  0.00000000000E+00  0.45593999997E+02  0.45594000000E+02  0.51100000000E-03 0.  1.
         11   -1    0    0    0    0 -0.00000000000E+00 -0.00000000000E+00 -0.45593999997E+02  0.45594000000E+02  0.51100000000E-03 0. -1.
    9900012    2    1    2    0    0  0.24592611575E+02 -0.32038040956E+02  0.46832311025E+01  0.50528864914E+02  0.30000015392E+02 0.  0.
         12    1    1    2    0    0 -0.24592611575E+02  0.32038040956E+02 -0.46832311025E+01  0.40659135086E+02  0.00000000000E+00 0. -1.
         11    1    3    3    0    0  0.26310741854E+02 -0.28224063092E+02  0.89444239697E+01  0.39608781788E+02  0.51100000000E-03 0. -1.
        -11    1    3    3    0    0 -0.50424883864E+01 -0.26572425976E+01 -0.46805824521E+01  0.73753291249E+01  0.51100000000E-03 0.  1.
        -12    1    3    3    0    0  0.33243581072E+01 -0.11567352667E+01  0.41938958491E+00  0.35447540008E+01  0.00000000000E+00 0.  1.
</event>
<event>
 7    1  0.3054835E-011  0.5052886E+02  0.7816164E-02  0.1300439E+00
        -11   -1    0    0    0    0  0.00000000000E+00  0.00000000000E+00  0.45593999997E+02  0.45594000000E+02  0.51100000000E-03 0. -1.
         11   -1    0    0    0    0 -0.00000000000E+00 -0.00000000000E+00 -0.45593999997E+02  0.45594000000E+02  0.51100000000E-03 0.  1.
    9900012    2    1    2    0    0 -0.33353823013E+02  0.23066570719E+02 -0.29362233458E+01  0.50528860783E+02  0.30000002837E+02 0.  0.
         12    1    1    2    0    0  0.33353823013E+02 -0.23066570719E+02  0.29362233458E+01  0.40659139217E+02  0.00000000000E+00 0. -1.
         11    1    3    3    0    0 -0.13869967044E+02 -0.22961705427E+00  0.93543428658E+01  0.16731181683E+02  0.51100000000E-03 0. -1.
        -11    1    3    3    0    0 -0.63629522679E+01  0.27592230782E+01 -0.42542303804E+01  0.81362737140E+01  0.51100000000E-03 0.  1.
         12    1    3    3    0    0 -0.13120903701E+02  0.20536964695E+02 -0.80363358312E+01  0.25661405387E+02  0.00000000000E+00 0. -1.
</event>
<event>
 7    1  0.3054835E-011  0.5052885E+02  0.7816164E-02  0.1300439E+00
        -11   -1    0    0    0    0  0.00000000000E+00  0.00000000000E+00  0.45593999997E+02  0.45594000000E+02  0.51100000000E-03 0.  1.
         11   -1    0    0    0    0 -0.00000000000E+00 -0.00000000000E+00 -0.45593999997E+02  0.45594000000E+02  0.51100000000E-03 0. -1.
    9900012    2    1    2    0    0  0.12950884140E+02 -0.13873588817E+02  0.35957815077E+02  0.50528851807E+02  0.29999975551E+02 0.  0.
         12    1    1    2    0    0 -0.12950884140E+02  0.13873588817E+02 -0.35957815077E+02  0.40659148193E+02  0.00000000000E+00 0. -1.
         11    1    3    3    0    0  0.33093506302E+01  0.37073616547E+01  0.11385296832E+02  0.12422613101E+02  0.51100000000E-03 0. -1.
        -11    1    3    3    0    0  0.15329741487E+02 -0.14008129285E+02  0.12353872464E+02  0.24162922531E+02  0.51100000000E-03 0.  1.
        -12    1    3    3    0    0 -0.56882079774E+01 -0.35728211869E+01  0.12218645781E+02  0.13943316175E+02  0.00000000000E+00 0.  1.
</event>
<event>
 7    1  0.3054835E-011  0.5052885E+02  0.7816164E-02  0.1300439E+00
        -11   -1    0    0    0    0  0.00000000000E+00  0.00000000000E+00  0.45593999997E+02  0.45594000000E+02  0.51100000000E-03 0.  1.
         11   -1    0    0    0    0 -0.00000000000E+00 -0.00000000000E+00 -0.45593999997E+02  0.45594000000E+02  0.51100000000E-03 0. -1.
    9900012    2    1    2    0    0  0.26115615939E+01 -0.38895784506E+02  0.11552663890E+02  0.50528851592E+02  0.29999974900E+02 0.  0.
         12    1    1    2    0    0 -0.26115615939E+01  0.38895784506E+02 -0.11552663890E+02  0.40659148408E+02  0.00000000000E+00 0. -1.
         11    1    3    3    0    0 -0.66518720457E+00  0.47226576456E+01 -0.60440636295E+00  0.48074189091E+01  0.51100000000E-03 0. -1.
        -11    1    3    3    0    0  0.86332884918E+00 -0.34134106030E+02  0.10965469214E+02  0.35862571666E+02  0.51100000000E-03 0.  1.
         12    1    3    3    0    0  0.24134199493E+01 -0.94843361218E+01  0.11916010391E+01  0.98588610174E+01  0.00000000000E+00 0. -1.
</event>
<event>
 7    1  0.3054835E-011  0.5052887E+02  0.7816164E-02  0.1300439E+00
        -11   -1    0    0    0    0  0.00000000000E+00  0.00000000000E+00  0.45593999997E+02  0.45594000000E+02  0.51100000000E-03 0. -1.
         11   -1    0    0    0    0 -0.00000000000E+00 -0.00000000000E+00 -0.45593999997E+02  0.45594000000E+02  0.51100000000E-03 0.  1.
    9900012    2    1    2    0    0  0.33156680812E+02 -0.22688003132E+02 -0.62493354619E+01  0.50528866189E+02  0.30000019268E+02 0.  0.
         12    1    1    2    0    0 -0.33156680812E+02  0.22688003132E+02  0.62493354619E+01  0.40659133811E+02  0.00000000000E+00 0. -1.
         11    1    3    3    0    0  0.14838390283E+02  0.27827834765E+01 -0.17905086024E+00  0.15098137949E+02  0.51100000000E-03 0. -1.
        -11    1    3    3    0    0  0.72853748254E+01 -0.99888075352E+01 -0.10139133731E+02  0.15989214971E+02  0.51100000000E-03 0.  1.
         12    1    3    3    0    0  0.11032915704E+02 -0.15481979073E+02  0.40688491295E+01  0.19441513269E+02  0.00000000000E+00 0. -1.
</event>
<event>
 7    1  0.3054835E-011  0.5052886E+02  0.7816164E-02  0.1300439E+00
        -11   -1    0    0    0    0  0.00000000000E+00  0.00000000000E+00  0.45593999997E+02  0.45594000000E+02  0.51100000000E-03 0. -1.
         11   -1    0    0    0    0 -0.00000000000E+00 -0.00000000000E+00 -0.45593999997E+02  0.45594000000E+02  0.51100000000E-03 0.  1.
    9900012    2    1    2    0    0 -0.24908668160E+02  0.19303663562E+02 -0.25692270181E+02  0.50528856828E+02  0.29999990814E+02 0.  0.
         12    1    1    2    0    0  0.24908668160E+02 -0.19303663562E+02  0.25692270181E+02  0.40659143172E+02  0.00000000000E+00 0. -1.
         11    1    3    3    0    0  0.51193862404E+01  0.12745288648E+01 -0.67291286760E+01  0.85506556652E+01  0.51100000000E-03 0. -1.
        -11    1    3    3    0    0 -0.20142646288E+02  0.17931575161E+02 -0.17059426738E+02  0.31910682038E+02  0.51100000000E-03 0.  1.
         12    1    3    3    0    0 -0.98854081122E+01  0.97559536087E-01 -0.19037147670E+01  0.10067519124E+02  0.00000000000E+00 0. -1.
</event>
<event>
 7    1  0.3054835E-011  0.5052895E+02  0.7816164E-02  0.1300438E+00
        -11   -1    0    0    0    0  0.00000000000E+00  0.00000000000E+00  0.45593999997E+02  0.45594000000E+02  0.51100000000E-03 0. -1.
         11   -1    0    0    0    0 -0.00000000000E+00 -0.00000000000E+00 -0.45593999997E+02  0.45594000000E+02  0.51100000000E-03 0.  1.
    9900012    2    1    2    0    0  0.10656975715E+02 -0.12693833691E+02 -0.37127532030E+02  0.50528952055E+02  0.30000280266E+02 0.  0.
         12    1    1    2    0    0 -0.10656975715E+02  0.12693833691E+02  0.37127532030E+02  0.40659047945E+02  0.00000000000E+00 0. -1.
         11    1    3    3    0    0  0.99873760269E+00 -0.19063025506E+01 -0.31138364268E+02  0.31212644805E+02  0.51100000000E-03 0. -1.
        -11    1    3    3    0    0  0.10000849010E+02 -0.96874277738E+01 -0.86673406445E+01  0.16400793636E+02  0.51100000000E-03 0.  1.
         12    1    3    3    0    0 -0.34261089800E+00 -0.11001033665E+01  0.26781728824E+01  0.29155136138E+01  0.00000000000E+00 0. -1.
</event>
<event>
 7    1  0.3054835E-011  0.5052888E+02  0.7816164E-02  0.1300439E+00
        -11   -1    0    0    0    0  0.00000000000E+00  0.00000000000E+00  0.45593999997E+02  0.45594000000E+02  0.51100000000E-03 0.  1.
         11   -1    0    0    0    0 -0.00000000000E+00 -0.00000000000E+00 -0.45593999997E+02  0.45594000000E+02  0.51100000000E-03 0. -1.
    9900012    2    1    2    0    0  0.35003715018E+01 -0.62630176326E+00  0.40503324634E+02  0.50528878502E+02  0.30000056696E+02 0.  0.
         12    1    1    2    0    0 -0.35003715018E+01  0.62630176326E+00 -0.40503324634E+02  0.40659121498E+02  0.00000000000E+00 0. -1.
         11    1    3    3    0    0  0.49967928495E+01 -0.12083767255E+02  0.11594819334E+02  0.17476418555E+02  0.51100000000E-03 0. -1.
        -11    1    3    3    0    0  0.92850220549E+00  0.12506093651E+02  0.27070215658E+02  0.29833891312E+02  0.51100000000E-03 0.  1.
        -12    1    3    3    0    0 -0.24249235532E+01 -0.10486281597E+01  0.18382896421E+01  0.32185686359E+01  0.00000000000E+00 0.  1.
</event>
<event>
 7    1  0.3054835E-011  0.5052886E+02  0.7816164E-02  0.1300439E+00
        -11   -1    0    0    0    0  0.00000000000E+00  0.00000000000E+00  0.45593999997E+02  0.45594000000E+02  0.51100000000E-03 0. -1.
         11   -1    0    0    0    0 -0.00000000000E+00 -0.00000000000E+00 -0.45593999997E+02  0.45594000000E+02  0.51100000000E-03 0.  1.
    9900012    2    1    2    0    0  0.33786897933E+02 -0.51352580530E+01 -0.22028178900E+02  0.50528855729E+02  0.29999987472E+02 0.  0.
         12    1    1    2    0    0 -0.33786897933E+02  0.51352580530E+01  0.22028178900E+02  0.40659144271E+02  0.00000000000E+00 0. -1.
         11    1    3    3    0    0  0.15139918301E+02  0.63358203868E+01 -0.17400230877E+01  0.16504163922E+02  0.51100000000E-03 0. -1.
        -11    1    3    3    0    0  0.81642104841E+01 -0.14242291205E+02 -0.13266537331E+02  0.21106828388E+02  0.51100000000E-03 0.  1.
        -12    1    3    3    0    0  0.10482769148E+02  0.27712127654E+01 -0.70216184814E+01  0.12917863419E+02  0.00000000000E+00 0.  1.
</event>
<event>
 7    1  0.3054835E-011  0.5052885E+02  0.7816164E-02  0.1300439E+00
        -11   -1    0    0    0    0  0.00000000000E+00  0.00000000000E+00  0.45593999997E+02  0.45594000000E+02  0.51100000000E-03 0.  1.
         11   -1    0    0    0    0 -0.00000000000E+00 -0.00000000000E+00 -0.45593999997E+02  0.45594000000E+02  0.51100000000E-03 0. -1.
    9900012    2    1    2    0    0  0.11251651457E+02  0.23525741019E+02  0.31194649980E+02  0.50528851726E+02  0.29999975306E+02 0.  0.
         12    1    1    2    0    0 -0.11251651457E+02 -0.23525741019E+02 -0.31194649980E+02  0.40659148274E+02  0.00000000000E+00 0. -1.
         11    1    3    3    0    0  0.12196671277E+01 -0.17945666267E+01 -0.86168557319E+00  0.23346433493E+01  0.51100000000E-03 0. -1.
        -11    1    3    3    0    0  0.17623333256E+02  0.19917022840E+02  0.22346232257E+02  0.34736490471E+02  0.51100000000E-03 0.  1.
        -12    1    3    3    0    0 -0.75913489269E+01  0.54032848060E+01  0.97101032957E+01  0.13457717906E+02  0.00000000000E+00 0.  1.
</event>
<event>
 7    1  0.3054835E-011  0.5052885E+02  0.7816164E-02  0.1300439E+00
        -11   -1    0    0    0    0  0.00000000000E+00  0.00000000000E+00  0.45593999997E+02  0.45594000000E+02  0.51100000000E-03 0.  1.
         11   -1    0    0    0    0 -0.00000000000E+00 -0.00000000000E+00 -0.45593999997E+02  0.45594000000E+02  0.51100000000E-03 0. -1.
    9900012    2    1    2    0    0  0.12841469011E+02  0.37032685485E+02  0.10809403100E+02  0.50528852002E+02  0.29999976145E+02 0.  0.
         12    1    1    2    0    0 -0.12841469011E+02 -0.37032685485E+02 -0.10809403100E+02  0.40659147998E+02  0.00000000000E+00 0. -1.
         11    1    3    3    0    0  0.10552525224E+02  0.20773016192E+01  0.38264205345E+01  0.11415448523E+02  0.51100000000E-03 0. -1.
        -11    1    3    3    0    0 -0.48243633358E+01  0.27425528299E+02  0.29691767416E+01  0.28004465624E+02  0.51100000000E-03 0.  1.
        -12    1    3    3    0    0  0.71133071230E+01  0.75298555662E+01  0.40138058235E+01  0.11108937855E+02  0.00000000000E+00 0.  1.
</event>
<event>
 7    1  0.3054835E-011  0.5052885E+02  0.7816164E-02  0.1300439E+00
        -11   -1    0    0    0    0  0.00000000000E+00  0.00000000000E+00  0.45593999997E+02  0.45594000000E+02  0.51100000000E-03 0. -1.
         11   -1    0    0    0    0 -0.00000000000E+00 -0.00000000000E+00 -0.45593999997E+02  0.45594000000E+02  0.51100000000E-03 0.  1.
    9900012    2    1    2    0    0 -0.24062071119E+02 -0.30629173955E+02  0.11663484760E+02  0.50528850471E+02  0.29999971491E+02 0.  0.
         12    1    1    2    0    0  0.24062071119E+02  0.30629173955E+02 -0.11663484760E+02  0.40659149529E+02  0.00000000000E+00 0. -1.
         11    1    3    3    0    0 -0.19776006083E+02 -0.69440348699E+01  0.12962749569E+02  0.24644328223E+02  0.51100000000E-03 0. -1.
        -11    1    3    3    0    0 -0.66255579760E+01 -0.19868429596E+02 -0.28711441820E+01  0.21139914434E+02  0.51100000000E-03 0.  1.
        -12    1    3    3    0    0  0.23394929408E+01 -0.38167094895E+01  0.15718793724E+01  0.47446078140E+01  0.00000000000E+00 0.  1.
</event>
<event>
 7    1  0.3054835E-011  0.5052886E+02  0.7816164E-02  0.1300439E+00
        -11   -1    0    0    0    0  0.00000000000E+00  0.00000000000E+00  0.45593999997E+02  0.45594000000E+02  0.51100000000E-03 0.  1.
         11   -1    0    0    0    0 -0.00000000000E+00 -0.00000000000E+00 -0.45593999997E+02  0.45594000000E+02  0.51100000000E-03 0. -1.
    9900012    2    1    2    0    0  0.35121345117E+02  0.15706816968E+01  0.20425224019E+02  0.50528859576E+02  0.29999999166E+02 0.  0.
         12    1    1    2    0    0 -0.35121345117E+02 -0.15706816968E+01 -0.20425224019E+02  0.40659140424E+02  0.00000000000E+00 0. -1.
         11    1    3    3    0    0  0.17800845232E+02 -0.46399262601E+01  0.49390256754E+01  0.19047125283E+02  0.51100000000E-03 0. -1.
        -11    1    3    3    0    0  0.54085520683E+01  0.22795205340E+00  0.17209557068E+02  0.18040877261E+02  0.51100000000E-03 0.  1.
        -12    1    3    3    0    0  0.11911947817E+02  0.59826559035E+01 -0.17233587242E+01  0.13440857032E+02  0.00000000000E+00 0.  1.
</event>
<event>
 7    1  0.3054835E-011  0.5052877E+02  0.7816164E-02  0.1300439E+00
        -11   -1    0    0    0    0  0.00000000000E+00  0.00000000000E+00  0.45593999997E+02  0.45594000000E+02  0.51100000000E-03 0. -1.
         11   -1    0    0    0    0 -0.00000000000E+00 -0.00000000000E+00 -0.45593999997E+02  0.45594000000E+02  0.51100000000E-03 0.  1.
    9900012    2    1    2    0    0  0.35773032352E+01 -0.13565258289E+02 -0.38162281731E+02  0.50528768849E+02  0.29999723393E+02 0.  0.
         12    1    1    2    0    0 -0.35773032352E+01  0.13565258289E+02  0.38162281731E+02  0.40659231151E+02  0.00000000000E+00 0. -1.
         11    1    3    3    0    0  0.23988945843E+01  0.67472165145E+01 -0.63165847314E+01  0.95487626869E+01  0.51100000000E-03 0. -1.
        -11    1    3    3    0    0  0.68864696149E+01 -0.18593405090E+02 -0.24232767015E+02  0.31310783671E+02  0.51100000000E-03 0.  1.
         12    1    3    3    0    0 -0.57080609640E+01 -0.17190697135E+01 -0.76129299840E+01  0.96692224915E+01  0.00000000000E+00 0. -1.
</event>
<event>
 7    1  0.3054835E-011  0.5052886E+02  0.7816164E-02  0.1300439E+00
        -11   -1    0    0    0    0  0.00000000000E+00  0.00000000000E+00  0.45593999997E+02  0.45594000000E+02  0.51100000000E-03 0. -1.
         11   -1    0    0    0    0 -0.00000000000E+00 -0.00000000000E+00 -0.45593999997E+02  0.45594000000E+02  0.51100000000E-03 0.  1.
    9900012    2    1    2    0    0 -0.27826899164E+02  0.48417571581E+01 -0.29246996652E+02  0.50528859052E+02  0.29999997574E+02 0.  0.
         12    1    1    2    0    0  0.27826899164E+02 -0.48417571581E+01  0.29246996652E+02  0.40659140948E+02  0.00000000000E+00 0. -1.
         11    1    3    3    0    0  0.51184491291E+01 -0.17886897756E+01 -0.40850541271E+01  0.67886375719E+01  0.51100000000E-03 0.  1.
        -11    1    3    3    0    0 -0.29003460888E+02  0.34451598657E+01 -0.25342136499E+02  0.38669028338E+02  0.51100000000E-03 0. -1.
        -12    1    3    3    0    0 -0.39418874048E+01  0.31852870680E+01  0.18019397329E+00  0.50711931422E+01  0.00000000000E+00 0.  1.
</event>
<event>
 7    1  0.3054835E-011  0.5052885E+02  0.7816164E-02  0.1300439E+00
        -11   -1    0    0    0    0  0.00000000000E+00  0.00000000000E+00  0.45593999997E+02  0.45594000000E+02  0.51100000000E-03 0.  1.
         11   -1    0    0    0    0 -0.00000000000E+00 -0.00000000000E+00 -0.45593999997E+02  0.45594000000E+02  0.51100000000E-03 0. -1.
    9900012    2    1    2    0    0  0.14483084743E+01  0.22265135638E+02  0.33990190021E+02  0.50528845064E+02  0.29999955057E+02 0.  0.
         12    1    1    2    0    0 -0.14483084743E+01 -0.22265135638E+02 -0.33990190021E+02  0.40659154936E+02  0.00000000000E+00 0. -1.
         11    1    3    3    0    0 -0.66402307042E+01  0.68632430656E+01  0.24309300314E+02  0.26117788023E+02  0.51100000000E-03 0. -1.
        -11    1    3    3    0    0  0.97103445336E+00  0.13664024407E+02  0.10180788891E+02  0.17067423168E+02  0.51100000000E-03 0.  1.
         12    1    3    3    0    0  0.71175047251E+01  0.17378681658E+01 -0.49989918397E+00  0.73436338734E+01  0.00000000000E+00 0. -1.
</event>
<event>
 7    1  0.3054835E-011  0.5052886E+02  0.7816164E-02  0.1300439E+00
        -11   -1    0    0    0    0  0.00000000000E+00  0.00000000000E+00  0.45593999997E+02  0.45594000000E+02  0.51100000000E-03 0.  1.
         11   -1    0    0    0    0 -0.00000000000E+00 -0.00000000000E+00 -0.45593999997E+02  0.45594000000E+02  0.51100000000E-03 0. -1.
    9900012    2    1    2    0    0  0.31094194736E+02 -0.24623302439E+02  0.89448033363E+01  0.50528862331E+02  0.30000007541E+02 0.  0.
         12    1    1    2    0    0 -0.31094194736E+02  0.24623302439E+02 -0.89448033363E+01  0.40659137669E+02  0.00000000000E+00 0. -1.
         11    1    3    3    0    0  0.24724183094E+02 -0.13567187390E+02  0.14444835756E+02  0.31686070814E+02  0.51100000000E-03 0.  1.
        -11    1    3    3    0    0  0.73393235052E+01 -0.13457295629E+02 -0.53983179247E+01  0.16251348000E+02  0.51100000000E-03 0. -1.
        -12    1    3    3    0    0 -0.96931186323E+00  0.24011805792E+01 -0.10171449496E+00  0.25914435168E+01  0.00000000000E+00 0.  1.
</event>
<event>
 7    1  0.3054835E-011  0.5052887E+02  0.7816164E-02  0.1300439E+00
        -11   -1    0    0    0    0  0.00000000000E+00  0.00000000000E+00  0.45593999997E+02  0.45594000000E+02  0.51100000000E-03 0.  1.
         11   -1    0    0    0    0 -0.00000000000E+00 -0.00000000000E+00 -0.45593999997E+02  0.45594000000E+02  0.51100000000E-03 0. -1.
    9900012    2    1    2    0    0  0.25491881017E+02  0.15743007737E+01  0.31636218135E+02  0.50528871645E+02  0.30000035852E+02 0.  0.
         12    1    1    2    0    0 -0.25491881017E+02 -0.15743007737E+01 -0.31636218135E+02  0.40659128355E+02  0.00000000000E+00 0. -1.
         11    1    3    3    0    0  0.21956710951E+02 -0.61842041793E+01  0.66291087114E+01  0.23754717840E+02  0.51100000000E-03 0. -1.
        -11    1    3    3    0    0  0.44907229783E+01  0.55696588909E+01  0.17920433174E+02  0.19295844590E+02  0.51100000000E-03 0.  1.
         12    1    3    3    0    0 -0.95555291177E+00  0.21888460621E+01  0.70866762491E+01  0.74783092147E+01  0.00000000000E+00 0. -1.
</event>
<event>
 7    1  0.3054835E-011  0.5052886E+02  0.7816164E-02  0.1300439E+00
        -11   -1    0    0    0    0  0.00000000000E+00  0.00000000000E+00  0.45593999997E+02  0.45594000000E+02  0.51100000000E-03 0.  1.
         11   -1    0    0    0    0 -0.00000000000E+00 -0.00000000000E+00 -0.45593999997E+02  0.45594000000E+02  0.51100000000E-03 0. -1.
    9900012    2    1    2    0    0  0.15151592887E+02  0.22195176078E+02  0.30511785917E+02  0.50528859724E+02  0.29999999616E+02 0.  0.
         12    1    1    2    0    0 -0.15151592887E+02 -0.22195176078E+02 -0.30511785917E+02  0.40659140276E+02  0.00000000000E+00 0. -1.
         11    1    3    3    0    0  0.16007266587E+02 -0.74138899130E+00  0.18584684384E+02  0.24539208120E+02  0.51100000000E-03 0.  1.
        -11    1    3    3    0    0 -0.13377965370E+01  0.90565279809E+01  0.55636726443E+01  0.10712835862E+02  0.51100000000E-03 0. -1.
        -12    1    3    3    0    0  0.48212283735E+00  0.13880037088E+02  0.63634288882E+01  0.15276815742E+02  0.00000000000E+00 0.  1.
</event>
<event>
 7    1  0.3054835E-011  0.5052887E+02  0.7816164E-02  0.1300439E+00
        -11   -1    0    0    0    0  0.00000000000E+00  0.00000000000E+00  0.45593999997E+02  0.45594000000E+02  0.51100000000E-03 0.  1.
         11   -1    0    0    0    0 -0.00000000000E+00 -0.00000000000E+00 -0.45593999997E+02  0.45594000000E+02  0.51100000000E-03 0. -1.
    9900012    2    1    2    0    0 -0.84076628297E+01  0.16621937489E+02  0.36141211808E+02  0.50528870753E+02  0.30000033141E+02 0.  0.
         12    1    1    2    0    0  0.84076628297E+01 -0.16621937489E+02 -0.36141211808E+02  0.40659129247E+02  0.00000000000E+00 0. -1.
         11    1    3    3    0    0  0.82457631022E+00  0.41446532306E+00  0.34907633878E+00  0.98669252901E+00  0.51100000000E-03 0. -1.
        -11    1    3    3    0    0  0.43683914202E+01  0.10356267347E+02  0.32480726738E+02  0.34370521187E+02  0.51100000000E-03 0.  1.
        -12    1    3    3    0    0 -0.13600630560E+02  0.58512048187E+01  0.33114087312E+01  0.15171657037E+02  0.00000000000E+00 0.  1.
</event>
<event>
 7    1  0.3054835E-011  0.5052885E+02  0.7816164E-02  0.1300439E+00
        -11   -1    0    0    0    0  0.00000000000E+00  0.00000000000E+00  0.45593999997E+02  0.45594000000E+02  0.51100000000E-03 0.  1.
         11   -1    0    0    0    0 -0.00000000000E+00 -0.00000000000E+00 -0.45593999997E+02  0.45594000000E+02  0.51100000000E-03 0. -1.
    9900012    2    1    2    0    0  0.17426882479E+02  0.34779977580E+02  0.11824681939E+02  0.50528853718E+02  0.29999981362E+02 0.  0.
         12    1    1    2    0    0 -0.17426882479E+02 -0.34779977580E+02 -0.11824681939E+02  0.40659146282E+02  0.00000000000E+00 0. -1.
         11    1    3    3    0    0  0.58738986526E+00  0.99726127525E+01 -0.24929940853E+01  0.10296263970E+02  0.51100000000E-03 0. -1.
        -11    1    3    3    0    0  0.11617437058E+02  0.21522962894E+02  0.20190381451E+02  0.31715205801E+02  0.51100000000E-03 0.  1.
        -12    1    3    3    0    0  0.52220555553E+01  0.32844019334E+01 -0.58727054269E+01  0.85173839478E+01  0.00000000000E+00 0.  1.
</event>
<event>
 7    1  0.3054835E-011  0.5052884E+02  0.7816164E-02  0.1300439E+00
        -11   -1    0    0    0    0  0.00000000000E+00  0.00000000000E+00  0.45593999997E+02  0.45594000000E+02  0.51100000000E-03 0.  1.
         11   -1    0    0    0    0 -0.00000000000E+00 -0.00000000000E+00 -0.45593999997E+02  0.45594000000E+02  0.51100000000E-03 0. -1.
    9900012    2    1    2    0    0  0.56007885215E+01 -0.16215752189E+02  0.36862552167E+02  0.50528841089E+02  0.29999942973E+02 0.  0.
         12    1    1    2    0    0 -0.56007885215E+01  0.16215752189E+02 -0.36862552167E+02  0.40659158911E+02  0.00000000000E+00 0. -1.
         11    1    3    3    0    0 -0.12409990413E+01 -0.92841079339E+00 -0.35048304165E+01  0.38322136855E+01  0.51100000000E-03 0. -1.
        -11    1    3    3    0    0 -0.29864508224E+01 -0.13044906869E+02  0.22305980396E+02  0.26012405606E+02  0.51100000000E-03 0.  1.
        -12    1    3    3    0    0  0.98282383853E+01 -0.22424345267E+01  0.18061402188E+02  0.20684221797E+02  0.00000000000E+00 0.  1.
</event>
<event>
 7    1  0.3054835E-011  0.5052882E+02  0.7816164E-02  0.1300439E+00
        -11   -1    0    0    0    0  0.00000000000E+00  0.00000000000E+00  0.45593999997E+02  0.45594000000E+02  0.51100000000E-03 0. -1.
         11   -1    0    0    0    0 -0.00000000000E+00 -0.00000000000E+00 -0.45593999997E+02  0.45594000000E+02  0.51100000000E-03 0.  1.
    9900012    2    1    2    0    0  0.95535493116E+01 -0.27840062778E+02 -0.28050477446E+02  0.50528822870E+02  0.29999887594E+02 0.  0.
         12    1    1    2    0    0 -0.95535493116E+01  0.27840062778E+02  0.28050477446E+02  0.40659177130E+02  0.00000000000E+00 0. -1.
         11    1    3    3    0    0  0.36286925244E+01  0.45166084741E+01 -0.32063232007E+00  0.58025827776E+01  0.51100000000E-03 0. -1.
        -11    1    3    3    0    0  0.86806870888E+01 -0.21603801266E+02 -0.22777039685E+02  0.32571031524E+02  0.51100000000E-03 0.  1.
         12    1    3    3    0    0 -0.27558303016E+01 -0.10752869986E+02 -0.49528054419E+01  0.12155208568E+02  0.00000000000E+00 0. -1.
</event>
<event>
 7    1  0.3054835E-011  0.5052886E+02  0.7816164E-02  0.1300439E+00
        -11   -1    0    0    0    0  0.00000000000E+00  0.00000000000E+00  0.45593999997E+02  0.45594000000E+02  0.51100000000E-03 0.  1.
         11   -1    0    0    0    0 -0.00000000000E+00 -0.00000000000E+00 -0.45593999997E+02  0.45594000000E+02  0.51100000000E-03 0. -1.
    9900012    2    1    2    0    0 -0.33264575097E+02 -0.22056040947E+02  0.77565922902E+01  0.50528860528E+02  0.30000002060E+02 0.  0.
         12    1    1    2    0    0  0.33264575097E+02  0.22056040947E+02 -0.77565922902E+01  0.40659139472E+02  0.00000000000E+00 0. -1.
         11    1    3    3    0    0 -0.35336698220E+01 -0.36191573515E+01 -0.65524725140E+01  0.82776819614E+01  0.51100000000E-03 0. -1.
        -11    1    3    3    0    0 -0.31977879589E+02 -0.15566017971E+02  0.10745299915E+02  0.37153023686E+02  0.51100000000E-03 0.  1.
        -12    1    3    3    0    0  0.22469743134E+01 -0.28708656248E+01  0.35637648894E+01  0.50981548807E+01  0.00000000000E+00 0.  1.
</event>
<event>
 7    1  0.3054835E-011  0.5052884E+02  0.7816164E-02  0.1300439E+00
        -11   -1    0    0    0    0  0.00000000000E+00  0.00000000000E+00  0.45593999997E+02  0.45594000000E+02  0.51100000000E-03 0. -1.
         11   -1    0    0    0    0 -0.00000000000E+00 -0.00000000000E+00 -0.45593999997E+02  0.45594000000E+02  0.51100000000E-03 0.  1.
    9900012    2    1    2    0    0  0.39894565348E+02 -0.63070295871E+01  0.46703482008E+01  0.50528842128E+02  0.29999946132E+02 0.  0.
         12    1    1    2    0    0 -0.39894565348E+02  0.63070295871E+01 -0.46703482008E+01  0.40659157872E+02  0.00000000000E+00 0. -1.
         11    1    3    3    0    0  0.10699037565E+02  0.10955767851E+01 -0.47527184684E+01  0.11758317329E+02  0.51100000000E-03 0. -1.
        -11    1    3    3    0    0  0.78505749402E+01  0.14096016130E+01  0.13149362764E+02  0.15379344751E+02  0.51100000000E-03 0.  1.
        -12    1    3    3    0    0  0.21344952843E+02 -0.88122079852E+01 -0.37262960951E+01  0.23391180048E+02  0.00000000000E+00 0.  1.
</event>
<event>
 7    1  0.3054835E-011  0.5052886E+02  0.7816164E-02  0.1300439E+00
        -11   -1    0    0    0    0  0.00000000000E+00  0.00000000000E+00  0.45593999997E+02  0.45594000000E+02  0.51100000000E-03 0. -1.
         11   -1    0    0    0    0 -0.00000000000E+00 -0.00000000000E+00 -0.45593999997E+02  0.45594000000E+02  0.51100000000E-03 0.  1.
    9900012    2    1    2    0    0  0.30576000747E+02 -0.51812471939E+01 -0.26295022399E+02  0.50528863915E+02  0.30000012357E+02 0.  0.
         12    1    1    2    0    0 -0.30576000747E+02  0.51812471939E+01  0.26295022399E+02  0.40659136085E+02  0.00000000000E+00 0. -1.
         11    1    3    3    0    0  0.52308142035E+00 -0.22879219927E+01 -0.15150997882E+01  0.27935154995E+01  0.51100000000E-03 0. -1.
        -11    1    3    3    0    0  0.24251362024E+02 -0.90457251740E+01 -0.28497806952E+02  0.38497775329E+02  0.51100000000E-03 0.  1.
        -12    1    3    3    0    0  0.58015573030E+01  0.61523999727E+01  0.37178843408E+01  0.92375730869E+01  0.00000000000E+00 0.  1.
</event>
<event>
 7    1  0.3054835E-011  0.5052885E+02  0.7816164E-02  0.1300439E+00
        -11   -1    0    0    0    0  0.00000000000E+00  0.00000000000E+00  0.45593999997E+02  0.45594000000E+02  0.51100000000E-03 0.  1.
         11   -1    0    0    0    0 -0.00000000000E+00 -0.00000000000E+00 -0.45593999997E+02  0.45594000000E+02  0.51100000000E-03 0. -1.
    9900012    2    1    2    0    0  0.39520589541E+02 -0.76637956537E+01  0.57057388692E+01  0.50528853212E+02  0.29999979823E+02 0.  0.
         12    1    1    2    0    0 -0.39520589541E+02  0.76637956537E+01 -0.57057388692E+01  0.40659146788E+02  0.00000000000E+00 0. -1.
         11    1    3    3    0    0 -0.19145894719E+01  0.11069385897E+01 -0.22669964627E+01  0.31670552743E+01  0.51100000000E-03 0. -1.
        -11    1    3    3    0    0  0.28915310979E+02 -0.10378358187E+02  0.13531402785E+02  0.33569396618E+02  0.51100000000E-03 0.  1.
        -12    1    3    3    0    0  0.12519868034E+02  0.16076239437E+01 -0.55586674529E+01  0.13792401320E+02  0.00000000000E+00 0.  1.
</event>
<event>
 7    1  0.3054835E-011  0.5052886E+02  0.7816164E-02  0.1300439E+00
        -11   -1    0    0    0    0  0.00000000000E+00  0.00000000000E+00  0.45593999997E+02  0.45594000000E+02  0.51100000000E-03 0.  1.
         11   -1    0    0    0    0 -0.00000000000E+00 -0.00000000000E+00 -0.45593999997E+02  0.45594000000E+02  0.51100000000E-03 0. -1.
    9900012    2    1    2    0    0 -0.34741303548E+02  0.16935875388E+02  0.12624722141E+02  0.50528860111E+02  0.30000000795E+02 0.  0.
         12    1    1    2    0    0  0.34741303548E+02 -0.16935875388E+02 -0.12624722141E+02  0.40659139889E+02  0.00000000000E+00 0. -1.
         11    1    3    3    0    0 -0.46546968194E+00 -0.13894760920E+01  0.97141045666E+01  0.98240080226E+01  0.51100000000E-03 0. -1.
        -11    1    3    3    0    0 -0.26962496669E+02  0.88202715617E+01  0.20418673714E-01  0.28368535990E+02  0.51100000000E-03 0.  1.
         12    1    3    3    0    0 -0.73133371969E+01  0.95050799181E+01  0.28901989004E+01  0.12336316099E+02  0.00000000000E+00 0. -1.
</event>
<event>
 7    1  0.3054835E-011  0.5052885E+02  0.7816164E-02  0.1300439E+00
        -11   -1    0    0    0    0  0.00000000000E+00  0.00000000000E+00  0.45593999997E+02  0.45594000000E+02  0.51100000000E-03 0.  1.
         11   -1    0    0    0    0 -0.00000000000E+00 -0.00000000000E+00 -0.45593999997E+02  0.45594000000E+02  0.51100000000E-03 0. -1.
    9900012    2    1    2    0    0 -0.26518594506E+02 -0.12727598398E+02  0.28070251190E+02  0.50528848294E+02  0.29999964876E+02 0.  0.
         12    1    1    2    0    0  0.26518594506E+02  0.12727598398E+02 -0.28070251190E+02  0.40659151706E+02  0.00000000000E+00 0. -1.
         11    1    3    3    0    0 -0.10820964025E+02 -0.20400152716E+02  0.17003192497E+02  0.28676960240E+02  0.51100000000E-03 0. -1.
        -11    1    3    3    0    0 -0.15807379242E+02  0.83353258226E+01  0.11297105514E+02  0.21141794823E+02  0.51100000000E-03 0.  1.
        -12    1    3    3    0    0  0.10974876152E+00 -0.66277150468E+00 -0.23004682033E+00  0.71009323164E+00  0.00000000000E+00 0.  1.
</event>
<event>
 7    1  0.3054835E-011  0.5052886E+02  0.7816164E-02  0.1300439E+00
        -11   -1    0    0    0    0  0.00000000000E+00  0.00000000000E+00  0.45593999997E+02  0.45594000000E+02  0.51100000000E-03 0.  1.
         11   -1    0    0    0    0 -0.00000000000E+00 -0.00000000000E+00 -0.45593999997E+02  0.45594000000E+02  0.51100000000E-03 0. -1.
    9900012    2    1    2    0    0 -0.24104915835E+02  0.50058074964E+01  0.32358311337E+02  0.50528863405E+02  0.30000010804E+02 0.  0.
         12    1    1    2    0    0  0.24104915835E+02 -0.50058074964E+01 -0.32358311337E+02  0.40659136595E+02  0.00000000000E+00 0. -1.
         11    1    3    3    0    0 -0.12960082904E+02  0.93907651271E+01  0.32748622180E+02  0.36450273984E+02  0.51100000000E-03 0. -1.
        -11    1    3    3    0    0 -0.55977158490E+01 -0.49539917950E+01  0.23897680377E+01  0.78477671325E+01  0.51100000000E-03 0.  1.
         12    1    3    3    0    0 -0.55471170821E+01  0.56903416430E+00 -0.27800788808E+01  0.62308222881E+01  0.00000000000E+00 0. -1.
</event>
<event>
 7    1  0.3054835E-011  0.5052885E+02  0.7816164E-02  0.1300439E+00
        -11   -1    0    0    0    0  0.00000000000E+00  0.00000000000E+00  0.45593999997E+02  0.45594000000E+02  0.51100000000E-03 0. -1.
         11   -1    0    0    0    0 -0.00000000000E+00 -0.00000000000E+00 -0.45593999997E+02  0.45594000000E+02  0.51100000000E-03 0.  1.
    9900012    2    1    2    0    0 -0.15838773511E+02 -0.36896345891E+02 -0.63999597965E+01  0.50528848855E+02  0.29999966579E+02 0.  0.
         12    1    1    2    0    0  0.15838773511E+02  0.36896345891E+02  0.63999597965E+01  0.40659151145E+02  0.00000000000E+00 0. -1.
         11    1    3    3    0    0 -0.16210116660E+02 -0.29705302086E+02  0.68866916491E+01  0.34534032146E+02  0.51100000000E-03 0.  1.
        -11    1    3    3    0    0 -0.16604064195E+01 -0.29563923693E+01 -0.90692768319E+01  0.96824060973E+01  0.51100000000E-03 0. -1.
        -12    1    3    3    0    0  0.20317495687E+01 -0.42346514359E+01 -0.42173746138E+01  0.63124106114E+01  0.00000000000E+00 0.  1.
</event>
<event>
 7    1  0.3054835E-011  0.5052887E+02  0.7816164E-02  0.1300439E+00
        -11   -1    0    0    0    0  0.00000000000E+00  0.00000000000E+00  0.45593999997E+02  0.45594000000E+02  0.51100000000E-03 0.  1.
         11   -1    0    0    0    0 -0.00000000000E+00 -0.00000000000E+00 -0.45593999997E+02  0.45594000000E+02  0.51100000000E-03 0. -1.
    9900012    2    1    2    0    0 -0.12586642525E+02 -0.24822074129E+02  0.29641285019E+02  0.50528871730E+02  0.30000036110E+02 0.  0.
         12    1    1    2    0    0  0.12586642525E+02  0.24822074129E+02 -0.29641285019E+02  0.40659128270E+02  0.00000000000E+00 0. -1.
         11    1    3    3    0    0  0.51186512086E+01 -0.79323721000E+00 -0.30021174345E+01  0.59868626858E+01  0.51100000000E-03 0. -1.
        -11    1    3    3    0    0 -0.89259128081E+01 -0.15640469592E+02  0.21666756577E+02  0.28173472440E+02  0.51100000000E-03 0.  1.
         12    1    3    3    0    0 -0.87793809256E+01 -0.83883673264E+01  0.10976645877E+02  0.16368536604E+02  0.00000000000E+00 0. -1.
</event>
<event>
 7    1  0.3054835E-011  0.5052886E+02  0.7816164E-02  0.1300439E+00
        -11   -1    0    0    0    0  0.00000000000E+00  0.00000000000E+00  0.45593999997E+02  0.45594000000E+02  0.51100000000E-03 0. -1.
         11   -1    0    0    0    0 -0.00000000000E+00 -0.00000000000E+00 -0.45593999997E+02  0.45594000000E+02  0.51100000000E-03 0.  1.
    9900012    2    1    2    0    0  0.16479955033E+02 -0.35482297128E+02  0.11071725980E+02  0.50528862730E+02  0.30000008754E+02 0.  0.
         12    1    1    2    0    0 -0.16479955033E+02  0.35482297128E+02 -0.11071725980E+02  0.40659137270E+02  0.00000000000E+00 0. -1.
         11    1    3    3    0    0  0.22202103545E+02 -0.15211813154E+02  0.85666128605E+00  0.26927059440E+02  0.51100000000E-03 0. -1.
        -11    1    3    3    0    0 -0.25306997590E+01 -0.85519374727E+01  0.59863020458E+01  0.10741316877E+02  0.51100000000E-03 0.  1.
         12    1    3    3    0    0 -0.31914487533E+01 -0.11718546501E+02  0.42287626484E+01  0.12860486413E+02  0.00000000000E+00 0. -1.
</event>
<event>
 7    1  0.3054835E-011  0.5052884E+02  0.7816164E-02  0.1300439E+00
        -11   -1    0    0    0    0  0.00000000000E+00  0.00000000000E+00  0.45593999997E+02  0.45594000000E+02  0.51100000000E-03 0.  1.
         11   -1    0    0    0    0 -0.00000000000E+00 -0.00000000000E+00 -0.45593999997E+02  0.45594000000E+02  0.51100000000E-03 0. -1.
    9900012    2    1    2    0    0 -0.26628966654E+01 -0.34538820400E+02  0.21287223890E+02  0.50528843169E+02  0.29999949297E+02 0.  0.
         12    1    1    2    0    0  0.26628966654E+01  0.34538820400E+02 -0.21287223890E+02  0.40659156831E+02  0.00000000000E+00 0. -1.
         11    1    3    3    0    0 -0.75050410091E+01 -0.16184325217E+02 -0.38184214265E+01  0.18243858302E+02  0.51100000000E-03 0. -1.
        -11    1    3    3    0    0  0.34749669731E+01 -0.14422561288E+02  0.23565561603E+02  0.27846388698E+02  0.51100000000E-03 0.  1.
         12    1    3    3    0    0  0.13671773706E+01 -0.39319338945E+01  0.15400837129E+01  0.44385961695E+01  0.00000000000E+00 0. -1.
</event>
<event>
 7    1  0.3054835E-011  0.5052885E+02  0.7816164E-02  0.1300439E+00
        -11   -1    0    0    0    0  0.00000000000E+00  0.00000000000E+00  0.45593999997E+02  0.45594000000E+02  0.51100000000E-03 0.  1.
         11   -1    0    0    0    0 -0.00000000000E+00 -0.00000000000E+00 -0.45593999997E+02  0.45594000000E+02  0.51100000000E-03 0. -1.
    9900012    2    1    2    0    0 -0.36513790198E+01  0.33862484708E+02 -0.22207338334E+02  0.50528852011E+02  0.29999976173E+02 0.  0.
         12    1    1    2    0    0  0.36513790198E+01 -0.33862484708E+02  0.22207338334E+02  0.40659147989E+02  0.00000000000E+00 0. -1.
         11    1    3    3    0    0 -0.13427524962E+02  0.11446191545E+02 -0.37283476115E+01  0.18033699112E+02  0.51100000000E-03 0. -1.
        -11    1    3    3    0    0  0.25761165358E+01  0.34755889059E+01  0.94245488957E+00  0.44276761545E+01  0.51100000000E-03 0.  1.
         12    1    3    3    0    0  0.72000294059E+01  0.18940704256E+02 -0.19421445612E+02  0.28067476745E+02  0.00000000000E+00 0. -1.
</event>
<event>
 7    1  0.3054835E-011  0.5052888E+02  0.7816164E-02  0.1300439E+00
        -11   -1    0    0    0    0  0.00000000000E+00  0.00000000000E+00  0.45593999997E+02  0.45594000000E+02  0.51100000000E-03 0. -1.
         11   -1    0    0    0    0 -0.00000000000E+00 -0.00000000000E+00 -0.45593999997E+02  0.45594000000E+02  0.51100000000E-03 0.  1.
    9900012    2    1    2    0    0  0.12491086020E+02 -0.20485429308E+02 -0.32825046881E+02  0.50528883598E+02  0.30000072185E+02 0.  0.
         12    1    1    2    0    0 -0.12491086020E+02  0.20485429308E+02  0.32825046881E+02  0.40659116402E+02  0.00000000000E+00 0. -1.
         11    1    3    3    0    0  0.18364116716E+02 -0.17048078806E+02 -0.15811378960E+02  0.29628997259E+02  0.51100000000E-03 0. -1.
        -11    1    3    3    0    0  0.46085613817E-01 -0.36997465524E+01 -0.13529772589E+02  0.14026581729E+02  0.51100000000E-03 0.  1.
         12    1    3    3    0    0 -0.59191163099E+01  0.26239605038E+00 -0.34838953315E+01  0.68733046097E+01  0.00000000000E+00 0. -1.
</event>
<event>
 7    1  0.3054835E-011  0.5052886E+02  0.7816164E-02  0.1300439E+00
        -11   -1    0    0    0    0  0.00000000000E+00  0.00000000000E+00  0.45593999997E+02  0.45594000000E+02  0.51100000000E-03 0. -1.
         11   -1    0    0    0    0 -0.00000000000E+00 -0.00000000000E+00 -0.45593999997E+02  0.45594000000E+02  0.51100000000E-03 0.  1.
    9900012    2    1    2    0    0 -0.35457004484E+02 -0.19898526045E+02  0.12230869001E+00  0.50528862464E+02  0.30000007945E+02 0.  0.
         12    1    1    2    0    0  0.35457004484E+02  0.19898526045E+02 -0.12230869001E+00  0.40659137536E+02  0.00000000000E+00 0. -1.
         11    1    3    3    0    0  0.35400885266E+01  0.18921694745E+01  0.32288659913E+01  0.51515151118E+01  0.51100000000E-03 0. -1.
        -11    1    3    3    0    0 -0.87309013725E+01 -0.17088535914E+01  0.25025706321E+00  0.89000813610E+01  0.51100000000E-03 0.  1.
         12    1    3    3    0    0 -0.30266191638E+02 -0.20081841928E+02 -0.33568143645E+01  0.36477265991E+02  0.00000000000E+00 0. -1.
</event>
<event>
 7    1  0.3054835E-011  0.5052885E+02  0.7816164E-02  0.1300439E+00
        -11   -1    0    0    0    0  0.00000000000E+00  0.00000000000E+00  0.45593999997E+02  0.45594000000E+02  0.51100000000E-03 0. -1.
         11   -1    0    0    0    0 -0.00000000000E+00 -0.00000000000E+00 -0.45593999997E+02  0.45594000000E+02  0.51100000000E-03 0.  1.
    9900012    2    1    2    0    0 -0.22458289514E+02  0.24574218184E+02 -0.23343086297E+02  0.50528847954E+02  0.29999963841E+02 0.  0.
         12    1    1    2    0    0  0.22458289514E+02 -0.24574218184E+02  0.23343086297E+02  0.40659152046E+02  0.00000000000E+00 0. -1.
         11    1    3    3    0    0  0.14967130499E+01 -0.12019644077E+01 -0.77353757009E+00  0.20695963434E+01  0.51100000000E-03 0. -1.
        -11    1    3    3    0    0 -0.24941738853E+02  0.20610870338E+02 -0.26557610249E+02  0.41859347529E+02  0.51100000000E-03 0.  1.
        -12    1    3    3    0    0  0.98673628920E+00  0.51653122538E+01  0.39880615228E+01  0.65999040821E+01  0.00000000000E+00 0.  1.
</event>
<event>
 7    1  0.3054835E-011  0.5052886E+02  0.7816164E-02  0.1300439E+00
        -11   -1    0    0    0    0  0.00000000000E+00  0.00000000000E+00  0.45593999997E+02  0.45594000000E+02  0.51100000000E-03 0. -1.
         11   -1    0    0    0    0 -0.00000000000E+00 -0.00000000000E+00 -0.45593999997E+02  0.45594000000E+02  0.51100000000E-03 0.  1.
    9900012    2    1    2    0    0  0.17783756218E+02 -0.31207100751E+02 -0.19053103112E+02  0.50528857601E+02  0.29999993162E+02 0.  0.
         12    1    1    2    0    0 -0.17783756218E+02  0.31207100751E+02  0.19053103112E+02  0.40659142399E+02  0.00000000000E+00 0. -1.
         11    1    3    3    0    0  0.22946868942E+00 -0.30557253327E+01 -0.97611579684E+01  0.10230851301E+02  0.51100000000E-03 0.  1.
        -11    1    3    3    0    0  0.18201737212E+02 -0.15247175351E+02  0.10216044202E+01  0.23766010804E+02  0.51100000000E-03 0. -1.
         12    1    3    3    0    0 -0.64744968349E+00 -0.12904200067E+02 -0.10313549563E+02  0.16531995495E+02  0.00000000000E+00 0. -1.
</event>
<event>
 7    1  0.3054835E-011  0.5052885E+02  0.7816164E-02  0.1300439E+00
        -11   -1    0    0    0    0  0.00000000000E+00  0.00000000000E+00  0.45593999997E+02  0.45594000000E+02  0.51100000000E-03 0.  1.
         11   -1    0    0    0    0 -0.00000000000E+00 -0.00000000000E+00 -0.45593999997E+02  0.45594000000E+02  0.51100000000E-03 0. -1.
    9900012    2    1    2    0    0  0.88072669281E+01 -0.35170121433E+02  0.18402736636E+02  0.50528854558E+02  0.29999983914E+02 0.  0.
         12    1    1    2    0    0 -0.88072669281E+01  0.35170121433E+02 -0.18402736636E+02  0.40659145442E+02  0.00000000000E+00 0. -1.
         11    1    3    3    0    0  0.79434874835E+01  0.26633978737E+01  0.10304584744E+01  0.84412396342E+01  0.51100000000E-03 0. -1.
        -11    1    3    3    0    0  0.29034186331E+01 -0.31773607322E+02  0.13790022462E+02  0.34758548327E+02  0.51100000000E-03 0.  1.
         12    1    3    3    0    0 -0.20396391885E+01 -0.60599119850E+01  0.35822556999E+01  0.73290665971E+01  0.00000000000E+00 0. -1.
</event>
<event>
 7    1  0.3054835E-011  0.5052885E+02  0.7816164E-02  0.1300439E+00
        -11   -1    0    0    0    0  0.00000000000E+00  0.00000000000E+00  0.45593999997E+02  0.45594000000E+02  0.51100000000E-03 0.  1.
         11   -1    0    0    0    0 -0.00000000000E+00 -0.00000000000E+00 -0.45593999997E+02  0.45594000000E+02  0.51100000000E-03 0. -1.
    9900012    2    1    2    0    0  0.29127552861E+02 -0.22786320197E+02  0.16897799834E+02  0.50528851423E+02  0.29999974385E+02 0.  0.
         12    1    1    2    0    0 -0.29127552861E+02  0.22786320197E+02 -0.16897799834E+02  0.40659148577E+02  0.00000000000E+00 0. -1.
         11    1    3    3    0    0  0.67451687254E+01 -0.12410440456E+02 -0.35051720902E+01  0.14553438256E+02  0.51100000000E-03 0. -1.
        -11    1    3    3    0    0  0.19857266931E+02 -0.13412985729E+01  0.16347062308E+02  0.25755321357E+02  0.51100000000E-03 0.  1.
        -12    1    3    3    0    0  0.25251172042E+01 -0.90345811687E+01  0.40559096159E+01  0.10220091810E+02  0.00000000000E+00 0.  1.
</event>
<event>
 7    1  0.3054835E-011  0.5052885E+02  0.7816164E-02  0.1300439E+00
        -11   -1    0    0    0    0  0.00000000000E+00  0.00000000000E+00  0.45593999997E+02  0.45594000000E+02  0.51100000000E-03 0.  1.
         11   -1    0    0    0    0 -0.00000000000E+00 -0.00000000000E+00 -0.45593999997E+02  0.45594000000E+02  0.51100000000E-03 0. -1.
    9900012    2    1    2    0    0 -0.34339243008E+02 -0.17927551644E+02  0.12352574896E+02  0.50528845743E+02  0.29999957121E+02 0.  0.
         12    1    1    2    0    0  0.34339243008E+02  0.17927551644E+02 -0.12352574896E+02  0.40659154257E+02  0.00000000000E+00 0. -1.
         11    1    3    3    0    0 -0.73967887710E+01 -0.46477859530E+01 -0.50358089481E+01  0.10083341232E+02  0.51100000000E-03 0. -1.
        -11    1    3    3    0    0 -0.24684839938E+02 -0.11256064689E+02  0.21998255980E+02  0.34927977059E+02  0.51100000000E-03 0.  1.
        -12    1    3    3    0    0 -0.22576142995E+01 -0.20237010027E+01 -0.46098721355E+01  0.55175274516E+01  0.00000000000E+00 0.  1.
</event>
<event>
 7    1  0.3054835E-011  0.5052885E+02  0.7816164E-02  0.1300439E+00
        -11   -1    0    0    0    0  0.00000000000E+00  0.00000000000E+00  0.45593999997E+02  0.45594000000E+02  0.51100000000E-03 0. -1.
         11   -1    0    0    0    0 -0.00000000000E+00 -0.00000000000E+00 -0.45593999997E+02  0.45594000000E+02  0.51100000000E-03 0.  1.
    9900012    2    1    2    0    0 -0.11032708394E+02  0.24466985470E+02 -0.30541982302E+02  0.50528847089E+02  0.29999961212E+02 0.  0.
         12    1    1    2    0    0  0.11032708394E+02 -0.24466985470E+02  0.30541982302E+02  0.40659152911E+02  0.00000000000E+00 0. -1.
         11    1    3    3    0    0  0.14499852378E+01 -0.61917049306E+01 -0.41841890876E+01  0.76122996341E+01  0.51100000000E-03 0. -1.
        -11    1    3    3    0    0 -0.12851751687E+02  0.26183323702E+02 -0.21083512077E+02  0.35989560199E+02  0.51100000000E-03 0.  1.
         12    1    3    3    0    0  0.36905805540E+00  0.44753666984E+01 -0.52742811369E+01  0.69269872560E+01  0.00000000000E+00 0. -1.
</event>
<event>
 7    1  0.3054835E-011  0.5052877E+02  0.7816164E-02  0.1300439E+00
        -11   -1    0    0    0    0  0.00000000000E+00  0.00000000000E+00  0.45593999997E+02  0.45594000000E+02  0.51100000000E-03 0. -1.
         11   -1    0    0    0    0 -0.00000000000E+00 -0.00000000000E+00 -0.45593999997E+02  0.45594000000E+02  0.51100000000E-03 0.  1.
    9900012    2    1    2    0    0  0.26108202240E+02 -0.30708903386E+02  0.53383627078E+01  0.50528768726E+02  0.29999723018E+02 0.  0.
         12    1    1    2    0    0 -0.26108202240E+02  0.30708903386E+02 -0.53383627078E+01  0.40659231274E+02  0.00000000000E+00 0. -1.
         11    1    3    3    0    0  0.16110345666E+02 -0.55777136749E+00  0.13368022056E+01  0.16175332664E+02  0.51100000000E-03 0. -1.
        -11    1    3    3    0    0  0.10124630146E+02 -0.26850808293E+02 -0.58412013186E+00  0.28702181767E+02  0.51100000000E-03 0.  1.
         12    1    3    3    0    0 -0.12677357229E+00 -0.33003237251E+01  0.45856806340E+01  0.56512542949E+01  0.00000000000E+00 0. -1.
</event>
<event>
 7    1  0.3054835E-011  0.5052890E+02  0.7816164E-02  0.1300439E+00
        -11   -1    0    0    0    0  0.00000000000E+00  0.00000000000E+00  0.45593999997E+02  0.45594000000E+02  0.51100000000E-03 0.  1.
         11   -1    0    0    0    0 -0.00000000000E+00 -0.00000000000E+00 -0.45593999997E+02  0.45594000000E+02  0.51100000000E-03 0. -1.
    9900012    2    1    2    0    0  0.20535967320E+02  0.16183725255E+02  0.31137166809E+02  0.50528904169E+02  0.30000134712E+02 0.  0.
         12    1    1    2    0    0 -0.20535967320E+02 -0.16183725255E+02 -0.31137166809E+02  0.40659095831E+02  0.00000000000E+00 0. -1.
         11    1    3    3    0    0 -0.59325488158E+01  0.83997162119E+01  0.13935930942E+02  0.17319368908E+02  0.51100000000E-03 0. -1.
        -11    1    3    3    0    0  0.22462036509E+02  0.53498517442E+01  0.11400897489E+02  0.25751591439E+02  0.51100000000E-03 0.  1.
         12    1    3    3    0    0  0.40064796263E+01  0.24341572989E+01  0.58003383778E+01  0.74579438218E+01  0.00000000000E+00 0. -1.
</event>
<event>
 7    1  0.3054835E-011  0.5052884E+02  0.7816164E-02  0.1300439E+00
        -11   -1    0    0    0    0  0.00000000000E+00  0.00000000000E+00  0.45593999997E+02  0.45594000000E+02  0.51100000000E-03 0.  1.
         11   -1    0    0    0    0 -0.00000000000E+00 -0.00000000000E+00 -0.45593999997E+02  0.45594000000E+02  0.51100000000E-03 0. -1.
    9900012    2    1    2    0    0 -0.15213001474E-01  0.28834539948E+02  0.28665939032E+02  0.50528843762E+02  0.29999951098E+02 0.  0.
         12    1    1    2    0    0  0.15213001474E-01 -0.28834539948E+02 -0.28665939032E+02  0.40659156238E+02  0.00000000000E+00 0. -1.
         11    1    3    3    0    0 -0.12487299484E+00  0.93760075545E+01 -0.27022988201E+01  0.97584594123E+01  0.51100000000E-03 0. -1.
        -11    1    3    3    0    0  0.51247756138E+01  0.20043158535E+02  0.27484410641E+02  0.34400354035E+02  0.51100000000E-03 0.  1.
        -12    1    3    3    0    0 -0.50151156204E+01 -0.58462614157E+00  0.38838272102E+01  0.63700303147E+01  0.00000000000E+00 0.  1.
</event>
<event>
 7    1  0.3054835E-011  0.5052890E+02  0.7816164E-02  0.1300439E+00
        -11   -1    0    0    0    0  0.00000000000E+00  0.00000000000E+00  0.45593999997E+02  0.45594000000E+02  0.51100000000E-03 0.  1.
         11   -1    0    0    0    0 -0.00000000000E+00 -0.00000000000E+00 -0.45593999997E+02  0.45594000000E+02  0.51100000000E-03 0. -1.
    9900012    2    1    2    0    0  0.30548036242E+01 -0.22169108331E+02  0.33946450480E+02  0.50528896597E+02  0.30000111695E+02 0.  0.
         12    1    1    2    0    0 -0.30548036242E+01  0.22169108331E+02 -0.33946450480E+02  0.40659103403E+02  0.00000000000E+00 0. -1.
         11    1    3    3    0    0  0.91418347751E+01 -0.25641880649E+02  0.17517797306E+02  0.32372093058E+02  0.51100000000E-03 0. -1.
        -11    1    3    3    0    0 -0.55255412418E+01  0.17183092892E+01  0.13616188211E+02  0.14794754965E+02  0.51100000000E-03 0.  1.
         12    1    3    3    0    0 -0.56148990907E+00  0.17544630290E+01  0.28124649633E+01  0.33620485731E+01  0.00000000000E+00 0. -1.
</event>
<event>
 7    1  0.3054835E-011  0.5052886E+02  0.7816164E-02  0.1300439E+00
        -11   -1    0    0    0    0  0.00000000000E+00  0.00000000000E+00  0.45593999997E+02  0.45594000000E+02  0.51100000000E-03 0. -1.
         11   -1    0    0    0    0 -0.00000000000E+00 -0.00000000000E+00 -0.45593999997E+02  0.45594000000E+02  0.51100000000E-03 0.  1.
    9900012    2    1    2    0    0  0.35030450893E+02 -0.76034848874E+01 -0.19189057971E+02  0.50528863044E+02  0.30000009709E+02 0.  0.
         12    1    1    2    0    0 -0.35030450893E+02  0.76034848874E+01  0.19189057971E+02  0.40659136956E+02  0.00000000000E+00 0. -1.
         11    1    3    3    0    0  0.16872261690E+01 -0.51924848074E+01 -0.25808863981E+01  0.60390069947E+01  0.51100000000E-03 0. -1.
        -11    1    3    3    0    0  0.23275281232E+02  0.99546533764E+01 -0.96439272439E+01  0.27089466094E+02  0.51100000000E-03 0.  1.
        -12    1    3    3    0    0  0.10067943491E+02 -0.12365653456E+02 -0.69642443292E+01  0.17400389956E+02  0.00000000000E+00 0.  1.
</event>
<event>
 7    1  0.3054835E-011  0.5052886E+02  0.7816164E-02  0.1300439E+00
        -11   -1    0    0    0    0  0.00000000000E+00  0.00000000000E+00  0.45593999997E+02  0.45594000000E+02  0.51100000000E-03 0. -1.
         11   -1    0    0    0    0 -0.00000000000E+00 -0.00000000000E+00 -0.45593999997E+02  0.45594000000E+02  0.51100000000E-03 0.  1.
    9900012    2    1    2    0    0  0.33439386520E+02  0.14964705041E+02 -0.17636052492E+02  0.50528864307E+02  0.30000013547E+02 0.  0.
         12    1    1    2    0    0 -0.33439386520E+02 -0.14964705041E+02  0.17636052492E+02  0.40659135693E+02  0.00000000000E+00 0. -1.
         11    1    3    3    0    0  0.27987259732E+02  0.15829357434E+02 -0.11995255656E+02  0.34318237463E+02  0.51100000000E-03 0. -1.
        -11    1    3    3    0    0  0.65562275125E+01 -0.39407963564E+01  0.19945424810E+01  0.79052005090E+01  0.51100000000E-03 0.  1.
         12    1    3    3    0    0 -0.11041007249E+01  0.30761439640E+01 -0.76353393177E+01  0.83054263343E+01  0.00000000000E+00 0. -1.
</event>
<event>
 7    1  0.3054835E-011  0.5052887E+02  0.7816164E-02  0.1300439E+00
        -11   -1    0    0    0    0  0.00000000000E+00  0.00000000000E+00  0.45593999997E+02  0.45594000000E+02  0.51100000000E-03 0. -1.
         11   -1    0    0    0    0 -0.00000000000E+00 -0.00000000000E+00 -0.45593999997E+02  0.45594000000E+02  0.51100000000E-03 0.  1.
    9900012    2    1    2    0    0 -0.30235167240E+02 -0.17525137976E+02 -0.20781457868E+02  0.50528870764E+02  0.30000033173E+02 0.  0.
         12    1    1    2    0    0  0.30235167240E+02  0.17525137976E+02  0.20781457868E+02  0.40659129236E+02  0.00000000000E+00 0. -1.
         11    1    3    3    0    0 -0.34784285341E+02 -0.19190687952E+02 -0.15472028231E+02  0.42633468878E+02  0.51100000000E-03 0. -1.
        -11    1    3    3    0    0  0.59895352890E+00 -0.67450196315E-01 -0.28847642587E+01  0.29470595427E+01  0.51100000000E-03 0.  1.
         12    1    3    3    0    0  0.39501645721E+01  0.17330001720E+01 -0.24246653787E+01  0.49483423428E+01  0.00000000000E+00 0. -1.
</event>
<event>
 7    1  0.3054835E-011  0.5052886E+02  0.7816164E-02  0.1300439E+00
        -11   -1    0    0    0    0  0.00000000000E+00  0.00000000000E+00  0.45593999997E+02  0.45594000000E+02  0.51100000000E-03 0. -1.
         11   -1    0    0    0    0 -0.00000000000E+00 -0.00000000000E+00 -0.45593999997E+02  0.45594000000E+02  0.51100000000E-03 0.  1.
    9900012    2    1    2    0    0 -0.22032955634E+02  0.55702423792E+01 -0.33714790379E+02  0.50528858046E+02  0.29999994516E+02 0.  0.
         12    1    1    2    0    0  0.22032955634E+02 -0.55702423792E+01  0.33714790379E+02  0.40659141954E+02  0.00000000000E+00 0. -1.
         11    1    3    3    0    0 -0.14665924142E+02  0.47379893709E+01 -0.43771491982E+00  0.15418478162E+02  0.51100000000E-03 0. -1.
        -11    1    3    3    0    0 -0.83689566380E+01  0.27198331093E+01 -0.29333437309E+02  0.30624948522E+02  0.51100000000E-03 0.  1.
         12    1    3    3    0    0  0.10019251462E+01 -0.18875801009E+01 -0.39436381508E+01  0.44854313617E+01  0.00000000000E+00 0. -1.
</event>
<event>
 7    1  0.3054835E-011  0.5052887E+02  0.7816164E-02  0.1300439E+00
        -11   -1    0    0    0    0  0.00000000000E+00  0.00000000000E+00  0.45593999997E+02  0.45594000000E+02  0.51100000000E-03 0. -1.
         11   -1    0    0    0    0 -0.00000000000E+00 -0.00000000000E+00 -0.45593999997E+02  0.45594000000E+02  0.51100000000E-03 0.  1.
    9900012    2    1    2    0    0 -0.39937239003E+02  0.27829227981E+01  0.71019215015E+01  0.50528868092E+02  0.30000025054E+02 0.  0.
         12    1    1    2    0    0  0.39937239003E+02 -0.27829227981E+01 -0.71019215015E+01  0.40659131908E+02  0.00000000000E+00 0. -1.
         11    1    3    3    0    0 -0.38169606363E+02  0.24759225218E+01  0.16623191759E+01  0.38285928845E+02  0.51100000000E-03 0.  1.
        -11    1    3    3    0    0  0.27542360511E+01 -0.38686025211E+01  0.30298598842E+01  0.56331121833E+01  0.51100000000E-03 0. -1.
        -12    1    3    3    0    0 -0.45218686906E+01  0.41756027974E+01  0.24097424414E+01  0.66098270636E+01  0.00000000000E+00 0.  1.
</event>
<event>
 7    1  0.3054835E-011  0.5052886E+02  0.7816164E-02  0.1300439E+00
        -11   -1    0    0    0    0  0.00000000000E+00  0.00000000000E+00  0.45593999997E+02  0.45594000000E+02  0.51100000000E-03 0. -1.
         11   -1    0    0    0    0 -0.00000000000E+00 -0.00000000000E+00 -0.45593999997E+02  0.45594000000E+02  0.51100000000E-03 0.  1.
    9900012    2    1    2    0    0 -0.18718914174E+02 -0.29836813569E+02 -0.20310892377E+02  0.50528861532E+02  0.30000005112E+02 0.  0.
         12    1    1    2    0    0  0.18718914174E+02  0.29836813569E+02  0.20310892377E+02  0.40659138468E+02  0.00000000000E+00 0. -1.
         11    1    3    3    0    0 -0.49823552558E+01 -0.27580779869E+02 -0.11480343949E+02  0.30287317139E+02  0.51100000000E-03 0. -1.
        -11    1    3    3    0    0 -0.14422802191E+02  0.91623062645E+00 -0.51687182191E+01  0.15348366359E+02  0.51100000000E-03 0.  1.
         12    1    3    3    0    0  0.68624327248E+00 -0.31722643272E+01 -0.36618302091E+01  0.48931780339E+01  0.00000000000E+00 0. -1.
</event>
<event>
 7    1  0.3054835E-011  0.5052887E+02  0.7816164E-02  0.1300439E+00
        -11   -1    0    0    0    0  0.00000000000E+00  0.00000000000E+00  0.45593999997E+02  0.45594000000E+02  0.51100000000E-03 0.  1.
         11   -1    0    0    0    0 -0.00000000000E+00 -0.00000000000E+00 -0.45593999997E+02  0.45594000000E+02  0.51100000000E-03 0. -1.
    9900012    2    1    2    0    0 -0.24889122620E+01  0.40481359653E+02 -0.28686797993E+01  0.50528874488E+02  0.30000044493E+02 0.  0.
         12    1    1    2    0    0  0.24889122620E+01 -0.40481359653E+02  0.28686797993E+01  0.40659125512E+02  0.00000000000E+00 0. -1.
         11    1    3    3    0    0  0.29551304356E+01 -0.36298980239E+01 -0.37107588805E+01  0.59731639260E+01  0.51100000000E-03 0. -1.
        -11    1    3    3    0    0 -0.23482707600E+01  0.10412656291E+02  0.93549765903E+00  0.10715080155E+02  0.51100000000E-03 0.  1.
         12    1    3    3    0    0 -0.30957719376E+01  0.33698601386E+02 -0.93418577805E-01  0.33840630406E+02  0.00000000000E+00 0. -1.
</event>
<event>
 7    1  0.3054835E-011  0.5052886E+02  0.7816164E-02  0.1300439E+00
        -11   -1    0    0    0    0  0.00000000000E+00  0.00000000000E+00  0.45593999997E+02  0.45594000000E+02  0.51100000000E-03 0. -1.
         11   -1    0    0    0    0 -0.00000000000E+00 -0.00000000000E+00 -0.45593999997E+02  0.45594000000E+02  0.51100000000E-03 0.  1.
    9900012    2    1    2    0    0 -0.38041901891E+02 -0.12926654599E+02 -0.62354555820E+01  0.50528860745E+02  0.30000002721E+02 0.  0.
         12    1    1    2    0    0  0.38041901891E+02  0.12926654599E+02  0.62354555820E+01  0.40659139255E+02  0.00000000000E+00 0. -1.
         11    1    3    3    0    0  0.91498694201E+00 -0.35731719472E+01  0.30083352284E+01  0.47597100726E+01  0.51100000000E-03 0. -1.
        -11    1    3    3    0    0 -0.37680131100E+02 -0.12233277406E+02 -0.12196865584E+02  0.41451283287E+02  0.51100000000E-03 0.  1.
        -12    1    3    3    0    0 -0.12767577330E+01  0.28797947542E+01  0.29530747738E+01  0.43178673850E+01  0.00000000000E+00 0.  1.
</event>
<event>
 7    1  0.3054835E-011  0.5052885E+02  0.7816164E-02  0.1300439E+00
        -11   -1    0    0    0    0  0.00000000000E+00  0.00000000000E+00  0.45593999997E+02  0.45594000000E+02  0.51100000000E-03 0.  1.
         11   -1    0    0    0    0 -0.00000000000E+00 -0.00000000000E+00 -0.45593999997E+02  0.45594000000E+02  0.51100000000E-03 0. -1.
    9900012    2    1    2    0    0 -0.31910463894E+01  0.40112630128E+02  0.58275390721E+01  0.50528854848E+02  0.29999984796E+02 0.  0.
         12    1    1    2    0    0  0.31910463894E+01 -0.40112630128E+02 -0.58275390721E+01  0.40659145152E+02  0.00000000000E+00 0. -1.
         11    1    3    3    0    0  0.72951733296E+01  0.12158885546E+02 -0.38358956689E+01  0.14689184711E+02  0.51100000000E-03 0. -1.
        -11    1    3    3    0    0 -0.12121936944E+02  0.11566288180E+02  0.97212581136E+01  0.19370679831E+02  0.51100000000E-03 0.  1.
        -12    1    3    3    0    0  0.16357172245E+01  0.16387456402E+02 -0.57823372583E-01  0.16468990306E+02  0.00000000000E+00 0.  1.
</event>
<event>
 7    1  0.3054835E-011  0.5052885E+02  0.7816164E-02  0.1300439E+00
        -11   -1    0    0    0    0  0.00000000000E+00  0.00000000000E+00  0.45593999997E+02  0.45594000000E+02  0.51100000000E-03 0.  1.
         11   -1    0    0    0    0 -0.00000000000E+00 -0.00000000000E+00 -0.45593999997E+02  0.45594000000E+02  0.51100000000E-03 0. -1.
    9900012    2    1    2    0    0  0.16115538439E+02  0.11378503829E+02  0.35552568839E+02  0.50528854908E+02  0.29999984978E+02 0.  0.
         12    1    1    2    0    0 -0.16115538439E+02 -0.11378503829E+02 -0.35552568839E+02  0.40659145092E+02  0.00000000000E+00 0. -1.
         11    1    3    3    0    0  0.12295425848E+02 -0.54532061352E+01  0.11810644507E+02  0.17899896030E+02  0.51100000000E-03 0. -1.
        -11    1    3    3    0    0 -0.77984242396E+00  0.90848120984E+01  0.21486619266E+02  0.23341310434E+02  0.51100000000E-03 0.  1.
         12    1    3    3    0    0  0.45999550143E+01  0.77468978656E+01  0.22553050672E+01  0.92876484440E+01  0.00000000000E+00 0. -1.
</event>
<event>
 7    1  0.3054835E-011  0.5052890E+02  0.7816164E-02  0.1300439E+00
        -11   -1    0    0    0    0  0.00000000000E+00  0.00000000000E+00  0.45593999997E+02  0.45594000000E+02  0.51100000000E-03 0. -1.
         11   -1    0    0    0    0 -0.00000000000E+00 -0.00000000000E+00 -0.45593999997E+02  0.45594000000E+02  0.51100000000E-03 0.  1.
    9900012    2    1    2    0    0  0.75004830309E+01 -0.26608132771E+02 -0.29814632530E+02  0.50528901533E+02  0.30000126700E+02 0.  0.
         12    1    1    2    0    0 -0.75004830309E+01  0.26608132771E+02  0.29814632530E+02  0.40659098467E+02  0.00000000000E+00 0. -1.
         11    1    3    3    0    0  0.90934341277E+01  0.16771747667E+01 -0.10018401307E+02  0.13633481743E+02  0.51100000000E-03 0. -1.
        -11    1    3    3    0    0  0.48367371283E+01 -0.19880839705E+02 -0.11683475110E+02  0.23561523812E+02  0.51100000000E-03 0.  1.
         12    1    3    3    0    0 -0.64296882250E+01 -0.84044678324E+01 -0.81127561131E+01  0.13333895979E+02  0.00000000000E+00 0. -1.
</event>
<event>
 7    1  0.3054835E-011  0.5052886E+02  0.7816164E-02  0.1300439E+00
        -11   -1    0    0    0    0  0.00000000000E+00  0.00000000000E+00  0.45593999997E+02  0.45594000000E+02  0.51100000000E-03 0.  1.
         11   -1    0    0    0    0 -0.00000000000E+00 -0.00000000000E+00 -0.45593999997E+02  0.45594000000E+02  0.51100000000E-03 0. -1.
    9900012    2    1    2    0    0 -0.20194128307E+01  0.67360701549E+01  0.40046385047E+02  0.50528860502E+02  0.30000001983E+02 0.  0.
         12    1    1    2    0    0  0.20194128307E+01 -0.67360701549E+01 -0.40046385047E+02  0.40659139498E+02  0.00000000000E+00 0. -1.
         11    1    3    3    0    0  0.46661466538E+01 -0.77176470526E+01  0.23598126314E+01  0.93222162891E+01  0.51100000000E-03 0. -1.
        -11    1    3    3    0    0 -0.42266051795E+01  0.69776843936E+01  0.13516848786E+02  0.15787890049E+02  0.51100000000E-03 0.  1.
         12    1    3    3    0    0 -0.24589543050E+01  0.74760328139E+01  0.24169723630E+02  0.25418754165E+02  0.00000000000E+00 0. -1.
</event>
<event>
 7    1  0.3054835E-011  0.5052887E+02  0.7816164E-02  0.1300439E+00
        -11   -1    0    0    0    0  0.00000000000E+00  0.00000000000E+00  0.45593999997E+02  0.45594000000E+02  0.51100000000E-03 0. -1.
         11   -1    0    0    0    0 -0.00000000000E+00 -0.00000000000E+00 -0.45593999997E+02  0.45594000000E+02  0.51100000000E-03 0.  1.
    9900012    2    1    2    0    0  0.26953018871E+02 -0.15612155198E+02 -0.26133511232E+02  0.50528867871E+02  0.30000024379E+02 0.  0.
         12    1    1    2    0    0 -0.26953018871E+02  0.15612155198E+02  0.26133511232E+02  0.40659132129E+02  0.00000000000E+00 0. -1.
         11    1    3    3    0    0  0.11634112246E+01  0.31779978789E+01  0.34218172094E+01  0.48126946165E+01  0.51100000000E-03 0. -1.
        -11    1    3    3    0    0  0.43117434368E+01 -0.87292598146E+01 -0.15018423397E+02  0.17898160519E+02  0.51100000000E-03 0.  1.
         12    1    3    3    0    0  0.21477864210E+02 -0.10060893262E+02 -0.14536905045E+02  0.27818012735E+02  0.00000000000E+00 0. -1.
</event>
<event>
 7    1  0.3054835E-011  0.5052884E+02  0.7816164E-02  0.1300439E+00
        -11   -1    0    0    0    0  0.00000000000E+00  0.00000000000E+00  0.45593999997E+02  0.45594000000E+02  0.51100000000E-03 0.  1.
         11   -1    0    0    0    0 -0.00000000000E+00 -0.00000000000E+00 -0.45593999997E+02  0.45594000000E+02  0.51100000000E-03 0. -1.
    9900012    2    1    2    0    0  0.15123704295E+02  0.13543054751E+02  0.35228204484E+02  0.50528841687E+02  0.29999944791E+02 0.  0.
         12    1    1    2    0    0 -0.15123704295E+02 -0.13543054751E+02 -0.35228204484E+02  0.40659158313E+02  0.00000000000E+00 0. -1.
         11    1    3    3    0    0 -0.43345858643E+01  0.66282966331E+01  0.12205200714E+01  0.80132777549E+01  0.51100000000E-03 0. -1.
        -11    1    3    3    0    0  0.17975197003E+02  0.64439014567E+01  0.17396213639E+02  0.25831372834E+02  0.51100000000E-03 0.  1.
         12    1    3    3    0    0  0.14830931561E+01  0.47085666141E+00  0.16611470774E+02  0.16684191098E+02  0.00000000000E+00 0. -1.
</event>
<event>
 7    1  0.3054835E-011  0.5052886E+02  0.7816164E-02  0.1300439E+00
        -11   -1    0    0    0    0  0.00000000000E+00  0.00000000000E+00  0.45593999997E+02  0.45594000000E+02  0.51100000000E-03 0.  1.
         11   -1    0    0    0    0 -0.00000000000E+00 -0.00000000000E+00 -0.45593999997E+02  0.45594000000E+02  0.51100000000E-03 0. -1.
    9900012    2    1    2    0    0 -0.23862735806E+02 -0.11814196864E-01  0.32920141557E+02  0.50528855643E+02  0.29999987213E+02 0.  0.
         12    1    1    2    0    0  0.23862735806E+02  0.11814196864E-01 -0.32920141557E+02  0.40659144357E+02  0.00000000000E+00 0. -1.
         11    1    3    3    0    0 -0.58033544110E+01  0.84645314609E+01  0.18468348623E+02  0.21128348643E+02  0.51100000000E-03 0. -1.
        -11    1    3    3    0    0 -0.90448078483E+01 -0.89831202857E+01  0.15767790697E+02  0.20276297069E+02  0.51100000000E-03 0.  1.
         12    1    3    3    0    0 -0.90145735469E+01  0.50677462788E+00 -0.13159977635E+01  0.91242099313E+01  0.00000000000E+00 0. -1.
</event>
<event>
 7    1  0.3054835E-011  0.5052887E+02  0.7816164E-02  0.1300439E+00
        -11   -1    0    0    0    0  0.00000000000E+00  0.00000000000E+00  0.45593999997E+02  0.45594000000E+02  0.51100000000E-03 0. -1.
         11   -1    0    0    0    0 -0.00000000000E+00 -0.00000000000E+00 -0.45593999997E+02  0.45594000000E+02  0.51100000000E-03 0.  1.
    9900012    2    1    2    0    0 -0.36329243278E+02  0.14784211603E+00 -0.18257310101E+02  0.50528866382E+02  0.30000019855E+02 0.  0.
         12    1    1    2    0    0  0.36329243278E+02 -0.14784211603E+00  0.18257310101E+02  0.40659133618E+02  0.00000000000E+00 0. -1.
         11    1    3    3    0    0 -0.26011347868E+02 -0.74089687281E+01 -0.11798730965E+01  0.27071666670E+02  0.51100000000E-03 0. -1.
        -11    1    3    3    0    0 -0.53166982424E+01  0.16871659667E+01 -0.14148518076E+02  0.15208365238E+02  0.51100000000E-03 0.  1.
        -12    1    3    3    0    0 -0.50011971675E+01  0.58696448773E+01 -0.29289189287E+01  0.82488344743E+01  0.00000000000E+00 0.  1.
</event>
<event>
 7    1  0.3054835E-011  0.5052887E+02  0.7816164E-02  0.1300439E+00
        -11   -1    0    0    0    0  0.00000000000E+00  0.00000000000E+00  0.45593999997E+02  0.45594000000E+02  0.51100000000E-03 0.  1.
         11   -1    0    0    0    0 -0.00000000000E+00 -0.00000000000E+00 -0.45593999997E+02  0.45594000000E+02  0.51100000000E-03 0. -1.
    9900012    2    1    2    0    0 -0.34495371630E+02  0.20570875602E+02 -0.63303571390E+01  0.50528868081E+02  0.30000025018E+02 0.  0.
         12    1    1    2    0    0  0.34495371630E+02 -0.20570875602E+02  0.63303571390E+01  0.40659131919E+02  0.00000000000E+00 0. -1.
         11    1    3    3    0    0 -0.19355322568E+02 -0.19734799157E+01 -0.78803107542E+01  0.20991008374E+02  0.51100000000E-03 0. -1.
        -11    1    3    3    0    0 -0.98964438127E+01  0.20389056727E+02 -0.21537065046E+01  0.22766020432E+02  0.51100000000E-03 0.  1.
        -12    1    3    3    0    0 -0.52436052491E+01  0.21552987909E+01  0.37036601197E+01  0.67718392752E+01  0.00000000000E+00 0.  1.
</event>
<event>
 7    1  0.3054835E-011  0.5052886E+02  0.7816164E-02  0.1300439E+00
        -11   -1    0    0    0    0  0.00000000000E+00  0.00000000000E+00  0.45593999997E+02  0.45594000000E+02  0.51100000000E-03 0. -1.
         11   -1    0    0    0    0 -0.00000000000E+00 -0.00000000000E+00 -0.45593999997E+02  0.45594000000E+02  0.51100000000E-03 0.  1.
    9900012    2    1    2    0    0  0.19249652965E+02 -0.35163629032E+01 -0.35640593126E+02  0.50528858030E+02  0.29999994469E+02 0.  0.
         12    1    1    2    0    0 -0.19249652965E+02  0.35163629032E+01  0.35640593126E+02  0.40659141970E+02  0.00000000000E+00 0. -1.
         11    1    3    3    0    0  0.95116418929E+01 -0.11082971061E+02 -0.11287627854E+02  0.18458443105E+02  0.51100000000E-03 0.  1.
        -11    1    3    3    0    0  0.22899642813E+01  0.90537933817E+01 -0.36649668479E+01  0.10032302491E+02  0.51100000000E-03 0. -1.
        -12    1    3    3    0    0  0.74480467905E+01 -0.14871852240E+01 -0.20687998424E+02  0.22038112435E+02  0.00000000000E+00 0.  1.
</event>
<event>
 7    1  0.3054835E-011  0.5052887E+02  0.7816164E-02  0.1300439E+00
        -11   -1    0    0    0    0  0.00000000000E+00  0.00000000000E+00  0.45593999997E+02  0.45594000000E+02  0.51100000000E-03 0. -1.
         11   -1    0    0    0    0 -0.00000000000E+00 -0.00000000000E+00 -0.45593999997E+02  0.45594000000E+02  0.51100000000E-03 0.  1.
    9900012    2    1    2    0    0 -0.19160800085E+02  0.88712212924E+01 -0.34746655967E+02  0.50528869070E+02  0.30000028024E+02 0.  0.
         12    1    1    2    0    0  0.19160800085E+02 -0.88712212924E+01  0.34746655967E+02  0.40659130930E+02  0.00000000000E+00 0. -1.
         11    1    3    3    0    0  0.52578833976E+01 -0.47443709240E+01 -0.79838803201E+01  0.10672241494E+02  0.51100000000E-03 0. -1.
        -11    1    3    3    0    0 -0.75137537927E+01  0.94056831926E+01 -0.12345605618E+02  0.17243472699E+02  0.51100000000E-03 0.  1.
         12    1    3    3    0    0 -0.16904929690E+02  0.42099090238E+01 -0.14417170029E+02  0.22613154876E+02  0.00000000000E+00 0. -1.
</event>
<event>
 7    1  0.3054835E-011  0.5052886E+02  0.7816164E-02  0.1300439E+00
        -11   -1    0    0    0    0  0.00000000000E+00  0.00000000000E+00  0.45593999997E+02  0.45594000000E+02  0.51100000000E-03 0.  1.
         11   -1    0    0    0    0 -0.00000000000E+00 -0.00000000000E+00 -0.45593999997E+02  0.45594000000E+02  0.51100000000E-03 0. -1.
    9900012    2    1    2    0    0  0.28075890232E+02 -0.29142335716E+02  0.39540351855E+01  0.50528859114E+02  0.29999997764E+02 0.  0.
         12    1    1    2    0    0 -0.28075890232E+02  0.29142335716E+02 -0.39540351855E+01  0.40659140886E+02  0.00000000000E+00 0. -1.
         11    1    3    3    0    0  0.29899293694E+01 -0.15528419389E+02  0.11660203192E+02  0.19647692615E+02  0.51100000000E-03 0. -1.
        -11    1    3    3    0    0  0.18129981689E+02 -0.55005586085E+01 -0.29136854162E+01  0.19168775235E+02  0.51100000000E-03 0.  1.
         12    1    3    3    0    0  0.69559791737E+01 -0.81133577181E+01 -0.47924825908E+01  0.11712391264E+02  0.00000000000E+00 0. -1.
</event>
<event>
 7    1  0.3054835E-011  0.5052886E+02  0.7816164E-02  0.1300439E+00
        -11   -1    0    0    0    0  0.00000000000E+00  0.00000000000E+00  0.45593999997E+02  0.45594000000E+02  0.51100000000E-03 0. -1.
         11   -1    0    0    0    0 -0.00000000000E+00 -0.00000000000E+00 -0.45593999997E+02  0.45594000000E+02  0.51100000000E-03 0.  1.
    9900012    2    1    2    0    0 -0.33235647373E+02 -0.16557352551E+02 -0.16565372322E+02  0.50528859085E+02  0.29999997674E+02 0.  0.
         12    1    1    2    0    0  0.33235647373E+02  0.16557352551E+02  0.16565372322E+02  0.40659140915E+02  0.00000000000E+00 0. -1.
         11    1    3    3    0    0  0.32496720479E+00 -0.10167045154E+02 -0.94721334204E+01  0.13899486416E+02  0.51100000000E-03 0. -1.
        -11    1    3    3    0    0 -0.33009273535E+02 -0.70317081023E+01 -0.86649901762E+01  0.34844499037E+02  0.51100000000E-03 0.  1.
        -12    1    3    3    0    0 -0.55134104331E+00  0.64140070514E+00  0.15717512750E+01  0.17848736317E+01  0.00000000000E+00 0.  1.
</event>
<event>
 7    1  0.3054835E-011  0.5052886E+02  0.7816164E-02  0.1300439E+00
        -11   -1    0    0    0    0  0.00000000000E+00  0.00000000000E+00  0.45593999997E+02  0.45594000000E+02  0.51100000000E-03 0.  1.
         11   -1    0    0    0    0 -0.00000000000E+00 -0.00000000000E+00 -0.45593999997E+02  0.45594000000E+02  0.51100000000E-03 0. -1.
    9900012    2    1    2    0    0  0.11318962848E+02  0.20195869039E+02  0.33424145992E+02  0.50528861033E+02  0.30000003596E+02 0.  0.
         12    1    1    2    0    0 -0.11318962848E+02 -0.20195869039E+02 -0.33424145992E+02  0.40659138967E+02  0.00000000000E+00 0. -1.
         11    1    3    3    0    0  0.22917875929E+01 -0.44346540256E+01  0.43389735978E+01  0.66140107984E+01  0.51100000000E-03 0. -1.
        -11    1    3    3    0    0  0.54074333332E+01  0.27623683209E+02  0.25799320334E+02  0.38182628763E+02  0.51100000000E-03 0.  1.
        -12    1    3    3    0    0  0.36197419223E+01 -0.29931601444E+01  0.32858520607E+01  0.57322214716E+01  0.00000000000E+00 0.  1.
</event>
<event>
 7    1  0.3054835E-011  0.5052885E+02  0.7816164E-02  0.1300439E+00
        -11   -1    0    0    0    0  0.00000000000E+00  0.00000000000E+00  0.45593999997E+02  0.45594000000E+02  0.51100000000E-03 0.  1.
         11   -1    0    0    0    0 -0.00000000000E+00 -0.00000000000E+00 -0.45593999997E+02  0.45594000000E+02  0.51100000000E-03 0. -1.
    9900012    2    1    2    0    0 -0.11283654028E+02 -0.99583810409E+01  0.37771366286E+02  0.50528852046E+02  0.29999976280E+02 0.  0.
         12    1    1    2    0    0  0.11283654028E+02  0.99583810409E+01 -0.37771366286E+02  0.40659147954E+02  0.00000000000E+00 0. -1.
         11    1    3    3    0    0 -0.14492089789E+02  0.25962810132E+01  0.22207076008E+02  0.26644240778E+02  0.51100000000E-03 0.  1.
        -11    1    3    3    0    0 -0.20655709910E+01 -0.11760797173E+02  0.71361512918E+01  0.13910700528E+02  0.51100000000E-03 0. -1.
         12    1    3    3    0    0  0.52740067524E+01 -0.79386488102E+00  0.84281389864E+01  0.99739107400E+01  0.00000000000E+00 0. -1.
</event>
<event>
 7    1  0.3054835E-011  0.5052888E+02  0.7816164E-02  0.1300439E+00
        -11   -1    0    0    0    0  0.00000000000E+00  0.00000000000E+00  0.45593999997E+02  0.45594000000E+02  0.51100000000E-03 0. -1.
         11   -1    0    0    0    0 -0.00000000000E+00 -0.00000000000E+00 -0.45593999997E+02  0.45594000000E+02  0.51100000000E-03 0.  1.
    9900012    2    1    2    0    0  0.29226119935E+02  0.22493094389E+02  0.17118963259E+02  0.50528876981E+02  0.30000052070E+02 0.  0.
         12    1    1    2    0    0 -0.29226119935E+02 -0.22493094389E+02 -0.17118963259E+02  0.40659123019E+02  0.00000000000E+00 0. -1.
         11    1    3    3    0    0  0.14974596550E+02  0.22856024259E+02  0.19423888826E+02  0.33524973440E+02  0.51100000000E-03 0.  1.
        -11    1    3    3    0    0  0.52906423909E+01  0.17033872891E+01 -0.49417583688E+01  0.74372979772E+01  0.51100000000E-03 0. -1.
        -12    1    3    3    0    0  0.89608809939E+01 -0.20663171587E+01  0.26368328020E+01  0.95666055638E+01  0.00000000000E+00 0.  1.
</event>
<event>
 7    1  0.3054835E-011  0.5052885E+02  0.7816164E-02  0.1300439E+00
        -11   -1    0    0    0    0  0.00000000000E+00  0.00000000000E+00  0.45593999997E+02  0.45594000000E+02  0.51100000000E-03 0. -1.
         11   -1    0    0    0    0 -0.00000000000E+00 -0.00000000000E+00 -0.45593999997E+02  0.45594000000E+02  0.51100000000E-03 0.  1.
    9900012    2    1    2    0    0  0.23411995523E+02 -0.15937297868E+02  0.29172722100E+02  0.50528847126E+02  0.29999961324E+02 0.  0.
         12    1    1    2    0    0 -0.23411995523E+02  0.15937297868E+02 -0.29172722100E+02  0.40659152874E+02  0.00000000000E+00 0. -1.
         11    1    3    3    0    0  0.45722698434E+00  0.45942013930E+01  0.22075768243E+00  0.46221723432E+01  0.51100000000E-03 0. -1.
        -11    1    3    3    0    0  0.21350590517E+02 -0.23716484203E+02  0.24676529684E+02  0.40339192554E+02  0.51100000000E-03 0.  1.
        -12    1    3    3    0    0  0.16041780216E+01  0.31849849425E+01  0.42754347335E+01  0.55674822289E+01  0.00000000000E+00 0.  1.
</event>
<event>
 7    1  0.3054835E-011  0.5052886E+02  0.7816164E-02  0.1300439E+00
        -11   -1    0    0    0    0  0.00000000000E+00  0.00000000000E+00  0.45593999997E+02  0.45594000000E+02  0.51100000000E-03 0.  1.
         11   -1    0    0    0    0 -0.00000000000E+00 -0.00000000000E+00 -0.45593999997E+02  0.45594000000E+02  0.51100000000E-03 0. -1.
    9900012    2    1    2    0    0  0.35979058207E+02 -0.37922622178E+01  0.18555110780E+02  0.50528855663E+02  0.29999987272E+02 0.  0.
         12    1    1    2    0    0 -0.35979058207E+02  0.37922622178E+01 -0.18555110780E+02  0.40659144337E+02  0.00000000000E+00 0. -1.
         11    1    3    3    0    0  0.62235840271E+01  0.64276000660E+00  0.17869372540E+01  0.65068643431E+01  0.51100000000E-03 0. -1.
        -11    1    3    3    0    0  0.27096214190E+02 -0.13234946193E+02  0.17385401653E+02  0.34808344044E+02  0.51100000000E-03 0.  1.
        -12    1    3    3    0    0  0.26592599900E+01  0.87999239691E+01 -0.61722812748E+00  0.92136472755E+01  0.00000000000E+00 0.  1.
</event>
<event>
 7    1  0.3054835E-011  0.5052885E+02  0.7816164E-02  0.1300439E+00
        -11   -1    0    0    0    0  0.00000000000E+00  0.00000000000E+00  0.45593999997E+02  0.45594000000E+02  0.51100000000E-03 0.  1.
         11   -1    0    0    0    0 -0.00000000000E+00 -0.00000000000E+00 -0.45593999997E+02  0.45594000000E+02  0.51100000000E-03 0. -1.
    9900012    2    1    2    0    0 -0.38622127000E+02 -0.27591378410E+01 -0.12405029898E+02  0.50528852168E+02  0.29999976650E+02 0.  0.
         12    1    1    2    0    0  0.38622127000E+02  0.27591378410E+01  0.12405029898E+02  0.40659147832E+02  0.00000000000E+00 0. -1.
         11    1    3    3    0    0 -0.50931879640E+01  0.49323711531E+01 -0.52575457413E+01  0.88267001938E+01  0.51100000000E-03 0. -1.
        -11    1    3    3    0    0 -0.21959327332E+02 -0.14843047103E+02 -0.37512520260E+00  0.26507901149E+02  0.51100000000E-03 0.  1.
        -12    1    3    3    0    0 -0.11569611704E+02  0.71515381089E+01 -0.67723589545E+01  0.15194250825E+02  0.00000000000E+00 0.  1.
</event>
<event>
 7    1  0.3054835E-011  0.5052885E+02  0.7816164E-02  0.1300439E+00
        -11   -1    0    0    0    0  0.00000000000E+00  0.00000000000E+00  0.45593999997E+02  0.45594000000E+02  0.51100000000E-03 0.  1.
         11   -1    0    0    0    0 -0.00000000000E+00 -0.00000000000E+00 -0.45593999997E+02  0.45594000000E+02  0.51100000000E-03 0. -1.
    9900012    2    1    2    0    0  0.37996773456E+02  0.94981036577E+01  0.10917761459E+02  0.50528852426E+02  0.29999977434E+02 0.  0.
         12    1    1    2    0    0 -0.37996773456E+02 -0.94981036577E+01 -0.10917761459E+02  0.40659147574E+02  0.00000000000E+00 0. -1.
         11    1    3    3    0    0  0.13586581144E+02 -0.41196973536E+01 -0.16239158935E+01  0.14290003379E+02  0.51100000000E-03 0. -1.
        -11    1    3    3    0    0  0.15180831193E+02  0.94643587747E+01  0.17449899132E+02  0.24990612291E+02  0.51100000000E-03 0.  1.
        -12    1    3    3    0    0  0.92293611190E+01  0.41534422366E+01 -0.49082217799E+01  0.11248236756E+02  0.00000000000E+00 0.  1.
</event>
<event>
 7    1  0.3054835E-011  0.5052891E+02  0.7816164E-02  0.1300439E+00
        -11   -1    0    0    0    0  0.00000000000E+00  0.00000000000E+00  0.45593999997E+02  0.45594000000E+02  0.51100000000E-03 0.  1.
         11   -1    0    0    0    0 -0.00000000000E+00 -0.00000000000E+00 -0.45593999997E+02  0.45594000000E+02  0.51100000000E-03 0. -1.
    9900012    2    1    2    0    0 -0.98072264277E+01  0.36991800579E+02  0.13732683731E+02  0.50528909962E+02  0.30000152320E+02 0.  0.
         12    1    1    2    0    0  0.98072264277E+01 -0.36991800579E+02 -0.13732683731E+02  0.40659090038E+02  0.00000000000E+00 0. -1.
         11    1    3    3    0    0  0.48477728574E+01  0.15967820901E+01 -0.12248212467E+01  0.52488857930E+01  0.51100000000E-03 0. -1.
        -11    1    3    3    0    0 -0.18907514865E+02  0.26821842451E+02  0.90796738951E+01  0.34049167818E+02  0.51100000000E-03 0.  1.
        -12    1    3    3    0    0  0.42525155798E+01  0.85731760378E+01  0.58778310828E+01  0.11230856351E+02  0.00000000000E+00 0.  1.
</event>
<event>
 7    1  0.3054835E-011  0.5052885E+02  0.7816164E-02  0.1300439E+00
        -11   -1    0    0    0    0  0.00000000000E+00  0.00000000000E+00  0.45593999997E+02  0.45594000000E+02  0.51100000000E-03 0.  1.
         11   -1    0    0    0    0 -0.00000000000E+00 -0.00000000000E+00 -0.45593999997E+02  0.45594000000E+02  0.51100000000E-03 0. -1.
    9900012    2    1    2    0    0 -0.83056557264E+01  0.30145299871E+02  0.25989289483E+02  0.50528853560E+02  0.29999980881E+02 0.  0.
         12    1    1    2    0    0  0.83056557264E+01 -0.30145299871E+02 -0.25989289483E+02  0.40659146440E+02  0.00000000000E+00 0. -1.
         11    1    3    3    0    0  0.49208932491E+01  0.15033364121E+01  0.11000693950E+02  0.12144565797E+02  0.51100000000E-03 0. -1.
        -11    1    3    3    0    0 -0.12552835676E+02  0.22266533902E+02  0.42997217257E+01  0.25920258924E+02  0.51100000000E-03 0.  1.
         12    1    3    3    0    0 -0.67371329981E+00  0.63754295570E+01  0.10688873807E+02  0.12464028839E+02  0.00000000000E+00 0. -1.
</event>
<event>
 7    1  0.3054835E-011  0.5052885E+02  0.7816164E-02  0.1300439E+00
        -11   -1    0    0    0    0  0.00000000000E+00  0.00000000000E+00  0.45593999997E+02  0.45594000000E+02  0.51100000000E-03 0.  1.
         11   -1    0    0    0    0 -0.00000000000E+00 -0.00000000000E+00 -0.45593999997E+02  0.45594000000E+02  0.51100000000E-03 0. -1.
    9900012    2    1    2    0    0 -0.33531191753E+02  0.10953235359E+02  0.20220104793E+02  0.50528845766E+02  0.29999957190E+02 0.  0.
         12    1    1    2    0    0  0.33531191753E+02 -0.10953235359E+02 -0.20220104793E+02  0.40659154234E+02  0.00000000000E+00 0. -1.
         11    1    3    3    0    0 -0.12787561075E+02 -0.46201736738E+01 -0.34697405044E+01  0.14032349142E+02  0.51100000000E-03 0. -1.
        -11    1    3    3    0    0 -0.47849684374E+01  0.94697859375E+01  0.78571106471E+01  0.13202535992E+02  0.51100000000E-03 0.  1.
         12    1    3    3    0    0 -0.15958662241E+02  0.61036230948E+01  0.15832734651E+02  0.23293960632E+02  0.00000000000E+00 0. -1.
</event>
<event>
 7    1  0.3054835E-011  0.5052886E+02  0.7816164E-02  0.1300439E+00
        -11   -1    0    0    0    0  0.00000000000E+00  0.00000000000E+00  0.45593999997E+02  0.45594000000E+02  0.51100000000E-03 0.  1.
         11   -1    0    0    0    0 -0.00000000000E+00 -0.00000000000E+00 -0.45593999997E+02  0.45594000000E+02  0.51100000000E-03 0. -1.
    9900012    2    1    2    0    0 -0.91741704988E+00  0.39686494238E+02 -0.87923871917E+01  0.50528861403E+02  0.30000004721E+02 0.  0.
         12    1    1    2    0    0  0.91741704988E+00 -0.39686494238E+02  0.87923871917E+01  0.40659138597E+02  0.00000000000E+00 0. -1.
         11    1    3    3    0    0 -0.63214332752E+01  0.42129337901E+01 -0.66108486697E+01  0.10070384807E+02  0.51100000000E-03 0. -1.
        -11    1    3    3    0    0  0.18643869370E+01  0.31698448192E+02  0.44318475169E+01  0.32061017281E+02  0.51100000000E-03 0.  1.
        -12    1    3    3    0    0  0.35396292883E+01  0.37751122552E+01 -0.66133860389E+01  0.83974593144E+01  0.00000000000E+00 0.  1.
</event>
<event>
 7    1  0.3054835E-011  0.5052879E+02  0.7816164E-02  0.1300439E+00
        -11   -1    0    0    0    0  0.00000000000E+00  0.00000000000E+00  0.45593999997E+02  0.45594000000E+02  0.51100000000E-03 0. -1.
         11   -1    0    0    0    0 -0.00000000000E+00 -0.00000000000E+00 -0.45593999997E+02  0.45594000000E+02  0.51100000000E-03 0.  1.
    9900012    2    1    2    0    0 -0.18619274048E+02  0.36121529040E+02  0.13149322129E+01  0.50528791044E+02  0.29999790856E+02 0.  0.
         12    1    1    2    0    0  0.18619274048E+02 -0.36121529040E+02 -0.13149322129E+01  0.40659208956E+02  0.00000000000E+00 0. -1.
         11    1    3    3    0    0 -0.19717523336E+02  0.25941962831E+02  0.96723240754E+01  0.33989998754E+02  0.51100000000E-03 0. -1.
        -11    1    3    3    0    0  0.44761650603E+00  0.21041142541E+01 -0.81557266722E+01  0.84346627166E+01  0.51100000000E-03 0.  1.
         12    1    3    3    0    0  0.65063278197E+00  0.80754519542E+01 -0.20166519024E+00  0.81041295727E+01  0.00000000000E+00 0. -1.
</event>
<event>
 7    1  0.3054835E-011  0.5052887E+02  0.7816164E-02  0.1300439E+00
        -11   -1    0    0    0    0  0.00000000000E+00  0.00000000000E+00  0.45593999997E+02  0.45594000000E+02  0.51100000000E-03 0.  1.
         11   -1    0    0    0    0 -0.00000000000E+00 -0.00000000000E+00 -0.45593999997E+02  0.45594000000E+02  0.51100000000E-03 0. -1.
    9900012    2    1    2    0    0  0.38751357237E+02 -0.89766573649E+01  0.84212091153E+01  0.50528870298E+02  0.30000031758E+02 0.  0.
         12    1    1    2    0    0 -0.38751357237E+02  0.89766573649E+01 -0.84212091153E+01  0.40659129702E+02  0.00000000000E+00 0. -1.
         11    1    3    3    0    0  0.12280809505E+02  0.22318291641E+01  0.16296560613E+02  0.20527475042E+02  0.51100000000E-03 0. -1.
        -11    1    3    3    0    0  0.14704080888E+02 -0.57288965024E+01 -0.60185502936E+01  0.16889440423E+02  0.51100000000E-03 0.  1.
         12    1    3    3    0    0  0.11766466844E+02 -0.54795900266E+01 -0.18568012041E+01  0.13111954833E+02  0.00000000000E+00 0. -1.
</event>
<event>
 7    1  0.3054835E-011  0.5052886E+02  0.7816164E-02  0.1300439E+00
        -11   -1    0    0    0    0  0.00000000000E+00  0.00000000000E+00  0.45593999997E+02  0.45594000000E+02  0.51100000000E-03 0.  1.
         11   -1    0    0    0    0 -0.00000000000E+00 -0.00000000000E+00 -0.45593999997E+02  0.45594000000E+02  0.51100000000E-03 0. -1.
    9900012    2    1    2    0    0 -0.27746643006E+02  0.14161077698E+02  0.26129552588E+02  0.50528857878E+02  0.29999994006E+02 0.  0.
         12    1    1    2    0    0  0.27746643006E+02 -0.14161077698E+02 -0.26129552588E+02  0.40659142122E+02  0.00000000000E+00 0. -1.
         11    1    3    3    0    0 -0.44852961594E+01  0.10854326447E+02  0.37621040527E+00  0.11750566743E+02  0.51100000000E-03 0. -1.
        -11    1    3    3    0    0 -0.10762810598E+02 -0.65137787997E+01  0.15049098849E+02  0.19614861270E+02  0.51100000000E-03 0.  1.
        -12    1    3    3    0    0 -0.12498536248E+02  0.98205300502E+01  0.10704243334E+02  0.19163429864E+02  0.00000000000E+00 0.  1.
</event>
<event>
 7    1  0.3054835E-011  0.5052888E+02  0.7816164E-02  0.1300439E+00
        -11   -1    0    0    0    0  0.00000000000E+00  0.00000000000E+00  0.45593999997E+02  0.45594000000E+02  0.51100000000E-03 0.  1.
         11   -1    0    0    0    0 -0.00000000000E+00 -0.00000000000E+00 -0.45593999997E+02  0.45594000000E+02  0.51100000000E-03 0. -1.
    9900012    2    1    2    0    0 -0.22142063757E+02  0.33425504524E+02  0.67548904881E+01  0.50528881888E+02  0.30000066987E+02 0.  0.
         12    1    1    2    0    0  0.22142063757E+02 -0.33425504524E+02 -0.67548904881E+01  0.40659118112E+02  0.00000000000E+00 0. -1.
         11    1    3    3    0    0 -0.19390587754E+01  0.23682484299E+02 -0.22436252120E+01  0.23867422690E+02  0.51100000000E-03 0.  1.
        -11    1    3    3    0    0 -0.79551246038E+01 -0.23583783328E+00  0.72515054144E+01  0.10766798873E+02  0.51100000000E-03 0. -1.
        -12    1    3    3    0    0 -0.12247880378E+02  0.99788580591E+01  0.17470102857E+01  0.15894660325E+02  0.00000000000E+00 0.  1.
</event>
<event>
 7    1  0.3054835E-011  0.5052874E+02  0.7816164E-02  0.1300439E+00
        -11   -1    0    0    0    0  0.00000000000E+00  0.00000000000E+00  0.45593999997E+02  0.45594000000E+02  0.51100000000E-03 0.  1.
         11   -1    0    0    0    0 -0.00000000000E+00 -0.00000000000E+00 -0.45593999997E+02  0.45594000000E+02  0.51100000000E-03 0. -1.
    9900012    2    1    2    0    0 -0.52997409446E+01  0.40245085895E+02 -0.23284059268E+01  0.50528737009E+02  0.29999626611E+02 0.  0.
         12    1    1    2    0    0  0.52997409446E+01 -0.40245085895E+02  0.23284059268E+01  0.40659262991E+02  0.00000000000E+00 0. -1.
         11    1    3    3    0    0  0.41480112454E+01  0.37680723403E+01  0.23090317337E+01  0.60610225426E+01  0.51100000000E-03 0. -1.
        -11    1    3    3    0    0 -0.16804546815E+02  0.20665436808E+02 -0.10071740606E+01  0.26654595701E+02  0.51100000000E-03 0.  1.
        -12    1    3    3    0    0  0.73567946246E+01  0.15811576747E+02 -0.36302636000E+01  0.17813118766E+02  0.00000000000E+00 0.  1.
</event>
<event>
 7    1  0.3054835E-011  0.5052888E+02  0.7816164E-02  0.1300439E+00
        -11   -1    0    0    0    0  0.00000000000E+00  0.00000000000E+00  0.45593999997E+02  0.45594000000E+02  0.51100000000E-03 0. -1.
         11   -1    0    0    0    0 -0.00000000000E+00 -0.00000000000E+00 -0.45593999997E+02  0.45594000000E+02  0.51100000000E-03 0.  1.
    9900012    2    1    2    0    0 -0.85792917804E+01 -0.27158377564E+02 -0.29016930760E+02  0.50528880604E+02  0.30000063084E+02 0.  0.
         12    1    1    2    0    0  0.85792917804E+01  0.27158377564E+02  0.29016930760E+02  0.40659119396E+02  0.00000000000E+00 0. -1.
         11    1    3    3    0    0 -0.83380274009E+01 -0.15020552687E+02 -0.98823008410E+00  0.17208030187E+02  0.51100000000E-03 0. -1.
        -11    1    3    3    0    0  0.58262350687E+01 -0.50904448192E+01 -0.74596365373E+01  0.10747270401E+02  0.51100000000E-03 0.  1.
         12    1    3    3    0    0 -0.60674994482E+01 -0.70473800579E+01 -0.20569064138E+02  0.22573580016E+02  0.00000000000E+00 0. -1.
</event>
<event>
 7    1  0.3054835E-011  0.5052886E+02  0.7816164E-02  0.1300439E+00
        -11   -1    0    0    0    0  0.00000000000E+00  0.00000000000E+00  0.45593999997E+02  0.45594000000E+02  0.51100000000E-03 0. -1.
         11   -1    0    0    0    0 -0.00000000000E+00 -0.00000000000E+00 -0.45593999997E+02  0.45594000000E+02  0.51100000000E-03 0.  1.
    9900012    2    1    2    0    0  0.27635187491E+02 -0.28229204732E+02 -0.96215462648E+01  0.50528859084E+02  0.29999997673E+02 0.  0.
         12    1    1    2    0    0 -0.27635187491E+02  0.28229204732E+02  0.96215462648E+01  0.40659140916E+02  0.00000000000E+00 0. -1.
         11    1    3    3    0    0  0.67816420336E+01 -0.51111033672E+01 -0.77487594535E+01  0.11495969713E+02  0.51100000000E-03 0. -1.
        -11    1    3    3    0    0  0.64748281278E+01 -0.23255139022E+02  0.17535554632E+01  0.24203302403E+02  0.51100000000E-03 0.  1.
        -12    1    3    3    0    0  0.14378717329E+02  0.13703765676E+00 -0.36263422745E+01  0.14829586968E+02  0.00000000000E+00 0.  1.
</event>
<event>
 7    1  0.3054835E-011  0.5052886E+02  0.7816164E-02  0.1300439E+00
        -11   -1    0    0    0    0  0.00000000000E+00  0.00000000000E+00  0.45593999997E+02  0.45594000000E+02  0.51100000000E-03 0.  1.
         11   -1    0    0    0    0 -0.00000000000E+00 -0.00000000000E+00 -0.45593999997E+02  0.45594000000E+02  0.51100000000E-03 0. -1.
    9900012    2    1    2    0    0 -0.17291827435E+02 -0.10904717764E+02  0.35146061706E+02  0.50528858113E+02  0.29999994719E+02 0.  0.
         12    1    1    2    0    0  0.17291827435E+02  0.10904717764E+02 -0.35146061706E+02  0.40659141887E+02  0.00000000000E+00 0. -1.
         11    1    3    3    0    0 -0.16995071307E+02  0.23166637528E+01  0.16218040074E+02  0.23605596874E+02  0.51100000000E-03 0. -1.
        -11    1    3    3    0    0 -0.57220217021E+01 -0.12100954675E+02  0.15158621503E+02  0.20222720948E+02  0.51100000000E-03 0.  1.
         12    1    3    3    0    0  0.54252655737E+01 -0.11204268417E+01  0.37694001291E+01  0.67005402906E+01  0.00000000000E+00 0. -1.
</event>
<event>
 7    1  0.3054835E-011  0.5052887E+02  0.7816164E-02  0.1300439E+00
        -11   -1    0    0    0    0  0.00000000000E+00  0.00000000000E+00  0.45593999997E+02  0.45594000000E+02  0.51100000000E-03 0. -1.
         11   -1    0    0    0    0 -0.00000000000E+00 -0.00000000000E+00 -0.45593999997E+02  0.45594000000E+02  0.51100000000E-03 0.  1.
    9900012    2    1    2    0    0  0.31864553614E+02 -0.21136260203E+02  0.13822937847E+02  0.50528869622E+02  0.30000029703E+02 0.  0.
         12    1    1    2    0    0 -0.31864553614E+02  0.21136260203E+02 -0.13822937847E+02  0.40659130378E+02  0.00000000000E+00 0. -1.
         11    1    3    3    0    0  0.11059862501E+01 -0.36686701234E+01 -0.53087351750E+01  0.65471379609E+01  0.51100000000E-03 0. -1.
        -11    1    3    3    0    0  0.22749385380E+02 -0.84848395939E+01  0.20620908290E+02  0.31855123561E+02  0.51100000000E-03 0.  1.
        -12    1    3    3    0    0  0.80091819837E+01 -0.89827504856E+01 -0.14892352677E+01  0.12126608100E+02  0.00000000000E+00 0.  1.
</event>
<event>
 7    1  0.3054835E-011  0.5052886E+02  0.7816164E-02  0.1300439E+00
        -11   -1    0    0    0    0  0.00000000000E+00  0.00000000000E+00  0.45593999997E+02  0.45594000000E+02  0.51100000000E-03 0.  1.
         11   -1    0    0    0    0 -0.00000000000E+00 -0.00000000000E+00 -0.45593999997E+02  0.45594000000E+02  0.51100000000E-03 0. -1.
    9900012    2    1    2    0    0 -0.20876987968E+02  0.32520986753E+02  0.12637336730E+02  0.50528862212E+02  0.30000007181E+02 0.  0.
         12    1    1    2    0    0  0.20876987968E+02 -0.32520986753E+02 -0.12637336730E+02  0.40659137788E+02  0.00000000000E+00 0. -1.
         11    1    3    3    0    0 -0.83005779399E+01  0.10995307153E+01 -0.16084725494E+01  0.85261800434E+01  0.51100000000E-03 0. -1.
        -11    1    3    3    0    0 -0.17091054704E+02  0.29075342770E+02  0.14903165342E+02  0.36872537824E+02  0.51100000000E-03 0.  1.
        -12    1    3    3    0    0  0.45146446757E+01  0.23461132673E+01 -0.65735606205E+00  0.51301443453E+01  0.00000000000E+00 0.  1.
</event>
<event>
 7    1  0.3054835E-011  0.5052887E+02  0.7816164E-02  0.1300439E+00
        -11   -1    0    0    0    0  0.00000000000E+00  0.00000000000E+00  0.45593999997E+02  0.45594000000E+02  0.51100000000E-03 0. -1.
         11   -1    0    0    0    0 -0.00000000000E+00 -0.00000000000E+00 -0.45593999997E+02  0.45594000000E+02  0.51100000000E-03 0.  1.
    9900012    2    1    2    0    0 -0.12864609444E+02 -0.36746824357E+02 -0.11719126454E+02  0.50528865709E+02  0.30000017808E+02 0.  0.
         12    1    1    2    0    0  0.12864609444E+02  0.36746824357E+02  0.11719126454E+02  0.40659134291E+02  0.00000000000E+00 0. -1.
         11    1    3    3    0    0  0.28342222538E+01 -0.33499423780E+01  0.28305423367E+01  0.52217717205E+01  0.51100000000E-03 0. -1.
        -11    1    3    3    0    0 -0.20419637071E+02 -0.19770102755E+02 -0.10812873734E+02  0.30409485029E+02  0.51100000000E-03 0.  1.
        -12    1    3    3    0    0  0.47208053738E+01 -0.13626779225E+02 -0.37367950568E+01  0.14897608959E+02  0.00000000000E+00 0.  1.
</event>
<event>
 7    1  0.3054835E-011  0.5052889E+02  0.7816164E-02  0.1300439E+00
        -11   -1    0    0    0    0  0.00000000000E+00  0.00000000000E+00  0.45593999997E+02  0.45594000000E+02  0.51100000000E-03 0.  1.
         11   -1    0    0    0    0 -0.00000000000E+00 -0.00000000000E+00 -0.45593999997E+02  0.45594000000E+02  0.51100000000E-03 0. -1.
    9900012    2    1    2    0    0  0.16934583164E+02 -0.19681891621E+02  0.31289080461E+02  0.50528886375E+02  0.30000080624E+02 0.  0.
         12    1    1    2    0    0 -0.16934583164E+02  0.19681891621E+02 -0.31289080461E+02  0.40659113625E+02  0.00000000000E+00 0. -1.
         11    1    3    3    0    0 -0.47612400563E+01 -0.14612385376E+02  0.17946057669E+02  0.23627361244E+02  0.51100000000E-03 0. -1.
        -11    1    3    3    0    0  0.70733311736E+01 -0.47961622059E+01  0.33041833761E+01  0.91625768123E+01  0.51100000000E-03 0.  1.
         12    1    3    3    0    0  0.14622492047E+02 -0.27334403930E+00  0.10038839415E+02  0.17738948318E+02  0.00000000000E+00 0. -1.
</event>
<event>
 7    1  0.3054835E-011  0.5052887E+02  0.7816164E-02  0.1300439E+00
        -11   -1    0    0    0    0  0.00000000000E+00  0.00000000000E+00  0.45593999997E+02  0.45594000000E+02  0.51100000000E-03 0.  1.
         11   -1    0    0    0    0 -0.00000000000E+00 -0.00000000000E+00 -0.45593999997E+02  0.45594000000E+02  0.51100000000E-03 0. -1.
    9900012    2    1    2    0    0  0.12550875697E+02 -0.20733227371E+02  0.32646189356E+02  0.50528869692E+02  0.30000029914E+02 0.  0.
         12    1    1    2    0    0 -0.12550875697E+02  0.20733227371E+02 -0.32646189356E+02  0.40659130308E+02  0.00000000000E+00 0. -1.
         11    1    3    3    0    0  0.76974027886E+01  0.38294729380E+01  0.18854522915E+02  0.20722159813E+02  0.51100000000E-03 0. -1.
        -11    1    3    3    0    0  0.45125855527E+01 -0.14335118272E+02  0.37935564902E+01  0.15500003721E+02  0.51100000000E-03 0.  1.
         12    1    3    3    0    0  0.34088735600E+00 -0.10227582036E+02  0.99981099502E+01  0.14306706157E+02  0.00000000000E+00 0. -1.
</event>
<event>
 7    1  0.3054835E-011  0.5052887E+02  0.7816164E-02  0.1300439E+00
        -11   -1    0    0    0    0  0.00000000000E+00  0.00000000000E+00  0.45593999997E+02  0.45594000000E+02  0.51100000000E-03 0. -1.
         11   -1    0    0    0    0 -0.00000000000E+00 -0.00000000000E+00 -0.45593999997E+02  0.45594000000E+02  0.51100000000E-03 0.  1.
    9900012    2    1    2    0    0  0.95288272242E+01  0.28660016842E+02 -0.27220764982E+02  0.50528866218E+02  0.30000019356E+02 0.  0.
         12    1    1    2    0    0 -0.95288272242E+01 -0.28660016842E+02  0.27220764982E+02  0.40659133782E+02  0.00000000000E+00 0. -1.
         11    1    3    3    0    0  0.15647169521E+02  0.26613990408E+02 -0.16182364045E+02  0.34856954913E+02  0.51100000000E-03 0. -1.
        -11    1    3    3    0    0 -0.40377279947E+00 -0.14309239289E+01 -0.83194042217E+01  0.84512166360E+01  0.51100000000E-03 0.  1.
         12    1    3    3    0    0 -0.57145694972E+01  0.34769503631E+01 -0.27189967159E+01  0.72206946693E+01  0.00000000000E+00 0. -1.
</event>
<event>
 7    1  0.3054835E-011  0.5052886E+02  0.7816164E-02  0.1300439E+00
        -11   -1    0    0    0    0  0.00000000000E+00  0.00000000000E+00  0.45593999997E+02  0.45594000000E+02  0.51100000000E-03 0.  1.
         11   -1    0    0    0    0 -0.00000000000E+00 -0.00000000000E+00 -0.45593999997E+02  0.45594000000E+02  0.51100000000E-03 0. -1.
    9900012    2    1    2    0    0  0.28599656517E+02 -0.28250396209E+02  0.60943038361E+01  0.50528858616E+02  0.29999996250E+02 0.  0.
         12    1    1    2    0    0 -0.28599656517E+02  0.28250396209E+02 -0.60943038361E+01  0.40659141384E+02  0.00000000000E+00 0. -1.
         11    1    3    3    0    0  0.16196470419E+01 -0.82199926051E+01 -0.62520713354E+01  0.10453704186E+02  0.51100000000E-03 0. -1.
        -11    1    3    3    0    0  0.26159642304E+02 -0.21469560972E+02  0.71068566125E+01  0.34579999204E+02  0.51100000000E-03 0.  1.
        -12    1    3    3    0    0  0.82036717068E+00  0.14391573680E+01  0.52395185590E+01  0.54951552257E+01  0.00000000000E+00 0.  1.
</event>
<event>
 7    1  0.3054835E-011  0.5052887E+02  0.7816164E-02  0.1300439E+00
        -11   -1    0    0    0    0  0.00000000000E+00  0.00000000000E+00  0.45593999997E+02  0.45594000000E+02  0.51100000000E-03 0.  1.
         11   -1    0    0    0    0 -0.00000000000E+00 -0.00000000000E+00 -0.45593999997E+02  0.45594000000E+02  0.51100000000E-03 0. -1.
    9900012    2    1    2    0    0  0.16968882388E+02 -0.38361590442E+01  0.36749226408E+02  0.50528871538E+02  0.30000035528E+02 0.  0.
         12    1    1    2    0    0 -0.16968882388E+02  0.38361590442E+01 -0.36749226408E+02  0.40659128462E+02  0.00000000000E+00 0. -1.
         11    1    3    3    0    0  0.81818526639E+00 -0.66265827102E+01 -0.85606412900E+00  0.67315578880E+01  0.51100000000E-03 0. -1.
        -11    1    3    3    0    0  0.61947124765E+01 -0.83499744482E+00  0.30274338834E+02  0.30912898206E+02  0.51100000000E-03 0.  1.
        -12    1    3    3    0    0  0.99559846448E+01  0.36254211108E+01  0.73309517024E+01  0.12884415444E+02  0.00000000000E+00 0.  1.
</event>
<event>
 7    1  0.3054835E-011  0.5052886E+02  0.7816164E-02  0.1300439E+00
        -11   -1    0    0    0    0  0.00000000000E+00  0.00000000000E+00  0.45593999997E+02  0.45594000000E+02  0.51100000000E-03 0.  1.
         11   -1    0    0    0    0 -0.00000000000E+00 -0.00000000000E+00 -0.45593999997E+02  0.45594000000E+02  0.51100000000E-03 0. -1.
    9900012    2    1    2    0    0  0.60388895592E+00  0.15247699826E+02  0.37686978858E+02  0.50528863176E+02  0.30000010109E+02 0.  0.
         12    1    1    2    0    0 -0.60388895592E+00 -0.15247699826E+02 -0.37686978858E+02  0.40659136824E+02  0.00000000000E+00 0. -1.
         11    1    3    3    0    0 -0.21733256562E+01  0.87557608666E+01  0.33119248618E+01  0.96101789428E+01  0.51100000000E-03 0. -1.
        -11    1    3    3    0    0 -0.72643433948E+01 -0.26501832172E+01  0.18355496327E+02  0.19917791085E+02  0.51100000000E-03 0.  1.
        -12    1    3    3    0    0  0.10041558007E+02  0.91421221766E+01  0.16019557669E+02  0.21000893148E+02  0.00000000000E+00 0.  1.
</event>
<event>
 7    1  0.3054835E-011  0.5052886E+02  0.7816164E-02  0.1300439E+00
        -11   -1    0    0    0    0  0.00000000000E+00  0.00000000000E+00  0.45593999997E+02  0.45594000000E+02  0.51100000000E-03 0.  1.
         11   -1    0    0    0    0 -0.00000000000E+00 -0.00000000000E+00 -0.45593999997E+02  0.45594000000E+02  0.51100000000E-03 0. -1.
    9900012    2    1    2    0    0  0.80807721361E+01 -0.42763201437E+01  0.39617925314E+02  0.50528858365E+02  0.29999995486E+02 0.  0.
         12    1    1    2    0    0 -0.80807721361E+01  0.42763201437E+01 -0.39617925314E+02  0.40659141635E+02  0.00000000000E+00 0. -1.
         11    1    3    3    0    0  0.15653153299E+02 -0.18449943202E+01  0.12297779626E+02  0.19991513105E+02  0.51100000000E-03 0. -1.
        -11    1    3    3    0    0 -0.30330747875E+01 -0.50979860170E+01  0.22922515794E+02  0.23677642084E+02  0.51100000000E-03 0.  1.
         12    1    3    3    0    0 -0.45393063757E+01  0.26666601934E+01  0.43976298947E+01  0.68597031751E+01  0.00000000000E+00 0. -1.
</event>
<event>
 7    1  0.3054835E-011  0.5052885E+02  0.7816164E-02  0.1300439E+00
        -11   -1    0    0    0    0  0.00000000000E+00  0.00000000000E+00  0.45593999997E+02  0.45594000000E+02  0.51100000000E-03 0.  1.
         11   -1    0    0    0    0 -0.00000000000E+00 -0.00000000000E+00 -0.45593999997E+02  0.45594000000E+02  0.51100000000E-03 0. -1.
    9900012    2    1    2    0    0 -0.44727510767E+01  0.32603258069E+02  0.23878625072E+02  0.50528847596E+02  0.29999962753E+02 0.  0.
         12    1    1    2    0    0  0.44727510767E+01 -0.32603258069E+02 -0.23878625072E+02  0.40659152404E+02  0.00000000000E+00 0. -1.
         11    1    3    3    0    0  0.15138970642E+01  0.81833360778E+01  0.78164055006E+01  0.11417314434E+02  0.51100000000E-03 0. -1.
        -11    1    3    3    0    0 -0.68886317833E+00 -0.43760087557E+01  0.73182063591E+01  0.85545385430E+01  0.51100000000E-03 0.  1.
        -12    1    3    3    0    0 -0.52977849625E+01  0.28795930746E+02  0.87440132124E+01  0.30556994619E+02  0.00000000000E+00 0.  1.
</event>
<event>
 7    1  0.3054835E-011  0.5052888E+02  0.7816164E-02  0.1300439E+00
        -11   -1    0    0    0    0  0.00000000000E+00  0.00000000000E+00  0.45593999997E+02  0.45594000000E+02  0.51100000000E-03 0. -1.
         11   -1    0    0    0    0 -0.00000000000E+00 -0.00000000000E+00 -0.45593999997E+02  0.45594000000E+02  0.51100000000E-03 0.  1.
    9900012    2    1    2    0    0  0.21145905146E+02  0.53913419504E+01 -0.34306682990E+02  0.50528875929E+02  0.30000048874E+02 0.  0.
         12    1    1    2    0    0 -0.21145905146E+02 -0.53913419504E+01  0.34306682990E+02  0.40659124071E+02  0.00000000000E+00 0. -1.
         11    1    3    3    0    0  0.81510673138E+01 -0.44592107992E+01 -0.29464339249E+00  0.92957664716E+01  0.51100000000E-03 0. -1.
        -11    1    3    3    0    0  0.12941507164E+02  0.17323392114E+01 -0.28702026873E+02  0.31532363592E+02  0.51100000000E-03 0.  1.
         12    1    3    3    0    0  0.53330667930E-01  0.81182135382E+01 -0.53100127244E+01  0.97007458654E+01  0.00000000000E+00 0. -1.
</event>
<event>
 7    1  0.3054835E-011  0.5052888E+02  0.7816164E-02  0.1300439E+00
        -11   -1    0    0    0    0  0.00000000000E+00  0.00000000000E+00  0.45593999997E+02  0.45594000000E+02  0.51100000000E-03 0.  1.
         11   -1    0    0    0    0 -0.00000000000E+00 -0.00000000000E+00 -0.45593999997E+02  0.45594000000E+02  0.51100000000E-03 0. -1.
    9900012    2    1    2    0    0  0.40490005805E+02 -0.36729438845E+01  0.48260218186E+00  0.50528880583E+02  0.30000063021E+02 0.  0.
         12    1    1    2    0    0 -0.40490005805E+02  0.36729438845E+01 -0.48260218186E+00  0.40659119417E+02  0.00000000000E+00 0. -1.
         11    1    3    3    0    0 -0.31126338668E+01  0.95152941521E+00  0.19390080115E+01  0.37886211405E+01  0.51100000000E-03 0. -1.
        -11    1    3    3    0    0  0.36899754510E+02 -0.82854459661E+01  0.29315879545E+01  0.37931974718E+02  0.51100000000E-03 0.  1.
         12    1    3    3    0    0  0.67028851613E+01  0.36609726664E+01 -0.43879937841E+01  0.88082847252E+01  0.00000000000E+00 0. -1.
</event>
<event>
 7    1  0.3054835E-011  0.5052886E+02  0.7816164E-02  0.1300439E+00
        -11   -1    0    0    0    0  0.00000000000E+00  0.00000000000E+00  0.45593999997E+02  0.45594000000E+02  0.51100000000E-03 0. -1.
         11   -1    0    0    0    0 -0.00000000000E+00 -0.00000000000E+00 -0.45593999997E+02  0.45594000000E+02  0.51100000000E-03 0.  1.
    9900012    2    1    2    0    0 -0.16434846559E+02 -0.37082371510E+02  0.28212381936E+01  0.50528857816E+02  0.29999993817E+02 0.  0.
         12    1    1    2    0    0  0.16434846559E+02  0.37082371510E+02 -0.28212381936E+01  0.40659142184E+02  0.00000000000E+00 0. -1.
         11    1    3    3    0    0  0.46048815668E+00 -0.73812960394E+01  0.71093447088E+01  0.10258575097E+02  0.51100000000E-03 0. -1.
        -11    1    3    3    0    0 -0.68164437477E+01  0.41539714131E+00 -0.50652358383E+01  0.85025334171E+01  0.51100000000E-03 0.  1.
        -12    1    3    3    0    0 -0.10078890968E+02 -0.30116472612E+02  0.77712932312E+00  0.31767749302E+02  0.00000000000E+00 0.  1.
</event>
<event>
 7    1  0.3054835E-011  0.5052885E+02  0.7816164E-02  0.1300439E+00
        -11   -1    0    0    0    0  0.00000000000E+00  0.00000000000E+00  0.45593999997E+02  0.45594000000E+02  0.51100000000E-03 0.  1.
         11   -1    0    0    0    0 -0.00000000000E+00 -0.00000000000E+00 -0.45593999997E+02  0.45594000000E+02  0.51100000000E-03 0. -1.
    9900012    2    1    2    0    0  0.16620874088E+01  0.28154004147E+02  0.29287471653E+02  0.50528849985E+02  0.29999970015E+02 0.  0.
         12    1    1    2    0    0 -0.16620874088E+01 -0.28154004147E+02 -0.29287471653E+02  0.40659150015E+02  0.00000000000E+00 0. -1.
         11    1    3    3    0    0  0.94978180850E+01  0.17831075789E+02  0.16185897425E+02  0.25887044789E+02  0.51100000000E-03 0. -1.
        -11    1    3    3    0    0 -0.12642192326E+02  0.85359590233E+01  0.11971570976E+02  0.19390877627E+02  0.51100000000E-03 0.  1.
        -12    1    3    3    0    0  0.48064616495E+01  0.17869693347E+01  0.11300032521E+01  0.52509275696E+01  0.00000000000E+00 0.  1.
</event>
<event>
 7    1  0.3054835E-011  0.5052886E+02  0.7816164E-02  0.1300439E+00
        -11   -1    0    0    0    0  0.00000000000E+00  0.00000000000E+00  0.45593999997E+02  0.45594000000E+02  0.51100000000E-03 0. -1.
         11   -1    0    0    0    0 -0.00000000000E+00 -0.00000000000E+00 -0.45593999997E+02  0.45594000000E+02  0.51100000000E-03 0.  1.
    9900012    2    1    2    0    0 -0.18555379809E+02  0.10240646249E+02 -0.34698596946E+02  0.50528860985E+02  0.30000003449E+02 0.  0.
         12    1    1    2    0    0  0.18555379809E+02 -0.10240646249E+02  0.34698596946E+02  0.40659139015E+02  0.00000000000E+00 0. -1.
         11    1    3    3    0    0 -0.15569749900E+02 -0.23732734752E+01 -0.12637468682E+02  0.20192948123E+02  0.51100000000E-03 0. -1.
        -11    1    3    3    0    0 -0.13152723931E+01  0.16112633591E+02 -0.20615423831E+02  0.26198141207E+02  0.51100000000E-03 0.  1.
        -12    1    3    3    0    0 -0.16703575162E+01 -0.34987138675E+01 -0.14457044326E+01  0.41377716545E+01  0.00000000000E+00 0.  1.
</event>
<event>
 7    1  0.3054835E-011  0.5052887E+02  0.7816164E-02  0.1300439E+00
        -11   -1    0    0    0    0  0.00000000000E+00  0.00000000000E+00  0.45593999997E+02  0.45594000000E+02  0.51100000000E-03 0.  1.
         11   -1    0    0    0    0 -0.00000000000E+00 -0.00000000000E+00 -0.45593999997E+02  0.45594000000E+02  0.51100000000E-03 0. -1.
    9900012    2    1    2    0    0  0.35002596119E+02  0.29415378247E+01  0.20477569404E+02  0.50528865374E+02  0.30000016792E+02 0.  0.
         12    1    1    2    0    0 -0.35002596119E+02 -0.29415378247E+01 -0.20477569404E+02  0.40659134626E+02  0.00000000000E+00 0. -1.
         11    1    3    3    0    0  0.89466188112E+01 -0.85706169284E+01  0.16000489064E+02  0.20236430349E+02  0.51100000000E-03 0. -1.
        -11    1    3    3    0    0  0.11555630750E+02  0.62499991292E+01 -0.24815819355E+01  0.13369866877E+02  0.51100000000E-03 0.  1.
        -12    1    3    3    0    0  0.14500346557E+02  0.52621556239E+01  0.69586622748E+01  0.16922568149E+02  0.00000000000E+00 0.  1.
</event>
<event>
 7    1  0.3054835E-011  0.5052887E+02  0.7816164E-02  0.1300439E+00
        -11   -1    0    0    0    0  0.00000000000E+00  0.00000000000E+00  0.45593999997E+02  0.45594000000E+02  0.51100000000E-03 0. -1.
         11   -1    0    0    0    0 -0.00000000000E+00 -0.00000000000E+00 -0.45593999997E+02  0.45594000000E+02  0.51100000000E-03 0.  1.
    9900012    2    1    2    0    0 -0.53495551830E+01 -0.40122560966E+02  0.38376242258E+01  0.50528868199E+02  0.30000025377E+02 0.  0.
         12    1    1    2    0    0  0.53495551830E+01  0.40122560966E+02 -0.38376242258E+01  0.40659131801E+02  0.00000000000E+00 0. -1.
         11    1    3    3    0    0 -0.99529836948E+01 -0.15107679006E+02 -0.58950763943E+01  0.19027763277E+02  0.51100000000E-03 0. -1.
        -11    1    3    3    0    0  0.30232661946E+01 -0.24578845237E+02  0.12909027170E+02  0.27926739058E+02  0.51100000000E-03 0.  1.
        -12    1    3    3    0    0  0.15801623172E+01 -0.43603672303E+00 -0.31763265503E+01  0.35743658636E+01  0.00000000000E+00 0.  1.
</event>
<event>
 7    1  0.3054835E-011  0.5052884E+02  0.7816164E-02  0.1300439E+00
        -11   -1    0    0    0    0  0.00000000000E+00  0.00000000000E+00  0.45593999997E+02  0.45594000000E+02  0.51100000000E-03 0.  1.
         11   -1    0    0    0    0 -0.00000000000E+00 -0.00000000000E+00 -0.45593999997E+02  0.45594000000E+02  0.51100000000E-03 0. -1.
    9900012    2    1    2    0    0  0.37422895742E+02 -0.15182928253E+02  0.47087732589E+01  0.50528843815E+02  0.29999951260E+02 0.  0.
         12    1    1    2    0    0 -0.37422895742E+02  0.15182928253E+02 -0.47087732589E+01  0.40659156185E+02  0.00000000000E+00 0. -1.
         11    1    3    3    0    0 -0.52336053680E+01 -0.92484036723E+00  0.63913628637E+00  0.53529851771E+01  0.51100000000E-03 0. -1.
        -11    1    3    3    0    0  0.19001756645E+02 -0.66495095915E+01  0.23458718355E+01  0.20267852583E+02  0.51100000000E-03 0.  1.
         12    1    3    3    0    0  0.23654744465E+02 -0.76085782945E+01  0.17237651370E+01  0.24908006055E+02  0.00000000000E+00 0. -1.
</event>
<event>
 7    1  0.3054835E-011  0.5052886E+02  0.7816164E-02  0.1300439E+00
        -11   -1    0    0    0    0  0.00000000000E+00  0.00000000000E+00  0.45593999997E+02  0.45594000000E+02  0.51100000000E-03 0. -1.
         11   -1    0    0    0    0 -0.00000000000E+00 -0.00000000000E+00 -0.45593999997E+02  0.45594000000E+02  0.51100000000E-03 0.  1.
    9900012    2    1    2    0    0 -0.21880945049E+02 -0.50101146282E+00 -0.34265708205E+02  0.50528861698E+02  0.30000005616E+02 0.  0.
         12    1    1    2    0    0  0.21880945049E+02  0.50101146282E+00  0.34265708205E+02  0.40659138302E+02  0.00000000000E+00 0. -1.
         11    1    3    3    0    0 -0.11058210865E+02  0.12687274122E+02 -0.14910957010E+02  0.22485274990E+02  0.51100000000E-03 0. -1.
        -11    1    3    3    0    0 -0.20565628812E+00 -0.76214976662E+01 -0.41473871568E+01  0.86793053682E+01  0.51100000000E-03 0.  1.
        -12    1    3    3    0    0 -0.10617077896E+02 -0.55667879188E+01 -0.15207364038E+02  0.19364281339E+02  0.00000000000E+00 0.  1.
</event>
<event>
 7    1  0.3054835E-011  0.5052888E+02  0.7816164E-02  0.1300439E+00
        -11   -1    0    0    0    0  0.00000000000E+00  0.00000000000E+00  0.45593999997E+02  0.45594000000E+02  0.51100000000E-03 0.  1.
         11   -1    0    0    0    0 -0.00000000000E+00 -0.00000000000E+00 -0.45593999997E+02  0.45594000000E+02  0.51100000000E-03 0. -1.
    9900012    2    1    2    0    0 -0.19793294047E+02  0.34812075187E+02 -0.70362730739E+01  0.50528877939E+02  0.30000054982E+02 0.  0.
         12    1    1    2    0    0  0.19793294047E+02 -0.34812075187E+02  0.70362730739E+01  0.40659122061E+02  0.00000000000E+00 0. -1.
         11    1    3    3    0    0  0.19007628574E+01  0.19022488169E+02  0.23346552671E+01  0.19259246378E+02  0.51100000000E-03 0. -1.
        -11    1    3    3    0    0 -0.12681888594E+02  0.16110075653E+02 -0.43896557217E+01  0.20967448903E+02  0.51100000000E-03 0.  1.
         12    1    3    3    0    0 -0.90121683098E+01 -0.32048863509E+00 -0.49812726194E+01  0.10302182658E+02  0.00000000000E+00 0. -1.
</event>
<event>
 7    1  0.3054835E-011  0.5052882E+02  0.7816164E-02  0.1300439E+00
        -11   -1    0    0    0    0  0.00000000000E+00  0.00000000000E+00  0.45593999997E+02  0.45594000000E+02  0.51100000000E-03 0.  1.
         11   -1    0    0    0    0 -0.00000000000E+00 -0.00000000000E+00 -0.45593999997E+02  0.45594000000E+02  0.51100000000E-03 0. -1.
    9900012    2    1    2    0    0 -0.28110356353E+02 -0.13308941300E+02  0.26188715447E+02  0.50528820599E+02  0.29999880691E+02 0.  0.
         12    1    1    2    0    0  0.28110356353E+02  0.13308941300E+02 -0.26188715447E+02  0.40659179401E+02  0.00000000000E+00 0. -1.
         11    1    3    3    0    0  0.22272417770E+01  0.50580100097E+01 -0.78744884494E+00  0.55824857489E+01  0.51100000000E-03 0. -1.
        -11    1    3    3    0    0 -0.18973160392E+02 -0.14648054169E+02  0.18760023332E+02  0.30438212527E+02  0.51100000000E-03 0.  1.
         12    1    3    3    0    0 -0.11364437738E+02 -0.37188971413E+01  0.82161409604E+01  0.14508122322E+02  0.00000000000E+00 0. -1.
</event>
<event>
 7    1  0.3054835E-011  0.5052881E+02  0.7816164E-02  0.1300439E+00
        -11   -1    0    0    0    0  0.00000000000E+00  0.00000000000E+00  0.45593999997E+02  0.45594000000E+02  0.51100000000E-03 0.  1.
         11   -1    0    0    0    0 -0.00000000000E+00 -0.00000000000E+00 -0.45593999997E+02  0.45594000000E+02  0.51100000000E-03 0. -1.
    9900012    2    1    2    0    0 -0.84636332995E+01  0.34880972738E+02  0.19101158447E+02  0.50528811595E+02  0.29999853323E+02 0.  0.
         12    1    1    2    0    0  0.84636332995E+01 -0.34880972738E+02 -0.19101158447E+02  0.40659188405E+02  0.00000000000E+00 0. -1.
         11    1    3    3    0    0  0.63510680790E+01  0.16719846283E+02  0.35268542737E+01  0.18229866341E+02  0.51100000000E-03 0. -1.
        -11    1    3    3    0    0 -0.76350803404E+01  0.64492038638E+01  0.15640919983E+02  0.18561386275E+02  0.51100000000E-03 0.  1.
         12    1    3    3    0    0 -0.71796210380E+01  0.11711922591E+02 -0.66615809775E-01  0.13737558978E+02  0.00000000000E+00 0. -1.
</event>
<event>
 7    1  0.3054835E-011  0.5052886E+02  0.7816164E-02  0.1300439E+00
        -11   -1    0    0    0    0  0.00000000000E+00  0.00000000000E+00  0.45593999997E+02  0.45594000000E+02  0.51100000000E-03 0.  1.
         11   -1    0    0    0    0 -0.00000000000E+00 -0.00000000000E+00 -0.45593999997E+02  0.45594000000E+02  0.51100000000E-03 0. -1.
    9900012    2    1    2    0    0  0.48698739755E+01 -0.35398861923E+02  0.19400277881E+02  0.50528857365E+02  0.29999992446E+02 0.  0.
         12    1    1    2    0    0 -0.48698739755E+01  0.35398861923E+02 -0.19400277881E+02  0.40659142635E+02  0.00000000000E+00 0. -1.
         11    1    3    3    0    0 -0.35813939880E+01  0.11358946619E+01  0.18013562687E+01  0.41667162428E+01  0.51100000000E-03 0. -1.
        -11    1    3    3    0    0  0.31132344013E+01 -0.33992598085E+02  0.79541299705E+01  0.35049352873E+02  0.51100000000E-03 0.  1.
        -12    1    3    3    0    0  0.53380335621E+01 -0.25421585004E+01  0.96447916414E+01  0.11312788249E+02  0.00000000000E+00 0.  1.
</event>
<event>
 7    1  0.3054835E-011  0.5052886E+02  0.7816164E-02  0.1300439E+00
        -11   -1    0    0    0    0  0.00000000000E+00  0.00000000000E+00  0.45593999997E+02  0.45594000000E+02  0.51100000000E-03 0. -1.
         11   -1    0    0    0    0 -0.00000000000E+00 -0.00000000000E+00 -0.45593999997E+02  0.45594000000E+02  0.51100000000E-03 0.  1.
    9900012    2    1    2    0    0 -0.28451323552E+02 -0.24732646794E+02  0.15231009927E+02  0.50528864584E+02  0.30000014391E+02 0.  0.
         12    1    1    2    0    0  0.28451323552E+02  0.24732646794E+02 -0.15231009927E+02  0.40659135416E+02  0.00000000000E+00 0. -1.
         11    1    3    3    0    0  0.60500673825E+00  0.35763608949E+01 -0.28609779602E+00  0.36384395850E+01  0.51100000000E-03 0. -1.
        -11    1    3    3    0    0 -0.25477321363E+02 -0.28811974847E+02  0.90953753911E+01  0.39521508728E+02  0.51100000000E-03 0.  1.
        -12    1    3    3    0    0 -0.35790089278E+01  0.50296715756E+00  0.64217323320E+01  0.73689162711E+01  0.00000000000E+00 0.  1.
</event>
<event>
 7    1  0.3054835E-011  0.5052885E+02  0.7816164E-02  0.1300439E+00
        -11   -1    0    0    0    0  0.00000000000E+00  0.00000000000E+00  0.45593999997E+02  0.45594000000E+02  0.51100000000E-03 0. -1.
         11   -1    0    0    0    0 -0.00000000000E+00 -0.00000000000E+00 -0.45593999997E+02  0.45594000000E+02  0.51100000000E-03 0.  1.
    9900012    2    1    2    0    0 -0.25172037768E+02 -0.28255772018E+02 -0.14870985815E+02  0.50528851499E+02  0.29999974616E+02 0.  0.
         12    1    1    2    0    0  0.25172037768E+02  0.28255772018E+02  0.14870985815E+02  0.40659148501E+02  0.00000000000E+00 0. -1.
         11    1    3    3    0    0 -0.12765439474E+02 -0.27360010359E+01  0.15813037649E+01  0.13150766840E+02  0.51100000000E-03 0. -1.
        -11    1    3    3    0    0 -0.10591138118E+02 -0.27740131105E+02 -0.11881844312E+02  0.31982265474E+02  0.51100000000E-03 0.  1.
        -12    1    3    3    0    0 -0.18154601763E+01  0.22203601225E+01 -0.45704452678E+01  0.53958191845E+01  0.00000000000E+00 0.  1.
</event>
<event>
 7    1  0.3054835E-011  0.5052887E+02  0.7816164E-02  0.1300439E+00
        -11   -1    0    0    0    0  0.00000000000E+00  0.00000000000E+00  0.45593999997E+02  0.45594000000E+02  0.51100000000E-03 0.  1.
         11   -1    0    0    0    0 -0.00000000000E+00 -0.00000000000E+00 -0.45593999997E+02  0.45594000000E+02  0.51100000000E-03 0. -1.
    9900012    2    1    2    0    0 -0.37865147089E+02 -0.99519693704E+01  0.10970602355E+02  0.50528866039E+02  0.30000018812E+02 0.  0.
         12    1    1    2    0    0  0.37865147089E+02  0.99519693704E+01 -0.10970602355E+02  0.40659133961E+02  0.00000000000E+00 0. -1.
         11    1    3    3    0    0 -0.20104533983E+02 -0.19753498612E+02  0.45917011256E+01  0.28556552901E+02  0.51100000000E-03 0. -1.
        -11    1    3    3    0    0 -0.16127965148E+02  0.67236365209E+01  0.46429828931E+01  0.18079707914E+02  0.51100000000E-03 0.  1.
         12    1    3    3    0    0 -0.16326479586E+01  0.30778927208E+01  0.17359183362E+01  0.38926052237E+01  0.00000000000E+00 0. -1.
</event>
<event>
 7    1  0.3054835E-011  0.5052888E+02  0.7816164E-02  0.1300439E+00
        -11   -1    0    0    0    0  0.00000000000E+00  0.00000000000E+00  0.45593999997E+02  0.45594000000E+02  0.51100000000E-03 0. -1.
         11   -1    0    0    0    0 -0.00000000000E+00 -0.00000000000E+00 -0.45593999997E+02  0.45594000000E+02  0.51100000000E-03 0.  1.
    9900012    2    1    2    0    0 -0.28718425357E+02  0.25194816289E+02  0.13915351383E+02  0.50528883840E+02  0.30000072919E+02 0.  0.
         12    1    1    2    0    0  0.28718425357E+02 -0.25194816289E+02 -0.13915351383E+02  0.40659116160E+02  0.00000000000E+00 0. -1.
         11    1    3    3    0    0 -0.52727883216E+01 -0.42072474519E+01 -0.34257903735E+01  0.75656637349E+01  0.51100000000E-03 0. -1.
        -11    1    3    3    0    0 -0.13980586589E+02  0.91599787460E+01  0.50506079143E+01  0.17460545598E+02  0.51100000000E-03 0.  1.
         12    1    3    3    0    0 -0.94650504459E+01  0.20242084995E+02  0.12290533842E+02  0.25502674507E+02  0.00000000000E+00 0. -1.
</event>
<event>
 7    1  0.3054835E-011  0.5052887E+02  0.7816164E-02  0.1300439E+00
        -11   -1    0    0    0    0  0.00000000000E+00  0.00000000000E+00  0.45593999997E+02  0.45594000000E+02  0.51100000000E-03 0.  1.
         11   -1    0    0    0    0 -0.00000000000E+00 -0.00000000000E+00 -0.45593999997E+02  0.45594000000E+02  0.51100000000E-03 0. -1.
    9900012    2    1    2    0    0 -0.60883444519E+01 -0.35975016157E+02  0.17941426495E+02  0.50528874206E+02  0.30000043636E+02 0.  0.
         12    1    1    2    0    0  0.60883444519E+01  0.35975016157E+02 -0.17941426495E+02  0.40659125794E+02  0.00000000000E+00 0. -1.
         11    1    3    3    0    0 -0.84203221884E+01 -0.79513114679E+01  0.97533038087E-01  0.11581653283E+02  0.51100000000E-03 0. -1.
        -11    1    3    3    0    0  0.48550085760E+01  0.13166281606E+01  0.38950923476E+01  0.63621036336E+01  0.51100000000E-03 0.  1.
        -12    1    3    3    0    0 -0.25230308395E+01 -0.29340332850E+02  0.13948801109E+02  0.32585117289E+02  0.00000000000E+00 0.  1.
</event>
<event>
 7    1  0.3054835E-011  0.5052886E+02  0.7816164E-02  0.1300439E+00
        -11   -1    0    0    0    0  0.00000000000E+00  0.00000000000E+00  0.45593999997E+02  0.45594000000E+02  0.51100000000E-03 0.  1.
         11   -1    0    0    0    0 -0.00000000000E+00 -0.00000000000E+00 -0.45593999997E+02  0.45594000000E+02  0.51100000000E-03 0. -1.
    9900012    2    1    2    0    0 -0.98101958486E+01 -0.34766405274E+02  0.18660735467E+02  0.50528856792E+02  0.29999990704E+02 0.  0.
         12    1    1    2    0    0  0.98101958486E+01  0.34766405274E+02 -0.18660735467E+02  0.40659143208E+02  0.00000000000E+00 0. -1.
         11    1    3    3    0    0 -0.16222262667E+01 -0.11657452589E+01  0.55958651693E+01  0.59417411020E+01  0.51100000000E-03 0. -1.
        -11    1    3    3    0    0 -0.48605345085E+01 -0.33747785652E+02  0.32829410831E+01  0.34253693735E+02  0.51100000000E-03 0.  1.
        -12    1    3    3    0    0 -0.33274350734E+01  0.14712563676E+00  0.97819292150E+01  0.10333421954E+02  0.00000000000E+00 0.  1.
</event>
<event>
 7    1  0.3054835E-011  0.5052886E+02  0.7816164E-02  0.1300439E+00
        -11   -1    0    0    0    0  0.00000000000E+00  0.00000000000E+00  0.45593999997E+02  0.45594000000E+02  0.51100000000E-03 0. -1.
         11   -1    0    0    0    0 -0.00000000000E+00 -0.00000000000E+00 -0.45593999997E+02  0.45594000000E+02  0.51100000000E-03 0.  1.
    9900012    2    1    2    0    0  0.11657610959E+02 -0.10348286003E+02 -0.37552346961E+02  0.50528859838E+02  0.29999999963E+02 0.  0.
         12    1    1    2    0    0 -0.11657610959E+02  0.10348286003E+02  0.37552346961E+02  0.40659140162E+02  0.00000000000E+00 0. -1.
         11    1    3    3    0    0 -0.66856355111E+01  0.43830916771E+01 -0.17060829385E+02  0.18840942503E+02  0.51100000000E-03 0. -1.
        -11    1    3    3    0    0  0.12568749920E+02 -0.88149819386E+01 -0.16397934484E+02  0.22462627556E+02  0.51100000000E-03 0.  1.
         12    1    3    3    0    0  0.57744965502E+01 -0.59163957412E+01 -0.40935830918E+01  0.92252897789E+01  0.00000000000E+00 0. -1.
</event>
<event>
 7    1  0.3054835E-011  0.5052887E+02  0.7816164E-02  0.1300439E+00
        -11   -1    0    0    0    0  0.00000000000E+00  0.00000000000E+00  0.45593999997E+02  0.45594000000E+02  0.51100000000E-03 0. -1.
         11   -1    0    0    0    0 -0.00000000000E+00 -0.00000000000E+00 -0.45593999997E+02  0.45594000000E+02  0.51100000000E-03 0.  1.
    9900012    2    1    2    0    0  0.36981937967E+02  0.56299734779E+00 -0.16887394061E+02  0.50528870890E+02  0.30000033556E+02 0.  0.
         12    1    1    2    0    0 -0.36981937967E+02 -0.56299734779E+00  0.16887394061E+02  0.40659129110E+02  0.00000000000E+00 0. -1.
         11    1    3    3    0    0 -0.34261531377E+01 -0.17956078212E+00 -0.83734585574E+01  0.90490649169E+01  0.51100000000E-03 0. -1.
        -11    1    3    3    0    0  0.25457246558E+02 -0.67648258469E+00 -0.68396501859E+01  0.26368728561E+02  0.51100000000E-03 0.  1.
         12    1    3    3    0    0  0.14950844547E+02  0.14190407146E+01 -0.16742853177E+01  0.15111077412E+02  0.00000000000E+00 0. -1.
</event>
<event>
 7    1  0.3054835E-011  0.5052886E+02  0.7816164E-02  0.1300439E+00
        -11   -1    0    0    0    0  0.00000000000E+00  0.00000000000E+00  0.45593999997E+02  0.45594000000E+02  0.51100000000E-03 0.  1.
         11   -1    0    0    0    0 -0.00000000000E+00 -0.00000000000E+00 -0.45593999997E+02  0.45594000000E+02  0.51100000000E-03 0. -1.
    9900012    2    1    2    0    0  0.66237120102E+01  0.35580167245E+02  0.18529534870E+02  0.50528861735E+02  0.30000005731E+02 0.  0.
         12    1    1    2    0    0 -0.66237120102E+01 -0.35580167245E+02 -0.18529534870E+02  0.40659138265E+02  0.00000000000E+00 0. -1.
         11    1    3    3    0    0  0.13935379383E+02  0.82057065746E+01 -0.68778827153E+00  0.16186459523E+02  0.51100000000E-03 0. -1.
        -11    1    3    3    0    0 -0.40687771757E+01  0.16935908917E+02  0.13282787257E+02  0.21904620428E+02  0.51100000000E-03 0.  1.
         12    1    3    3    0    0 -0.32428901969E+01  0.10438551753E+02  0.59345358842E+01  0.12437781784E+02  0.00000000000E+00 0. -1.
</event>
<event>
 7    1  0.3054835E-011  0.5052886E+02  0.7816164E-02  0.1300439E+00
        -11   -1    0    0    0    0  0.00000000000E+00  0.00000000000E+00  0.45593999997E+02  0.45594000000E+02  0.51100000000E-03 0. -1.
         11   -1    0    0    0    0 -0.00000000000E+00 -0.00000000000E+00 -0.45593999997E+02  0.45594000000E+02  0.51100000000E-03 0.  1.
    9900012    2    1    2    0    0 -0.60916433221E+01  0.37700912417E+02 -0.13953452017E+02  0.50528859101E+02  0.29999997723E+02 0.  0.
         12    1    1    2    0    0  0.60916433221E+01 -0.37700912417E+02  0.13953452017E+02  0.40659140899E+02  0.00000000000E+00 0. -1.
         11    1    3    3    0    0 -0.21878572710E+01  0.68108292238E+01  0.75626632237E+01  0.10409994690E+02  0.51100000000E-03 0. -1.
        -11    1    3    3    0    0 -0.72642665012E+01  0.28248110373E+02 -0.16435278675E+02  0.33479003761E+02  0.51100000000E-03 0.  1.
        -12    1    3    3    0    0  0.33604804500E+01  0.26419728208E+01 -0.50808365659E+01  0.66398606499E+01  0.00000000000E+00 0.  1.
</event>
<event>
 7    1  0.3054835E-011  0.5052885E+02  0.7816164E-02  0.1300439E+00
        -11   -1    0    0    0    0  0.00000000000E+00  0.00000000000E+00  0.45593999997E+02  0.45594000000E+02  0.51100000000E-03 0. -1.
         11   -1    0    0    0    0 -0.00000000000E+00 -0.00000000000E+00 -0.45593999997E+02  0.45594000000E+02  0.51100000000E-03 0.  1.
    9900012    2    1    2    0    0 -0.16627789895E+01 -0.19351563519E+02 -0.35719998021E+02  0.50528854618E+02  0.29999984096E+02 0.  0.
         12    1    1    2    0    0  0.16627789895E+01  0.19351563519E+02  0.35719998021E+02  0.40659145382E+02  0.00000000000E+00 0. -1.
         11    1    3    3    0    0  0.11115388279E+02 -0.17452939305E+01 -0.17398323423E+02  0.20719545499E+02  0.51100000000E-03 0. -1.
        -11    1    3    3    0    0 -0.10293011030E+02 -0.97362540355E+01 -0.15704579315E+02  0.21151229998E+02  0.51100000000E-03 0.  1.
         12    1    3    3    0    0 -0.24851562387E+01 -0.78700155527E+01 -0.26170952829E+01  0.86580791202E+01  0.00000000000E+00 0. -1.
</event>
<event>
 7    1  0.3054835E-011  0.5052887E+02  0.7816164E-02  0.1300439E+00
        -11   -1    0    0    0    0  0.00000000000E+00  0.00000000000E+00  0.45593999997E+02  0.45594000000E+02  0.51100000000E-03 0. -1.
         11   -1    0    0    0    0 -0.00000000000E+00 -0.00000000000E+00 -0.45593999997E+02  0.45594000000E+02  0.51100000000E-03 0.  1.
    9900012    2    1    2    0    0 -0.10582731233E+01  0.29851178854E+02 -0.27585357204E+02  0.50528871222E+02  0.30000034566E+02 0.  0.
         12    1    1    2    0    0  0.10582731233E+01 -0.29851178854E+02  0.27585357204E+02  0.40659128778E+02  0.00000000000E+00 0. -1.
         11    1    3    3    0    0  0.32414172665E+01 -0.36106161241E+01 -0.33765362558E+01  0.59113731094E+01  0.51100000000E-03 0. -1.
        -11    1    3    3    0    0 -0.55213402740E+01  0.28907522894E+02 -0.12462394613E+02  0.31959996215E+02  0.51100000000E-03 0.  1.
        -12    1    3    3    0    0  0.12216498842E+01  0.45542720837E+01 -0.11746426335E+02  0.12657501898E+02  0.00000000000E+00 0.  1.
</event>
<event>
 7    1  0.3054835E-011  0.5052886E+02  0.7816164E-02  0.1300439E+00
        -11   -1    0    0    0    0  0.00000000000E+00  0.00000000000E+00  0.45593999997E+02  0.45594000000E+02  0.51100000000E-03 0.  1.
         11   -1    0    0    0    0 -0.00000000000E+00 -0.00000000000E+00 -0.45593999997E+02  0.45594000000E+02  0.51100000000E-03 0. -1.
    9900012    2    1    2    0    0 -0.31903750766E+02  0.23709237255E+02  0.85550047620E+01  0.50528863872E+02  0.30000012227E+02 0.  0.
         12    1    1    2    0    0  0.31903750766E+02 -0.23709237255E+02 -0.85550047620E+01  0.40659136128E+02  0.00000000000E+00 0. -1.
         11    1    3    3    0    0 -0.34465456006E+02  0.14084795870E+02  0.38471868294E+01  0.37430602175E+02  0.51100000000E-03 0. -1.
        -11    1    3    3    0    0 -0.65639515866E+00  0.84869794941E+01  0.20069532925E+01  0.87457153691E+01  0.51100000000E-03 0.  1.
        -12    1    3    3    0    0  0.32181003993E+01  0.11374618910E+01  0.27008646401E+01  0.43525463280E+01  0.00000000000E+00 0.  1.
</event>
<event>
 7    1  0.3054835E-011  0.5052886E+02  0.7816164E-02  0.1300439E+00
        -11   -1    0    0    0    0  0.00000000000E+00  0.00000000000E+00  0.45593999997E+02  0.45594000000E+02  0.51100000000E-03 0.  1.
         11   -1    0    0    0    0 -0.00000000000E+00 -0.00000000000E+00 -0.45593999997E+02  0.45594000000E+02  0.51100000000E-03 0. -1.
    9900012    2    1    2    0    0 -0.36972091720E+02 -0.11647791416E+02  0.12270244330E+02  0.50528861950E+02  0.30000006385E+02 0.  0.
         12    1    1    2    0    0  0.36972091720E+02  0.11647791416E+02 -0.12270244330E+02  0.40659138050E+02  0.00000000000E+00 0. -1.
         11    1    3    3    0    0 -0.15291000971E+02 -0.13928492716E+02 -0.46290257720E+01  0.21195412237E+02  0.51100000000E-03 0. -1.
        -11    1    3    3    0    0 -0.14527427511E+02  0.30865561503E+01  0.54720924757E+01  0.15827721734E+02  0.51100000000E-03 0.  1.
         12    1    3    3    0    0 -0.71536632370E+01 -0.80585485092E+00  0.11427177627E+02  0.13505727980E+02  0.00000000000E+00 0. -1.
</event>
<event>
 7    1  0.3054835E-011  0.5052886E+02  0.7816164E-02  0.1300439E+00
        -11   -1    0    0    0    0  0.00000000000E+00  0.00000000000E+00  0.45593999997E+02  0.45594000000E+02  0.51100000000E-03 0. -1.
         11   -1    0    0    0    0 -0.00000000000E+00 -0.00000000000E+00 -0.45593999997E+02  0.45594000000E+02  0.51100000000E-03 0.  1.
    9900012    2    1    2    0    0  0.15526777989E+02  0.32633275014E+02 -0.18632079389E+02  0.50528857667E+02  0.29999993366E+02 0.  0.
         12    1    1    2    0    0 -0.15526777989E+02 -0.32633275014E+02  0.18632079389E+02  0.40659142333E+02  0.00000000000E+00 0. -1.
         11    1    3    3    0    0  0.13480086336E+02  0.66425138631E+01  0.50827718153E+00  0.15036424575E+02  0.51100000000E-03 0. -1.
        -11    1    3    3    0    0 -0.42071900323E+01  0.20249698991E+02 -0.16909323753E+02  0.26714714807E+02  0.51100000000E-03 0.  1.
        -12    1    3    3    0    0  0.62538816847E+01  0.57410621598E+01 -0.22310328179E+01  0.87777182846E+01  0.00000000000E+00 0.  1.
</event>
<event>
 7    1  0.3054835E-011  0.5052886E+02  0.7816164E-02  0.1300439E+00
        -11   -1    0    0    0    0  0.00000000000E+00  0.00000000000E+00  0.45593999997E+02  0.45594000000E+02  0.51100000000E-03 0. -1.
         11   -1    0    0    0    0 -0.00000000000E+00 -0.00000000000E+00 -0.45593999997E+02  0.45594000000E+02  0.51100000000E-03 0.  1.
    9900012    2    1    2    0    0 -0.11408653326E+02 -0.37677378448E+02  0.10169740131E+02  0.50528857956E+02  0.29999994244E+02 0.  0.
         12    1    1    2    0    0  0.11408653326E+02  0.37677378448E+02 -0.10169740131E+02  0.40659142044E+02  0.00000000000E+00 0. -1.
         11    1    3    3    0    0 -0.13140727088E+02 -0.88374502876E+01  0.99146991775E+01  0.18683695995E+02  0.51100000000E-03 0. -1.
        -11    1    3    3    0    0  0.67986357672E+01 -0.10488055288E+02 -0.20566699622E+01  0.12666911368E+02  0.51100000000E-03 0.  1.
         12    1    3    3    0    0 -0.50665620054E+01 -0.18351872872E+02  0.23117109160E+01  0.19178250594E+02  0.00000000000E+00 0. -1.
</event>
<event>
 7    1  0.3054835E-011  0.5052885E+02  0.7816164E-02  0.1300439E+00
        -11   -1    0    0    0    0  0.00000000000E+00  0.00000000000E+00  0.45593999997E+02  0.45594000000E+02  0.51100000000E-03 0.  1.
         11   -1    0    0    0    0 -0.00000000000E+00 -0.00000000000E+00 -0.45593999997E+02  0.45594000000E+02  0.51100000000E-03 0. -1.
    9900012    2    1    2    0    0  0.17201707653E+02 -0.23990221277E+02  0.27959558390E+02  0.50528851356E+02  0.29999974183E+02 0.  0.
         12    1    1    2    0    0 -0.17201707653E+02  0.23990221277E+02 -0.27959558390E+02  0.40659148644E+02  0.00000000000E+00 0. -1.
         11    1    3    3    0    0  0.40296583361E+01 -0.24288884903E+02  0.10879901077E+02  0.26917658216E+02  0.51100000000E-03 0. -1.
        -11    1    3    3    0    0  0.56386676966E+01  0.14966357830E+01  0.11455308916E+01  0.59453118795E+01  0.51100000000E-03 0.  1.
         12    1    3    3    0    0  0.75333816199E+01 -0.11979721570E+01  0.15934126422E+02  0.17665881261E+02  0.00000000000E+00 0. -1.
</event>
<event>
 7    1  0.3054835E-011  0.5052886E+02  0.7816164E-02  0.1300439E+00
        -11   -1    0    0    0    0  0.00000000000E+00  0.00000000000E+00  0.45593999997E+02  0.45594000000E+02  0.51100000000E-03 0.  1.
         11   -1    0    0    0    0 -0.00000000000E+00 -0.00000000000E+00 -0.45593999997E+02  0.45594000000E+02  0.51100000000E-03 0. -1.
    9900012    2    1    2    0    0  0.29679187924E+02  0.42980496377E+01  0.27456120425E+02  0.50528856191E+02  0.29999988878E+02 0.  0.
         12    1    1    2    0    0 -0.29679187924E+02 -0.42980496377E+01 -0.27456120425E+02  0.40659143809E+02  0.00000000000E+00 0. -1.
         11    1    3    3    0    0  0.21508137207E+02  0.74079248351E+01  0.38159535711E+01  0.23065966669E+02  0.51100000000E-03 0. -1.
        -11    1    3    3    0    0  0.30375958913E+01 -0.51050791546E+01  0.19993841561E+02  0.20857672991E+02  0.51100000000E-03 0.  1.
        -12    1    3    3    0    0  0.51334548254E+01  0.19952039572E+01  0.36463252921E+01  0.66052165302E+01  0.00000000000E+00 0.  1.
</event>
<event>
 7    1  0.3054835E-011  0.5052885E+02  0.7816164E-02  0.1300439E+00
        -11   -1    0    0    0    0  0.00000000000E+00  0.00000000000E+00  0.45593999997E+02  0.45594000000E+02  0.51100000000E-03 0. -1.
         11   -1    0    0    0    0 -0.00000000000E+00 -0.00000000000E+00 -0.45593999997E+02  0.45594000000E+02  0.51100000000E-03 0.  1.
    9900012    2    1    2    0    0 -0.28340805871E+02 -0.24729191106E+02 -0.15441246665E+02  0.50528852582E+02  0.29999977909E+02 0.  0.
         12    1    1    2    0    0  0.28340805871E+02  0.24729191106E+02  0.15441246665E+02  0.40659147418E+02  0.00000000000E+00 0. -1.
         11    1    3    3    0    0 -0.47533196708E+01 -0.17930636891E+02 -0.11302958318E+01  0.18584384740E+02  0.51100000000E-03 0. -1.
        -11    1    3    3    0    0 -0.17879724500E+02 -0.92195271701E+01 -0.15786386064E+02  0.25571355354E+02  0.51100000000E-03 0.  1.
         12    1    3    3    0    0 -0.57077616995E+01  0.24209729555E+01  0.14754352301E+01  0.63731124882E+01  0.00000000000E+00 0. -1.
</event>
<event>
 7    1  0.3054835E-011  0.5052886E+02  0.7816164E-02  0.1300439E+00
        -11   -1    0    0    0    0  0.00000000000E+00  0.00000000000E+00  0.45593999997E+02  0.45594000000E+02  0.51100000000E-03 0.  1.
         11   -1    0    0    0    0 -0.00000000000E+00 -0.00000000000E+00 -0.45593999997E+02  0.45594000000E+02  0.51100000000E-03 0. -1.
    9900012    2    1    2    0    0  0.38064708237E-02  0.31447800168E+02  0.25772106517E+02  0.50528860508E+02  0.30000002001E+02 0.  0.
         12    1    1    2    0    0 -0.38064708237E-02 -0.31447800168E+02 -0.25772106517E+02  0.40659139492E+02  0.00000000000E+00 0. -1.
         11    1    3    3    0    0  0.73953407703E+01  0.96646930044E+01  0.33136612945E+00  0.12174036297E+02  0.51100000000E-03 0. -1.
        -11    1    3    3    0    0 -0.95108855879E+01  0.23055952007E+02  0.25767862250E+02  0.35861073504E+02  0.51100000000E-03 0.  1.
         12    1    3    3    0    0  0.21193512884E+01 -0.12728448440E+01 -0.32712186260E+00  0.24937507080E+01  0.00000000000E+00 0. -1.
</event>
<event>
 7    1  0.3054835E-011  0.5052886E+02  0.7816164E-02  0.1300439E+00
        -11   -1    0    0    0    0  0.00000000000E+00  0.00000000000E+00  0.45593999997E+02  0.45594000000E+02  0.51100000000E-03 0.  1.
         11   -1    0    0    0    0 -0.00000000000E+00 -0.00000000000E+00 -0.45593999997E+02  0.45594000000E+02  0.51100000000E-03 0. -1.
    9900012    2    1    2    0    0  0.43044454036E+00  0.43136797519E+01  0.40427372574E+02  0.50528861190E+02  0.30000004074E+02 0.  0.
         12    1    1    2    0    0 -0.43044454036E+00 -0.43136797519E+01 -0.40427372574E+02  0.40659138810E+02  0.00000000000E+00 0. -1.
         11    1    3    3    0    0  0.32990102996E+01 -0.30650941908E+01  0.41484623755E+02  0.41728315083E+02  0.51100000000E-03 0. -1.
        -11    1    3    3    0    0 -0.81695111280E+00  0.38252470914E+01  0.12332026713E+01  0.41013063188E+01  0.51100000000E-03 0.  1.
         12    1    3    3    0    0 -0.20516146464E+01  0.35535268513E+01 -0.22904538518E+01  0.46992397882E+01  0.00000000000E+00 0. -1.
</event>
<event>
 7    1  0.3054835E-011  0.5052886E+02  0.7816164E-02  0.1300439E+00
        -11   -1    0    0    0    0  0.00000000000E+00  0.00000000000E+00  0.45593999997E+02  0.45594000000E+02  0.51100000000E-03 0.  1.
         11   -1    0    0    0    0 -0.00000000000E+00 -0.00000000000E+00 -0.45593999997E+02  0.45594000000E+02  0.51100000000E-03 0. -1.
    9900012    2    1    2    0    0 -0.11222315755E+02  0.23919201329E+01  0.39006463345E+02  0.50528857910E+02  0.29999994103E+02 0.  0.
         12    1    1    2    0    0  0.11222315755E+02 -0.23919201329E+01 -0.39006463345E+02  0.40659142090E+02  0.00000000000E+00 0. -1.
         11    1    3    3    0    0  0.27305221915E+00  0.82674249805E+01  0.23509128736E+01  0.85995153888E+01  0.51100000000E-03 0. -1.
        -11    1    3    3    0    0 -0.13147901798E+02 -0.90136203581E+01  0.24198384818E+02  0.28977137569E+02  0.51100000000E-03 0.  1.
         12    1    3    3    0    0  0.16525338239E+01  0.31381155106E+01  0.12457165654E+02  0.12952204952E+02  0.00000000000E+00 0. -1.
</event>
<event>
 7    1  0.3054835E-011  0.5052884E+02  0.7816164E-02  0.1300439E+00
        -11   -1    0    0    0    0  0.00000000000E+00  0.00000000000E+00  0.45593999997E+02  0.45594000000E+02  0.51100000000E-03 0.  1.
         11   -1    0    0    0    0 -0.00000000000E+00 -0.00000000000E+00 -0.45593999997E+02  0.45594000000E+02  0.51100000000E-03 0. -1.
    9900012    2    1    2    0    0 -0.10458057274E+01 -0.40559354035E+02  0.26480547309E+01  0.50528842320E+02  0.29999946716E+02 0.  0.
         12    1    1    2    0    0  0.10458057274E+01  0.40559354035E+02 -0.26480547309E+01  0.40659157680E+02  0.00000000000E+00 0. -1.
         11    1    3    3    0    0  0.11162292329E+02 -0.26851405092E+02 -0.18051817045E+01  0.29135088926E+02  0.51100000000E-03 0. -1.
        -11    1    3    3    0    0 -0.49198749428E+01 -0.95691144330E+01 -0.18356963539E+01  0.10915260045E+02  0.51100000000E-03 0.  1.
         12    1    3    3    0    0 -0.72882231133E+01 -0.41388345101E+01  0.62889327893E+01  0.10478493350E+02  0.00000000000E+00 0. -1.
</event>
<event>
 7    1  0.3054835E-011  0.5052886E+02  0.7816164E-02  0.1300439E+00
        -11   -1    0    0    0    0  0.00000000000E+00  0.00000000000E+00  0.45593999997E+02  0.45594000000E+02  0.51100000000E-03 0.  1.
         11   -1    0    0    0    0 -0.00000000000E+00 -0.00000000000E+00 -0.45593999997E+02  0.45594000000E+02  0.51100000000E-03 0. -1.
    9900012    2    1    2    0    0 -0.37369225258E+01  0.11670152039E+02  0.38768659875E+02  0.50528855554E+02  0.29999986943E+02 0.  0.
         12    1    1    2    0    0  0.37369225258E+01 -0.11670152039E+02 -0.38768659875E+02  0.40659144446E+02  0.00000000000E+00 0. -1.
         11    1    3    3    0    0  0.75977862840E+01 -0.17814847498E+01  0.14956952831E+02  0.16870402561E+02  0.51100000000E-03 0. -1.
        -11    1    3    3    0    0 -0.14134332973E+02  0.84259088263E+01  0.22293200498E+02  0.27708520293E+02  0.51100000000E-03 0.  1.
        -12    1    3    3    0    0  0.27996241631E+01  0.50257279620E+01  0.15185065463E+01  0.59499326999E+01  0.00000000000E+00 0.  1.
</event>
<event>
 7    1  0.3054835E-011  0.5052887E+02  0.7816164E-02  0.1300439E+00
        -11   -1    0    0    0    0  0.00000000000E+00  0.00000000000E+00  0.45593999997E+02  0.45594000000E+02  0.51100000000E-03 0. -1.
         11   -1    0    0    0    0 -0.00000000000E+00 -0.00000000000E+00 -0.45593999997E+02  0.45594000000E+02  0.51100000000E-03 0.  1.
    9900012    2    1    2    0    0 -0.32253631686E+02  0.52748035152E+01 -0.24187695325E+02  0.50528869239E+02  0.30000028540E+02 0.  0.
         12    1    1    2    0    0  0.32253631686E+02 -0.52748035152E+01  0.24187695325E+02  0.40659130761E+02  0.00000000000E+00 0. -1.
         11    1    3    3    0    0 -0.16968744744E+02  0.26473751069E+01  0.24692628476E+01  0.17350623978E+02  0.51100000000E-03 0. -1.
        -11    1    3    3    0    0 -0.15237745728E+02 -0.17840365496E+01 -0.20705925200E+02  0.25770273959E+02  0.51100000000E-03 0.  1.
         12    1    3    3    0    0 -0.47141213688E-01  0.44114649579E+01 -0.59510329728E+01  0.74079713021E+01  0.00000000000E+00 0. -1.
</event>
<event>
 7    1  0.3054835E-011  0.5052886E+02  0.7816164E-02  0.1300439E+00
        -11   -1    0    0    0    0  0.00000000000E+00  0.00000000000E+00  0.45593999997E+02  0.45594000000E+02  0.51100000000E-03 0.  1.
         11   -1    0    0    0    0 -0.00000000000E+00 -0.00000000000E+00 -0.45593999997E+02  0.45594000000E+02  0.51100000000E-03 0. -1.
    9900012    2    1    2    0    0  0.68281660806E+01  0.15603585380E+02  0.36919778446E+02  0.50528858725E+02  0.29999996581E+02 0.  0.
         12    1    1    2    0    0 -0.68281660806E+01 -0.15603585380E+02 -0.36919778446E+02  0.40659141275E+02  0.00000000000E+00 0. -1.
         11    1    3    3    0    0  0.24435240774E+01  0.28907230232E+01  0.33064364932E+01  0.50258941551E+01  0.51100000000E-03 0. -1.
        -11    1    3    3    0    0 -0.52400524099E+01  0.17540547047E+02  0.27744489738E+02  0.33239820262E+02  0.51100000000E-03 0.  1.
        -12    1    3    3    0    0  0.96246944132E+01 -0.48276846898E+01  0.58688522141E+01  0.12263144308E+02  0.00000000000E+00 0.  1.
</event>
<event>
 7    1  0.3054835E-011  0.5052888E+02  0.7816164E-02  0.1300439E+00
        -11   -1    0    0    0    0  0.00000000000E+00  0.00000000000E+00  0.45593999997E+02  0.45594000000E+02  0.51100000000E-03 0.  1.
         11   -1    0    0    0    0 -0.00000000000E+00 -0.00000000000E+00 -0.45593999997E+02  0.45594000000E+02  0.51100000000E-03 0. -1.
    9900012    2    1    2    0    0 -0.61908930678E+01  0.37440563604E+01  0.40010232261E+02  0.50528882934E+02  0.30000070166E+02 0.  0.
         12    1    1    2    0    0  0.61908930678E+01 -0.37440563604E+01 -0.40010232261E+02  0.40659117066E+02  0.00000000000E+00 0. -1.
         11    1    3    3    0    0 -0.21587642504E+01  0.15497546608E+02  0.20323889813E+02  0.25649458305E+02  0.51100000000E-03 0. -1.
        -11    1    3    3    0    0  0.67093704107E+00 -0.18901421211E+01  0.10241668034E+02  0.10436213783E+02  0.51100000000E-03 0.  1.
         12    1    3    3    0    0 -0.47030658584E+01 -0.98633481265E+01  0.94446744141E+01  0.14443210845E+02  0.00000000000E+00 0. -1.
</event>
<event>
 7    1  0.3054835E-011  0.5052886E+02  0.7816164E-02  0.1300439E+00
        -11   -1    0    0    0    0  0.00000000000E+00  0.00000000000E+00  0.45593999997E+02  0.45594000000E+02  0.51100000000E-03 0.  1.
         11   -1    0    0    0    0 -0.00000000000E+00 -0.00000000000E+00 -0.45593999997E+02  0.45594000000E+02  0.51100000000E-03 0. -1.
    9900012    2    1    2    0    0 -0.16482756335E+01 -0.12189301559E+02  0.38753961847E+02  0.50528862725E+02  0.30000008739E+02 0.  0.
         12    1    1    2    0    0  0.16482756335E+01  0.12189301559E+02 -0.38753961847E+02  0.40659137275E+02  0.00000000000E+00 0. -1.
         11    1    3    3    0    0  0.21856001450E+01 -0.45744852010E+01 -0.24995053999E+01  0.56524587883E+01  0.51100000000E-03 0. -1.
        -11    1    3    3    0    0 -0.90986134602E+01 -0.14155966229E+01  0.26125780568E+02  0.27700994409E+02  0.51100000000E-03 0.  1.
         12    1    3    3    0    0  0.52647376817E+01 -0.61992197354E+01  0.15127686679E+02  0.17175409528E+02  0.00000000000E+00 0. -1.
</event>
<event>
 7    1  0.3054835E-011  0.5052887E+02  0.7816164E-02  0.1300439E+00
        -11   -1    0    0    0    0  0.00000000000E+00  0.00000000000E+00  0.45593999997E+02  0.45594000000E+02  0.51100000000E-03 0. -1.
         11   -1    0    0    0    0 -0.00000000000E+00 -0.00000000000E+00 -0.45593999997E+02  0.45594000000E+02  0.51100000000E-03 0.  1.
    9900012    2    1    2    0    0  0.22395185858E+01 -0.20793491622E+02 -0.34868037371E+02  0.50528871044E+02  0.30000034025E+02 0.  0.
         12    1    1    2    0    0 -0.22395185858E+01  0.20793491622E+02  0.34868037371E+02  0.40659128956E+02  0.00000000000E+00 0. -1.
         11    1    3    3    0    0  0.12487115713E+01 -0.12000657244E+02  0.93366055721E+00  0.12101519622E+02  0.51100000000E-03 0. -1.
        -11    1    3    3    0    0  0.16559206067E+01 -0.84889755174E+01 -0.13001904520E+02  0.15615834905E+02  0.51100000000E-03 0.  1.
         12    1    3    3    0    0 -0.66511359227E+00 -0.30385886092E+00 -0.22799793409E+02  0.22811516516E+02  0.00000000000E+00 0. -1.
</event>
<event>
 7    1  0.3054835E-011  0.5052886E+02  0.7816164E-02  0.1300439E+00
        -11   -1    0    0    0    0  0.00000000000E+00  0.00000000000E+00  0.45593999997E+02  0.45594000000E+02  0.51100000000E-03 0.  1.
         11   -1    0    0    0    0 -0.00000000000E+00 -0.00000000000E+00 -0.45593999997E+02  0.45594000000E+02  0.51100000000E-03 0. -1.
    9900012    2    1    2    0    0  0.10927966989E+01 -0.23617937140E+02  0.33078152567E+02  0.50528864045E+02  0.30000012750E+02 0.  0.
         12    1    1    2    0    0 -0.10927966989E+01  0.23617937140E+02 -0.33078152567E+02  0.40659135955E+02  0.00000000000E+00 0. -1.
         11    1    3    3    0    0  0.57795134555E+01 -0.23843434861E+02  0.21647706909E+02  0.32719036912E+02  0.51100000000E-03 0. -1.
        -11    1    3    3    0    0  0.18855595090E+01  0.31733472177E+01  0.97329570833E+01  0.10409415021E+02  0.51100000000E-03 0.  1.
         12    1    3    3    0    0 -0.65722762656E+01 -0.29478494962E+01  0.16974885752E+01  0.74004121120E+01  0.00000000000E+00 0. -1.
</event>
<event>
 7    1  0.3054835E-011  0.5052886E+02  0.7816164E-02  0.1300439E+00
        -11   -1    0    0    0    0  0.00000000000E+00  0.00000000000E+00  0.45593999997E+02  0.45594000000E+02  0.51100000000E-03 0. -1.
         11   -1    0    0    0    0 -0.00000000000E+00 -0.00000000000E+00 -0.45593999997E+02  0.45594000000E+02  0.51100000000E-03 0.  1.
    9900012    2    1    2    0    0  0.19121839176E+01 -0.29433653338E+02 -0.27985164199E+02  0.50528858207E+02  0.29999995005E+02 0.  0.
         12    1    1    2    0    0 -0.19121839176E+01  0.29433653338E+02  0.27985164199E+02  0.40659141793E+02  0.00000000000E+00 0. -1.
         11    1    3    3    0    0  0.90004310557E+00 -0.50003804552E+01  0.39378516994E+00  0.50959738333E+01  0.51100000000E-03 0. -1.
        -11    1    3    3    0    0  0.36310701182E+01 -0.53462919671E+00 -0.19439561577E+02  0.19782999094E+02  0.51100000000E-03 0.  1.
        -12    1    3    3    0    0 -0.26189293061E+01 -0.23898643686E+02 -0.89393877913E+01  0.25649885279E+02  0.00000000000E+00 0.  1.
</event>
<event>
 7    1  0.3054835E-011  0.5052895E+02  0.7816164E-02  0.1300438E+00
        -11   -1    0    0    0    0  0.00000000000E+00  0.00000000000E+00  0.45593999997E+02  0.45594000000E+02  0.51100000000E-03 0.  1.
         11   -1    0    0    0    0 -0.00000000000E+00 -0.00000000000E+00 -0.45593999997E+02  0.45594000000E+02  0.51100000000E-03 0. -1.
    9900012    2    1    2    0    0 -0.25235474799E+02 -0.21137009390E+02  0.23865370430E+02  0.50528951068E+02  0.30000277266E+02 0.  0.
         12    1    1    2    0    0  0.25235474799E+02  0.21137009390E+02 -0.23865370430E+02  0.40659048932E+02  0.00000000000E+00 0. -1.
         11    1    3    3    0    0 -0.11908733352E+02 -0.16057808292E+02 -0.21476528467E+01  0.20106803580E+02  0.51100000000E-03 0. -1.
        -11    1    3    3    0    0 -0.43827512663E+01 -0.52065950925E+01  0.12072305302E+02  0.13858488254E+02  0.51100000000E-03 0.  1.
         12    1    3    3    0    0 -0.89439901806E+01  0.12739399468E+00  0.13940717974E+02  0.16563659234E+02  0.00000000000E+00 0. -1.
</event>
<event>
 7    1  0.3054835E-011  0.5052886E+02  0.7816164E-02  0.1300439E+00
        -11   -1    0    0    0    0  0.00000000000E+00  0.00000000000E+00  0.45593999997E+02  0.45594000000E+02  0.51100000000E-03 0. -1.
         11   -1    0    0    0    0 -0.00000000000E+00 -0.00000000000E+00 -0.45593999997E+02  0.45594000000E+02  0.51100000000E-03 0.  1.
    9900012    2    1    2    0    0 -0.39144510302E+02  0.56854117924E+01 -0.94100596110E+01  0.50528858151E+02  0.29999994836E+02 0.  0.
         12    1    1    2    0    0  0.39144510302E+02 -0.56854117924E+01  0.94100596110E+01  0.40659141849E+02  0.00000000000E+00 0. -1.
         11    1    3    3    0    0 -0.28770032517E+02  0.34974648527E-01 -0.15837079571E+02  0.32840966549E+02  0.51100000000E-03 0.  1.
        -11    1    3    3    0    0 -0.38017652514E+01 -0.18802010932E+01  0.64174325427E+01  0.76923348782E+01  0.51100000000E-03 0. -1.
        -12    1    3    3    0    0 -0.65727125332E+01  0.75306382371E+01  0.95874174209E-02  0.99955567239E+01  0.00000000000E+00 0.  1.
</event>
<event>
 7    1  0.3054835E-011  0.5052887E+02  0.7816164E-02  0.1300439E+00
        -11   -1    0    0    0    0  0.00000000000E+00  0.00000000000E+00  0.45593999997E+02  0.45594000000E+02  0.51100000000E-03 0.  1.
         11   -1    0    0    0    0 -0.00000000000E+00 -0.00000000000E+00 -0.45593999997E+02  0.45594000000E+02  0.51100000000E-03 0. -1.
    9900012    2    1    2    0    0  0.12023325600E+02 -0.14955984939E+02  0.35845820737E+02  0.50528871772E+02  0.30000036238E+02 0.  0.
         12    1    1    2    0    0 -0.12023325600E+02  0.14955984939E+02 -0.35845820737E+02  0.40659128228E+02  0.00000000000E+00 0. -1.
         11    1    3    3    0    0 -0.33838927547E+01 -0.11752945369E+02  0.13151422021E+02  0.17959464259E+02  0.51100000000E-03 0. -1.
        -11    1    3    3    0    0  0.13064354679E+02 -0.63439580834E+01  0.65066208294E+01  0.15914122100E+02  0.51100000000E-03 0.  1.
         12    1    3    3    0    0  0.23428636759E+01  0.31409185135E+01  0.16187777886E+02  0.16655285413E+02  0.00000000000E+00 0. -1.
</event>
<event>
 7    1  0.3054835E-011  0.5052887E+02  0.7816164E-02  0.1300439E+00
        -11   -1    0    0    0    0  0.00000000000E+00  0.00000000000E+00  0.45593999997E+02  0.45594000000E+02  0.51100000000E-03 0. -1.
         11   -1    0    0    0    0 -0.00000000000E+00 -0.00000000000E+00 -0.45593999997E+02  0.45594000000E+02  0.51100000000E-03 0.  1.
    9900012    2    1    2    0    0  0.31497013891E+02 -0.14584334752E+02 -0.21175470056E+02  0.50528865278E+02  0.30000016500E+02 0.  0.
         12    1    1    2    0    0 -0.31497013891E+02  0.14584334752E+02  0.21175470056E+02  0.40659134722E+02  0.00000000000E+00 0. -1.
         11    1    3    3    0    0  0.40149939409E+01 -0.14363246817E+01  0.19831595878E+01  0.47027786625E+01  0.51100000000E-03 0. -1.
        -11    1    3    3    0    0  0.73050724290E+01  0.58293293356E+01 -0.13644612772E+02  0.16538458866E+02  0.51100000000E-03 0.  1.
        -12    1    3    3    0    0  0.20176947521E+02 -0.18977339406E+02 -0.95140168721E+01  0.29287627750E+02  0.00000000000E+00 0.  1.
</event>
<event>
 7    1  0.3054835E-011  0.5052886E+02  0.7816164E-02  0.1300439E+00
        -11   -1    0    0    0    0  0.00000000000E+00  0.00000000000E+00  0.45593999997E+02  0.45594000000E+02  0.51100000000E-03 0. -1.
         11   -1    0    0    0    0 -0.00000000000E+00 -0.00000000000E+00 -0.45593999997E+02  0.45594000000E+02  0.51100000000E-03 0.  1.
    9900012    2    1    2    0    0 -0.35428684459E+02 -0.42353216316E+01 -0.19494516267E+02  0.50528858392E+02  0.29999995568E+02 0.  0.
         12    1    1    2    0    0  0.35428684459E+02  0.42353216316E+01  0.19494516267E+02  0.40659141608E+02  0.00000000000E+00 0. -1.
         11    1    3    3    0    0  0.13072680897E+01  0.43480750895E-01  0.21215963513E+01  0.24923907745E+01  0.51100000000E-03 0. -1.
        -11    1    3    3    0    0 -0.26445645187E+02  0.39690139241E+01 -0.56571003079E+01  0.27333642367E+02  0.51100000000E-03 0.  1.
        -12    1    3    3    0    0 -0.10290307362E+02 -0.82478163066E+01 -0.15959012311E+02  0.20702825251E+02  0.00000000000E+00 0.  1.
</event>
<event>
 7    1  0.3054835E-011  0.5052886E+02  0.7816164E-02  0.1300439E+00
        -11   -1    0    0    0    0  0.00000000000E+00  0.00000000000E+00  0.45593999997E+02  0.45594000000E+02  0.51100000000E-03 0. -1.
         11   -1    0    0    0    0 -0.00000000000E+00 -0.00000000000E+00 -0.45593999997E+02  0.45594000000E+02  0.51100000000E-03 0.  1.
    9900012    2    1    2    0    0  0.38956946435E+01 -0.99784555138E+01 -0.39222691565E+02  0.50528861485E+02  0.30000004970E+02 0.  0.
         12    1    1    2    0    0 -0.38956946435E+01  0.99784555138E+01  0.39222691565E+02  0.40659138515E+02  0.00000000000E+00 0. -1.
         11    1    3    3    0    0  0.89349988768E+01 -0.25767320987E+01 -0.13295073566E+02  0.16224448669E+02  0.51100000000E-03 0. -1.
        -11    1    3    3    0    0 -0.75385501967E+01 -0.32017600815E+01 -0.27867522301E+02  0.29046166807E+02  0.51100000000E-03 0.  1.
        -12    1    3    3    0    0  0.24992459634E+01 -0.41999633337E+01  0.19399043025E+01  0.52582460091E+01  0.00000000000E+00 0.  1.
</event>
<event>
 7    1  0.3499160E-011  0.5052886E+02  0.7816164E-02  0.1300439E+00
        -11   -1    0    0    0    0  0.00000000000E+00  0.00000000000E+00  0.45593999997E+02  0.45594000000E+02  0.51100000000E-03 0. -1.
         11   -1    0    0    0    0 -0.00000000000E+00 -0.00000000000E+00 -0.45593999997E+02  0.45594000000E+02  0.51100000000E-03 0.  1.
    9900012    2    1    2    0    0  0.73401502323E+01  0.35313268522E+02  0.18768624909E+02  0.50528855640E+02  0.29999987202E+02 0.  0.
         12    1    1    2    0    0 -0.73401502323E+01 -0.35313268522E+02 -0.18768624909E+02  0.40659144360E+02  0.00000000000E+00 0. -1.
         11    1    3    3    0    0 -0.59396729348E+01  0.76229604543E+00  0.71000998358E+01  0.92882844365E+01  0.51100000000E-03 0. -1.
        -11    1    3    3    0    0  0.66947303106E+01  0.23616533447E+02  0.14009413149E+02  0.28263469762E+02  0.51100000000E-03 0.  1.
         12    1    3    3    0    0  0.65850928565E+01  0.10934439030E+02 -0.23408880753E+01  0.12977101441E+02  0.00000000000E+00 0. -1.
</event>
<event>
 7    1  0.3054835E-011  0.5052886E+02  0.7816164E-02  0.1300439E+00
        -11   -1    0    0    0    0  0.00000000000E+00  0.00000000000E+00  0.45593999997E+02  0.45594000000E+02  0.51100000000E-03 0.  1.
         11   -1    0    0    0    0 -0.00000000000E+00 -0.00000000000E+00 -0.45593999997E+02  0.45594000000E+02  0.51100000000E-03 0. -1.
    9900012    2    1    2    0    0  0.46788258417E+01  0.81922117187E+01  0.39549486740E+02  0.50528860247E+02  0.30000001206E+02 0.  0.
         12    1    1    2    0    0 -0.46788258417E+01 -0.81922117187E+01 -0.39549486740E+02  0.40659139753E+02  0.00000000000E+00 0. -1.
         11    1    3    3    0    0  0.23751788477E+00 -0.27438730836E+01 -0.12980772818E+01  0.30447100248E+01  0.51100000000E-03 0. -1.
        -11    1    3    3    0    0  0.89572186631E+01  0.72679998088E+01  0.39969074495E+02  0.41600270475E+02  0.51100000000E-03 0.  1.
        -12    1    3    3    0    0 -0.45159107062E+01  0.36680849934E+01  0.87848952674E+00  0.58838797467E+01  0.00000000000E+00 0.  1.
</event>
<event>
 7    1  0.3054835E-011  0.5052885E+02  0.7816164E-02  0.1300439E+00
        -11   -1    0    0    0    0  0.00000000000E+00  0.00000000000E+00  0.45593999997E+02  0.45594000000E+02  0.51100000000E-03 0. -1.
         11   -1    0    0    0    0 -0.00000000000E+00 -0.00000000000E+00 -0.45593999997E+02  0.45594000000E+02  0.51100000000E-03 0.  1.
    9900012    2    1    2    0    0 -0.31052697958E+02 -0.26226462730E+02 -0.10338106283E+01  0.50528853892E+02  0.29999981891E+02 0.  0.
         12    1    1    2    0    0  0.31052697958E+02  0.26226462730E+02  0.10338106283E+01  0.40659146108E+02  0.00000000000E+00 0. -1.
         11    1    3    3    0    0 -0.19746656289E+02 -0.55464401460E+01 -0.11157980348E+02  0.23349388827E+02  0.51100000000E-03 0. -1.
        -11    1    3    3    0    0 -0.62764018490E+01 -0.45968212836E+01  0.55207966350E+00  0.77992806270E+01  0.51100000000E-03 0.  1.
         12    1    3    3    0    0 -0.50296398195E+01 -0.16083201301E+02  0.95720900567E+01  0.19380184438E+02  0.00000000000E+00 0. -1.
</event>
<event>
 7    1  0.3054835E-011  0.5052886E+02  0.7816164E-02  0.1300439E+00
        -11   -1    0    0    0    0  0.00000000000E+00  0.00000000000E+00  0.45593999997E+02  0.45594000000E+02  0.51100000000E-03 0.  1.
         11   -1    0    0    0    0 -0.00000000000E+00 -0.00000000000E+00 -0.45593999997E+02  0.45594000000E+02  0.51100000000E-03 0. -1.
    9900012    2    1    2    0    0 -0.23241339803E+02 -0.19946775147E+02  0.26741957152E+02  0.50528856048E+02  0.29999988443E+02 0.  0.
         12    1    1    2    0    0  0.23241339803E+02  0.19946775147E+02 -0.26741957152E+02  0.40659143952E+02  0.00000000000E+00 0. -1.
         11    1    3    3    0    0 -0.19738053714E+01  0.12132181086E+01  0.11761579336E+01  0.25982982063E+01  0.51100000000E-03 0. -1.
        -11    1    3    3    0    0  0.18350993637E+01 -0.62377632570E+01  0.18392041274E+02  0.19507548862E+02  0.51100000000E-03 0.  1.
        -12    1    3    3    0    0 -0.23102633795E+02 -0.14922229999E+02  0.71737579445E+01  0.28423008980E+02  0.00000000000E+00 0.  1.
</event>
<event>
 7    1  0.3054835E-011  0.5052886E+02  0.7816164E-02  0.1300439E+00
        -11   -1    0    0    0    0  0.00000000000E+00  0.00000000000E+00  0.45593999997E+02  0.45594000000E+02  0.51100000000E-03 0.  1.
         11   -1    0    0    0    0 -0.00000000000E+00 -0.00000000000E+00 -0.45593999997E+02  0.45594000000E+02  0.51100000000E-03 0. -1.
    9900012    2    1    2    0    0 -0.14337035936E+02 -0.80981244292E+01  0.37175732615E+02  0.50528864320E+02  0.30000013588E+02 0.  0.
         12    1    1    2    0    0  0.14337035936E+02  0.80981244292E+01 -0.37175732615E+02  0.40659135680E+02  0.00000000000E+00 0. -1.
         11    1    3    3    0    0  0.13082737358E+01  0.10072478321E+02  0.10561754434E+02  0.14653226835E+02  0.51100000000E-03 0. -1.
        -11    1    3    3    0    0 -0.13722532293E+02 -0.15556968201E+02  0.23886276173E+02  0.31636708770E+02  0.51100000000E-03 0.  1.
         12    1    3    3    0    0 -0.19227773791E+01 -0.26136345487E+01  0.27277020086E+01  0.42389287151E+01  0.00000000000E+00 0. -1.
</event>
<event>
 7    1  0.3054835E-011  0.5052885E+02  0.7816164E-02  0.1300439E+00
        -11   -1    0    0    0    0  0.00000000000E+00  0.00000000000E+00  0.45593999997E+02  0.45594000000E+02  0.51100000000E-03 0.  1.
         11   -1    0    0    0    0 -0.00000000000E+00 -0.00000000000E+00 -0.45593999997E+02  0.45594000000E+02  0.51100000000E-03 0. -1.
    9900012    2    1    2    0    0  0.36289947232E+02 -0.18267518308E+02 -0.15823606642E+01  0.50528851453E+02  0.29999974478E+02 0.  0.
         12    1    1    2    0    0 -0.36289947232E+02  0.18267518308E+02  0.15823606642E+01  0.40659148547E+02  0.00000000000E+00 0. -1.
         11    1    3    3    0    0  0.30138341977E+02 -0.58918232326E+01 -0.11586946452E+02  0.32822104845E+02  0.51100000000E-03 0. -1.
        -11    1    3    3    0    0  0.61780588719E+01 -0.12600472644E+02  0.89875335028E+01  0.16664815661E+02  0.51100000000E-03 0.  1.
         12    1    3    3    0    0 -0.26453616567E-01  0.22477756836E+00  0.10170522850E+01  0.10419309475E+01  0.00000000000E+00 0. -1.
</event>
<event>
 7    1  0.3054835E-011  0.5052887E+02  0.7816164E-02  0.1300439E+00
        -11   -1    0    0    0    0  0.00000000000E+00  0.00000000000E+00  0.45593999997E+02  0.45594000000E+02  0.51100000000E-03 0.  1.
         11   -1    0    0    0    0 -0.00000000000E+00 -0.00000000000E+00 -0.45593999997E+02  0.45594000000E+02  0.51100000000E-03 0. -1.
    9900012    2    1    2    0    0 -0.82648196274E+01  0.81709157884E+01  0.38962723497E+02  0.50528869038E+02  0.30000027929E+02 0.  0.
         12    1    1    2    0    0  0.82648196274E+01 -0.81709157884E+01 -0.38962723497E+02  0.40659130962E+02  0.00000000000E+00 0. -1.
         11    1    3    3    0    0 -0.13483112478E+01  0.20719990060E+01 -0.41300367493E+01  0.48133488252E+01  0.51100000000E-03 0. -1.
        -11    1    3    3    0    0  0.93417505732E+00  0.70596563783E+01  0.24410356923E+02  0.25427877547E+02  0.51100000000E-03 0.  1.
         12    1    3    3    0    0 -0.78506834369E+01 -0.96073959595E+00  0.18682403323E+02  0.20287642666E+02  0.00000000000E+00 0. -1.
</event>
<event>
 7    1  0.3054835E-011  0.5052885E+02  0.7816164E-02  0.1300439E+00
        -11   -1    0    0    0    0  0.00000000000E+00  0.00000000000E+00  0.45593999997E+02  0.45594000000E+02  0.51100000000E-03 0.  1.
         11   -1    0    0    0    0 -0.00000000000E+00 -0.00000000000E+00 -0.45593999997E+02  0.45594000000E+02  0.51100000000E-03 0. -1.
    9900012    2    1    2    0    0  0.45859569777E+01  0.10269520432E+02  0.39072654530E+02  0.50528851173E+02  0.29999973625E+02 0.  0.
         12    1    1    2    0    0 -0.45859569777E+01 -0.10269520432E+02 -0.39072654530E+02  0.40659148827E+02  0.00000000000E+00 0. -1.
         11    1    3    3    0    0  0.10040384124E+02  0.80923404267E+01  0.47869678866E+01  0.13755375268E+02  0.51100000000E-03 0. -1.
        -11    1    3    3    0    0  0.16427992020E+01  0.15850898478E+01  0.24835350254E+02  0.24940046543E+02  0.51100000000E-03 0.  1.
         12    1    3    3    0    0 -0.70972263487E+01  0.59209015742E+00  0.94503363894E+01  0.11833429362E+02  0.00000000000E+00 0. -1.
</event>
<event>
 7    1  0.3054835E-011  0.5052886E+02  0.7816164E-02  0.1300439E+00
        -11   -1    0    0    0    0  0.00000000000E+00  0.00000000000E+00  0.45593999997E+02  0.45594000000E+02  0.51100000000E-03 0.  1.
         11   -1    0    0    0    0 -0.00000000000E+00 -0.00000000000E+00 -0.45593999997E+02  0.45594000000E+02  0.51100000000E-03 0. -1.
    9900012    2    1    2    0    0  0.17025823542E+02 -0.13856400599E+02  0.34224071591E+02  0.50528861038E+02  0.30000003612E+02 0.  0.
         12    1    1    2    0    0 -0.17025823542E+02  0.13856400599E+02 -0.34224071591E+02  0.40659138962E+02  0.00000000000E+00 0. -1.
         11    1    3    3    0    0  0.82879405970E+01 -0.22529997530E+01 -0.82534468439E+00  0.86282768463E+01  0.51100000000E-03 0. -1.
        -11    1    3    3    0    0  0.18976145630E+01 -0.71348266091E+01  0.32519959789E+02  0.33347480815E+02  0.51100000000E-03 0.  1.
        -12    1    3    3    0    0  0.68402683824E+01 -0.44685742373E+01  0.25294564859E+01  0.85531033766E+01  0.00000000000E+00 0.  1.
</event>
<event>
 7    1  0.3054835E-011  0.5052886E+02  0.7816164E-02  0.1300439E+00
        -11   -1    0    0    0    0  0.00000000000E+00  0.00000000000E+00  0.45593999997E+02  0.45594000000E+02  0.51100000000E-03 0.  1.
         11   -1    0    0    0    0 -0.00000000000E+00 -0.00000000000E+00 -0.45593999997E+02  0.45594000000E+02  0.51100000000E-03 0. -1.
    9900012    2    1    2    0    0 -0.27347065251E+02  0.14639626206E+02  0.26286597616E+02  0.50528857762E+02  0.29999993653E+02 0.  0.
         12    1    1    2    0    0  0.27347065251E+02 -0.14639626206E+02 -0.26286597616E+02  0.40659142238E+02  0.00000000000E+00 0. -1.
         11    1    3    3    0    0 -0.96425760712E+01  0.47190356339E+01 -0.46988299730E+01  0.11718684823E+02  0.51100000000E-03 0. -1.
        -11    1    3    3    0    0 -0.33459944267E+01 -0.22557038179E+01  0.90153712031E+01  0.98772869052E+01  0.51100000000E-03 0.  1.
         12    1    3    3    0    0 -0.14358494753E+02  0.12176294390E+02  0.21970056386E+02  0.28932886034E+02  0.00000000000E+00 0. -1.
</event>
<event>
 7    1  0.3054835E-011  0.5052887E+02  0.7816164E-02  0.1300439E+00
        -11   -1    0    0    0    0  0.00000000000E+00  0.00000000000E+00  0.45593999997E+02  0.45594000000E+02  0.51100000000E-03 0.  1.
         11   -1    0    0    0    0 -0.00000000000E+00 -0.00000000000E+00 -0.45593999997E+02  0.45594000000E+02  0.51100000000E-03 0. -1.
    9900012    2    1    2    0    0  0.10901730994E+02 -0.28249508488E+02  0.27134521080E+02  0.50528871840E+02  0.30000036445E+02 0.  0.
         12    1    1    2    0    0 -0.10901730994E+02  0.28249508488E+02 -0.27134521080E+02  0.40659128160E+02  0.00000000000E+00 0. -1.
         11    1    3    3    0    0  0.25651110636E+01 -0.67045070487E+00 -0.28500663554E+01  0.38925797882E+01  0.51100000000E-03 0. -1.
        -11    1    3    3    0    0 -0.37065790801E+00 -0.26989322653E+02  0.22726145216E+02  0.35285104523E+02  0.51100000000E-03 0.  1.
        -12    1    3    3    0    0  0.87072778381E+01 -0.58973513071E+00  0.72584422191E+01  0.11351187529E+02  0.00000000000E+00 0.  1.
</event>
<event>
 7    1  0.3054835E-011  0.5052888E+02  0.7816164E-02  0.1300439E+00
        -11   -1    0    0    0    0  0.00000000000E+00  0.00000000000E+00  0.45593999997E+02  0.45594000000E+02  0.51100000000E-03 0.  1.
         11   -1    0    0    0    0 -0.00000000000E+00 -0.00000000000E+00 -0.45593999997E+02  0.45594000000E+02  0.51100000000E-03 0. -1.
    9900012    2    1    2    0    0  0.16826170275E+02 -0.36516782038E+02 -0.60471900700E+01  0.50528881905E+02  0.30000067038E+02 0.  0.
         12    1    1    2    0    0 -0.16826170275E+02  0.36516782038E+02  0.60471900700E+01  0.40659118095E+02  0.00000000000E+00 0. -1.
         11    1    3    3    0    0 -0.39170487133E+01 -0.69186514730E+01  0.73372116489E+01  0.10818765358E+02  0.51100000000E-03 0. -1.
        -11    1    3    3    0    0  0.13018366651E+02 -0.24280670863E+02 -0.12612721086E+02  0.30300323121E+02  0.51100000000E-03 0.  1.
        -12    1    3    3    0    0  0.77248523374E+01 -0.53174597020E+01 -0.77168063311E+00  0.94097934259E+01  0.00000000000E+00 0.  1.
</event>
<event>
 7    1  0.3054835E-011  0.5052888E+02  0.7816164E-02  0.1300439E+00
        -11   -1    0    0    0    0  0.00000000000E+00  0.00000000000E+00  0.45593999997E+02  0.45594000000E+02  0.51100000000E-03 0.  1.
         11   -1    0    0    0    0 -0.00000000000E+00 -0.00000000000E+00 -0.45593999997E+02  0.45594000000E+02  0.51100000000E-03 0. -1.
    9900012    2    1    2    0    0  0.28079157904E+01 -0.34661612199E+02  0.21067798700E+02  0.50528881793E+02  0.30000066697E+02 0.  0.
         12    1    1    2    0    0 -0.28079157904E+01  0.34661612199E+02 -0.21067798700E+02  0.40659118207E+02  0.00000000000E+00 0. -1.
         11    1    3    3    0    0  0.95288422219E+00 -0.77159000113E+01  0.18510091549E+02  0.20076518392E+02  0.51100000000E-03 0. -1.
        -11    1    3    3    0    0  0.67381970761E-01 -0.26538207631E+02 -0.88369759955E+00  0.26553002209E+02  0.51100000000E-03 0.  1.
        -12    1    3    3    0    0  0.17876495974E+01 -0.40750455667E+00  0.34414047501E+01  0.38993611914E+01  0.00000000000E+00 0.  1.
</event>
<event>
 7    1  0.3054835E-011  0.5052885E+02  0.7816164E-02  0.1300439E+00
        -11   -1    0    0    0    0  0.00000000000E+00  0.00000000000E+00  0.45593999997E+02  0.45594000000E+02  0.51100000000E-03 0.  1.
         11   -1    0    0    0    0 -0.00000000000E+00 -0.00000000000E+00 -0.45593999997E+02  0.45594000000E+02  0.51100000000E-03 0. -1.
    9900012    2    1    2    0    0  0.13027019326E+02 -0.14761304236E+02  0.35574806087E+02  0.50528853878E+02  0.29999981847E+02 0.  0.
         12    1    1    2    0    0 -0.13027019326E+02  0.14761304236E+02 -0.35574806087E+02  0.40659146122E+02  0.00000000000E+00 0. -1.
         11    1    3    3    0    0 -0.11533005194E+01 -0.38152483134E+01 -0.29093999923E+01  0.49346560526E+01  0.51100000000E-03 0. -1.
        -11    1    3    3    0    0  0.82993940019E+01 -0.13636625193E+02  0.17739428175E+02  0.23864718722E+02  0.51100000000E-03 0.  1.
         12    1    3    3    0    0  0.58809258435E+01  0.26905692712E+01  0.20744777904E+02  0.21729479103E+02  0.00000000000E+00 0. -1.
</event>
<event>
 7    1  0.3054835E-011  0.5052887E+02  0.7816164E-02  0.1300439E+00
        -11   -1    0    0    0    0  0.00000000000E+00  0.00000000000E+00  0.45593999997E+02  0.45594000000E+02  0.51100000000E-03 0.  1.
         11   -1    0    0    0    0 -0.00000000000E+00 -0.00000000000E+00 -0.45593999997E+02  0.45594000000E+02  0.51100000000E-03 0. -1.
    9900012    2    1    2    0    0 -0.22779577657E+02 -0.33252726264E+02 -0.53396639628E+01  0.50528868511E+02  0.30000026325E+02 0.  0.
         12    1    1    2    0    0  0.22779577657E+02  0.33252726264E+02  0.53396639628E+01  0.40659131489E+02  0.00000000000E+00 0. -1.
         11    1    3    3    0    0 -0.19409282540E+02 -0.40133625444E+01 -0.54051972988E+01  0.20543696983E+02  0.51100000000E-03 0. -1.
        -11    1    3    3    0    0 -0.36819868111E+01 -0.20593071142E+02  0.23102113679E+01  0.21046821204E+02  0.51100000000E-03 0.  1.
         12    1    3    3    0    0  0.31169169373E+00 -0.86462925773E+01 -0.22446780320E+01  0.89383503239E+01  0.00000000000E+00 0. -1.
</event>
<event>
 7    1  0.3054835E-011  0.5052885E+02  0.7816164E-02  0.1300439E+00
        -11   -1    0    0    0    0  0.00000000000E+00  0.00000000000E+00  0.45593999997E+02  0.45594000000E+02  0.51100000000E-03 0. -1.
         11   -1    0    0    0    0 -0.00000000000E+00 -0.00000000000E+00 -0.45593999997E+02  0.45594000000E+02  0.51100000000E-03 0.  1.
    9900012    2    1    2    0    0  0.31183522764E+01  0.11977072269E+02 -0.38729728034E+02  0.50528853248E+02  0.29999979932E+02 0.  0.
         12    1    1    2    0    0 -0.31183522764E+01 -0.11977072269E+02  0.38729728034E+02  0.40659146752E+02  0.00000000000E+00 0. -1.
         11    1    3    3    0    0  0.29891464078E+01  0.34808950326E+01  0.42711610468E+01  0.62685280110E+01  0.51100000000E-03 0. -1.
        -11    1    3    3    0    0  0.17642171309E+01  0.86544099885E+01 -0.35594917646E+02  0.36674370299E+02  0.51100000000E-03 0.  1.
         12    1    3    3    0    0 -0.16350112623E+01 -0.15823275224E+00 -0.74059714345E+01  0.75859549379E+01  0.00000000000E+00 0. -1.
</event>
<event>
 7    1  0.3054835E-011  0.5052885E+02  0.7816164E-02  0.1300439E+00
        -11   -1    0    0    0    0  0.00000000000E+00  0.00000000000E+00  0.45593999997E+02  0.45594000000E+02  0.51100000000E-03 0. -1.
         11   -1    0    0    0    0 -0.00000000000E+00 -0.00000000000E+00 -0.45593999997E+02  0.45594000000E+02  0.51100000000E-03 0.  1.
    9900012    2    1    2    0    0 -0.48712398955E+01 -0.14468236196E+02 -0.37684312021E+02  0.50528853314E+02  0.29999980133E+02 0.  0.
         12    1    1    2    0    0  0.48712398955E+01  0.14468236196E+02  0.37684312021E+02  0.40659146686E+02  0.00000000000E+00 0. -1.
         11    1    3    3    0    0 -0.68248612135E+01 -0.12167837251E+02 -0.13005282994E+02  0.19072817829E+02  0.51100000000E-03 0. -1.
        -11    1    3    3    0    0  0.23117747384E+01  0.68850868573E+01 -0.19712080466E+02  0.21007494854E+02  0.51100000000E-03 0.  1.
        -12    1    3    3    0    0 -0.35815342046E+00 -0.91854858024E+01 -0.49669485615E+01  0.10448540631E+02  0.00000000000E+00 0.  1.
</event>
<event>
 7    1  0.3054835E-011  0.5052887E+02  0.7816164E-02  0.1300439E+00
        -11   -1    0    0    0    0  0.00000000000E+00  0.00000000000E+00  0.45593999997E+02  0.45594000000E+02  0.51100000000E-03 0.  1.
         11   -1    0    0    0    0 -0.00000000000E+00 -0.00000000000E+00 -0.45593999997E+02  0.45594000000E+02  0.51100000000E-03 0. -1.
    9900012    2    1    2    0    0  0.64847613070E+01  0.40138453760E+02  0.12986263019E+00  0.50528874778E+02  0.30000045377E+02 0.  0.
         12    1    1    2    0    0 -0.64847613070E+01 -0.40138453760E+02 -0.12986263019E+00  0.40659125222E+02  0.00000000000E+00 0. -1.
         11    1    3    3    0    0  0.11829799944E+02  0.29256950210E+01  0.49317232816E+00  0.12196191098E+02  0.51100000000E-03 0. -1.
        -11    1    3    3    0    0 -0.38919069082E+01  0.25631844776E+02  0.32163024150E+01  0.26124375734E+02  0.51100000000E-03 0.  1.
        -12    1    3    3    0    0 -0.14531317292E+01  0.11580913963E+02 -0.35796121130E+01  0.12208307947E+02  0.00000000000E+00 0.  1.
</event>
<event>
 7    1  0.3054835E-011  0.5052886E+02  0.7816164E-02  0.1300439E+00
        -11   -1    0    0    0    0  0.00000000000E+00  0.00000000000E+00  0.45593999997E+02  0.45594000000E+02  0.51100000000E-03 0.  1.
         11   -1    0    0    0    0 -0.00000000000E+00 -0.00000000000E+00 -0.45593999997E+02  0.45594000000E+02  0.51100000000E-03 0. -1.
    9900012    2    1    2    0    0  0.33088818872E+02  0.22710049070E+02  0.65229922804E+01  0.50528859682E+02  0.29999999489E+02 0.  0.
         12    1    1    2    0    0 -0.33088818872E+02 -0.22710049070E+02 -0.65229922804E+01  0.40659140318E+02  0.00000000000E+00 0. -1.
         11    1    3    3    0    0  0.25140572933E+01 -0.31896218505E+01 -0.30237979508E+01  0.50633512550E+01  0.51100000000E-03 0. -1.
        -11    1    3    3    0    0  0.16675531954E+02  0.10251777713E+02  0.14001856939E+02  0.24067079387E+02  0.51100000000E-03 0.  1.
        -12    1    3    3    0    0  0.13899229625E+02  0.15647893207E+02 -0.44550667080E+01  0.21398429040E+02  0.00000000000E+00 0.  1.
</event>
<event>
 7    1  0.3054835E-011  0.5052886E+02  0.7816164E-02  0.1300439E+00
        -11   -1    0    0    0    0  0.00000000000E+00  0.00000000000E+00  0.45593999997E+02  0.45594000000E+02  0.51100000000E-03 0.  1.
         11   -1    0    0    0    0 -0.00000000000E+00 -0.00000000000E+00 -0.45593999997E+02  0.45594000000E+02  0.51100000000E-03 0. -1.
    9900012    2    1    2    0    0 -0.17479645104E+02 -0.26194628425E+02  0.25719035386E+02  0.50528864095E+02  0.30000012904E+02 0.  0.
         12    1    1    2    0    0  0.17479645104E+02  0.26194628425E+02 -0.25719035386E+02  0.40659135905E+02  0.00000000000E+00 0. -1.
         11    1    3    3    0    0 -0.20853304023E+02 -0.16219143695E+02  0.10503575926E+02  0.28429667926E+02  0.51100000000E-03 0. -1.
        -11    1    3    3    0    0 -0.30814337890E+01 -0.71877181906E+01  0.12103027741E+02  0.14409781669E+02  0.51100000000E-03 0.  1.
         12    1    3    3    0    0  0.64550927082E+01 -0.27877665397E+01  0.31124317200E+01  0.76894145006E+01  0.00000000000E+00 0. -1.
</event>
<event>
 7    1  0.3054835E-011  0.5052887E+02  0.7816164E-02  0.1300439E+00
        -11   -1    0    0    0    0  0.00000000000E+00  0.00000000000E+00  0.45593999997E+02  0.45594000000E+02  0.51100000000E-03 0.  1.
         11   -1    0    0    0    0 -0.00000000000E+00 -0.00000000000E+00 -0.45593999997E+02  0.45594000000E+02  0.51100000000E-03 0. -1.
    9900012    2    1    2    0    0 -0.33855533266E+02  0.57061637641E+00  0.22508716843E+02  0.50528867327E+02  0.30000022728E+02 0.  0.
         12    1    1    2    0    0  0.33855533266E+02 -0.57061637641E+00 -0.22508716843E+02  0.40659132673E+02  0.00000000000E+00 0. -1.
         11    1    3    3    0    0 -0.27931562896E+01  0.44536098643E+01 -0.20162292758E+01  0.56304123859E+01  0.51100000000E-03 0. -1.
        -11    1    3    3    0    0 -0.59401368173E+01 -0.97645121065E+01  0.10555598518E+02  0.15558007020E+02  0.51100000000E-03 0.  1.
        -12    1    3    3    0    0 -0.25122240159E+02  0.58815186186E+01  0.13969347600E+02  0.29340447922E+02  0.00000000000E+00 0.  1.
</event>
<event>
 7    1  0.3054835E-011  0.5052886E+02  0.7816164E-02  0.1300439E+00
        -11   -1    0    0    0    0  0.00000000000E+00  0.00000000000E+00  0.45593999997E+02  0.45594000000E+02  0.51100000000E-03 0.  1.
         11   -1    0    0    0    0 -0.00000000000E+00 -0.00000000000E+00 -0.45593999997E+02  0.45594000000E+02  0.51100000000E-03 0. -1.
    9900012    2    1    2    0    0  0.69688715787E+01 -0.31419369258E+02  0.24848016725E+02  0.50528857476E+02  0.29999992783E+02 0.  0.
         12    1    1    2    0    0 -0.69688715787E+01  0.31419369258E+02 -0.24848016725E+02  0.40659142524E+02  0.00000000000E+00 0. -1.
         11    1    3    3    0    0  0.11000869242E+02 -0.14134627005E+01  0.56651724548E+01  0.12454363898E+02  0.51100000000E-03 0. -1.
        -11    1    3    3    0    0 -0.68230308035E+01 -0.11229183630E+02  0.39062303785E+01  0.13707915610E+02  0.51100000000E-03 0.  1.
        -12    1    3    3    0    0  0.27910331400E+01 -0.18776722927E+02  0.15276613892E+02  0.24366577968E+02  0.00000000000E+00 0.  1.
</event>
<event>
 7    1  0.3054835E-011  0.5052886E+02  0.7816164E-02  0.1300439E+00
        -11   -1    0    0    0    0  0.00000000000E+00  0.00000000000E+00  0.45593999997E+02  0.45594000000E+02  0.51100000000E-03 0. -1.
         11   -1    0    0    0    0 -0.00000000000E+00 -0.00000000000E+00 -0.45593999997E+02  0.45594000000E+02  0.51100000000E-03 0.  1.
    9900012    2    1    2    0    0  0.32439279025E+01 -0.84444410014E+00 -0.40520727503E+02  0.50528861895E+02  0.30000006215E+02 0.  0.
         12    1    1    2    0    0 -0.32439279025E+01  0.84444410014E+00  0.40520727503E+02  0.40659138105E+02  0.00000000000E+00 0. -1.
         11    1    3    3    0    0 -0.39730046008E+01 -0.25395160239E+01  0.17193339095E+01  0.50189656850E+01  0.51100000000E-03 0. -1.
        -11    1    3    3    0    0  0.11752803535E+02  0.29404516882E+01 -0.27862383444E+02  0.30382347811E+02  0.51100000000E-03 0.  1.
         12    1    3    3    0    0 -0.45358710318E+01 -0.12453797644E+01 -0.14377677969E+02  0.15127548398E+02  0.00000000000E+00 0. -1.
</event>
<event>
 7    1  0.3054835E-011  0.5052885E+02  0.7816164E-02  0.1300439E+00
        -11   -1    0    0    0    0  0.00000000000E+00  0.00000000000E+00  0.45593999997E+02  0.45594000000E+02  0.51100000000E-03 0. -1.
         11   -1    0    0    0    0 -0.00000000000E+00 -0.00000000000E+00 -0.45593999997E+02  0.45594000000E+02  0.51100000000E-03 0.  1.
    9900012    2    1    2    0    0 -0.36344391444E+01 -0.20826049920E+02 -0.34730867086E+02  0.50528848119E+02  0.29999964342E+02 0.  0.
         12    1    1    2    0    0  0.36344391444E+01  0.20826049920E+02  0.34730867086E+02  0.40659151881E+02  0.00000000000E+00 0. -1.
         11    1    3    3    0    0 -0.45734180592E+01 -0.36285722547E+01 -0.18054073895E+02  0.18974516432E+02  0.51100000000E-03 0.  1.
        -11    1    3    3    0    0 -0.20312233481E+01 -0.18198009992E+02 -0.43300902495E+01  0.18816033530E+02  0.51100000000E-03 0. -1.
        -12    1    3    3    0    0  0.29702022629E+01  0.10005323267E+01 -0.12346702941E+02  0.12738298157E+02  0.00000000000E+00 0.  1.
</event>
<event>
 7    1  0.3054835E-011  0.5052887E+02  0.7816164E-02  0.1300439E+00
        -11   -1    0    0    0    0  0.00000000000E+00  0.00000000000E+00  0.45593999997E+02  0.45594000000E+02  0.51100000000E-03 0.  1.
         11   -1    0    0    0    0 -0.00000000000E+00 -0.00000000000E+00 -0.45593999997E+02  0.45594000000E+02  0.51100000000E-03 0. -1.
    9900012    2    1    2    0    0  0.35237658247E+01  0.29712017120E+00  0.40505061943E+02  0.50528865123E+02  0.30000016028E+02 0.  0.
         12    1    1    2    0    0 -0.35237658247E+01 -0.29712017120E+00 -0.40505061943E+02  0.40659134877E+02  0.00000000000E+00 0. -1.
         11    1    3    3    0    0 -0.87186438531E+01  0.24109652376E+01  0.91005883137E+01  0.12831531940E+02  0.51100000000E-03 0. -1.
        -11    1    3    3    0    0  0.80171662265E+01  0.31807432952E+01  0.29391184652E+02  0.30630602634E+02  0.51100000000E-03 0.  1.
         12    1    3    3    0    0  0.42252434512E+01 -0.52945883615E+01  0.20132889763E+01  0.70667305483E+01  0.00000000000E+00 0. -1.
</event>
<event>
 7    1  0.3054835E-011  0.5052886E+02  0.7816164E-02  0.1300439E+00
        -11   -1    0    0    0    0  0.00000000000E+00  0.00000000000E+00  0.45593999997E+02  0.45594000000E+02  0.51100000000E-03 0.  1.
         11   -1    0    0    0    0 -0.00000000000E+00 -0.00000000000E+00 -0.45593999997E+02  0.45594000000E+02  0.51100000000E-03 0. -1.
    9900012    2    1    2    0    0 -0.25443064061E+02  0.17902146095E+02  0.26178795300E+02  0.50528859982E+02  0.30000000402E+02 0.  0.
         12    1    1    2    0    0  0.25443064061E+02 -0.17902146095E+02 -0.26178795300E+02  0.40659140018E+02  0.00000000000E+00 0. -1.
         11    1    3    3    0    0 -0.85704853076E+00  0.11390140813E+02 -0.16333440019E+01  0.11538529057E+02  0.51100000000E-03 0. -1.
        -11    1    3    3    0    0 -0.22149669050E+02  0.33767376244E+01  0.19199372209E+02  0.29506373710E+02  0.51100000000E-03 0.  1.
         12    1    3    3    0    0 -0.24363464797E+01  0.31352676579E+01  0.86127670933E+01  0.94839572152E+01  0.00000000000E+00 0. -1.
</event>
<event>
 7    1  0.3054835E-011  0.5052885E+02  0.7816164E-02  0.1300439E+00
        -11   -1    0    0    0    0  0.00000000000E+00  0.00000000000E+00  0.45593999997E+02  0.45594000000E+02  0.51100000000E-03 0.  1.
         11   -1    0    0    0    0 -0.00000000000E+00 -0.00000000000E+00 -0.45593999997E+02  0.45594000000E+02  0.51100000000E-03 0. -1.
    9900012    2    1    2    0    0  0.86184247612E+01 -0.18153005877E+02  0.35346248975E+02  0.50528853620E+02  0.29999981063E+02 0.  0.
         12    1    1    2    0    0 -0.86184247612E+01  0.18153005877E+02 -0.35346248975E+02  0.40659146380E+02  0.00000000000E+00 0. -1.
         11    1    3    3    0    0 -0.74437686174E+01 -0.14908013740E+02  0.89705570621E+01  0.18924308684E+02  0.51100000000E-03 0. -1.
        -11    1    3    3    0    0  0.54878759468E+01 -0.38501064883E+01  0.84845171376E+01  0.10813285056E+02  0.51100000000E-03 0.  1.
         12    1    3    3    0    0  0.10574317432E+02  0.60511435163E+00  0.17891174776E+02  0.20791259880E+02  0.00000000000E+00 0. -1.
</event>
<event>
 7    1  0.3054835E-011  0.5052886E+02  0.7816164E-02  0.1300439E+00
        -11   -1    0    0    0    0  0.00000000000E+00  0.00000000000E+00  0.45593999997E+02  0.45594000000E+02  0.51100000000E-03 0.  1.
         11   -1    0    0    0    0 -0.00000000000E+00 -0.00000000000E+00 -0.45593999997E+02  0.45594000000E+02  0.51100000000E-03 0. -1.
    9900012    2    1    2    0    0  0.26702631831E+02  0.24210127205E+02  0.18815012589E+02  0.50528861978E+02  0.30000006467E+02 0.  0.
         12    1    1    2    0    0 -0.26702631831E+02 -0.24210127205E+02 -0.18815012589E+02  0.40659138022E+02  0.00000000000E+00 0. -1.
         11    1    3    3    0    0  0.18107840197E+02  0.79539324669E+01 -0.36872533781E+01  0.20118517740E+02  0.51100000000E-03 0. -1.
        -11    1    3    3    0    0  0.74373261535E+00  0.38911627413E+01  0.11288954297E+02  0.11963894645E+02  0.51100000000E-03 0.  1.
        -12    1    3    3    0    0  0.78510590186E+01  0.12365031997E+02  0.11213311669E+02  0.18446449593E+02  0.00000000000E+00 0.  1.
</event>
<event>
 7    1  0.3054835E-011  0.5052884E+02  0.7816164E-02  0.1300439E+00
        -11   -1    0    0    0    0  0.00000000000E+00  0.00000000000E+00  0.45593999997E+02  0.45594000000E+02  0.51100000000E-03 0.  1.
         11   -1    0    0    0    0 -0.00000000000E+00 -0.00000000000E+00 -0.45593999997E+02  0.45594000000E+02  0.51100000000E-03 0. -1.
    9900012    2    1    2    0    0 -0.31419380677E+01 -0.12925277916E+02  0.38421769724E+02  0.50528843925E+02  0.29999951594E+02 0.  0.
         12    1    1    2    0    0  0.31419380677E+01  0.12925277916E+02 -0.38421769724E+02  0.40659156075E+02  0.00000000000E+00 0. -1.
         11    1    3    3    0    0  0.39230829344E+01 -0.92303538528E+01  0.13872575964E+02  0.17118363710E+02  0.51100000000E-03 0. -1.
        -11    1    3    3    0    0 -0.12495212411E+02 -0.26931694902E+01  0.61198080811E+01  0.14171645857E+02  0.51100000000E-03 0.  1.
        -12    1    3    3    0    0  0.54301914085E+01 -0.10017545728E+01  0.18429385679E+02  0.19238834358E+02  0.00000000000E+00 0.  1.
</event>
<event>
 7    1  0.3054835E-011  0.5052887E+02  0.7816164E-02  0.1300439E+00
        -11   -1    0    0    0    0  0.00000000000E+00  0.00000000000E+00  0.45593999997E+02  0.45594000000E+02  0.51100000000E-03 0. -1.
         11   -1    0    0    0    0 -0.00000000000E+00 -0.00000000000E+00 -0.45593999997E+02  0.45594000000E+02  0.51100000000E-03 0.  1.
    9900012    2    1    2    0    0 -0.27254445991E+02  0.24866880843E+02 -0.17087960592E+02  0.50528868352E+02  0.30000025842E+02 0.  0.
         12    1    1    2    0    0  0.27254445991E+02 -0.24866880843E+02  0.17087960592E+02  0.40659131648E+02  0.00000000000E+00 0. -1.
         11    1    3    3    0    0 -0.39624366581E+01  0.11182035275E+02  0.72402417847E+01  0.13898198391E+02  0.51100000000E-03 0. -1.
        -11    1    3    3    0    0 -0.21681651129E+02  0.11158203227E+02 -0.21870501207E+02  0.32755431889E+02  0.51100000000E-03 0.  1.
         12    1    3    3    0    0 -0.16103582042E+01  0.25266423416E+01 -0.24577011700E+01  0.38752380713E+01  0.00000000000E+00 0. -1.
</event>
<event>
 7    1  0.3054835E-011  0.5052884E+02  0.7816164E-02  0.1300439E+00
        -11   -1    0    0    0    0  0.00000000000E+00  0.00000000000E+00  0.45593999997E+02  0.45594000000E+02  0.51100000000E-03 0.  1.
         11   -1    0    0    0    0 -0.00000000000E+00 -0.00000000000E+00 -0.45593999997E+02  0.45594000000E+02  0.51100000000E-03 0. -1.
    9900012    2    1    2    0    0 -0.32993089545E+02  0.21483493050E+02  0.10152966349E+02  0.50528841659E+02  0.29999944707E+02 0.  0.
         12    1    1    2    0    0  0.32993089545E+02 -0.21483493050E+02 -0.10152966349E+02  0.40659158341E+02  0.00000000000E+00 0. -1.
         11    1    3    3    0    0 -0.32069280643E+02  0.17936079098E+02  0.38475515967E+01  0.36945166773E+02  0.51100000000E-03 0. -1.
        -11    1    3    3    0    0  0.13285679991E-01  0.77234696073E+01  0.36079991987E+01  0.85246593928E+01  0.51100000000E-03 0.  1.
         12    1    3    3    0    0 -0.93709458179E+00 -0.41760556552E+01  0.26974155539E+01  0.50590154933E+01  0.00000000000E+00 0. -1.
</event>
<event>
 7    1  0.3054835E-011  0.5052888E+02  0.7816164E-02  0.1300439E+00
        -11   -1    0    0    0    0  0.00000000000E+00  0.00000000000E+00  0.45593999997E+02  0.45594000000E+02  0.51100000000E-03 0. -1.
         11   -1    0    0    0    0 -0.00000000000E+00 -0.00000000000E+00 -0.45593999997E+02  0.45594000000E+02  0.51100000000E-03 0.  1.
    9900012    2    1    2    0    0 -0.12102254785E+02 -0.18788008932E+02 -0.33966310971E+02  0.50528878865E+02  0.30000057797E+02 0.  0.
         12    1    1    2    0    0  0.12102254785E+02  0.18788008932E+02  0.33966310971E+02  0.40659121135E+02  0.00000000000E+00 0. -1.
         11    1    3    3    0    0 -0.10751184152E+01 -0.33440953555E+01  0.45032223902E+01  0.57112052589E+01  0.51100000000E-03 0. -1.
        -11    1    3    3    0    0  0.21966568626E+01 -0.59158288478E+01 -0.14694914376E+02  0.15992587067E+02  0.51100000000E-03 0.  1.
         12    1    3    3    0    0 -0.13223793232E+02 -0.95280847284E+01 -0.23774618986E+02  0.28825086539E+02  0.00000000000E+00 0. -1.
</event>
<event>
 7    1  0.3054835E-011  0.5052886E+02  0.7816164E-02  0.1300439E+00
        -11   -1    0    0    0    0  0.00000000000E+00  0.00000000000E+00  0.45593999997E+02  0.45594000000E+02  0.51100000000E-03 0.  1.
         11   -1    0    0    0    0 -0.00000000000E+00 -0.00000000000E+00 -0.45593999997E+02  0.45594000000E+02  0.51100000000E-03 0. -1.
    9900012    2    1    2    0    0  0.32147820404E+02  0.12487157973E+02  0.21534947372E+02  0.50528862906E+02  0.30000009288E+02 0.  0.
         12    1    1    2    0    0 -0.32147820404E+02 -0.12487157973E+02 -0.21534947372E+02  0.40659137094E+02  0.00000000000E+00 0. -1.
         11    1    3    3    0    0 -0.51364234461E+01 -0.88171554127E+00  0.60609303717E+01  0.79934438976E+01  0.51100000000E-03 0. -1.
        -11    1    3    3    0    0  0.27982867236E+02  0.10143184207E+02  0.11181076749E+02  0.31795306605E+02  0.51100000000E-03 0.  1.
         12    1    3    3    0    0  0.93013766140E+01  0.32256893072E+01  0.42929402509E+01  0.10740112403E+02  0.00000000000E+00 0. -1.
</event>
<event>
 7    1  0.3054835E-011  0.5052885E+02  0.7816164E-02  0.1300439E+00
        -11   -1    0    0    0    0  0.00000000000E+00  0.00000000000E+00  0.45593999997E+02  0.45594000000E+02  0.51100000000E-03 0. -1.
         11   -1    0    0    0    0 -0.00000000000E+00 -0.00000000000E+00 -0.45593999997E+02  0.45594000000E+02  0.51100000000E-03 0.  1.
    9900012    2    1    2    0    0 -0.14794294405E+02  0.30694915023E+02  0.22183717930E+02  0.50528852242E+02  0.29999976875E+02 0.  0.
         12    1    1    2    0    0  0.14794294405E+02 -0.30694915023E+02 -0.22183717930E+02  0.40659147758E+02  0.00000000000E+00 0. -1.
         11    1    3    3    0    0 -0.83448390845E+01  0.12456228459E+02 -0.45731148686E+01  0.15675054916E+02  0.51100000000E-03 0. -1.
        -11    1    3    3    0    0  0.26072799386E+01  0.74779603670E+01  0.12713613724E+02  0.14978443648E+02  0.51100000000E-03 0.  1.
         12    1    3    3    0    0 -0.90567352589E+01  0.10760726198E+02  0.14043219074E+02  0.19875353678E+02  0.00000000000E+00 0. -1.
</event>
<event>
 7    1  0.3054835E-011  0.5052885E+02  0.7816164E-02  0.1300439E+00
        -11   -1    0    0    0    0  0.00000000000E+00  0.00000000000E+00  0.45593999997E+02  0.45594000000E+02  0.51100000000E-03 0. -1.
         11   -1    0    0    0    0 -0.00000000000E+00 -0.00000000000E+00 -0.45593999997E+02  0.45594000000E+02  0.51100000000E-03 0.  1.
    9900012    2    1    2    0    0 -0.43043150819E+01 -0.26503421682E+02 -0.30532079947E+02  0.50528851029E+02  0.29999973187E+02 0.  0.
         12    1    1    2    0    0  0.43043150819E+01  0.26503421682E+02  0.30532079947E+02  0.40659148971E+02  0.00000000000E+00 0. -1.
         11    1    3    3    0    0 -0.85256023867E+00 -0.57982022986E+01  0.24969796598E+01  0.63703152621E+01  0.51100000000E-03 0. -1.
        -11    1    3    3    0    0 -0.10174462479E+02 -0.16463277478E+02 -0.29897316130E+02  0.35614725944E+02  0.51100000000E-03 0.  1.
        -12    1    3    3    0    0  0.67227076352E+01 -0.42419419052E+01 -0.31317434771E+01  0.85438098224E+01  0.00000000000E+00 0.  1.
</event>
<event>
 7    1  0.3054835E-011  0.5052887E+02  0.7816164E-02  0.1300439E+00
        -11   -1    0    0    0    0  0.00000000000E+00  0.00000000000E+00  0.45593999997E+02  0.45594000000E+02  0.51100000000E-03 0.  1.
         11   -1    0    0    0    0 -0.00000000000E+00 -0.00000000000E+00 -0.45593999997E+02  0.45594000000E+02  0.51100000000E-03 0. -1.
    9900012    2    1    2    0    0 -0.97874797322E+01 -0.14442515909E+02  0.36725791614E+02  0.50528870705E+02  0.30000032996E+02 0.  0.
         12    1    1    2    0    0  0.97874797322E+01  0.14442515909E+02 -0.36725791614E+02  0.40659129295E+02  0.00000000000E+00 0. -1.
         11    1    3    3    0    0 -0.11234631555E+02  0.29070754420E+01  0.10141089404E+02  0.15411350633E+02  0.51100000000E-03 0. -1.
        -11    1    3    3    0    0 -0.31046464882E+01 -0.17869340613E+02  0.23055481138E+02  0.29334405985E+02  0.51100000000E-03 0.  1.
         12    1    3    3    0    0  0.45517983105E+01  0.51974926200E+00  0.35292210731E+01  0.57831140865E+01  0.00000000000E+00 0. -1.
</event>
<event>
 7    1  0.3054835E-011  0.5052887E+02  0.7816164E-02  0.1300439E+00
        -11   -1    0    0    0    0  0.00000000000E+00  0.00000000000E+00  0.45593999997E+02  0.45594000000E+02  0.51100000000E-03 0. -1.
         11   -1    0    0    0    0 -0.00000000000E+00 -0.00000000000E+00 -0.45593999997E+02  0.45594000000E+02  0.51100000000E-03 0.  1.
    9900012    2    1    2    0    0  0.26373979332E+02  0.27815717675E+02  0.13559642261E+02  0.50528870228E+02  0.30000031545E+02 0.  0.
         12    1    1    2    0    0 -0.26373979332E+02 -0.27815717675E+02 -0.13559642261E+02  0.40659129772E+02  0.00000000000E+00 0. -1.
         11    1    3    3    0    0  0.26678503425E+02  0.26261508415E+02  0.14395449193E+02  0.40107833736E+02  0.51100000000E-03 0. -1.
        -11    1    3    3    0    0 -0.15826115019E+01 -0.41257301194E+01  0.50219950420E+00  0.44473039909E+01  0.51100000000E-03 0.  1.
         12    1    3    3    0    0  0.12780874085E+01  0.56799393789E+01 -0.13380064360E+01  0.59737325010E+01  0.00000000000E+00 0. -1.
</event>
<event>
 7    1  0.3054835E-011  0.5052886E+02  0.7816164E-02  0.1300439E+00
        -11   -1    0    0    0    0  0.00000000000E+00  0.00000000000E+00  0.45593999997E+02  0.45594000000E+02  0.51100000000E-03 0.  1.
         11   -1    0    0    0    0 -0.00000000000E+00 -0.00000000000E+00 -0.45593999997E+02  0.45594000000E+02  0.51100000000E-03 0. -1.
    9900012    2    1    2    0    0  0.35647382662E+02  0.58526192683E+01  0.18659495150E+02  0.50528858320E+02  0.29999995348E+02 0.  0.
         12    1    1    2    0    0 -0.35647382662E+02 -0.58526192683E+01 -0.18659495150E+02  0.40659141680E+02  0.00000000000E+00 0. -1.
         11    1    3    3    0    0 -0.30205150625E+01  0.28809700903E+01 -0.35206161385E+01  0.54606078563E+01  0.51100000000E-03 0. -1.
        -11    1    3    3    0    0  0.11614633293E+02  0.20519892699E+01  0.96534861778E+01  0.15241396332E+02  0.51100000000E-03 0.  1.
         12    1    3    3    0    0  0.27053264431E+02  0.91965990810E+00  0.12526625110E+02  0.29826854131E+02  0.00000000000E+00 0. -1.
</event>
<event>
 7    1  0.3054835E-011  0.5052886E+02  0.7816164E-02  0.1300439E+00
        -11   -1    0    0    0    0  0.00000000000E+00  0.00000000000E+00  0.45593999997E+02  0.45594000000E+02  0.51100000000E-03 0.  1.
         11   -1    0    0    0    0 -0.00000000000E+00 -0.00000000000E+00 -0.45593999997E+02  0.45594000000E+02  0.51100000000E-03 0. -1.
    9900012    2    1    2    0    0 -0.25933712543E+01 -0.16411828439E+02  0.37109186631E+02  0.50528863024E+02  0.30000009649E+02 0.  0.
         12    1    1    2    0    0  0.25933712543E+01  0.16411828439E+02 -0.37109186631E+02  0.40659136976E+02  0.00000000000E+00 0. -1.
         11    1    3    3    0    0 -0.66913005932E+01 -0.36550090084E+01 -0.21356488358E+01  0.79179284343E+01  0.51100000000E-03 0. -1.
        -11    1    3    3    0    0  0.14675987470E+01 -0.13599469173E+02  0.30188806906E+02  0.33143075755E+02  0.51100000000E-03 0.  1.
        -12    1    3    3    0    0  0.26303305920E+01  0.84264974230E+00  0.90560285615E+01  0.94678588349E+01  0.00000000000E+00 0.  1.
</event>
<event>
 7    1  0.3054835E-011  0.5052887E+02  0.7816164E-02  0.1300439E+00
        -11   -1    0    0    0    0  0.00000000000E+00  0.00000000000E+00  0.45593999997E+02  0.45594000000E+02  0.51100000000E-03 0. -1.
         11   -1    0    0    0    0 -0.00000000000E+00 -0.00000000000E+00 -0.45593999997E+02  0.45594000000E+02  0.51100000000E-03 0.  1.
    9900012    2    1    2    0    0 -0.30849065985E+02 -0.25707750104E+02  0.63727093551E+01  0.50528871725E+02  0.30000036096E+02 0.  0.
         12    1    1    2    0    0  0.30849065985E+02  0.25707750104E+02 -0.63727093551E+01  0.40659128275E+02  0.00000000000E+00 0. -1.
         11    1    3    3    0    0  0.14389490798E+01  0.27317288966E+01 -0.23675300293E+01  0.38907731776E+01  0.51100000000E-03 0.  1.
        -11    1    3    3    0    0 -0.22942933231E+02 -0.23130689341E+02  0.12999765714E+02  0.35077070623E+02  0.51100000000E-03 0. -1.
        -12    1    3    3    0    0 -0.93450818339E+01 -0.53087896592E+01 -0.42595263291E+01  0.11561027925E+02  0.00000000000E+00 0.  1.
</event>
<event>
 7    1  0.3054835E-011  0.5052886E+02  0.7816164E-02  0.1300439E+00
        -11   -1    0    0    0    0  0.00000000000E+00  0.00000000000E+00  0.45593999997E+02  0.45594000000E+02  0.51100000000E-03 0.  1.
         11   -1    0    0    0    0 -0.00000000000E+00 -0.00000000000E+00 -0.45593999997E+02  0.45594000000E+02  0.51100000000E-03 0. -1.
    9900012    2    1    2    0    0  0.31061911786E+02 -0.16714181534E+02  0.20222748656E+02  0.50528858453E+02  0.29999995753E+02 0.  0.
         12    1    1    2    0    0 -0.31061911786E+02  0.16714181534E+02 -0.20222748656E+02  0.40659141547E+02  0.00000000000E+00 0. -1.
         11    1    3    3    0    0  0.69357694854E+01  0.46394883777E+01  0.74483383272E+01  0.11185146171E+02  0.51100000000E-03 0. -1.
        -11    1    3    3    0    0  0.22449620783E+02 -0.11901606751E+02  0.29035433543E+01  0.25574680463E+02  0.51100000000E-03 0.  1.
         12    1    3    3    0    0  0.16765215182E+01 -0.94520631610E+01  0.98708669743E+01  0.13769031819E+02  0.00000000000E+00 0. -1.
</event>
<event>
 7    1  0.3054835E-011  0.5052887E+02  0.7816164E-02  0.1300439E+00
        -11   -1    0    0    0    0  0.00000000000E+00  0.00000000000E+00  0.45593999997E+02  0.45594000000E+02  0.51100000000E-03 0. -1.
         11   -1    0    0    0    0 -0.00000000000E+00 -0.00000000000E+00 -0.45593999997E+02  0.45594000000E+02  0.51100000000E-03 0.  1.
    9900012    2    1    2    0    0 -0.16836039695E+02  0.30918335113E+00 -0.37008336590E+02  0.50528870593E+02  0.30000032654E+02 0.  0.
         12    1    1    2    0    0  0.16836039695E+02 -0.30918335113E+00  0.37008336590E+02  0.40659129407E+02  0.00000000000E+00 0. -1.
         11    1    3    3    0    0 -0.59236274566E+01  0.30585369672E+01 -0.22872579235E+02  0.23824334025E+02  0.51100000000E-03 0.  1.
        -11    1    3    3    0    0 -0.14836794089E+02  0.15565798450E+01 -0.47473527228E+01  0.15655374725E+02  0.51100000000E-03 0. -1.
         12    1    3    3    0    0  0.39243818507E+01 -0.43059334611E+01 -0.93884046329E+01  0.11049161843E+02  0.00000000000E+00 0. -1.
</event>
<event>
 7    1  0.3054835E-011  0.5052886E+02  0.7816164E-02  0.1300439E+00
        -11   -1    0    0    0    0  0.00000000000E+00  0.00000000000E+00  0.45593999997E+02  0.45594000000E+02  0.51100000000E-03 0.  1.
         11   -1    0    0    0    0 -0.00000000000E+00 -0.00000000000E+00 -0.45593999997E+02  0.45594000000E+02  0.51100000000E-03 0. -1.
    9900012    2    1    2    0    0 -0.34193425184E+02 -0.24591623909E+01  0.21861564708E+02  0.50528858138E+02  0.29999994796E+02 0.  0.
         12    1    1    2    0    0  0.34193425184E+02  0.24591623909E+01 -0.21861564708E+02  0.40659141862E+02  0.00000000000E+00 0. -1.
         11    1    3    3    0    0 -0.53727500264E+01  0.45729527022E+01  0.12620533015E+02  0.14458775643E+02  0.51100000000E-03 0. -1.
        -11    1    3    3    0    0 -0.29245878133E+02 -0.23604561827E+01  0.50354859231E+01  0.29769938863E+02  0.51100000000E-03 0.  1.
         12    1    3    3    0    0  0.42520297578E+00 -0.46716589105E+01  0.42055457702E+01  0.63001436311E+01  0.00000000000E+00 0. -1.
</event>
<event>
 7    1  0.3054835E-011  0.5052886E+02  0.7816164E-02  0.1300439E+00
        -11   -1    0    0    0    0  0.00000000000E+00  0.00000000000E+00  0.45593999997E+02  0.45594000000E+02  0.51100000000E-03 0.  1.
         11   -1    0    0    0    0 -0.00000000000E+00 -0.00000000000E+00 -0.45593999997E+02  0.45594000000E+02  0.51100000000E-03 0. -1.
    9900012    2    1    2    0    0 -0.20538897351E+02  0.23572315642E+02  0.25993555009E+02  0.50528864850E+02  0.30000015199E+02 0.  0.
         12    1    1    2    0    0  0.20538897351E+02 -0.23572315642E+02 -0.25993555009E+02  0.40659135150E+02  0.00000000000E+00 0. -1.
         11    1    3    3    0    0  0.14925568646E+01 -0.57671700443E+00 -0.41673770806E+01  0.44640072234E+01  0.51100000000E-03 0. -1.
        -11    1    3    3    0    0 -0.23544193328E+02  0.22446212982E+02  0.27894617433E+02  0.42851735071E+02  0.51100000000E-03 0.  1.
        -12    1    3    3    0    0  0.15127391121E+01  0.17028196650E+01  0.22663146569E+01  0.32131225555E+01  0.00000000000E+00 0.  1.
</event>
<event>
 7    1  0.3054835E-011  0.5052884E+02  0.7816164E-02  0.1300439E+00
        -11   -1    0    0    0    0  0.00000000000E+00  0.00000000000E+00  0.45593999997E+02  0.45594000000E+02  0.51100000000E-03 0. -1.
         11   -1    0    0    0    0 -0.00000000000E+00 -0.00000000000E+00 -0.45593999997E+02  0.45594000000E+02  0.51100000000E-03 0.  1.
    9900012    2    1    2    0    0  0.31183705221E+02  0.26084570019E+02  0.58230665620E+00  0.50528839342E+02  0.29999937664E+02 0.  0.
         12    1    1    2    0    0 -0.31183705221E+02 -0.26084570019E+02 -0.58230665620E+00  0.40659160658E+02  0.00000000000E+00 0. -1.
         11    1    3    3    0    0 -0.17587860557E+01  0.90102958164E+01  0.30430890463E-01  0.91803967991E+01  0.51100000000E-03 0. -1.
        -11    1    3    3    0    0  0.32110553383E+02  0.17675814704E+02  0.48099693902E+01  0.36968336043E+02  0.51100000000E-03 0.  1.
        -12    1    3    3    0    0  0.83193789330E+00 -0.60154050126E+00 -0.42580936245E+01  0.43801064996E+01  0.00000000000E+00 0.  1.
</event>
<event>
 7    1  0.3054835E-011  0.5052885E+02  0.7816164E-02  0.1300439E+00
        -11   -1    0    0    0    0  0.00000000000E+00  0.00000000000E+00  0.45593999997E+02  0.45594000000E+02  0.51100000000E-03 0.  1.
         11   -1    0    0    0    0 -0.00000000000E+00 -0.00000000000E+00 -0.45593999997E+02  0.45594000000E+02  0.51100000000E-03 0. -1.
    9900012    2    1    2    0    0  0.37497409807E+02  0.14934024604E+02 -0.49077145285E+01  0.50528849800E+02  0.29999969452E+02 0.  0.
         12    1    1    2    0    0 -0.37497409807E+02 -0.14934024604E+02  0.49077145285E+01  0.40659150200E+02  0.00000000000E+00 0. -1.
         11    1    3    3    0    0 -0.40537637081E+01 -0.13411859879E+01  0.15916670049E+01  0.45568831640E+01  0.51100000000E-03 0. -1.
        -11    1    3    3    0    0  0.62297378195E+01  0.30174782423E+01  0.21831704802E+01  0.72581706958E+01  0.51100000000E-03 0.  1.
         12    1    3    3    0    0  0.35321435695E+02  0.13257732350E+02 -0.86825520136E+01  0.38713795940E+02  0.00000000000E+00 0. -1.
</event>
<event>
 7    1  0.3054835E-011  0.5052886E+02  0.7816164E-02  0.1300439E+00
        -11   -1    0    0    0    0  0.00000000000E+00  0.00000000000E+00  0.45593999997E+02  0.45594000000E+02  0.51100000000E-03 0.  1.
         11   -1    0    0    0    0 -0.00000000000E+00 -0.00000000000E+00 -0.45593999997E+02  0.45594000000E+02  0.51100000000E-03 0. -1.
    9900012    2    1    2    0    0  0.35151675981E+02  0.24274932163E+01 -0.20288724338E+02  0.50528863476E+02  0.30000011023E+02 0.  0.
         12    1    1    2    0    0 -0.35151675981E+02 -0.24274932163E+01  0.20288724338E+02  0.40659136524E+02  0.00000000000E+00 0. -1.
         11    1    3    3    0    0  0.36658076191E+01  0.79455477848E+01 -0.13698509894E+02  0.16254816168E+02  0.51100000000E-03 0. -1.
        -11    1    3    3    0    0  0.59901275240E+01  0.29306254571E+01 -0.24145534253E+01  0.70922677493E+01  0.51100000000E-03 0.  1.
         12    1    3    3    0    0  0.25495740838E+02 -0.84486800256E+01 -0.41756610192E+01  0.27181779559E+02  0.00000000000E+00 0. -1.
</event>
<event>
 7    1  0.3054835E-011  0.5052887E+02  0.7816164E-02  0.1300439E+00
        -11   -1    0    0    0    0  0.00000000000E+00  0.00000000000E+00  0.45593999997E+02  0.45594000000E+02  0.51100000000E-03 0. -1.
         11   -1    0    0    0    0 -0.00000000000E+00 -0.00000000000E+00 -0.45593999997E+02  0.45594000000E+02  0.51100000000E-03 0.  1.
    9900012    2    1    2    0    0 -0.37224582907E+02  0.15676665574E+02 -0.46623841243E+01  0.50528865211E+02  0.30000016294E+02 0.  0.
         12    1    1    2    0    0  0.37224582907E+02 -0.15676665574E+02  0.46623841243E+01  0.40659134789E+02  0.00000000000E+00 0. -1.
         11    1    3    3    0    0 -0.71881414812E+00 -0.96181105082E-01  0.24321216983E+01  0.25379442076E+01  0.51100000000E-03 0. -1.
        -11    1    3    3    0    0 -0.11098748110E+02  0.24807566585E+01 -0.14450009314E+02  0.18388559831E+02  0.51100000000E-03 0.  1.
        -12    1    3    3    0    0 -0.25407020648E+02  0.13292090020E+02  0.73555034916E+01  0.29602361172E+02  0.00000000000E+00 0.  1.
</event>
<event>
 7    1  0.3054835E-011  0.5052886E+02  0.7816164E-02  0.1300439E+00
        -11   -1    0    0    0    0  0.00000000000E+00  0.00000000000E+00  0.45593999997E+02  0.45594000000E+02  0.51100000000E-03 0.  1.
         11   -1    0    0    0    0 -0.00000000000E+00 -0.00000000000E+00 -0.45593999997E+02  0.45594000000E+02  0.51100000000E-03 0. -1.
    9900012    2    1    2    0    0 -0.17740334192E+02 -0.27582636886E+02  0.24034239780E+02  0.50528855929E+02  0.29999988081E+02 0.  0.
         12    1    1    2    0    0  0.17740334192E+02  0.27582636886E+02 -0.24034239780E+02  0.40659144071E+02  0.00000000000E+00 0. -1.
         11    1    3    3    0    0  0.10851764195E+01  0.23794230215E+00 -0.23471417027E+01  0.25967862512E+01  0.51100000000E-03 0. -1.
        -11    1    3    3    0    0 -0.31949746468E+01 -0.75578027264E+01  0.19911592230E+02  0.21536010551E+02  0.51100000000E-03 0.  1.
        -12    1    3    3    0    0 -0.15630535964E+02 -0.20262776462E+02  0.64697892526E+01  0.26396059127E+02  0.00000000000E+00 0.  1.
</event>
<event>
 7    1  0.3054835E-011  0.5052889E+02  0.7816164E-02  0.1300439E+00
        -11   -1    0    0    0    0  0.00000000000E+00  0.00000000000E+00  0.45593999997E+02  0.45594000000E+02  0.51100000000E-03 0.  1.
         11   -1    0    0    0    0 -0.00000000000E+00 -0.00000000000E+00 -0.45593999997E+02  0.45594000000E+02  0.51100000000E-03 0. -1.
    9900012    2    1    2    0    0  0.11453599101E+01  0.31621101224E+02 -0.25533461206E+02  0.50528886223E+02  0.30000080163E+02 0.  0.
         12    1    1    2    0    0 -0.11453599101E+01 -0.31621101224E+02  0.25533461206E+02  0.40659113777E+02  0.00000000000E+00 0. -1.
         11    1    3    3    0    0 -0.48064536747E+01  0.75805107565E+01 -0.23732503265E+01  0.92843124479E+01  0.51100000000E-03 0. -1.
        -11    1    3    3    0    0  0.73890737948E+01  0.12801859790E+02 -0.25686740501E+02  0.29636036568E+02  0.51100000000E-03 0.  1.
        -12    1    3    3    0    0 -0.14372602100E+01  0.11238730678E+02  0.25265296212E+01  0.11608537207E+02  0.00000000000E+00 0.  1.
</event>
<event>
 7    1  0.3054835E-011  0.5052886E+02  0.7816164E-02  0.1300439E+00
        -11   -1    0    0    0    0  0.00000000000E+00  0.00000000000E+00  0.45593999997E+02  0.45594000000E+02  0.51100000000E-03 0.  1.
         11   -1    0    0    0    0 -0.00000000000E+00 -0.00000000000E+00 -0.45593999997E+02  0.45594000000E+02  0.51100000000E-03 0. -1.
    9900012    2    1    2    0    0 -0.33588726435E+02  0.22102743731E+02  0.60358467912E+01  0.50528864858E+02  0.30000015223E+02 0.  0.
         12    1    1    2    0    0  0.33588726435E+02 -0.22102743731E+02 -0.60358467912E+01  0.40659135142E+02  0.00000000000E+00 0. -1.
         11    1    3    3    0    0 -0.18358483389E+02  0.16014857758E+02  0.66433392389E+00  0.24371108329E+02  0.51100000000E-03 0. -1.
        -11    1    3    3    0    0 -0.12946626273E+02 -0.20034953483E+01 -0.38736550924E+01  0.13661417551E+02  0.51100000000E-03 0.  1.
        -12    1    3    3    0    0 -0.22836167733E+01  0.80913813218E+01  0.92451679597E+01  0.12496338979E+02  0.00000000000E+00 0.  1.
</event>
<event>
 7    1  0.3054835E-011  0.5052886E+02  0.7816164E-02  0.1300439E+00
        -11   -1    0    0    0    0  0.00000000000E+00  0.00000000000E+00  0.45593999997E+02  0.45594000000E+02  0.51100000000E-03 0.  1.
         11   -1    0    0    0    0 -0.00000000000E+00 -0.00000000000E+00 -0.45593999997E+02  0.45594000000E+02  0.51100000000E-03 0. -1.
    9900012    2    1    2    0    0 -0.50004570562E+01  0.64452142077E+01  0.39832402749E+02  0.50528859998E+02  0.30000000450E+02 0.  0.
         12    1    1    2    0    0  0.50004570562E+01 -0.64452142077E+01 -0.39832402749E+02  0.40659140002E+02  0.00000000000E+00 0. -1.
         11    1    3    3    0    0  0.76107649807E+01  0.62979285519E+01  0.19963306464E+01  0.10078342321E+02  0.51100000000E-03 0. -1.
        -11    1    3    3    0    0 -0.25574840466E+01 -0.64709288675E+00  0.18057172213E+02  0.18248860854E+02  0.51100000000E-03 0.  1.
         12    1    3    3    0    0 -0.10053737990E+02  0.79437854255E+00  0.19778899889E+02  0.22201656823E+02  0.00000000000E+00 0. -1.
</event>
<event>
 7    1  0.3054835E-011  0.5052887E+02  0.7816164E-02  0.1300439E+00
        -11   -1    0    0    0    0  0.00000000000E+00  0.00000000000E+00  0.45593999997E+02  0.45594000000E+02  0.51100000000E-03 0.  1.
         11   -1    0    0    0    0 -0.00000000000E+00 -0.00000000000E+00 -0.45593999997E+02  0.45594000000E+02  0.51100000000E-03 0. -1.
    9900012    2    1    2    0    0  0.21411264169E+02 -0.29780450851E+02 -0.17545581370E+02  0.50528869268E+02  0.30000028628E+02 0.  0.
         12    1    1    2    0    0 -0.21411264169E+02  0.29780450851E+02  0.17545581370E+02  0.40659130732E+02  0.00000000000E+00 0. -1.
         11    1    3    3    0    0 -0.34504317067E+01 -0.50529348685E+01 -0.10763425284E+02  0.12380991635E+02  0.51100000000E-03 0. -1.
        -11    1    3    3    0    0  0.20978365085E+02 -0.13397729655E+02 -0.79097274016E+01  0.26118092376E+02  0.51100000000E-03 0.  1.
         12    1    3    3    0    0  0.38833307914E+01 -0.11329786328E+02  0.11275713157E+01  0.12029785257E+02  0.00000000000E+00 0. -1.
</event>
<event>
 7    1  0.3054835E-011  0.5052886E+02  0.7816164E-02  0.1300439E+00
        -11   -1    0    0    0    0  0.00000000000E+00  0.00000000000E+00  0.45593999997E+02  0.45594000000E+02  0.51100000000E-03 0.  1.
         11   -1    0    0    0    0 -0.00000000000E+00 -0.00000000000E+00 -0.45593999997E+02  0.45594000000E+02  0.51100000000E-03 0. -1.
    9900012    2    1    2    0    0 -0.26223919106E+02  0.17254031917E+01  0.31024102971E+02  0.50528856938E+02  0.29999991147E+02 0.  0.
         12    1    1    2    0    0  0.26223919106E+02 -0.17254031917E+01 -0.31024102971E+02  0.40659143062E+02  0.00000000000E+00 0. -1.
         11    1    3    3    0    0 -0.23663425539E+02  0.55607055622E+00  0.82527139619E+01  0.25067393376E+02  0.51100000000E-03 0. -1.
        -11    1    3    3    0    0 -0.24207493623E+01  0.41221679263E+01  0.21847400727E+02  0.22364284354E+02  0.51100000000E-03 0.  1.
        -12    1    3    3    0    0 -0.13974420486E+00 -0.29528352908E+01  0.92398828205E+00  0.30971792074E+01  0.00000000000E+00 0.  1.
</event>
<event>
 7    1  0.3054835E-011  0.5052884E+02  0.7816164E-02  0.1300439E+00
        -11   -1    0    0    0    0  0.00000000000E+00  0.00000000000E+00  0.45593999997E+02  0.45594000000E+02  0.51100000000E-03 0.  1.
         11   -1    0    0    0    0 -0.00000000000E+00 -0.00000000000E+00 -0.45593999997E+02  0.45594000000E+02  0.51100000000E-03 0. -1.
    9900012    2    1    2    0    0 -0.25058237673E+02  0.31494687614E+02  0.57737748600E+01  0.50528842368E+02  0.29999946863E+02 0.  0.
         12    1    1    2    0    0  0.25058237673E+02 -0.31494687614E+02 -0.57737748600E+01  0.40659157632E+02  0.00000000000E+00 0. -1.
         11    1    3    3    0    0 -0.24106352407E+02  0.22995977015E+02  0.15149509871E+02  0.36598344701E+02  0.51100000000E-03 0. -1.
        -11    1    3    3    0    0 -0.95582783530E+00  0.89999653974E+01 -0.68369553517E+01  0.11342704384E+02  0.51100000000E-03 0.  1.
         12    1    3    3    0    0  0.39425688954E-02 -0.50125479890E+00 -0.25387796594E+01  0.25877932831E+01  0.00000000000E+00 0. -1.
</event>
<event>
 7    1  0.3054835E-011  0.5052887E+02  0.7816164E-02  0.1300439E+00
        -11   -1    0    0    0    0  0.00000000000E+00  0.00000000000E+00  0.45593999997E+02  0.45594000000E+02  0.51100000000E-03 0.  1.
         11   -1    0    0    0    0 -0.00000000000E+00 -0.00000000000E+00 -0.45593999997E+02  0.45594000000E+02  0.51100000000E-03 0. -1.
    9900012    2    1    2    0    0 -0.30672036197E+02 -0.34590823031E+01  0.26465565066E+02  0.50528865859E+02  0.30000018264E+02 0.  0.
         12    1    1    2    0    0  0.30672036197E+02  0.34590823031E+01 -0.26465565066E+02  0.40659134141E+02  0.00000000000E+00 0. -1.
         11    1    3    3    0    0 -0.11523854926E+02  0.28428301380E+01 -0.25995689978E+01  0.12150665611E+02  0.51100000000E-03 0. -1.
        -11    1    3    3    0    0 -0.80516792150E+01  0.39905100059E+01  0.16150057618E+02  0.18481830797E+02  0.51100000000E-03 0.  1.
         12    1    3    3    0    0 -0.11096502056E+02 -0.10292422447E+02  0.12915076446E+02  0.19896369450E+02  0.00000000000E+00 0. -1.
</event>
<event>
 7    1  0.3054835E-011  0.5052885E+02  0.7816164E-02  0.1300439E+00
        -11   -1    0    0    0    0  0.00000000000E+00  0.00000000000E+00  0.45593999997E+02  0.45594000000E+02  0.51100000000E-03 0.  1.
         11   -1    0    0    0    0 -0.00000000000E+00 -0.00000000000E+00 -0.45593999997E+02  0.45594000000E+02  0.51100000000E-03 0. -1.
    9900012    2    1    2    0    0 -0.11201738429E+02  0.28676315756E+02  0.26558543866E+02  0.50528852426E+02  0.29999977434E+02 0.  0.
         12    1    1    2    0    0  0.11201738429E+02 -0.28676315756E+02 -0.26558543866E+02  0.40659147574E+02  0.00000000000E+00 0. -1.
         11    1    3    3    0    0  0.39290252049E+01 -0.18646185774E+01 -0.17359925225E+01  0.46827034712E+01  0.51100000000E-03 0. -1.
        -11    1    3    3    0    0 -0.13742175232E+02  0.21747962145E+02  0.14798183301E+02  0.29678400678E+02  0.51100000000E-03 0.  1.
         12    1    3    3    0    0 -0.13885884022E+01  0.87929721882E+01  0.13496353088E+02  0.16167748276E+02  0.00000000000E+00 0. -1.
</event>
<event>
 7    1  0.3054835E-011  0.5052886E+02  0.7816164E-02  0.1300439E+00
        -11   -1    0    0    0    0  0.00000000000E+00  0.00000000000E+00  0.45593999997E+02  0.45594000000E+02  0.51100000000E-03 0.  1.
         11   -1    0    0    0    0 -0.00000000000E+00 -0.00000000000E+00 -0.45593999997E+02  0.45594000000E+02  0.51100000000E-03 0. -1.
    9900012    2    1    2    0    0  0.19531783209E+02 -0.18947879955E+02  0.30210146130E+02  0.50528860323E+02  0.30000001437E+02 0.  0.
         12    1    1    2    0    0 -0.19531783209E+02  0.18947879955E+02 -0.30210146130E+02  0.40659139677E+02  0.00000000000E+00 0. -1.
         11    1    3    3    0    0  0.16578023740E+02 -0.39121770357E+01  0.12466265531E+02  0.21107907922E+02  0.51100000000E-03 0.  1.
        -11    1    3    3    0    0 -0.25250970756E+01 -0.10756605035E+02  0.19353296405E+02  0.22285213688E+02  0.51100000000E-03 0. -1.
         12    1    3    3    0    0  0.54788565443E+01 -0.42790978842E+01 -0.16094158068E+01  0.71357387126E+01  0.00000000000E+00 0. -1.
</event>
<event>
 7    1  0.3054835E-011  0.5052888E+02  0.7816164E-02  0.1300439E+00
        -11   -1    0    0    0    0  0.00000000000E+00  0.00000000000E+00  0.45593999997E+02  0.45594000000E+02  0.51100000000E-03 0.  1.
         11   -1    0    0    0    0 -0.00000000000E+00 -0.00000000000E+00 -0.45593999997E+02  0.45594000000E+02  0.51100000000E-03 0. -1.
    9900012    2    1    2    0    0 -0.28400609283E+02  0.15962956248E+01  0.29052050523E+02  0.50528875478E+02  0.30000047502E+02 0.  0.
         12    1    1    2    0    0  0.28400609283E+02 -0.15962956248E+01 -0.29052050523E+02  0.40659124522E+02  0.00000000000E+00 0. -1.
         11    1    3    3    0    0 -0.10309655733E+01  0.66992492152E+00  0.12858686380E+00  0.12362136775E+01  0.51100000000E-03 0. -1.
        -11    1    3    3    0    0 -0.74077864069E+01  0.94092604501E+01 -0.13501012846E+01  0.12051234601E+02  0.51100000000E-03 0.  1.
        -12    1    3    3    0    0 -0.19961857302E+02 -0.84828897469E+01  0.30273564944E+02  0.37241427199E+02  0.00000000000E+00 0.  1.
</event>
<event>
 7    1  0.3054835E-011  0.5052886E+02  0.7816164E-02  0.1300439E+00
        -11   -1    0    0    0    0  0.00000000000E+00  0.00000000000E+00  0.45593999997E+02  0.45594000000E+02  0.51100000000E-03 0.  1.
         11   -1    0    0    0    0 -0.00000000000E+00 -0.00000000000E+00 -0.45593999997E+02  0.45594000000E+02  0.51100000000E-03 0. -1.
    9900012    2    1    2    0    0  0.37375824682E+02 -0.11824717900E+02  0.10788386567E+02  0.50528861928E+02  0.30000006315E+02 0.  0.
         12    1    1    2    0    0 -0.37375824682E+02  0.11824717900E+02 -0.10788386567E+02  0.40659138072E+02  0.00000000000E+00 0. -1.
         11    1    3    3    0    0  0.19513017787E+02 -0.12331356800E+02 -0.24126966512E+01  0.23208647721E+02  0.51100000000E-03 0. -1.
        -11    1    3    3    0    0  0.12303647191E+02  0.35821632988E+01  0.15896927782E+02  0.20418715466E+02  0.51100000000E-03 0.  1.
        -12    1    3    3    0    0  0.55591597044E+01 -0.30755243993E+01 -0.26958445642E+01  0.69014987404E+01  0.00000000000E+00 0.  1.
</event>
<event>
 7    1  0.3054835E-011  0.5052885E+02  0.7816164E-02  0.1300439E+00
        -11   -1    0    0    0    0  0.00000000000E+00  0.00000000000E+00  0.45593999997E+02  0.45594000000E+02  0.51100000000E-03 0.  1.
         11   -1    0    0    0    0 -0.00000000000E+00 -0.00000000000E+00 -0.45593999997E+02  0.45594000000E+02  0.51100000000E-03 0. -1.
    9900012    2    1    2    0    0  0.14663110350E+02  0.35612098816E+02  0.13036018537E+02  0.50528853839E+02  0.29999981730E+02 0.  0.
         12    1    1    2    0    0 -0.14663110350E+02 -0.35612098816E+02 -0.13036018537E+02  0.40659146161E+02  0.00000000000E+00 0. -1.
         11    1    3    3    0    0  0.93945030668E+01  0.28184279811E+02  0.38926638362E+01  0.29962695945E+02  0.51100000000E-03 0. -1.
        -11    1    3    3    0    0  0.80717920919E+01 -0.16816396394E+01  0.15715193179E+01  0.83935339804E+01  0.51100000000E-03 0.  1.
         12    1    3    3    0    0 -0.28031848087E+01  0.91094586447E+01  0.75718353832E+01  0.12172623914E+02  0.00000000000E+00 0. -1.
</event>
<event>
 7    1  0.3054835E-011  0.5052885E+02  0.7816164E-02  0.1300439E+00
        -11   -1    0    0    0    0  0.00000000000E+00  0.00000000000E+00  0.45593999997E+02  0.45594000000E+02  0.51100000000E-03 0.  1.
         11   -1    0    0    0    0 -0.00000000000E+00 -0.00000000000E+00 -0.45593999997E+02  0.45594000000E+02  0.51100000000E-03 0. -1.
    9900012    2    1    2    0    0 -0.24505630087E+02 -0.88606158752E+01  0.31211052820E+02  0.50528852962E+02  0.29999979065E+02 0.  0.
         12    1    1    2    0    0  0.24505630087E+02  0.88606158752E+01 -0.31211052820E+02  0.40659147038E+02  0.00000000000E+00 0. -1.
         11    1    3    3    0    0  0.18508698930E+01 -0.62992643793E+01  0.38638413183E+01  0.76181179483E+01  0.51100000000E-03 0. -1.
        -11    1    3    3    0    0 -0.60503261004E+01  0.79353363732E+01  0.60579602578E+01  0.11673683738E+02  0.51100000000E-03 0.  1.
        -12    1    3    3    0    0 -0.20306173880E+02 -0.10496687869E+02  0.21289251244E+02  0.31237051276E+02  0.00000000000E+00 0.  1.
</event>
<event>
 7    1  0.3054835E-011  0.5052886E+02  0.7816164E-02  0.1300439E+00
        -11   -1    0    0    0    0  0.00000000000E+00  0.00000000000E+00  0.45593999997E+02  0.45594000000E+02  0.51100000000E-03 0.  1.
         11   -1    0    0    0    0 -0.00000000000E+00 -0.00000000000E+00 -0.45593999997E+02  0.45594000000E+02  0.51100000000E-03 0. -1.
    9900012    2    1    2    0    0 -0.31470999219E+02 -0.25581888394E+02  0.28825091997E+01  0.50528860008E+02  0.30000000479E+02 0.  0.
         12    1    1    2    0    0  0.31470999219E+02  0.25581888394E+02 -0.28825091997E+01  0.40659139992E+02  0.00000000000E+00 0. -1.
         11    1    3    3    0    0 -0.14265160239E+02  0.10157327832E+01 -0.45112088096E+01  0.14995916608E+02  0.51100000000E-03 0. -1.
        -11    1    3    3    0    0 -0.17180884655E+02 -0.14627540098E+02  0.67208068652E+01  0.23543937055E+02  0.51100000000E-03 0.  1.
         12    1    3    3    0    0 -0.24954325613E-01 -0.11970081078E+02  0.67291114411E+00  0.11989006345E+02  0.00000000000E+00 0. -1.
</event>
<event>
 7    1  0.3054835E-011  0.5052886E+02  0.7816164E-02  0.1300439E+00
        -11   -1    0    0    0    0  0.00000000000E+00  0.00000000000E+00  0.45593999997E+02  0.45594000000E+02  0.51100000000E-03 0. -1.
         11   -1    0    0    0    0 -0.00000000000E+00 -0.00000000000E+00 -0.45593999997E+02  0.45594000000E+02  0.51100000000E-03 0.  1.
    9900012    2    1    2    0    0  0.94943783186E-01  0.40604254120E+02 -0.21098177863E+01  0.50528858371E+02  0.29999995503E+02 0.  0.
         12    1    1    2    0    0 -0.94943783186E-01 -0.40604254120E+02  0.21098177863E+01  0.40659141629E+02  0.00000000000E+00 0. -1.
         11    1    3    3    0    0  0.30384049531E+01  0.35004028216E+02 -0.12544360160E+02  0.37307839231E+02  0.51100000000E-03 0.  1.
        -11    1    3    3    0    0 -0.40291852865E+01  0.30826445314E+01  0.49429906711E+01  0.70830917272E+01  0.51100000000E-03 0. -1.
        -12    1    3    3    0    0  0.10857241166E+01  0.25175813725E+01  0.54915517022E+01  0.61379274126E+01  0.00000000000E+00 0.  1.
</event>
<event>
 7    1  0.3054835E-011  0.5052885E+02  0.7816164E-02  0.1300439E+00
        -11   -1    0    0    0    0  0.00000000000E+00  0.00000000000E+00  0.45593999997E+02  0.45594000000E+02  0.51100000000E-03 0. -1.
         11   -1    0    0    0    0 -0.00000000000E+00 -0.00000000000E+00 -0.45593999997E+02  0.45594000000E+02  0.51100000000E-03 0.  1.
    9900012    2    1    2    0    0 -0.57176000663E+01 -0.11193156212E+02 -0.38667665869E+02  0.50528854900E+02  0.29999984955E+02 0.  0.
         12    1    1    2    0    0  0.57176000663E+01  0.11193156212E+02  0.38667665869E+02  0.40659145100E+02  0.00000000000E+00 0. -1.
         11    1    3    3    0    0  0.65485896862E+01  0.30453667215E+01 -0.31222758163E+01  0.78680932812E+01  0.51100000000E-03 0. -1.
        -11    1    3    3    0    0 -0.11200721528E+02 -0.12579408738E+02 -0.16722155814E+02  0.23734535645E+02  0.51100000000E-03 0.  1.
        -12    1    3    3    0    0 -0.10654682250E+01 -0.16591141956E+01 -0.18823234238E+02  0.18926225974E+02  0.00000000000E+00 0.  1.
</event>
<event>
 7    1  0.3054835E-011  0.5052885E+02  0.7816164E-02  0.1300439E+00
        -11   -1    0    0    0    0  0.00000000000E+00  0.00000000000E+00  0.45593999997E+02  0.45594000000E+02  0.51100000000E-03 0. -1.
         11   -1    0    0    0    0 -0.00000000000E+00 -0.00000000000E+00 -0.45593999997E+02  0.45594000000E+02  0.51100000000E-03 0.  1.
    9900012    2    1    2    0    0 -0.24955735343E+02  0.31576763282E+02  0.57693772340E+01  0.50528850728E+02  0.29999972274E+02 0.  0.
         12    1    1    2    0    0  0.24955735343E+02 -0.31576763282E+02 -0.57693772340E+01  0.40659149272E+02  0.00000000000E+00 0. -1.
         11    1    3    3    0    0  0.10009476211E+01  0.17496543255E+02  0.31743765426E+01  0.17810322533E+02  0.51100000000E-03 0. -1.
        -11    1    3    3    0    0 -0.86621340715E+01 -0.10899391127E+01 -0.26486692568E+01  0.91233756382E+01  0.51100000000E-03 0.  1.
        -12    1    3    3    0    0 -0.17294548892E+02  0.15170159139E+02  0.52436699483E+01  0.23595152558E+02  0.00000000000E+00 0.  1.
</event>
<event>
 7    1  0.3054835E-011  0.5052886E+02  0.7816164E-02  0.1300439E+00
        -11   -1    0    0    0    0  0.00000000000E+00  0.00000000000E+00  0.45593999997E+02  0.45594000000E+02  0.51100000000E-03 0. -1.
         11   -1    0    0    0    0 -0.00000000000E+00 -0.00000000000E+00 -0.45593999997E+02  0.45594000000E+02  0.51100000000E-03 0.  1.
    9900012    2    1    2    0    0 -0.36366579082E+02  0.18776175802E+01 -0.18086235268E+02  0.50528862920E+02  0.30000009332E+02 0.  0.
         12    1    1    2    0    0  0.36366579082E+02 -0.18776175802E+01  0.18086235268E+02  0.40659137080E+02  0.00000000000E+00 0. -1.
         11    1    3    3    0    0 -0.22817772810E+01  0.22125351417E+01  0.46335968178E+01  0.56189001633E+01  0.51100000000E-03 0. -1.
        -11    1    3    3    0    0 -0.35568569019E+02 -0.21146718662E+01 -0.23233040385E+02  0.42536679525E+02  0.51100000000E-03 0.  1.
        -12    1    3    3    0    0  0.14837672180E+01  0.17797543048E+01  0.51320829984E+00  0.23732832325E+01  0.00000000000E+00 0.  1.
</event>
<event>
 7    1  0.3054835E-011  0.5052886E+02  0.7816164E-02  0.1300439E+00
        -11   -1    0    0    0    0  0.00000000000E+00  0.00000000000E+00  0.45593999997E+02  0.45594000000E+02  0.51100000000E-03 0.  1.
         11   -1    0    0    0    0 -0.00000000000E+00 -0.00000000000E+00 -0.45593999997E+02  0.45594000000E+02  0.51100000000E-03 0. -1.
    9900012    2    1    2    0    0 -0.11326922678E+02 -0.36568045204E+02  0.13698356243E+02  0.50528855012E+02  0.29999985293E+02 0.  0.
         12    1    1    2    0    0  0.11326922678E+02  0.36568045204E+02 -0.13698356243E+02  0.40659144988E+02  0.00000000000E+00 0. -1.
         11    1    3    3    0    0 -0.46050008241E+01 -0.90115474951E+01 -0.59136463975E+01  0.11721144774E+02  0.51100000000E-03 0. -1.
        -11    1    3    3    0    0 -0.19765362122E+01 -0.21274497211E+01  0.11254496915E+02  0.11623099362E+02  0.51100000000E-03 0.  1.
        -12    1    3    3    0    0 -0.47453856413E+01 -0.25429047988E+02  0.83575057260E+01  0.27184610875E+02  0.00000000000E+00 0.  1.
</event>
<event>
 7    1  0.3054835E-011  0.5052886E+02  0.7816164E-02  0.1300439E+00
        -11   -1    0    0    0    0  0.00000000000E+00  0.00000000000E+00  0.45593999997E+02  0.45594000000E+02  0.51100000000E-03 0.  1.
         11   -1    0    0    0    0 -0.00000000000E+00 -0.00000000000E+00 -0.45593999997E+02  0.45594000000E+02  0.51100000000E-03 0. -1.
    9900012    2    1    2    0    0 -0.11539731749E+02  0.25167314628E+02  0.29775939343E+02  0.50528859598E+02  0.29999999235E+02 0.  0.
         12    1    1    2    0    0  0.11539731749E+02 -0.25167314628E+02 -0.29775939343E+02  0.40659140402E+02  0.00000000000E+00 0. -1.
         11    1    3    3    0    0 -0.78086605229E+00  0.40083638478E+01 -0.32100370930E+01  0.51943306525E+01  0.51100000000E-03 0. -1.
        -11    1    3    3    0    0 -0.15617361789E+02  0.14768375992E+02  0.29696248463E+02  0.36658888305E+02  0.51100000000E-03 0.  1.
        -12    1    3    3    0    0  0.48584960916E+01  0.63905747885E+01  0.32897279730E+01  0.86756406412E+01  0.00000000000E+00 0.  1.
</event>
<event>
 7    1  0.3054835E-011  0.5052884E+02  0.7816164E-02  0.1300439E+00
        -11   -1    0    0    0    0  0.00000000000E+00  0.00000000000E+00  0.45593999997E+02  0.45594000000E+02  0.51100000000E-03 0.  1.
         11   -1    0    0    0    0 -0.00000000000E+00 -0.00000000000E+00 -0.45593999997E+02  0.45594000000E+02  0.51100000000E-03 0. -1.
    9900012    2    1    2    0    0  0.10404076073E+02 -0.19672848628E+02  0.34027957106E+02  0.50528835758E+02  0.29999926770E+02 0.  0.
         12    1    1    2    0    0 -0.10404076073E+02  0.19672848628E+02 -0.34027957106E+02  0.40659164242E+02  0.00000000000E+00 0. -1.
         11    1    3    3    0    0  0.44763031625E+01 -0.35568289976E+01 -0.48540122232E+01  0.74999838296E+01  0.51100000000E-03 0. -1.
        -11    1    3    3    0    0  0.68124969389E+01 -0.94014952958E+01  0.26019392750E+02  0.28492227495E+02  0.51100000000E-03 0.  1.
        -12    1    3    3    0    0 -0.88472402850E+00 -0.67145243345E+01  0.12862576579E+02  0.14536624433E+02  0.00000000000E+00 0.  1.
</event>
<event>
 7    1  0.3054835E-011  0.5052884E+02  0.7816164E-02  0.1300439E+00
        -11   -1    0    0    0    0  0.00000000000E+00  0.00000000000E+00  0.45593999997E+02  0.45594000000E+02  0.51100000000E-03 0. -1.
         11   -1    0    0    0    0 -0.00000000000E+00 -0.00000000000E+00 -0.45593999997E+02  0.45594000000E+02  0.51100000000E-03 0.  1.
    9900012    2    1    2    0    0  0.12122432275E+01  0.40340580102E+02 -0.49331149215E+01  0.50528836710E+02  0.29999929665E+02 0.  0.
         12    1    1    2    0    0 -0.12122432275E+01 -0.40340580102E+02  0.49331149215E+01  0.40659163290E+02  0.00000000000E+00 0. -1.
         11    1    3    3    0    0 -0.59589958708E+01  0.99634252560E+01 -0.12888269822E+01  0.11680776938E+02  0.51100000000E-03 0. -1.
        -11    1    3    3    0    0  0.15263827909E+02  0.19264599725E+02 -0.48348200518E+01  0.25049645310E+02  0.51100000000E-03 0.  1.
        -12    1    3    3    0    0 -0.80925888102E+01  0.11112555121E+02  0.11905321125E+01  0.13798414462E+02  0.00000000000E+00 0.  1.
</event>
<event>
 7    1  0.3054835E-011  0.5052886E+02  0.7816164E-02  0.1300439E+00
        -11   -1    0    0    0    0  0.00000000000E+00  0.00000000000E+00  0.45593999997E+02  0.45594000000E+02  0.51100000000E-03 0.  1.
         11   -1    0    0    0    0 -0.00000000000E+00 -0.00000000000E+00 -0.45593999997E+02  0.45594000000E+02  0.51100000000E-03 0. -1.
    9900012    2    1    2    0    0  0.95373373051E+01  0.31790205308E+01  0.39396680959E+02  0.50528862713E+02  0.30000008701E+02 0.  0.
         12    1    1    2    0    0 -0.95373373051E+01 -0.31790205308E+01 -0.39396680959E+02  0.40659137287E+02  0.00000000000E+00 0. -1.
         11    1    3    3    0    0  0.60061151961E+00  0.17819041152E+00 -0.42247068346E+00  0.75562408627E+00  0.51100000000E-03 0. -1.
        -11    1    3    3    0    0 -0.88821060518E+01 -0.59885676654E+00  0.43308393229E+01  0.98998286270E+01  0.51100000000E-03 0.  1.
        -12    1    3    3    0    0  0.17818831837E+02  0.35996868858E+01  0.35488312319E+02  0.39873409999E+02  0.00000000000E+00 0.  1.
</event>
<event>
 7    1  0.3054835E-011  0.5052886E+02  0.7816164E-02  0.1300439E+00
        -11   -1    0    0    0    0  0.00000000000E+00  0.00000000000E+00  0.45593999997E+02  0.45594000000E+02  0.51100000000E-03 0. -1.
         11   -1    0    0    0    0 -0.00000000000E+00 -0.00000000000E+00 -0.45593999997E+02  0.45594000000E+02  0.51100000000E-03 0.  1.
    9900012    2    1    2    0    0 -0.32796636062E+02 -0.47186331229E+01 -0.23564393307E+02  0.50528862436E+02  0.30000007860E+02 0.  0.
         12    1    1    2    0    0  0.32796636062E+02  0.47186331229E+01  0.23564393307E+02  0.40659137564E+02  0.00000000000E+00 0. -1.
         11    1    3    3    0    0 -0.55889994588E+01 -0.56651315342E+01  0.23305665667E+00  0.79614663170E+01  0.51100000000E-03 0. -1.
        -11    1    3    3    0    0  0.66988639109E+00  0.65730569944E+01 -0.65656288440E+01  0.93145750524E+01  0.51100000000E-03 0.  1.
        -12    1    3    3    0    0 -0.27877522994E+02 -0.56265585830E+01 -0.17231821120E+02  0.33252821067E+02  0.00000000000E+00 0.  1.
</event>
<event>
 7    1  0.3054835E-011  0.5052886E+02  0.7816164E-02  0.1300439E+00
        -11   -1    0    0    0    0  0.00000000000E+00  0.00000000000E+00  0.45593999997E+02  0.45594000000E+02  0.51100000000E-03 0.  1.
         11   -1    0    0    0    0 -0.00000000000E+00 -0.00000000000E+00 -0.45593999997E+02  0.45594000000E+02  0.51100000000E-03 0. -1.
    9900012    2    1    2    0    0 -0.27550542811E+02 -0.18280049542E+02  0.23663753479E+02  0.50528857742E+02  0.29999993594E+02 0.  0.
         12    1    1    2    0    0  0.27550542811E+02  0.18280049542E+02 -0.23663753479E+02  0.40659142258E+02  0.00000000000E+00 0. -1.
         11    1    3    3    0    0  0.19884851844E+01 -0.95358867216E+01  0.30399708335E+01  0.10204343772E+02  0.51100000000E-03 0. -1.
        -11    1    3    3    0    0 -0.26234564845E+02 -0.11951872909E+02  0.13479334163E+02  0.31824394862E+02  0.51100000000E-03 0.  1.
         12    1    3    3    0    0 -0.33044631508E+01  0.32077100889E+01  0.71444484821E+01  0.85001191076E+01  0.00000000000E+00 0. -1.
</event>
<event>
 7    1  0.3054835E-011  0.5052887E+02  0.7816164E-02  0.1300439E+00
        -11   -1    0    0    0    0  0.00000000000E+00  0.00000000000E+00  0.45593999997E+02  0.45594000000E+02  0.51100000000E-03 0. -1.
         11   -1    0    0    0    0 -0.00000000000E+00 -0.00000000000E+00 -0.45593999997E+02  0.45594000000E+02  0.51100000000E-03 0.  1.
    9900012    2    1    2    0    0 -0.25542008504E+02 -0.25007748340E+02 -0.19374808118E+02  0.50528869844E+02  0.30000030378E+02 0.  0.
         12    1    1    2    0    0  0.25542008504E+02  0.25007748340E+02  0.19374808118E+02  0.40659130156E+02  0.00000000000E+00 0. -1.
         11    1    3    3    0    0  0.47329425539E+01 -0.11964707846E+02 -0.27660165488E+01  0.13160768475E+02  0.51100000000E-03 0. -1.
        -11    1    3    3    0    0 -0.21753789280E+02 -0.79617369262E+01 -0.14157096739E+02  0.27148480460E+02  0.51100000000E-03 0.  1.
         12    1    3    3    0    0 -0.85211617772E+01 -0.50813035679E+01 -0.24516948309E+01  0.10219620909E+02  0.00000000000E+00 0. -1.
</event>
<event>
 7    1  0.3054835E-011  0.5052886E+02  0.7816164E-02  0.1300439E+00
        -11   -1    0    0    0    0  0.00000000000E+00  0.00000000000E+00  0.45593999997E+02  0.45594000000E+02  0.51100000000E-03 0.  1.
         11   -1    0    0    0    0 -0.00000000000E+00 -0.00000000000E+00 -0.45593999997E+02  0.45594000000E+02  0.51100000000E-03 0. -1.
    9900012    2    1    2    0    0 -0.32753202050E+01  0.17934192469E+02  0.36342847122E+02  0.50528861803E+02  0.30000005937E+02 0.  0.
         12    1    1    2    0    0  0.32753202050E+01 -0.17934192469E+02 -0.36342847122E+02  0.40659138197E+02  0.00000000000E+00 0. -1.
         11    1    3    3    0    0 -0.43535033243E+01  0.21435164559E+02  0.16256294576E+02  0.27252273015E+02  0.51100000000E-03 0. -1.
        -11    1    3    3    0    0  0.29778829372E+01 -0.54552610747E+01  0.50872245268E+01  0.80316569790E+01  0.51100000000E-03 0.  1.
         12    1    3    3    0    0 -0.18996998179E+01  0.19542889843E+01  0.14999328020E+02  0.15244931810E+02  0.00000000000E+00 0. -1.
</event>
<event>
 7    1  0.3054835E-011  0.5052886E+02  0.7816164E-02  0.1300439E+00
        -11   -1    0    0    0    0  0.00000000000E+00  0.00000000000E+00  0.45593999997E+02  0.45594000000E+02  0.51100000000E-03 0.  1.
         11   -1    0    0    0    0 -0.00000000000E+00 -0.00000000000E+00 -0.45593999997E+02  0.45594000000E+02  0.51100000000E-03 0. -1.
    9900012    2    1    2    0    0  0.10814084535E+02  0.37894310842E+01  0.39011040754E+02  0.50528861876E+02  0.30000006158E+02 0.  0.
         12    1    1    2    0    0 -0.10814084535E+02 -0.37894310842E+01 -0.39011040754E+02  0.40659138124E+02  0.00000000000E+00 0. -1.
         11    1    3    3    0    0 -0.38692624446E+01  0.12195590645E+02  0.22237983168E+02  0.25656023048E+02  0.51100000000E-03 0. -1.
        -11    1    3    3    0    0  0.84631274258E+01 -0.80690144330E+01  0.13415263799E+02  0.17796146291E+02  0.51100000000E-03 0.  1.
         12    1    3    3    0    0  0.62202195542E+01 -0.33714512734E+00  0.33577937875E+01  0.70766925367E+01  0.00000000000E+00 0. -1.
</event>
<event>
 7    1  0.3054835E-011  0.5052887E+02  0.7816164E-02  0.1300439E+00
        -11   -1    0    0    0    0  0.00000000000E+00  0.00000000000E+00  0.45593999997E+02  0.45594000000E+02  0.51100000000E-03 0. -1.
         11   -1    0    0    0    0 -0.00000000000E+00 -0.00000000000E+00 -0.45593999997E+02  0.45594000000E+02  0.51100000000E-03 0.  1.
    9900012    2    1    2    0    0  0.29854057911E+02 -0.12528348045E+01 -0.27574094338E+02  0.50528867602E+02  0.30000023563E+02 0.  0.
         12    1    1    2    0    0 -0.29854057911E+02  0.12528348045E+01  0.27574094338E+02  0.40659132398E+02  0.00000000000E+00 0. -1.
         11    1    3    3    0    0  0.35736564673E+01  0.10931202365E+02 -0.50207657485E+01  0.12548716853E+02  0.51100000000E-03 0. -1.
        -11    1    3    3    0    0  0.13990506743E+02 -0.89212598141E+01 -0.17981823774E+02  0.24467716324E+02  0.51100000000E-03 0.  1.
         12    1    3    3    0    0  0.12289894700E+02 -0.32627773556E+01 -0.45715048158E+01  0.13512434425E+02  0.00000000000E+00 0. -1.
</event>
<event>
 7    1  0.3054835E-011  0.5052887E+02  0.7816164E-02  0.1300439E+00
        -11   -1    0    0    0    0  0.00000000000E+00  0.00000000000E+00  0.45593999997E+02  0.45594000000E+02  0.51100000000E-03 0.  1.
         11   -1    0    0    0    0 -0.00000000000E+00 -0.00000000000E+00 -0.45593999997E+02  0.45594000000E+02  0.51100000000E-03 0. -1.
    9900012    2    1    2    0    0  0.35931925712E+02  0.18927174829E+02 -0.19554517606E+01  0.50528867889E+02  0.30000024437E+02 0.  0.
         12    1    1    2    0    0 -0.35931925712E+02 -0.18927174829E+02  0.19554517606E+01  0.40659132111E+02  0.00000000000E+00 0. -1.
         11    1    3    3    0    0  0.81004633829E+01 -0.40004491268E+01 -0.34939781847E+01  0.96865362256E+01  0.51100000000E-03 0. -1.
        -11    1    3    3    0    0  0.30080560146E+02  0.23795578821E+02  0.97667021758E+00  0.38366959159E+02  0.51100000000E-03 0.  1.
         12    1    3    3    0    0 -0.22490978172E+01 -0.86795486530E+00  0.56185620659E+00  0.24753725045E+01  0.00000000000E+00 0. -1.
</event>
<event>
 7    1  0.3054835E-011  0.5052886E+02  0.7816164E-02  0.1300439E+00
        -11   -1    0    0    0    0  0.00000000000E+00  0.00000000000E+00  0.45593999997E+02  0.45594000000E+02  0.51100000000E-03 0.  1.
         11   -1    0    0    0    0 -0.00000000000E+00 -0.00000000000E+00 -0.45593999997E+02  0.45594000000E+02  0.51100000000E-03 0. -1.
    9900012    2    1    2    0    0  0.45492796847E-01  0.24772985912E+02  0.32240695274E+02  0.50528864098E+02  0.30000012911E+02 0.  0.
         12    1    1    2    0    0 -0.45492796847E-01 -0.24772985912E+02 -0.32240695274E+02  0.40659135902E+02  0.00000000000E+00 0. -1.
         11    1    3    3    0    0  0.71603401445E+01  0.20436902554E+02  0.95688805741E+01  0.23674900901E+02  0.51100000000E-03 0. -1.
        -11    1    3    3    0    0 -0.33573099158E+01  0.67485767415E+01  0.20591696205E+02  0.21927899369E+02  0.51100000000E-03 0.  1.
         12    1    3    3    0    0 -0.37575374319E+01 -0.24124933832E+01  0.20801184949E+01  0.49260638271E+01  0.00000000000E+00 0. -1.
</event>
<event>
 7    1  0.3054835E-011  0.5052886E+02  0.7816164E-02  0.1300439E+00
        -11   -1    0    0    0    0  0.00000000000E+00  0.00000000000E+00  0.45593999997E+02  0.45594000000E+02  0.51100000000E-03 0.  1.
         11   -1    0    0    0    0 -0.00000000000E+00 -0.00000000000E+00 -0.45593999997E+02  0.45594000000E+02  0.51100000000E-03 0. -1.
    9900012    2    1    2    0    0  0.35470126062E+02 -0.11889059489E+02 -0.15927517526E+02  0.50528863352E+02  0.30000010645E+02 0.  0.
         12    1    1    2    0    0 -0.35470126062E+02  0.11889059489E+02  0.15927517526E+02  0.40659136648E+02  0.00000000000E+00 0. -1.
         11    1    3    3    0    0  0.85236959741E+01  0.71594123443E+01 -0.55930781890E+01  0.12457652350E+02  0.51100000000E-03 0. -1.
        -11    1    3    3    0    0  0.27290767311E+02 -0.17286144529E+02 -0.13028963100E+02  0.34833183214E+02  0.51100000000E-03 0.  1.
        -12    1    3    3    0    0 -0.34433722254E+00 -0.17623273044E+01  0.26945237629E+01  0.32380277886E+01  0.00000000000E+00 0.  1.
</event>
<event>
 7    1  0.3054835E-011  0.5052887E+02  0.7816164E-02  0.1300439E+00
        -11   -1    0    0    0    0  0.00000000000E+00  0.00000000000E+00  0.45593999997E+02  0.45594000000E+02  0.51100000000E-03 0.  1.
         11   -1    0    0    0    0 -0.00000000000E+00 -0.00000000000E+00 -0.45593999997E+02  0.45594000000E+02  0.51100000000E-03 0. -1.
    9900012    2    1    2    0    0 -0.16753063990E+02  0.22917775361E+02  0.29107994949E+02  0.50528868793E+02  0.30000027183E+02 0.  0.
         12    1    1    2    0    0  0.16753063990E+02 -0.22917775361E+02 -0.29107994949E+02  0.40659131207E+02  0.00000000000E+00 0. -1.
         11    1    3    3    0    0  0.52102765558E+00 -0.21056010001E+01  0.52870128315E+00  0.22326107358E+01  0.51100000000E-03 0. -1.
        -11    1    3    3    0    0 -0.16944618832E+02  0.16589697589E+02  0.31443724024E+02  0.39383320761E+02  0.51100000000E-03 0.  1.
        -12    1    3    3    0    0 -0.32947281348E+00  0.84336787720E+01 -0.28644303574E+01  0.89129372957E+01  0.00000000000E+00 0.  1.
</event>
<event>
 7    1  0.3054835E-011  0.5052888E+02  0.7816164E-02  0.1300439E+00
        -11   -1    0    0    0    0  0.00000000000E+00  0.00000000000E+00  0.45593999997E+02  0.45594000000E+02  0.51100000000E-03 0. -1.
         11   -1    0    0    0    0 -0.00000000000E+00 -0.00000000000E+00 -0.45593999997E+02  0.45594000000E+02  0.51100000000E-03 0.  1.
    9900012    2    1    2    0    0 -0.36609445981E+02  0.11605748841E+02 -0.13349872326E+02  0.50528880084E+02  0.30000061504E+02 0.  0.
         12    1    1    2    0    0  0.36609445981E+02 -0.11605748841E+02  0.13349872326E+02  0.40659119916E+02  0.00000000000E+00 0. -1.
         11    1    3    3    0    0 -0.14710734051E+02  0.16668357076E+01  0.64932882920E+01  0.16166224999E+02  0.51100000000E-03 0. -1.
        -11    1    3    3    0    0 -0.93099283165E+01  0.11175384984E+02 -0.63605103067E+01  0.15875140517E+02  0.51100000000E-03 0.  1.
         12    1    3    3    0    0 -0.12588783613E+02 -0.12364718508E+01 -0.13482650312E+02  0.18487514569E+02  0.00000000000E+00 0. -1.
</event>
<event>
 7    1  0.3054835E-011  0.5052886E+02  0.7816164E-02  0.1300439E+00
        -11   -1    0    0    0    0  0.00000000000E+00  0.00000000000E+00  0.45593999997E+02  0.45594000000E+02  0.51100000000E-03 0.  1.
         11   -1    0    0    0    0 -0.00000000000E+00 -0.00000000000E+00 -0.45593999997E+02  0.45594000000E+02  0.51100000000E-03 0. -1.
    9900012    2    1    2    0    0 -0.23938146086E+02 -0.30438353918E+02  0.12395071986E+02  0.50528855434E+02  0.29999986579E+02 0.  0.
         12    1    1    2    0    0  0.23938146086E+02  0.30438353918E+02 -0.12395071986E+02  0.40659144566E+02  0.00000000000E+00 0. -1.
         11    1    3    3    0    0 -0.24336369333E+01  0.54609695656E+00  0.66472790037E+01  0.70997978157E+01  0.51100000000E-03 0. -1.
        -11    1    3    3    0    0 -0.24942149439E+02 -0.26996537276E+02  0.17112786431E+01  0.36794732210E+02  0.51100000000E-03 0.  1.
        -12    1    3    3    0    0  0.34376402873E+01 -0.39879135988E+01  0.40365143396E+01  0.66343254088E+01  0.00000000000E+00 0.  1.
</event>
<event>
 7    1  0.3054835E-011  0.5052886E+02  0.7816164E-02  0.1300439E+00
        -11   -1    0    0    0    0  0.00000000000E+00  0.00000000000E+00  0.45593999997E+02  0.45594000000E+02  0.51100000000E-03 0.  1.
         11   -1    0    0    0    0 -0.00000000000E+00 -0.00000000000E+00 -0.45593999997E+02  0.45594000000E+02  0.51100000000E-03 0. -1.
    9900012    2    1    2    0    0 -0.88437749052E+01 -0.25194000952E+02  0.30662931179E+02  0.50528863425E+02  0.30000010866E+02 0.  0.
         12    1    1    2    0    0  0.88437749052E+01  0.25194000952E+02 -0.30662931179E+02  0.40659136575E+02  0.00000000000E+00 0. -1.
         11    1    3    3    0    0 -0.23821019863E+01 -0.13600718038E+01  0.19767838187E+02  0.19957245101E+02  0.51100000000E-03 0. -1.
        -11    1    3    3    0    0 -0.63465220528E+01 -0.76589270389E+01 -0.16742927776E+01  0.10086662586E+02  0.51100000000E-03 0.  1.
        -12    1    3    3    0    0 -0.11515086599E+00 -0.16175002110E+02  0.12569385770E+02  0.20484955738E+02  0.00000000000E+00 0.  1.
</event>
<event>
 7    1  0.3054835E-011  0.5052886E+02  0.7816164E-02  0.1300439E+00
        -11   -1    0    0    0    0  0.00000000000E+00  0.00000000000E+00  0.45593999997E+02  0.45594000000E+02  0.51100000000E-03 0.  1.
         11   -1    0    0    0    0 -0.00000000000E+00 -0.00000000000E+00 -0.45593999997E+02  0.45594000000E+02  0.51100000000E-03 0. -1.
    9900012    2    1    2    0    0  0.26076752150E+02 -0.31076921255E+02 -0.27190649156E+01  0.50528863863E+02  0.30000012199E+02 0.  0.
         12    1    1    2    0    0 -0.26076752150E+02  0.31076921255E+02  0.27190649156E+01  0.40659136137E+02  0.00000000000E+00 0. -1.
         11    1    3    3    0    0  0.13237913140E+02 -0.11534201783E+02  0.12773428982E+02  0.21712683926E+02  0.51100000000E-03 0.  1.
        -11    1    3    3    0    0  0.38346066496E+01 -0.11782043760E+02 -0.84868161987E+01  0.15018216031E+02  0.51100000000E-03 0. -1.
        -12    1    3    3    0    0  0.90042323605E+01 -0.77606757123E+01 -0.70056776991E+01  0.13797963905E+02  0.00000000000E+00 0.  1.
</event>
<event>
 7    1  0.3054835E-011  0.5052886E+02  0.7816164E-02  0.1300439E+00
        -11   -1    0    0    0    0  0.00000000000E+00  0.00000000000E+00  0.45593999997E+02  0.45594000000E+02  0.51100000000E-03 0.  1.
         11   -1    0    0    0    0 -0.00000000000E+00 -0.00000000000E+00 -0.45593999997E+02  0.45594000000E+02  0.51100000000E-03 0. -1.
    9900012    2    1    2    0    0 -0.40391663699E+01  0.16064524984E+02  0.37131952212E+02  0.50528859540E+02  0.29999999056E+02 0.  0.
         12    1    1    2    0    0  0.40391663699E+01 -0.16064524984E+02 -0.37131952212E+02  0.40659140460E+02  0.00000000000E+00 0. -1.
         11    1    3    3    0    0 -0.34867795169E+01 -0.40181244078E+01  0.26642220208E+02  0.27168195616E+02  0.51100000000E-03 0. -1.
        -11    1    3    3    0    0 -0.60012806955E+00  0.68081912283E+01  0.66642833034E+01  0.95459045517E+01  0.51100000000E-03 0.  1.
         12    1    3    3    0    0  0.47741216541E-01  0.13274458163E+02  0.38254487007E+01  0.13814759372E+02  0.00000000000E+00 0. -1.
</event>
<event>
 7    1  0.3054835E-011  0.5052886E+02  0.7816164E-02  0.1300439E+00
        -11   -1    0    0    0    0  0.00000000000E+00  0.00000000000E+00  0.45593999997E+02  0.45594000000E+02  0.51100000000E-03 0.  1.
         11   -1    0    0    0    0 -0.00000000000E+00 -0.00000000000E+00 -0.45593999997E+02  0.45594000000E+02  0.51100000000E-03 0. -1.
    9900012    2    1    2    0    0 -0.38761923968E+01  0.27751032333E+02  0.29462202494E+02  0.50528855410E+02  0.29999986504E+02 0.  0.
         12    1    1    2    0    0  0.38761923968E+01 -0.27751032333E+02 -0.29462202494E+02  0.40659144590E+02  0.00000000000E+00 0. -1.
         11    1    3    3    0    0  0.25719816668E+01 -0.54802923057E+01  0.23258249662E+01  0.64852259394E+01  0.51100000000E-03 0. -1.
        -11    1    3    3    0    0 -0.30959347445E+01  0.24572884355E+02  0.15746960815E+02  0.29349245861E+02  0.51100000000E-03 0.  1.
         12    1    3    3    0    0 -0.33522393190E+01  0.86584402837E+01  0.11389416713E+02  0.14694383609E+02  0.00000000000E+00 0. -1.
</event>
<event>
 7    1  0.3054835E-011  0.5052885E+02  0.7816164E-02  0.1300439E+00
        -11   -1    0    0    0    0  0.00000000000E+00  0.00000000000E+00  0.45593999997E+02  0.45594000000E+02  0.51100000000E-03 0.  1.
         11   -1    0    0    0    0 -0.00000000000E+00 -0.00000000000E+00 -0.45593999997E+02  0.45594000000E+02  0.51100000000E-03 0. -1.
    9900012    2    1    2    0    0  0.32815338451E+02 -0.21207955405E+02  0.11249124882E+02  0.50528848254E+02  0.29999964752E+02 0.  0.
         12    1    1    2    0    0 -0.32815338451E+02  0.21207955405E+02 -0.11249124882E+02  0.40659151746E+02  0.00000000000E+00 0. -1.
         11    1    3    3    0    0  0.27686249313E+01 -0.33035229394E+01  0.69995055778E+01  0.82201962517E+01  0.51100000000E-03 0. -1.
        -11    1    3    3    0    0  0.14607241143E+02 -0.16689425789E+02 -0.68976638197E+01  0.23226842089E+02  0.51100000000E-03 0.  1.
        -12    1    3    3    0    0  0.15439472377E+02 -0.12150066757E+01  0.11147283124E+02  0.19081809913E+02  0.00000000000E+00 0.  1.
</event>
<event>
 7    1  0.3054835E-011  0.5052886E+02  0.7816164E-02  0.1300439E+00
        -11   -1    0    0    0    0  0.00000000000E+00  0.00000000000E+00  0.45593999997E+02  0.45594000000E+02  0.51100000000E-03 0.  1.
         11   -1    0    0    0    0 -0.00000000000E+00 -0.00000000000E+00 -0.45593999997E+02  0.45594000000E+02  0.51100000000E-03 0. -1.
    9900012    2    1    2    0    0 -0.30496165746E+02 -0.13983623047E+02  0.22969713443E+02  0.50528861121E+02  0.30000003865E+02 0.  0.
         12    1    1    2    0    0  0.30496165746E+02  0.13983623047E+02 -0.22969713443E+02  0.40659138879E+02  0.00000000000E+00 0. -1.
         11    1    3    3    0    0 -0.16462553759E+02 -0.13426655002E+02  0.26715699283E+02  0.34132379484E+02  0.51100000000E-03 0. -1.
        -11    1    3    3    0    0 -0.90956204181E+01  0.94148768411E+00  0.12315215346E+01  0.92267738349E+01  0.51100000000E-03 0.  1.
         12    1    3    3    0    0 -0.49379915688E+01 -0.14984557287E+01 -0.49775073750E+01  0.71697078024E+01  0.00000000000E+00 0. -1.
</event>
<event>
 7    1  0.3054835E-011  0.5052885E+02  0.7816164E-02  0.1300439E+00
        -11   -1    0    0    0    0  0.00000000000E+00  0.00000000000E+00  0.45593999997E+02  0.45594000000E+02  0.51100000000E-03 0. -1.
         11   -1    0    0    0    0 -0.00000000000E+00 -0.00000000000E+00 -0.45593999997E+02  0.45594000000E+02  0.51100000000E-03 0.  1.
    9900012    2    1    2    0    0  0.89132489584E+01 -0.37642330594E+02  0.12520983690E+02  0.50528854754E+02  0.29999984510E+02 0.  0.
         12    1    1    2    0    0 -0.89132489584E+01  0.37642330594E+02 -0.12520983690E+02  0.40659145246E+02  0.00000000000E+00 0. -1.
         11    1    3    3    0    0 -0.39834884262E+01  0.29106373991E+01  0.18487530133E+01  0.52685745773E+01  0.51100000000E-03 0. -1.
        -11    1    3    3    0    0  0.52446764507E+01 -0.24611837388E+02  0.11258116807E+02  0.27567995302E+02  0.51100000000E-03 0.  1.
         12    1    3    3    0    0  0.76520609338E+01 -0.15941130606E+02 -0.58588613062E+00  0.17692284875E+02  0.00000000000E+00 0. -1.
</event>
<event>
 7    1  0.3054835E-011  0.5052883E+02  0.7816164E-02  0.1300439E+00
        -11   -1    0    0    0    0  0.00000000000E+00  0.00000000000E+00  0.45593999997E+02  0.45594000000E+02  0.51100000000E-03 0.  1.
         11   -1    0    0    0    0 -0.00000000000E+00 -0.00000000000E+00 -0.45593999997E+02  0.45594000000E+02  0.51100000000E-03 0. -1.
    9900012    2    1    2    0    0 -0.11753446209E+02  0.36318962121E+02  0.13998476881E+02  0.50528832985E+02  0.29999918342E+02 0.  0.
         12    1    1    2    0    0  0.11753446209E+02 -0.36318962121E+02 -0.13998476881E+02  0.40659167015E+02  0.00000000000E+00 0. -1.
         11    1    3    3    0    0 -0.19985648523E+02  0.32348618691E+02  0.13596284827E+02  0.40382152487E+02  0.51100000000E-03 0. -1.
        -11    1    3    3    0    0  0.76437925205E+01  0.47141753331E+01 -0.26926673751E+00  0.89846267594E+01  0.51100000000E-03 0.  1.
        -12    1    3    3    0    0  0.58840979334E+00 -0.74383190307E+00  0.67145879128E+00  0.11620537394E+01  0.00000000000E+00 0.  1.
</event>
<event>
 7    1  0.3054835E-011  0.5052885E+02  0.7816164E-02  0.1300439E+00
        -11   -1    0    0    0    0  0.00000000000E+00  0.00000000000E+00  0.45593999997E+02  0.45594000000E+02  0.51100000000E-03 0.  1.
         11   -1    0    0    0    0 -0.00000000000E+00 -0.00000000000E+00 -0.45593999997E+02  0.45594000000E+02  0.51100000000E-03 0. -1.
    9900012    2    1    2    0    0  0.37621731951E+02 -0.78015453945E+01  0.13300668754E+02  0.50528848326E+02  0.29999964972E+02 0.  0.
         12    1    1    2    0    0 -0.37621731951E+02  0.78015453945E+01 -0.13300668754E+02  0.40659151674E+02  0.00000000000E+00 0. -1.
         11    1    3    3    0    0  0.21790570918E+01 -0.10812416253E+00 -0.27271471010E+01  0.34924650628E+01  0.51100000000E-03 0. -1.
        -11    1    3    3    0    0  0.11070212842E+02  0.16023569839E+01  0.17655562511E+02  0.20900623152E+02  0.51100000000E-03 0.  1.
        -12    1    3    3    0    0  0.24372462017E+02 -0.92957782159E+01 -0.16277466565E+01  0.26135760112E+02  0.00000000000E+00 0.  1.
</event>
<event>
 7    1  0.3054835E-011  0.5052885E+02  0.7816164E-02  0.1300439E+00
        -11   -1    0    0    0    0  0.00000000000E+00  0.00000000000E+00  0.45593999997E+02  0.45594000000E+02  0.51100000000E-03 0.  1.
         11   -1    0    0    0    0 -0.00000000000E+00 -0.00000000000E+00 -0.45593999997E+02  0.45594000000E+02  0.51100000000E-03 0. -1.
    9900012    2    1    2    0    0 -0.12144545221E+02  0.35009521016E+02  0.16733493082E+02  0.50528851815E+02  0.29999975577E+02 0.  0.
         12    1    1    2    0    0  0.12144545221E+02 -0.35009521016E+02 -0.16733493082E+02  0.40659148185E+02  0.00000000000E+00 0. -1.
         11    1    3    3    0    0 -0.62394828118E+01  0.35059704883E+00  0.68680297179E+01  0.92856823398E+01  0.51100000000E-03 0. -1.
        -11    1    3    3    0    0  0.66304915986E+01  0.13905017201E+02  0.10365842063E+01  0.15439800170E+02  0.51100000000E-03 0.  1.
        -12    1    3    3    0    0 -0.12535554007E+02  0.20753906766E+02  0.88288791582E+01  0.25803369305E+02  0.00000000000E+00 0.  1.
</event>
<event>
 7    1  0.3054835E-011  0.5052885E+02  0.7816164E-02  0.1300439E+00
        -11   -1    0    0    0    0  0.00000000000E+00  0.00000000000E+00  0.45593999997E+02  0.45594000000E+02  0.51100000000E-03 0.  1.
         11   -1    0    0    0    0 -0.00000000000E+00 -0.00000000000E+00 -0.45593999997E+02  0.45594000000E+02  0.51100000000E-03 0. -1.
    9900012    2    1    2    0    0 -0.23821850709E+02  0.27955125703E+02 -0.17441243298E+02  0.50528848607E+02  0.29999965825E+02 0.  0.
         12    1    1    2    0    0  0.23821850709E+02 -0.27955125703E+02  0.17441243298E+02  0.40659151393E+02  0.00000000000E+00 0. -1.
         11    1    3    3    0    0 -0.69351702988E+01  0.59281499717E+01 -0.10129760482E+02  0.13632739888E+02  0.51100000000E-03 0. -1.
        -11    1    3    3    0    0  0.49389267945E+01 -0.26307328834E+00 -0.14491804352E+01  0.51538655038E+01  0.51100000000E-03 0.  1.
        -12    1    3    3    0    0 -0.21825607205E+02  0.22290049019E+02 -0.58623023806E+01  0.31742243215E+02  0.00000000000E+00 0.  1.
</event>
<event>
 7    1  0.3054835E-011  0.5052885E+02  0.7816164E-02  0.1300439E+00
        -11   -1    0    0    0    0  0.00000000000E+00  0.00000000000E+00  0.45593999997E+02  0.45594000000E+02  0.51100000000E-03 0. -1.
         11   -1    0    0    0    0 -0.00000000000E+00 -0.00000000000E+00 -0.45593999997E+02  0.45594000000E+02  0.51100000000E-03 0.  1.
    9900012    2    1    2    0    0 -0.23717366528E+02  0.63017479988E+01 -0.32418221270E+02  0.50528848839E+02  0.29999966531E+02 0.  0.
         12    1    1    2    0    0  0.23717366528E+02 -0.63017479988E+01  0.32418221270E+02  0.40659151161E+02  0.00000000000E+00 0. -1.
         11    1    3    3    0    0  0.48839838332E+01  0.76359126018E+01 -0.10270506005E+02  0.13698312057E+02  0.51100000000E-03 0. -1.
        -11    1    3    3    0    0 -0.10713288339E+02  0.27004573894E+01 -0.92820462396E+01  0.14429948018E+02  0.51100000000E-03 0.  1.
         12    1    3    3    0    0 -0.17888062022E+02 -0.40346219923E+01 -0.12865669025E+02  0.22400588764E+02  0.00000000000E+00 0. -1.
</event>
<event>
 7    1  0.3054835E-011  0.5052886E+02  0.7816164E-02  0.1300439E+00
        -11   -1    0    0    0    0  0.00000000000E+00  0.00000000000E+00  0.45593999997E+02  0.45594000000E+02  0.51100000000E-03 0.  1.
         11   -1    0    0    0    0 -0.00000000000E+00 -0.00000000000E+00 -0.45593999997E+02  0.45594000000E+02  0.51100000000E-03 0. -1.
    9900012    2    1    2    0    0  0.61780861497E+01  0.18307498983E+02  0.35774740810E+02  0.50528863911E+02  0.30000012343E+02 0.  0.
         12    1    1    2    0    0 -0.61780861497E+01 -0.18307498983E+02 -0.35774740810E+02  0.40659136089E+02  0.00000000000E+00 0. -1.
         11    1    3    3    0    0 -0.45214170038E+00  0.16073640505E+02  0.21882933464E+02  0.27155646346E+02  0.51100000000E-03 0.  1.
        -11    1    3    3    0    0  0.55112781079E+01 -0.70213566435E+01  0.96051252452E+01  0.13112286861E+02  0.51100000000E-03 0. -1.
        -12    1    3    3    0    0  0.11189497422E+01  0.92552151218E+01  0.42866821010E+01  0.10260930704E+02  0.00000000000E+00 0.  1.
</event>
<event>
 7    1  0.3054835E-011  0.5052886E+02  0.7816164E-02  0.1300439E+00
        -11   -1    0    0    0    0  0.00000000000E+00  0.00000000000E+00  0.45593999997E+02  0.45594000000E+02  0.51100000000E-03 0.  1.
         11   -1    0    0    0    0 -0.00000000000E+00 -0.00000000000E+00 -0.45593999997E+02  0.45594000000E+02  0.51100000000E-03 0. -1.
    9900012    2    1    2    0    0  0.15221977359E+02 -0.22389647967E+02  0.30334147479E+02  0.50528862847E+02  0.30000009109E+02 0.  0.
         12    1    1    2    0    0 -0.15221977359E+02  0.22389647967E+02 -0.30334147479E+02  0.40659137153E+02  0.00000000000E+00 0. -1.
         11    1    3    3    0    0  0.44219884688E+01 -0.10236896464E+01  0.27144674625E+01  0.52886913671E+01  0.51100000000E-03 0. -1.
        -11    1    3    3    0    0  0.98781652618E+01 -0.20071485266E+02  0.32866828844E+02  0.39757654712E+02  0.51100000000E-03 0.  1.
        -12    1    3    3    0    0  0.92182362805E+00 -0.12944730545E+01 -0.52471488271E+01  0.54825167673E+01  0.00000000000E+00 0.  1.
</event>
<event>
 7    1  0.3054835E-011  0.5052888E+02  0.7816164E-02  0.1300439E+00
        -11   -1    0    0    0    0  0.00000000000E+00  0.00000000000E+00  0.45593999997E+02  0.45594000000E+02  0.51100000000E-03 0.  1.
         11   -1    0    0    0    0 -0.00000000000E+00 -0.00000000000E+00 -0.45593999997E+02  0.45594000000E+02  0.51100000000E-03 0. -1.
    9900012    2    1    2    0    0  0.19133462750E+02 -0.18495115606E+02  0.30740945057E+02  0.50528875549E+02  0.30000047719E+02 0.  0.
         12    1    1    2    0    0 -0.19133462750E+02  0.18495115606E+02 -0.30740945057E+02  0.40659124451E+02  0.00000000000E+00 0. -1.
         11    1    3    3    0    0  0.17059703195E+02 -0.12722189403E+02  0.15773829852E+02  0.26489644859E+02  0.51100000000E-03 0. -1.
        -11    1    3    3    0    0  0.43880350506E+01  0.38441040000E+01  0.12575373685E+02  0.13862611974E+02  0.51100000000E-03 0.  1.
        -12    1    3    3    0    0 -0.23142754953E+01 -0.96170302027E+01  0.23917415209E+01  0.10176618716E+02  0.00000000000E+00 0.  1.
</event>
<event>
 7    1  0.3054835E-011  0.5052886E+02  0.7816164E-02  0.1300439E+00
        -11   -1    0    0    0    0  0.00000000000E+00  0.00000000000E+00  0.45593999997E+02  0.45594000000E+02  0.51100000000E-03 0.  1.
         11   -1    0    0    0    0 -0.00000000000E+00 -0.00000000000E+00 -0.45593999997E+02  0.45594000000E+02  0.51100000000E-03 0. -1.
    9900012    2    1    2    0    0 -0.17767354921E+02 -0.35977007623E+02  0.65682489834E+01  0.50528857447E+02  0.29999992697E+02 0.  0.
         12    1    1    2    0    0  0.17767354921E+02  0.35977007623E+02 -0.65682489834E+01  0.40659142553E+02  0.00000000000E+00 0. -1.
         11    1    3    3    0    0 -0.11580471799E+02 -0.17432087110E+02 -0.27911637550E+01  0.21113398198E+02  0.51100000000E-03 0. -1.
        -11    1    3    3    0    0  0.44372622652E+01 -0.40783749277E+01  0.97502871684E+01  0.11462571203E+02  0.51100000000E-03 0.  1.
        -12    1    3    3    0    0 -0.10624145387E+02 -0.14466545586E+02 -0.39087442993E+00  0.17952888046E+02  0.00000000000E+00 0.  1.
</event>
<event>
 7    1  0.3054835E-011  0.5052888E+02  0.7816164E-02  0.1300439E+00
        -11   -1    0    0    0    0  0.00000000000E+00  0.00000000000E+00  0.45593999997E+02  0.45594000000E+02  0.51100000000E-03 0.  1.
         11   -1    0    0    0    0 -0.00000000000E+00 -0.00000000000E+00 -0.45593999997E+02  0.45594000000E+02  0.51100000000E-03 0. -1.
    9900012    2    1    2    0    0  0.24825339161E+02  0.12993141231E+02  0.29462602182E+02  0.50528879119E+02  0.30000058570E+02 0.  0.
         12    1    1    2    0    0 -0.24825339161E+02 -0.12993141231E+02 -0.29462602182E+02  0.40659120881E+02  0.00000000000E+00 0. -1.
         11    1    3    3    0    0  0.42017666019E+01  0.97380703821E+01 -0.27368681315E+01  0.10953323914E+02  0.51100000000E-03 0. -1.
        -11    1    3    3    0    0  0.20046399711E+02  0.40400025291E+01  0.24944026498E+02  0.32254987521E+02  0.51100000000E-03 0.  1.
         12    1    3    3    0    0  0.57717284719E+00 -0.78493168041E+00  0.72554438158E+01  0.73205676831E+01  0.00000000000E+00 0. -1.
</event>
<event>
 7    1  0.3054835E-011  0.5052886E+02  0.7816164E-02  0.1300439E+00
        -11   -1    0    0    0    0  0.00000000000E+00  0.00000000000E+00  0.45593999997E+02  0.45594000000E+02  0.51100000000E-03 0.  1.
         11   -1    0    0    0    0 -0.00000000000E+00 -0.00000000000E+00 -0.45593999997E+02  0.45594000000E+02  0.51100000000E-03 0. -1.
    9900012    2    1    2    0    0  0.26480686702E+02 -0.16684888991E+02  0.25952912782E+02  0.50528856247E+02  0.29999989049E+02 0.  0.
         12    1    1    2    0    0 -0.26480686702E+02  0.16684888991E+02 -0.25952912782E+02  0.40659143753E+02  0.00000000000E+00 0. -1.
         11    1    3    3    0    0  0.95702846187E+01 -0.20322252255E+02  0.21138458455E+02  0.30845075953E+02  0.51100000000E-03 0. -1.
        -11    1    3    3    0    0  0.84318298213E+01  0.16592849685E+01  0.65513204788E+01  0.10805960439E+02  0.51100000000E-03 0.  1.
         12    1    3    3    0    0  0.84785722618E+01  0.19780782961E+01 -0.17368661519E+01  0.88778198548E+01  0.00000000000E+00 0. -1.
</event>
<event>
 7    1  0.3054835E-011  0.5052886E+02  0.7816164E-02  0.1300439E+00
        -11   -1    0    0    0    0  0.00000000000E+00  0.00000000000E+00  0.45593999997E+02  0.45594000000E+02  0.51100000000E-03 0.  1.
         11   -1    0    0    0    0 -0.00000000000E+00 -0.00000000000E+00 -0.45593999997E+02  0.45594000000E+02  0.51100000000E-03 0. -1.
    9900012    2    1    2    0    0  0.20731294123E+02  0.17490857013E+02  0.30289419891E+02  0.50528860899E+02  0.30000003189E+02 0.  0.
         12    1    1    2    0    0 -0.20731294123E+02 -0.17490857013E+02 -0.30289419891E+02  0.40659139101E+02  0.00000000000E+00 0. -1.
         11    1    3    3    0    0  0.55262252344E+00 -0.21127071593E+01  0.85782519816E+01  0.88518546370E+01  0.51100000000E-03 0. -1.
        -11    1    3    3    0    0  0.19407661523E+02  0.22928478632E+02  0.23197902252E+02  0.37954118713E+02  0.51100000000E-03 0.  1.
        -12    1    3    3    0    0  0.77101007654E+00 -0.33249144593E+01 -0.14867343419E+01  0.37228875491E+01  0.00000000000E+00 0.  1.
</event>
<event>
 7    1  0.3054835E-011  0.5052886E+02  0.7816164E-02  0.1300439E+00
        -11   -1    0    0    0    0  0.00000000000E+00  0.00000000000E+00  0.45593999997E+02  0.45594000000E+02  0.51100000000E-03 0. -1.
         11   -1    0    0    0    0 -0.00000000000E+00 -0.00000000000E+00 -0.45593999997E+02  0.45594000000E+02  0.51100000000E-03 0.  1.
    9900012    2    1    2    0    0 -0.28846989947E+01 -0.30097089191E+02 -0.27184732048E+02  0.50528856839E+02  0.29999990848E+02 0.  0.
         12    1    1    2    0    0  0.28846989947E+01  0.30097089191E+02  0.27184732048E+02  0.40659143161E+02  0.00000000000E+00 0. -1.
         11    1    3    3    0    0 -0.37514780228E+01 -0.18871382359E+01  0.77206003478E+00  0.42697722463E+01  0.51100000000E-03 0.  1.
        -11    1    3    3    0    0  0.10814591188E+02 -0.23428288979E+02 -0.18989303908E+02  0.32038005091E+02  0.51100000000E-03 0. -1.
        -12    1    3    3    0    0 -0.99478121599E+01 -0.47816619764E+01 -0.89674881750E+01  0.14221079502E+02  0.00000000000E+00 0.  1.
</event>
<event>
 7    1  0.3054835E-011  0.5052887E+02  0.7816164E-02  0.1300439E+00
        -11   -1    0    0    0    0  0.00000000000E+00  0.00000000000E+00  0.45593999997E+02  0.45594000000E+02  0.51100000000E-03 0.  1.
         11   -1    0    0    0    0 -0.00000000000E+00 -0.00000000000E+00 -0.45593999997E+02  0.45594000000E+02  0.51100000000E-03 0. -1.
    9900012    2    1    2    0    0  0.54344515776E+01 -0.33645844672E+02  0.22171805399E+02  0.50528867172E+02  0.30000022256E+02 0.  0.
         12    1    1    2    0    0 -0.54344515776E+01  0.33645844672E+02 -0.22171805399E+02  0.40659132828E+02  0.00000000000E+00 0. -1.
         11    1    3    3    0    0 -0.50492409628E+01  0.25523832175E+01 -0.17532769425E+00  0.56604093890E+01  0.51100000000E-03 0. -1.
        -11    1    3    3    0    0  0.54872200963E+00 -0.15348418253E+02  0.56309582521E+01  0.16357956162E+02  0.51100000000E-03 0.  1.
         12    1    3    3    0    0  0.99349705308E+01 -0.20849809637E+02  0.16716174841E+02  0.28510501621E+02  0.00000000000E+00 0. -1.
</event>
<event>
 7    1  0.3054835E-011  0.5052887E+02  0.7816164E-02  0.1300439E+00
        -11   -1    0    0    0    0  0.00000000000E+00  0.00000000000E+00  0.45593999997E+02  0.45594000000E+02  0.51100000000E-03 0.  1.
         11   -1    0    0    0    0 -0.00000000000E+00 -0.00000000000E+00 -0.45593999997E+02  0.45594000000E+02  0.51100000000E-03 0. -1.
    9900012    2    1    2    0    0  0.10763095510E+02 -0.25585402265E+02  0.29710401852E+02  0.50528868034E+02  0.30000024877E+02 0.  0.
         12    1    1    2    0    0 -0.10763095510E+02  0.25585402265E+02 -0.29710401852E+02  0.40659131966E+02  0.00000000000E+00 0. -1.
         11    1    3    3    0    0  0.70255111379E+01 -0.16046839869E+02  0.51370987316E+01  0.18255099566E+02  0.51100000000E-03 0. -1.
        -11    1    3    3    0    0  0.70982519299E+00 -0.12745246471E+02  0.24762963293E+02  0.27859459986E+02  0.51100000000E-03 0.  1.
         12    1    3    3    0    0  0.30277591787E+01  0.32066840746E+01 -0.18966017229E+00  0.44143084826E+01  0.00000000000E+00 0. -1.
</event>
<event>
 7    1  0.3054835E-011  0.5052886E+02  0.7816164E-02  0.1300439E+00
        -11   -1    0    0    0    0  0.00000000000E+00  0.00000000000E+00  0.45593999997E+02  0.45594000000E+02  0.51100000000E-03 0. -1.
         11   -1    0    0    0    0 -0.00000000000E+00 -0.00000000000E+00 -0.45593999997E+02  0.45594000000E+02  0.51100000000E-03 0.  1.
    9900012    2    1    2    0    0 -0.32221771611E+02  0.47982370505E+01 -0.24329001952E+02  0.50528856126E+02  0.29999988682E+02 0.  0.
         12    1    1    2    0    0  0.32221771611E+02 -0.47982370505E+01  0.24329001952E+02  0.40659143874E+02  0.00000000000E+00 0. -1.
         11    1    3    3    0    0 -0.19485844265E+01  0.11495907242E+02 -0.12645341484E+02  0.17200509472E+02  0.51100000000E-03 0. -1.
        -11    1    3    3    0    0 -0.24778312987E+02 -0.68682993718E+01 -0.98060390381E+01  0.27519024921E+02  0.51100000000E-03 0.  1.
         12    1    3    3    0    0 -0.54948741980E+01  0.17062918001E+00 -0.18776214301E+01  0.58093217335E+01  0.00000000000E+00 0. -1.
</event>
<event>
 7    1  0.3054835E-011  0.5052882E+02  0.7816164E-02  0.1300439E+00
        -11   -1    0    0    0    0  0.00000000000E+00  0.00000000000E+00  0.45593999997E+02  0.45594000000E+02  0.51100000000E-03 0.  1.
         11   -1    0    0    0    0 -0.00000000000E+00 -0.00000000000E+00 -0.45593999997E+02  0.45594000000E+02  0.51100000000E-03 0. -1.
    9900012    2    1    2    0    0 -0.36701528235E+02  0.16038802686E+02  0.69945573897E+01  0.50528816542E+02  0.29999868361E+02 0.  0.
         12    1    1    2    0    0  0.36701528235E+02 -0.16038802686E+02 -0.69945573897E+01  0.40659183458E+02  0.00000000000E+00 0. -1.
         11    1    3    3    0    0 -0.99164495013E+01  0.17168839193E+02  0.50757475871E+01  0.20466270392E+02  0.51100000000E-03 0. -1.
        -11    1    3    3    0    0 -0.16912839426E+02  0.53715637930E+01 -0.13542188584E+01  0.17796958842E+02  0.51100000000E-03 0.  1.
         12    1    3    3    0    0 -0.98722393072E+01 -0.65016002996E+01  0.32730286610E+01  0.12265587308E+02  0.00000000000E+00 0. -1.
</event>
<event>
 7    1  0.3054835E-011  0.5052886E+02  0.7816164E-02  0.1300439E+00
        -11   -1    0    0    0    0  0.00000000000E+00  0.00000000000E+00  0.45593999997E+02  0.45594000000E+02  0.51100000000E-03 0.  1.
         11   -1    0    0    0    0 -0.00000000000E+00 -0.00000000000E+00 -0.45593999997E+02  0.45594000000E+02  0.51100000000E-03 0. -1.
    9900012    2    1    2    0    0  0.32907845583E+02 -0.22970195332E+02  0.65276168463E+01  0.50528856426E+02  0.29999989592E+02 0.  0.
         12    1    1    2    0    0 -0.32907845583E+02  0.22970195332E+02 -0.65276168463E+01  0.40659143574E+02  0.00000000000E+00 0. -1.
         11    1    3    3    0    0 -0.77064756490E-01 -0.15578730609E+01  0.96634342918E+00  0.18348643914E+01  0.51100000000E-03 0. -1.
        -11    1    3    3    0    0 -0.51252861276E+00 -0.10732317778E+02 -0.51841291798E+01  0.11929816683E+02  0.51100000000E-03 0.  1.
        -12    1    3    3    0    0  0.33497438952E+02 -0.10680004493E+02  0.10745402597E+02  0.36764175351E+02  0.00000000000E+00 0.  1.
</event>
<event>
 7    1  0.3123941E-011  0.5052894E+02  0.7816164E-02  0.1300439E+00
        -11   -1    0    0    0    0  0.00000000000E+00  0.00000000000E+00  0.45593999997E+02  0.45594000000E+02  0.51100000000E-03 0. -1.
         11   -1    0    0    0    0 -0.00000000000E+00 -0.00000000000E+00 -0.45593999997E+02  0.45594000000E+02  0.51100000000E-03 0.  1.
    9900012    2    1    2    0    0  0.51104173165E+01 -0.32927563093E+02 -0.23298470280E+02  0.50528935896E+02  0.30000231150E+02 0.  0.
         12    1    1    2    0    0 -0.51104173165E+01  0.32927563093E+02  0.23298470280E+02  0.40659064104E+02  0.00000000000E+00 0. -1.
         11    1    3    3    0    0  0.44345209691E+01 -0.93704198707E+01  0.32708704527E+01  0.10870526140E+02  0.51100000000E-03 0. -1.
        -11    1    3    3    0    0  0.77393064616E+01 -0.18414690575E+02 -0.22286732039E+02  0.29928182683E+02  0.51100000000E-03 0.  1.
         12    1    3    3    0    0 -0.70634101142E+01 -0.51424526475E+01 -0.42826086933E+01  0.97302270730E+01  0.00000000000E+00 0. -1.
</event>
<event>
 7    1  0.3054835E-011  0.5052886E+02  0.7816164E-02  0.1300439E+00
        -11   -1    0    0    0    0  0.00000000000E+00  0.00000000000E+00  0.45593999997E+02  0.45594000000E+02  0.51100000000E-03 0. -1.
         11   -1    0    0    0    0 -0.00000000000E+00 -0.00000000000E+00 -0.45593999997E+02  0.45594000000E+02  0.51100000000E-03 0.  1.
    9900012    2    1    2    0    0 -0.40592956911E+02 -0.13307284325E+01 -0.18990716069E+01  0.50528862504E+02  0.30000008066E+02 0.  0.
         12    1    1    2    0    0  0.40592956911E+02  0.13307284325E+01  0.18990716069E+01  0.40659137496E+02  0.00000000000E+00 0. -1.
         11    1    3    3    0    0 -0.49010830508E+01  0.10336836893E+01  0.53550082970E+01  0.73324778324E+01  0.51100000000E-03 0. -1.
        -11    1    3    3    0    0 -0.37346853071E+02  0.18826320552E+01 -0.87402152645E+01  0.38402123650E+02  0.51100000000E-03 0.  1.
        -12    1    3    3    0    0  0.16549792099E+01 -0.42470441771E+01  0.14861353607E+01  0.47942610210E+01  0.00000000000E+00 0.  1.
</event>
<event>
 7    1  0.3054835E-011  0.5052887E+02  0.7816164E-02  0.1300439E+00
        -11   -1    0    0    0    0  0.00000000000E+00  0.00000000000E+00  0.45593999997E+02  0.45594000000E+02  0.51100000000E-03 0.  1.
         11   -1    0    0    0    0 -0.00000000000E+00 -0.00000000000E+00 -0.45593999997E+02  0.45594000000E+02  0.51100000000E-03 0. -1.
    9900012    2    1    2    0    0  0.10944862597E+02 -0.34604260496E+02  0.18328130545E+02  0.50528865343E+02  0.30000016697E+02 0.  0.
         12    1    1    2    0    0 -0.10944862597E+02  0.34604260496E+02 -0.18328130545E+02  0.40659134657E+02  0.00000000000E+00 0. -1.
         11    1    3    3    0    0  0.73258338807E+00 -0.19119308621E+02 -0.43915810327E+01  0.19630858993E+02  0.51100000000E-03 0. -1.
        -11    1    3    3    0    0  0.77721502062E+01 -0.16035707573E+02  0.16882125001E+02  0.24547023873E+02  0.51100000000E-03 0.  1.
         12    1    3    3    0    0  0.24401290025E+01  0.55075569760E+00  0.58375865768E+01  0.63509824775E+01  0.00000000000E+00 0. -1.
</event>
<event>
 7    1  0.3054835E-011  0.5052886E+02  0.7816164E-02  0.1300439E+00
        -11   -1    0    0    0    0  0.00000000000E+00  0.00000000000E+00  0.45593999997E+02  0.45594000000E+02  0.51100000000E-03 0. -1.
         11   -1    0    0    0    0 -0.00000000000E+00 -0.00000000000E+00 -0.45593999997E+02  0.45594000000E+02  0.51100000000E-03 0.  1.
    9900012    2    1    2    0    0  0.29970356909E+02 -0.99546719160E+01 -0.25609532560E+02  0.50528856574E+02  0.29999990042E+02 0.  0.
         12    1    1    2    0    0 -0.29970356909E+02  0.99546719160E+01  0.25609532560E+02  0.40659143426E+02  0.00000000000E+00 0. -1.
         11    1    3    3    0    0 -0.18402023050E+01 -0.14811024846E+00 -0.14109579610E+02  0.14229846036E+02  0.51100000000E-03 0. -1.
        -11    1    3    3    0    0  0.18781688325E+02 -0.90248950009E+01 -0.10147059840E+02  0.23176785147E+02  0.51100000000E-03 0.  1.
         12    1    3    3    0    0  0.13028870890E+02 -0.78166666666E+00 -0.13528931097E+01  0.13122225391E+02  0.00000000000E+00 0. -1.
</event>
<event>
 7    1  0.3054835E-011  0.5052886E+02  0.7816164E-02  0.1300439E+00
        -11   -1    0    0    0    0  0.00000000000E+00  0.00000000000E+00  0.45593999997E+02  0.45594000000E+02  0.51100000000E-03 0. -1.
         11   -1    0    0    0    0 -0.00000000000E+00 -0.00000000000E+00 -0.45593999997E+02  0.45594000000E+02  0.51100000000E-03 0.  1.
    9900012    2    1    2    0    0  0.15317093901E+01 -0.75860006910E+00 -0.40623194989E+02  0.50528861066E+02  0.30000003698E+02 0.  0.
         12    1    1    2    0    0 -0.15317093901E+01  0.75860006910E+00  0.40623194989E+02  0.40659138934E+02  0.00000000000E+00 0. -1.
         11    1    3    3    0    0 -0.27694895670E+01 -0.51631936536E+01  0.18683916114E+01  0.61497584213E+01  0.51100000000E-03 0. -1.
        -11    1    3    3    0    0  0.15692019438E+01  0.29914550377E+01 -0.40658242699E+02  0.40798332045E+02  0.51100000000E-03 0.  1.
        -12    1    3    3    0    0  0.27319970133E+01  0.14131385468E+01 -0.18333439009E+01  0.35807706003E+01  0.00000000000E+00 0.  1.
</event>
<event>
 7    1  0.3054835E-011  0.5052885E+02  0.7816164E-02  0.1300439E+00
        -11   -1    0    0    0    0  0.00000000000E+00  0.00000000000E+00  0.45593999997E+02  0.45594000000E+02  0.51100000000E-03 0. -1.
         11   -1    0    0    0    0 -0.00000000000E+00 -0.00000000000E+00 -0.45593999997E+02  0.45594000000E+02  0.51100000000E-03 0.  1.
    9900012    2    1    2    0    0  0.24668057983E+02 -0.11470288500E+02 -0.30217308678E+02  0.50528851624E+02  0.29999974998E+02 0.  0.
         12    1    1    2    0    0 -0.24668057983E+02  0.11470288500E+02  0.30217308678E+02  0.40659148376E+02  0.00000000000E+00 0. -1.
         11    1    3    3    0    0  0.72118613642E+00 -0.69273010592E+01  0.35326929230E+01  0.78094512584E+01  0.51100000000E-03 0. -1.
        -11    1    3    3    0    0  0.16868642703E+02 -0.75592023105E+01 -0.24373349802E+02  0.30590077265E+02  0.51100000000E-03 0.  1.
         12    1    3    3    0    0  0.70782291435E+01  0.30162148702E+01 -0.93766517982E+01  0.12129323101E+02  0.00000000000E+00 0. -1.
</event>
<event>
 7    1  0.3054835E-011  0.5052886E+02  0.7816164E-02  0.1300439E+00
        -11   -1    0    0    0    0  0.00000000000E+00  0.00000000000E+00  0.45593999997E+02  0.45594000000E+02  0.51100000000E-03 0.  1.
         11   -1    0    0    0    0 -0.00000000000E+00 -0.00000000000E+00 -0.45593999997E+02  0.45594000000E+02  0.51100000000E-03 0. -1.
    9900012    2    1    2    0    0 -0.40213763147E+02 -0.59084926366E+01  0.10528155562E+01  0.50528862623E+02  0.30000008428E+02 0.  0.
         12    1    1    2    0    0  0.40213763147E+02  0.59084926366E+01 -0.10528155562E+01  0.40659137377E+02  0.00000000000E+00 0. -1.
         11    1    3    3    0    0 -0.24386777652E+02  0.35520455543E+01  0.55044615325E+01  0.25251357367E+02  0.51100000000E-03 0. -1.
        -11    1    3    3    0    0 -0.17396601965E+02 -0.92595269149E+01 -0.80951395059E+01  0.21305207873E+02  0.51100000000E-03 0.  1.
        -12    1    3    3    0    0  0.15696164701E+01 -0.20101127597E+00  0.36434935297E+01  0.39722973828E+01  0.00000000000E+00 0.  1.
</event>
<event>
 7    1  0.3054835E-011  0.5052887E+02  0.7816164E-02  0.1300439E+00
        -11   -1    0    0    0    0  0.00000000000E+00  0.00000000000E+00  0.45593999997E+02  0.45594000000E+02  0.51100000000E-03 0.  1.
         11   -1    0    0    0    0 -0.00000000000E+00 -0.00000000000E+00 -0.45593999997E+02  0.45594000000E+02  0.51100000000E-03 0. -1.
    9900012    2    1    2    0    0 -0.27311916876E+02 -0.29386280809E+02  0.66084002181E+01  0.50528865028E+02  0.30000015738E+02 0.  0.
         12    1    1    2    0    0  0.27311916876E+02  0.29386280809E+02 -0.66084002181E+01  0.40659134972E+02  0.00000000000E+00 0. -1.
         11    1    3    3    0    0  0.49530948279E+01  0.32526745087E+00  0.24584403845E+01  0.55392126402E+01  0.51100000000E-03 0. -1.
        -11    1    3    3    0    0 -0.14617789946E+01 -0.15157911633E+01  0.24011588244E+01  0.31937414800E+01  0.51100000000E-03 0.  1.
         12    1    3    3    0    0 -0.30803232710E+02 -0.28195757097E+02  0.17488010091E+01  0.41795910907E+02  0.00000000000E+00 0. -1.
</event>
<event>
 7    1  0.3054835E-011  0.5052887E+02  0.7816164E-02  0.1300439E+00
        -11   -1    0    0    0    0  0.00000000000E+00  0.00000000000E+00  0.45593999997E+02  0.45594000000E+02  0.51100000000E-03 0.  1.
         11   -1    0    0    0    0 -0.00000000000E+00 -0.00000000000E+00 -0.45593999997E+02  0.45594000000E+02  0.51100000000E-03 0. -1.
    9900012    2    1    2    0    0  0.15524453161E+02  0.35717447136E+02  0.11679910692E+02  0.50528868312E+02  0.30000025723E+02 0.  0.
         12    1    1    2    0    0 -0.15524453161E+02 -0.35717447136E+02 -0.11679910692E+02  0.40659131688E+02  0.00000000000E+00 0. -1.
         11    1    3    3    0    0  0.11081594112E+02  0.29025489408E+02 -0.31161317599E+01  0.31224846530E+02  0.51100000000E-03 0. -1.
        -11    1    3    3    0    0  0.40438913037E+01  0.79964679115E+01  0.69496777048E+01  0.11339954868E+02  0.51100000000E-03 0.  1.
         12    1    3    3    0    0  0.39896774486E+00 -0.13045101839E+01  0.78463647468E+01  0.79640669146E+01  0.00000000000E+00 0. -1.
</event>
<event>
 7    1  0.3054835E-011  0.5052886E+02  0.7816164E-02  0.1300439E+00
        -11   -1    0    0    0    0  0.00000000000E+00  0.00000000000E+00  0.45593999997E+02  0.45594000000E+02  0.51100000000E-03 0. -1.
         11   -1    0    0    0    0 -0.00000000000E+00 -0.00000000000E+00 -0.45593999997E+02  0.45594000000E+02  0.51100000000E-03 0.  1.
    9900012    2    1    2    0    0 -0.24563174919E+02 -0.43316861518E+01 -0.32110011695E+02  0.50528856895E+02  0.29999991017E+02 0.  0.
         12    1    1    2    0    0  0.24563174919E+02  0.43316861518E+01  0.32110011695E+02  0.40659143105E+02  0.00000000000E+00 0. -1.
         11    1    3    3    0    0  0.26466197100E+01  0.55330168201E+00 -0.11869097541E+02  0.12173176058E+02  0.51100000000E-03 0. -1.
        -11    1    3    3    0    0 -0.18124951418E+02 -0.11370813212E+02 -0.12640967544E+02  0.24851626058E+02  0.51100000000E-03 0.  1.
         12    1    3    3    0    0 -0.90848432114E+01  0.64858253777E+01 -0.75999466095E+01  0.13504054779E+02  0.00000000000E+00 0. -1.
</event>
<event>
 7    1  0.3054835E-011  0.5052886E+02  0.7816164E-02  0.1300439E+00
        -11   -1    0    0    0    0  0.00000000000E+00  0.00000000000E+00  0.45593999997E+02  0.45594000000E+02  0.51100000000E-03 0.  1.
         11   -1    0    0    0    0 -0.00000000000E+00 -0.00000000000E+00 -0.45593999997E+02  0.45594000000E+02  0.51100000000E-03 0. -1.
    9900012    2    1    2    0    0 -0.12555354558E+01  0.19029968953E+02  0.35908904831E+02  0.50528861620E+02  0.30000005382E+02 0.  0.
         12    1    1    2    0    0  0.12555354558E+01 -0.19029968953E+02 -0.35908904831E+02  0.40659138380E+02  0.00000000000E+00 0. -1.
         11    1    3    3    0    0  0.22200494946E+01  0.10712040347E+02  0.66170025299E+01  0.12785192642E+02  0.51100000000E-03 0. -1.
        -11    1    3    3    0    0 -0.96852152439E+01 -0.26068854428E+01  0.19062769730E+02  0.21540390806E+02  0.51100000000E-03 0.  1.
        -12    1    3    3    0    0  0.62096302935E+01  0.10924814048E+02  0.10229132571E+02  0.16203278172E+02  0.00000000000E+00 0.  1.
</event>
<event>
 7    1  0.3054835E-011  0.5052886E+02  0.7816164E-02  0.1300439E+00
        -11   -1    0    0    0    0  0.00000000000E+00  0.00000000000E+00  0.45593999997E+02  0.45594000000E+02  0.51100000000E-03 0. -1.
         11   -1    0    0    0    0 -0.00000000000E+00 -0.00000000000E+00 -0.45593999997E+02  0.45594000000E+02  0.51100000000E-03 0.  1.
    9900012    2    1    2    0    0 -0.37226141841E+02  0.13215150070E+02  0.96301571450E+01  0.50528858908E+02  0.29999997137E+02 0.  0.
         12    1    1    2    0    0  0.37226141841E+02 -0.13215150070E+02 -0.96301571450E+01  0.40659141092E+02  0.00000000000E+00 0. -1.
         11    1    3    3    0    0 -0.24410553642E+02  0.17525215179E+02  0.13149110826E+02  0.32801027605E+02  0.51100000000E-03 0. -1.
        -11    1    3    3    0    0 -0.12728393897E+02 -0.33095960182E+01 -0.64365600830E+01  0.14642224659E+02  0.51100000000E-03 0.  1.
        -12    1    3    3    0    0 -0.87194301738E-01 -0.10004690908E+01  0.29176064016E+01  0.30856066442E+01  0.00000000000E+00 0.  1.
</event>
<event>
 7    1  0.3054835E-011  0.5052886E+02  0.7816164E-02  0.1300439E+00
        -11   -1    0    0    0    0  0.00000000000E+00  0.00000000000E+00  0.45593999997E+02  0.45594000000E+02  0.51100000000E-03 0. -1.
         11   -1    0    0    0    0 -0.00000000000E+00 -0.00000000000E+00 -0.45593999997E+02  0.45594000000E+02  0.51100000000E-03 0.  1.
    9900012    2    1    2    0    0  0.33665849662E+01 -0.37681138601E+02 -0.14898451012E+02  0.50528856586E+02  0.29999990078E+02 0.  0.
         12    1    1    2    0    0 -0.33665849662E+01  0.37681138601E+02  0.14898451012E+02  0.40659143414E+02  0.00000000000E+00 0. -1.
         11    1    3    3    0    0 -0.57736733829E+01  0.96945602715E+00  0.23030830495E+00  0.58590264974E+01  0.51100000000E-03 0. -1.
        -11    1    3    3    0    0  0.11273242970E+02 -0.28734562869E+02 -0.69483298981E+01  0.31639222477E+02  0.51100000000E-03 0.  1.
        -12    1    3    3    0    0 -0.21329846205E+01 -0.99160317593E+01 -0.81804294188E+01  0.13030607611E+02  0.00000000000E+00 0.  1.
</event>
<event>
 7    1  0.3054835E-011  0.5052886E+02  0.7816164E-02  0.1300439E+00
        -11   -1    0    0    0    0  0.00000000000E+00  0.00000000000E+00  0.45593999997E+02  0.45594000000E+02  0.51100000000E-03 0.  1.
         11   -1    0    0    0    0 -0.00000000000E+00 -0.00000000000E+00 -0.45593999997E+02  0.45594000000E+02  0.51100000000E-03 0. -1.
    9900012    2    1    2    0    0 -0.35662442082E+02 -0.15334803989E+02  0.12091318220E+02  0.50528856318E+02  0.29999989265E+02 0.  0.
         12    1    1    2    0    0  0.35662442082E+02  0.15334803989E+02 -0.12091318220E+02  0.40659143682E+02  0.00000000000E+00 0. -1.
         11    1    3    3    0    0 -0.69836010923E+00 -0.70453550054E-01 -0.44960776517E+00  0.83355740564E+00  0.51100000000E-03 0. -1.
        -11    1    3    3    0    0  0.23438038456E+01 -0.10136831006E+02  0.33652354143E+01  0.10934970003E+02  0.51100000000E-03 0.  1.
        -12    1    3    3    0    0 -0.37307885818E+02 -0.51275194331E+01  0.91756905705E+01  0.38760328910E+02  0.00000000000E+00 0.  1.
</event>
<event>
 7    1  0.3054835E-011  0.5052886E+02  0.7816164E-02  0.1300439E+00
        -11   -1    0    0    0    0  0.00000000000E+00  0.00000000000E+00  0.45593999997E+02  0.45594000000E+02  0.51100000000E-03 0.  1.
         11   -1    0    0    0    0 -0.00000000000E+00 -0.00000000000E+00 -0.45593999997E+02  0.45594000000E+02  0.51100000000E-03 0. -1.
    9900012    2    1    2    0    0  0.35854158866E+02 -0.19136455967E+02  0.12002841101E+01  0.50528864041E+02  0.30000012740E+02 0.  0.
         12    1    1    2    0    0 -0.35854158866E+02  0.19136455967E+02 -0.12002841101E+01  0.40659135959E+02  0.00000000000E+00 0. -1.
         11    1    3    3    0    0  0.25041624687E+02 -0.43219464326E+01  0.97907266930E+01  0.27232710430E+02  0.51100000000E-03 0. -1.
        -11    1    3    3    0    0  0.57209528385E+01 -0.88748107575E+01  0.13516192222E+01  0.10645113534E+02  0.51100000000E-03 0.  1.
         12    1    3    3    0    0  0.50915813400E+01 -0.59396987770E+01 -0.99420618051E+01  0.12651040077E+02  0.00000000000E+00 0. -1.
</event>
<event>
 7    1  0.3054835E-011  0.5052883E+02  0.7816164E-02  0.1300439E+00
        -11   -1    0    0    0    0  0.00000000000E+00  0.00000000000E+00  0.45593999997E+02  0.45594000000E+02  0.51100000000E-03 0.  1.
         11   -1    0    0    0    0 -0.00000000000E+00 -0.00000000000E+00 -0.45593999997E+02  0.45594000000E+02  0.51100000000E-03 0. -1.
    9900012    2    1    2    0    0 -0.33300943777E+02 -0.99867788165E+01 -0.21082681740E+02  0.50528830347E+02  0.29999910322E+02 0.  0.
         12    1    1    2    0    0  0.33300943777E+02  0.99867788165E+01  0.21082681740E+02  0.40659169653E+02  0.00000000000E+00 0. -1.
         11    1    3    3    0    0 -0.37131907960E+01  0.47655332978E+01 -0.65131296474E+01  0.88836339166E+01  0.51100000000E-03 0. -1.
        -11    1    3    3    0    0 -0.17444836787E+02 -0.34173280407E+00  0.59268125638E+00  0.17458246853E+02  0.51100000000E-03 0.  1.
        -12    1    3    3    0    0 -0.12142916193E+02 -0.14410579310E+02 -0.15162233349E+02  0.24186949577E+02  0.00000000000E+00 0.  1.
</event>
<event>
 7    1  0.3054835E-011  0.5052885E+02  0.7816164E-02  0.1300439E+00
        -11   -1    0    0    0    0  0.00000000000E+00  0.00000000000E+00  0.45593999997E+02  0.45594000000E+02  0.51100000000E-03 0.  1.
         11   -1    0    0    0    0 -0.00000000000E+00 -0.00000000000E+00 -0.45593999997E+02  0.45594000000E+02  0.51100000000E-03 0. -1.
    9900012    2    1    2    0    0  0.15480342421E+02 -0.23508243104E+02  0.29340886081E+02  0.50528854764E+02  0.29999984540E+02 0.  0.
         12    1    1    2    0    0 -0.15480342421E+02  0.23508243104E+02 -0.29340886081E+02  0.40659145236E+02  0.00000000000E+00 0. -1.
         11    1    3    3    0    0 -0.19607043352E+01 -0.85495413967E+01  0.17996667802E+02  0.20020466324E+02  0.51100000000E-03 0. -1.
        -11    1    3    3    0    0  0.13916420034E+02 -0.44467753025E+01 -0.50733433977E-01  0.14609693059E+02  0.51100000000E-03 0.  1.
        -12    1    3    3    0    0  0.35246267224E+01 -0.10511926405E+02  0.11394951713E+02  0.15898695381E+02  0.00000000000E+00 0.  1.
</event>
<event>
 7    1  0.3054835E-011  0.5052883E+02  0.7816164E-02  0.1300439E+00
        -11   -1    0    0    0    0  0.00000000000E+00  0.00000000000E+00  0.45593999997E+02  0.45594000000E+02  0.51100000000E-03 0.  1.
         11   -1    0    0    0    0 -0.00000000000E+00 -0.00000000000E+00 -0.45593999997E+02  0.45594000000E+02  0.51100000000E-03 0. -1.
    9900012    2    1    2    0    0  0.15850462912E+02  0.11957891759E+01  0.37423271296E+02  0.50528827347E+02  0.29999901205E+02 0.  0.
         12    1    1    2    0    0 -0.15850462912E+02 -0.11957891759E+01 -0.37423271296E+02  0.40659172653E+02  0.00000000000E+00 0. -1.
         11    1    3    3    0    0  0.13635925478E+02  0.88270982411E+01  0.81367924346E+01  0.18167650327E+02  0.51100000000E-03 0. -1.
        -11    1    3    3    0    0 -0.11305203495E+00 -0.18575081176E+01  0.24337085463E+02  0.24408130740E+02  0.51100000000E-03 0.  1.
         12    1    3    3    0    0  0.23275894682E+01 -0.57738009476E+01  0.49493933992E+01  0.79530462802E+01  0.00000000000E+00 0. -1.
</event>
<event>
 7    1  0.3054835E-011  0.5052886E+02  0.7816164E-02  0.1300439E+00
        -11   -1    0    0    0    0  0.00000000000E+00  0.00000000000E+00  0.45593999997E+02  0.45594000000E+02  0.51100000000E-03 0.  1.
         11   -1    0    0    0    0 -0.00000000000E+00 -0.00000000000E+00 -0.45593999997E+02  0.45594000000E+02  0.51100000000E-03 0. -1.
    9900012    2    1    2    0    0  0.73177638000E+01 -0.21202618492E+02  0.33912607662E+02  0.50528860113E+02  0.30000000800E+02 0.  0.
         12    1    1    2    0    0 -0.73177638000E+01  0.21202618492E+02 -0.33912607662E+02  0.40659139887E+02  0.00000000000E+00 0. -1.
         11    1    3    3    0    0 -0.88164030596E+00  0.32222876104E+01 -0.55934884590E+00  0.33872257772E+01  0.51100000000E-03 0. -1.
        -11    1    3    3    0    0  0.21169882881E+01 -0.25011336657E+02  0.22538871616E+02  0.33734986805E+02  0.51100000000E-03 0.  1.
        -12    1    3    3    0    0  0.60824158178E+01  0.58643055480E+00  0.11933084892E+02  0.13406647531E+02  0.00000000000E+00 0.  1.
</event>
<event>
 7    1  0.3054835E-011  0.5052886E+02  0.7816164E-02  0.1300439E+00
        -11   -1    0    0    0    0  0.00000000000E+00  0.00000000000E+00  0.45593999997E+02  0.45594000000E+02  0.51100000000E-03 0.  1.
         11   -1    0    0    0    0 -0.00000000000E+00 -0.00000000000E+00 -0.45593999997E+02  0.45594000000E+02  0.51100000000E-03 0. -1.
    9900012    2    1    2    0    0  0.34030310840E+02 -0.20193126916E+02 -0.93456509775E+01  0.50528860527E+02  0.30000002058E+02 0.  0.
         12    1    1    2    0    0 -0.34030310840E+02  0.20193126916E+02  0.93456509775E+01  0.40659139473E+02  0.00000000000E+00 0. -1.
         11    1    3    3    0    0 -0.27122306366E+01  0.21170350667E+01 -0.37054970065E+00  0.34605403973E+01  0.51100000000E-03 0. -1.
        -11    1    3    3    0    0  0.21926169427E+02 -0.21278116622E+02 -0.10084388033E+02  0.32174680029E+02  0.51100000000E-03 0.  1.
        -12    1    3    3    0    0  0.14816372050E+02 -0.10320453605E+01  0.11092867564E+01  0.14893640101E+02  0.00000000000E+00 0.  1.
</event>
<event>
 7    1  0.3054835E-011  0.5052886E+02  0.7816164E-02  0.1300439E+00
        -11   -1    0    0    0    0  0.00000000000E+00  0.00000000000E+00  0.45593999997E+02  0.45594000000E+02  0.51100000000E-03 0.  1.
         11   -1    0    0    0    0 -0.00000000000E+00 -0.00000000000E+00 -0.45593999997E+02  0.45594000000E+02  0.51100000000E-03 0. -1.
    9900012    2    1    2    0    0 -0.70570632578E+01  0.11296093223E+02  0.38415646053E+02  0.50528859261E+02  0.29999998210E+02 0.  0.
         12    1    1    2    0    0  0.70570632578E+01 -0.11296093223E+02 -0.38415646053E+02  0.40659140739E+02  0.00000000000E+00 0. -1.
         11    1    3    3    0    0 -0.13893549284E+02  0.14138003829E+02  0.20041707825E+02  0.28188364918E+02  0.51100000000E-03 0. -1.
        -11    1    3    3    0    0  0.26180053739E+00 -0.41538210515E+01  0.13290271037E+02  0.13926739509E+02  0.51100000000E-03 0.  1.
        -12    1    3    3    0    0  0.65746854887E+01  0.13119104449E+01  0.50836671918E+01  0.84137548341E+01  0.00000000000E+00 0.  1.
</event>
<event>
 7    1  0.3054835E-011  0.5052884E+02  0.7816164E-02  0.1300439E+00
        -11   -1    0    0    0    0  0.00000000000E+00  0.00000000000E+00  0.45593999997E+02  0.45594000000E+02  0.51100000000E-03 0.  1.
         11   -1    0    0    0    0 -0.00000000000E+00 -0.00000000000E+00 -0.45593999997E+02  0.45594000000E+02  0.51100000000E-03 0. -1.
    9900012    2    1    2    0    0 -0.16205952864E+01 -0.36706274056E+02 -0.17412361336E+02  0.50528840989E+02  0.29999942671E+02 0.  0.
         12    1    1    2    0    0  0.16205952864E+01  0.36706274056E+02  0.17412361336E+02  0.40659159011E+02  0.00000000000E+00 0. -1.
         11    1    3    3    0    0 -0.72624212427E+00 -0.42607853368E-01  0.59868148910E+01  0.60308536587E+01  0.51100000000E-03 0. -1.
        -11    1    3    3    0    0  0.22666244647E+01 -0.25269945008E+02 -0.11970856393E+02  0.28053682650E+02  0.51100000000E-03 0.  1.
         12    1    3    3    0    0 -0.31609776268E+01 -0.11393721195E+02 -0.11428319833E+02  0.16444304681E+02  0.00000000000E+00 0. -1.
</event>
<event>
 7    1  0.3054835E-011  0.5052886E+02  0.7816164E-02  0.1300439E+00
        -11   -1    0    0    0    0  0.00000000000E+00  0.00000000000E+00  0.45593999997E+02  0.45594000000E+02  0.51100000000E-03 0.  1.
         11   -1    0    0    0    0 -0.00000000000E+00 -0.00000000000E+00 -0.45593999997E+02  0.45594000000E+02  0.51100000000E-03 0. -1.
    9900012    2    1    2    0    0  0.32956420347E+02  0.27437206035E+01  0.23654010839E+02  0.50528857441E+02  0.29999992679E+02 0.  0.
         12    1    1    2    0    0 -0.32956420347E+02 -0.27437206035E+01 -0.23654010839E+02  0.40659142559E+02  0.00000000000E+00 0. -1.
         11    1    3    3    0    0 -0.39186184445E+01 -0.53769734887E+01  0.53121235332E+01  0.85138752108E+01  0.51100000000E-03 0. -1.
        -11    1    3    3    0    0  0.19139917800E+02  0.35630703342E+01  0.10131173843E+02  0.21947040969E+02  0.51100000000E-03 0.  1.
         12    1    3    3    0    0  0.17735120992E+02  0.45576237580E+01  0.82107134625E+01  0.20067941262E+02  0.00000000000E+00 0. -1.
</event>
<event>
 7    1  0.3054835E-011  0.5052886E+02  0.7816164E-02  0.1300439E+00
        -11   -1    0    0    0    0  0.00000000000E+00  0.00000000000E+00  0.45593999997E+02  0.45594000000E+02  0.51100000000E-03 0.  1.
         11   -1    0    0    0    0 -0.00000000000E+00 -0.00000000000E+00 -0.45593999997E+02  0.45594000000E+02  0.51100000000E-03 0. -1.
    9900012    2    1    2    0    0 -0.20384831166E+02  0.68129950379E+01  0.34513878392E+02  0.50528855337E+02  0.29999986283E+02 0.  0.
         12    1    1    2    0    0  0.20384831166E+02 -0.68129950379E+01 -0.34513878392E+02  0.40659144663E+02  0.00000000000E+00 0. -1.
         11    1    3    3    0    0 -0.10827177632E+02  0.10423322364E+02  0.38493372257E+01  0.15514213545E+02  0.51100000000E-03 0. -1.
        -11    1    3    3    0    0 -0.28528690969E+01 -0.76874295671E+01  0.10135849915E+02  0.13037288414E+02  0.51100000000E-03 0.  1.
         12    1    3    3    0    0 -0.67047844371E+01  0.40771022412E+01  0.20528691252E+02  0.21977353379E+02  0.00000000000E+00 0. -1.
</event>
<event>
 7    1  0.3054835E-011  0.5052887E+02  0.7816164E-02  0.1300439E+00
        -11   -1    0    0    0    0  0.00000000000E+00  0.00000000000E+00  0.45593999997E+02  0.45594000000E+02  0.51100000000E-03 0. -1.
         11   -1    0    0    0    0 -0.00000000000E+00 -0.00000000000E+00 -0.45593999997E+02  0.45594000000E+02  0.51100000000E-03 0.  1.
    9900012    2    1    2    0    0 -0.26326884932E+02 -0.15004215589E+02 -0.27109656186E+02  0.50528870470E+02  0.30000032281E+02 0.  0.
         12    1    1    2    0    0  0.26326884932E+02  0.15004215589E+02  0.27109656186E+02  0.40659129530E+02  0.00000000000E+00 0. -1.
         11    1    3    3    0    0  0.39735073513E+00 -0.51851008593E+01  0.77729083090E+00  0.52580737751E+01  0.51100000000E-03 0. -1.
        -11    1    3    3    0    0 -0.88782360549E+01 -0.10077973003E+02 -0.23217192317E+02  0.26822129570E+02  0.51100000000E-03 0.  1.
        -12    1    3    3    0    0 -0.17845999612E+02  0.25885827275E+00 -0.46697546991E+01  0.18448667125E+02  0.00000000000E+00 0.  1.
</event>
<event>
 7    1  0.3054835E-011  0.5052882E+02  0.7816164E-02  0.1300439E+00
        -11   -1    0    0    0    0  0.00000000000E+00  0.00000000000E+00  0.45593999997E+02  0.45594000000E+02  0.51100000000E-03 0. -1.
         11   -1    0    0    0    0 -0.00000000000E+00 -0.00000000000E+00 -0.45593999997E+02  0.45594000000E+02  0.51100000000E-03 0.  1.
    9900012    2    1    2    0    0  0.32162097948E+02  0.59763899968E+01 -0.24146444103E+02  0.50528824595E+02  0.29999892839E+02 0.  0.
         12    1    1    2    0    0 -0.32162097948E+02 -0.59763899968E+01  0.24146444103E+02  0.40659175405E+02  0.00000000000E+00 0. -1.
         11    1    3    3    0    0  0.55223208239E+01  0.32642668915E+01  0.39128041642E+01  0.75140869245E+01  0.51100000000E-03 0. -1.
        -11    1    3    3    0    0  0.19799984668E+02 -0.19934775257E+01 -0.28431870959E+02  0.34704245158E+02  0.51100000000E-03 0.  1.
         12    1    3    3    0    0  0.68397924555E+01  0.47056006310E+01  0.37262269134E+00  0.83104925126E+01  0.00000000000E+00 0. -1.
</event>
<event>
 7    1  0.3054835E-011  0.5052885E+02  0.7816164E-02  0.1300439E+00
        -11   -1    0    0    0    0  0.00000000000E+00  0.00000000000E+00  0.45593999997E+02  0.45594000000E+02  0.51100000000E-03 0. -1.
         11   -1    0    0    0    0 -0.00000000000E+00 -0.00000000000E+00 -0.45593999997E+02  0.45594000000E+02  0.51100000000E-03 0.  1.
    9900012    2    1    2    0    0 -0.17193381037E+02  0.18949829840E+02 -0.31598387384E+02  0.50528849890E+02  0.29999969724E+02 0.  0.
         12    1    1    2    0    0  0.17193381037E+02 -0.18949829840E+02  0.31598387384E+02  0.40659150110E+02  0.00000000000E+00 0. -1.
         11    1    3    3    0    0 -0.66658487111E+01 -0.23963264346E+00 -0.51050313386E+01  0.83995421347E+01  0.51100000000E-03 0. -1.
        -11    1    3    3    0    0 -0.52527311953E+01  0.22437508009E+02 -0.11185154473E+02  0.25615242172E+02  0.51100000000E-03 0.  1.
        -12    1    3    3    0    0 -0.52748011304E+01 -0.32480455261E+01 -0.15308201572E+02  0.16514065583E+02  0.00000000000E+00 0.  1.
</event>
<event>
 7    1  0.3054835E-011  0.5052888E+02  0.7816164E-02  0.1300439E+00
        -11   -1    0    0    0    0  0.00000000000E+00  0.00000000000E+00  0.45593999997E+02  0.45594000000E+02  0.51100000000E-03 0.  1.
         11   -1    0    0    0    0 -0.00000000000E+00 -0.00000000000E+00 -0.45593999997E+02  0.45594000000E+02  0.51100000000E-03 0. -1.
    9900012    2    1    2    0    0 -0.36076119076E+02 -0.16506493131E+02  0.89002016109E+01  0.50528877139E+02  0.30000052553E+02 0.  0.
         12    1    1    2    0    0  0.36076119076E+02  0.16506493131E+02 -0.89002016109E+01  0.40659122861E+02  0.00000000000E+00 0. -1.
         11    1    3    3    0    0 -0.10458994958E+02  0.38676446787E+01  0.20380427281E+01  0.11335910608E+02  0.51100000000E-03 0. -1.
        -11    1    3    3    0    0 -0.20994573322E+02 -0.19385312453E+02  0.13043142462E+02  0.31411558596E+02  0.51100000000E-03 0.  1.
        -12    1    3    3    0    0 -0.46225507964E+01 -0.98882535652E+00 -0.61809835795E+01  0.77814079356E+01  0.00000000000E+00 0.  1.
</event>
<event>
 7    1  0.3054835E-011  0.5052886E+02  0.7816164E-02  0.1300439E+00
        -11   -1    0    0    0    0  0.00000000000E+00  0.00000000000E+00  0.45593999997E+02  0.45594000000E+02  0.51100000000E-03 0.  1.
         11   -1    0    0    0    0 -0.00000000000E+00 -0.00000000000E+00 -0.45593999997E+02  0.45594000000E+02  0.51100000000E-03 0. -1.
    9900012    2    1    2    0    0 -0.26793567262E+02 -0.13147749561E+02  0.27611721728E+02  0.50528859061E+02  0.29999997600E+02 0.  0.
         12    1    1    2    0    0  0.26793567262E+02  0.13147749561E+02 -0.27611721728E+02  0.40659140939E+02  0.00000000000E+00 0. -1.
         11    1    3    3    0    0  0.99369864764E+00 -0.13530564116E+02  0.77758966886E+01  0.15637396582E+02  0.51100000000E-03 0. -1.
        -11    1    3    3    0    0 -0.12801966605E+02 -0.26819143154E+00  0.13505945627E+02  0.18611094625E+02  0.51100000000E-03 0.  1.
         12    1    3    3    0    0 -0.14985299305E+02  0.65100598691E+00  0.63298794123E+01  0.16280367853E+02  0.00000000000E+00 0. -1.
</event>
<event>
 7    1  0.3054835E-011  0.5052886E+02  0.7816164E-02  0.1300439E+00
        -11   -1    0    0    0    0  0.00000000000E+00  0.00000000000E+00  0.45593999997E+02  0.45594000000E+02  0.51100000000E-03 0.  1.
         11   -1    0    0    0    0 -0.00000000000E+00 -0.00000000000E+00 -0.45593999997E+02  0.45594000000E+02  0.51100000000E-03 0. -1.
    9900012    2    1    2    0    0  0.66342106847E+01  0.40099981014E+02 -0.10697994420E+01  0.50528859581E+02  0.29999999183E+02 0.  0.
         12    1    1    2    0    0 -0.66342106847E+01 -0.40099981014E+02  0.10697994420E+01  0.40659140419E+02  0.00000000000E+00 0. -1.
         11    1    3    3    0    0  0.12645937373E+02  0.21060409618E+02 -0.11993316809E+02  0.27336792673E+02  0.51100000000E-03 0. -1.
        -11    1    3    3    0    0 -0.51124609743E+01  0.10716898826E+02  0.47410439619E+01  0.12785408706E+02  0.51100000000E-03 0.  1.
         12    1    3    3    0    0 -0.89926571359E+00  0.83226725701E+01  0.61824734055E+01  0.10406658202E+02  0.00000000000E+00 0. -1.
</event>
<event>
 7    1  0.3054835E-011  0.5052886E+02  0.7816164E-02  0.1300439E+00
        -11   -1    0    0    0    0  0.00000000000E+00  0.00000000000E+00  0.45593999997E+02  0.45594000000E+02  0.51100000000E-03 0.  1.
         11   -1    0    0    0    0 -0.00000000000E+00 -0.00000000000E+00 -0.45593999997E+02  0.45594000000E+02  0.51100000000E-03 0. -1.
    9900012    2    1    2    0    0  0.34100544393E+02  0.20028999829E+02 -0.94423434823E+01  0.50528858192E+02  0.29999994962E+02 0.  0.
         12    1    1    2    0    0 -0.34100544393E+02 -0.20028999829E+02  0.94423434823E+01  0.40659141808E+02  0.00000000000E+00 0. -1.
         11    1    3    3    0    0  0.28463222961E+02  0.25318352756E+02 -0.31324278916E+00  0.38095566263E+02  0.51100000000E-03 0.  1.
        -11    1    3    3    0    0  0.47514860286E+01 -0.52764109958E+01 -0.63828022259E+01  0.95476330571E+01  0.51100000000E-03 0. -1.
        -12    1    3    3    0    0  0.88583540371E+00 -0.12941930832E-01 -0.27462984672E+01  0.28856588723E+01  0.00000000000E+00 0.  1.
</event>
<event>
 7    1  0.3054835E-011  0.5052886E+02  0.7816164E-02  0.1300439E+00
        -11   -1    0    0    0    0  0.00000000000E+00  0.00000000000E+00  0.45593999997E+02  0.45594000000E+02  0.51100000000E-03 0. -1.
         11   -1    0    0    0    0 -0.00000000000E+00 -0.00000000000E+00 -0.45593999997E+02  0.45594000000E+02  0.51100000000E-03 0.  1.
    9900012    2    1    2    0    0  0.23669407142E+02 -0.23727375718E+02 -0.23020344127E+02  0.50528862815E+02  0.30000009012E+02 0.  0.
         12    1    1    2    0    0 -0.23669407142E+02  0.23727375718E+02  0.23020344127E+02  0.40659137185E+02  0.00000000000E+00 0. -1.
         11    1    3    3    0    0  0.17281222565E+02 -0.39747082841E+00 -0.24664092082E+01  0.17460865129E+02  0.51100000000E-03 0. -1.
        -11    1    3    3    0    0  0.73720211107E+01 -0.15252393913E+02 -0.17554605361E+02  0.24395622250E+02  0.51100000000E-03 0.  1.
         12    1    3    3    0    0 -0.98383653348E+00 -0.80775109765E+01 -0.29993295576E+01  0.86723754355E+01  0.00000000000E+00 0. -1.
</event>
<event>
 7    1  0.3054835E-011  0.5052885E+02  0.7816164E-02  0.1300439E+00
        -11   -1    0    0    0    0  0.00000000000E+00  0.00000000000E+00  0.45593999997E+02  0.45594000000E+02  0.51100000000E-03 0. -1.
         11   -1    0    0    0    0 -0.00000000000E+00 -0.00000000000E+00 -0.45593999997E+02  0.45594000000E+02  0.51100000000E-03 0.  1.
    9900012    2    1    2    0    0 -0.40631375044E+02  0.14493825635E+01  0.39614734144E+00  0.50528852437E+02  0.29999977468E+02 0.  0.
         12    1    1    2    0    0  0.40631375044E+02 -0.14493825635E+01 -0.39614734144E+00  0.40659147563E+02  0.00000000000E+00 0. -1.
         11    1    3    3    0    0 -0.36383823069E+01  0.54824941458E+01  0.57983805413E+01  0.87702214928E+01  0.51100000000E-03 0. -1.
        -11    1    3    3    0    0 -0.33341110314E+02 -0.20440582727E+01 -0.10652397017E+02  0.35061109134E+02  0.51100000000E-03 0.  1.
        -12    1    3    3    0    0 -0.36518824233E+01 -0.19890533097E+01  0.52501638169E+01  0.66975218109E+01  0.00000000000E+00 0.  1.
</event>
<event>
 7    1  0.3054835E-011  0.5052888E+02  0.7816164E-02  0.1300439E+00
        -11   -1    0    0    0    0  0.00000000000E+00  0.00000000000E+00  0.45593999997E+02  0.45594000000E+02  0.51100000000E-03 0. -1.
         11   -1    0    0    0    0 -0.00000000000E+00 -0.00000000000E+00 -0.45593999997E+02  0.45594000000E+02  0.51100000000E-03 0.  1.
    9900012    2    1    2    0    0  0.25212940988E+02 -0.25004049578E+02 -0.19805784478E+02  0.50528880637E+02  0.30000063184E+02 0.  0.
         12    1    1    2    0    0 -0.25212940988E+02  0.25004049578E+02  0.19805784478E+02  0.40659119363E+02  0.00000000000E+00 0. -1.
         11    1    3    3    0    0  0.14011261237E+02  0.42121684506E+00 -0.10804385256E+02  0.17698237372E+02  0.51100000000E-03 0. -1.
        -11    1    3    3    0    0  0.53344570497E+01 -0.22319365915E+02 -0.11585680753E+02  0.25706779760E+02  0.51100000000E-03 0.  1.
         12    1    3    3    0    0  0.58672227018E+01 -0.31059005085E+01  0.25842815310E+01  0.71238635046E+01  0.00000000000E+00 0. -1.
</event>
<event>
 7    1  0.3054835E-011  0.5052884E+02  0.7816164E-02  0.1300439E+00
        -11   -1    0    0    0    0  0.00000000000E+00  0.00000000000E+00  0.45593999997E+02  0.45594000000E+02  0.51100000000E-03 0.  1.
         11   -1    0    0    0    0 -0.00000000000E+00 -0.00000000000E+00 -0.45593999997E+02  0.45594000000E+02  0.51100000000E-03 0. -1.
    9900012    2    1    2    0    0 -0.20555736752E+02 -0.25386962115E+02  0.24210149093E+02  0.50528837712E+02  0.29999932710E+02 0.  0.
         12    1    1    2    0    0  0.20555736752E+02  0.25386962115E+02 -0.24210149093E+02  0.40659162288E+02  0.00000000000E+00 0. -1.
         11    1    3    3    0    0  0.46034611094E+00 -0.31253234784E+00  0.69604773264E+01  0.69826814250E+01  0.51100000000E-03 0. -1.
        -11    1    3    3    0    0 -0.99396312747E+01 -0.20140730177E+02 -0.14947109732E-02  0.22459859404E+02  0.51100000000E-03 0.  1.
        -12    1    3    3    0    0 -0.11076451588E+02 -0.49336995901E+01  0.17251166478E+02  0.21086296884E+02  0.00000000000E+00 0.  1.
</event>
<event>
 7    1  0.3054835E-011  0.5052886E+02  0.7816164E-02  0.1300439E+00
        -11   -1    0    0    0    0  0.00000000000E+00  0.00000000000E+00  0.45593999997E+02  0.45594000000E+02  0.51100000000E-03 0. -1.
         11   -1    0    0    0    0 -0.00000000000E+00 -0.00000000000E+00 -0.45593999997E+02  0.45594000000E+02  0.51100000000E-03 0.  1.
    9900012    2    1    2    0    0  0.23833464866E+02 -0.32478251210E+02 -0.55040837720E+01  0.50528858502E+02  0.29999995903E+02 0.  0.
         12    1    1    2    0    0 -0.23833464866E+02  0.32478251210E+02  0.55040837720E+01  0.40659141498E+02  0.00000000000E+00 0. -1.
         11    1    3    3    0    0  0.11790863987E+02 -0.96228229045E+01  0.11068843706E+02  0.18818674115E+02  0.51100000000E-03 0. -1.
        -11    1    3    3    0    0  0.10506197944E+02 -0.20117865833E+02 -0.10790401458E+02  0.25130489148E+02  0.51100000000E-03 0.  1.
         12    1    3    3    0    0  0.15364029352E+01 -0.27375624726E+01 -0.57825260201E+01  0.65796952395E+01  0.00000000000E+00 0. -1.
</event>
<event>
 7    1  0.3054835E-011  0.5052884E+02  0.7816164E-02  0.1300439E+00
        -11   -1    0    0    0    0  0.00000000000E+00  0.00000000000E+00  0.45593999997E+02  0.45594000000E+02  0.51100000000E-03 0. -1.
         11   -1    0    0    0    0 -0.00000000000E+00 -0.00000000000E+00 -0.45593999997E+02  0.45594000000E+02  0.51100000000E-03 0.  1.
    9900012    2    1    2    0    0  0.31980138621E+02 -0.93372802219E+01 -0.23307793446E+02  0.50528839857E+02  0.29999939230E+02 0.  0.
         12    1    1    2    0    0 -0.31980138621E+02  0.93372802219E+01  0.23307793446E+02  0.40659160143E+02  0.00000000000E+00 0. -1.
         11    1    3    3    0    0  0.10720719327E+02  0.45892327664E+01 -0.10176046163E+02  0.15477299378E+02  0.51100000000E-03 0. -1.
        -11    1    3    3    0    0 -0.25066704754E+01 -0.22002385950E+01  0.26030059893E+01  0.42308494642E+01  0.51100000000E-03 0.  1.
        -12    1    3    3    0    0  0.23766089770E+02 -0.11726274393E+02 -0.15734753273E+02  0.30820691015E+02  0.00000000000E+00 0.  1.
</event>
<event>
 7    1  0.3054835E-011  0.5052886E+02  0.7816164E-02  0.1300439E+00
        -11   -1    0    0    0    0  0.00000000000E+00  0.00000000000E+00  0.45593999997E+02  0.45594000000E+02  0.51100000000E-03 0.  1.
         11   -1    0    0    0    0 -0.00000000000E+00 -0.00000000000E+00 -0.45593999997E+02  0.45594000000E+02  0.51100000000E-03 0. -1.
    9900012    2    1    2    0    0  0.37148586817E+02 -0.14533088193E+02 -0.78700284640E+01  0.50528862000E+02  0.30000006534E+02 0.  0.
         12    1    1    2    0    0 -0.37148586817E+02  0.14533088193E+02  0.78700284640E+01  0.40659138000E+02  0.00000000000E+00 0. -1.
         11    1    3    3    0    0  0.26260684165E+02 -0.89979245307E+01  0.30775329995E+01  0.27929507484E+02  0.51100000000E-03 0. -1.
        -11    1    3    3    0    0  0.51106569833E+01  0.52963923978E+01 -0.28465892070E+01  0.78913660165E+01  0.51100000000E-03 0.  1.
         12    1    3    3    0    0  0.57772456689E+01 -0.10831556060E+02 -0.81009722565E+01  0.14707988499E+02  0.00000000000E+00 0. -1.
</event>
<event>
 7    1  0.3054835E-011  0.5052887E+02  0.7816164E-02  0.1300439E+00
        -11   -1    0    0    0    0  0.00000000000E+00  0.00000000000E+00  0.45593999997E+02  0.45594000000E+02  0.51100000000E-03 0. -1.
         11   -1    0    0    0    0 -0.00000000000E+00 -0.00000000000E+00 -0.45593999997E+02  0.45594000000E+02  0.51100000000E-03 0.  1.
    9900012    2    1    2    0    0 -0.22906906558E+02  0.31816697718E+02 -0.10776640113E+02  0.50528873179E+02  0.30000040514E+02 0.  0.
         12    1    1    2    0    0  0.22906906558E+02 -0.31816697718E+02  0.10776640113E+02  0.40659126821E+02  0.00000000000E+00 0. -1.
         11    1    3    3    0    0 -0.62731155590E+01  0.17322335604E+02  0.82232005454E+01  0.20175141067E+02  0.51100000000E-03 0. -1.
        -11    1    3    3    0    0 -0.10509153409E+02  0.14020015904E+02 -0.13733590730E+02  0.22262404766E+02  0.51100000000E-03 0.  1.
        -12    1    3    3    0    0 -0.61246375891E+01  0.47434621042E+00 -0.52662499278E+01  0.80913273464E+01  0.00000000000E+00 0.  1.
</event>
<event>
 7    1  0.3054835E-011  0.5052882E+02  0.7816164E-02  0.1300439E+00
        -11   -1    0    0    0    0  0.00000000000E+00  0.00000000000E+00  0.45593999997E+02  0.45594000000E+02  0.51100000000E-03 0.  1.
         11   -1    0    0    0    0 -0.00000000000E+00 -0.00000000000E+00 -0.45593999997E+02  0.45594000000E+02  0.51100000000E-03 0. -1.
    9900012    2    1    2    0    0 -0.40060628955E+02  0.88558916144E+00  0.68942318080E+01  0.50528822775E+02  0.29999887306E+02 0.  0.
         12    1    1    2    0    0  0.40060628955E+02 -0.88558916144E+00 -0.68942318080E+01  0.40659177225E+02  0.00000000000E+00 0. -1.
         11    1    3    3    0    0 -0.68221534786E+01 -0.94998741108E+01 -0.54883344524E+01  0.12919411810E+02  0.51100000000E-03 0. -1.
        -11    1    3    3    0    0 -0.25469661415E+02  0.72085977224E+01  0.12365860587E+02  0.29216126404E+02  0.51100000000E-03 0.  1.
         12    1    3    3    0    0 -0.77688140611E+01  0.31768655498E+01  0.16705673075E-01  0.83932845607E+01  0.00000000000E+00 0. -1.
</event>
<event>
 7    1  0.3054835E-011  0.5052886E+02  0.7816164E-02  0.1300439E+00
        -11   -1    0    0    0    0  0.00000000000E+00  0.00000000000E+00  0.45593999997E+02  0.45594000000E+02  0.51100000000E-03 0.  1.
         11   -1    0    0    0    0 -0.00000000000E+00 -0.00000000000E+00 -0.45593999997E+02  0.45594000000E+02  0.51100000000E-03 0. -1.
    9900012    2    1    2    0    0  0.35011731461E+02  0.86152433129E+01  0.18791544417E+02  0.50528857131E+02  0.29999991736E+02 0.  0.
         12    1    1    2    0    0 -0.35011731461E+02 -0.86152433129E+01 -0.18791544417E+02  0.40659142869E+02  0.00000000000E+00 0. -1.
         11    1    3    3    0    0 -0.90960353978E+00  0.51387957806E+01  0.27864362459E+01  0.59159807207E+01  0.51100000000E-03 0. -1.
        -11    1    3    3    0    0  0.37835220671E+02  0.36037341673E+01  0.17815982781E+02  0.41974993339E+02  0.51100000000E-03 0.  1.
        -12    1    3    3    0    0 -0.19138856695E+01 -0.12728663506E+00 -0.18108746100E+01  0.26378830710E+01  0.00000000000E+00 0.  1.
</event>
<event>
 7    1  0.3054835E-011  0.5052886E+02  0.7816164E-02  0.1300439E+00
        -11   -1    0    0    0    0  0.00000000000E+00  0.00000000000E+00  0.45593999997E+02  0.45594000000E+02  0.51100000000E-03 0.  1.
         11   -1    0    0    0    0 -0.00000000000E+00 -0.00000000000E+00 -0.45593999997E+02  0.45594000000E+02  0.51100000000E-03 0. -1.
    9900012    2    1    2    0    0  0.21128990617E+02  0.10682523603E+02  0.33054728823E+02  0.50528860159E+02  0.30000000940E+02 0.  0.
         12    1    1    2    0    0 -0.21128990617E+02 -0.10682523603E+02 -0.33054728823E+02  0.40659139841E+02  0.00000000000E+00 0. -1.
         11    1    3    3    0    0 -0.42165004180E+01  0.32203720420E+01  0.14729495558E+02  0.15655916183E+02  0.51100000000E-03 0. -1.
        -11    1    3    3    0    0  0.16445114699E+02 -0.10587409621E+01  0.62606673935E+01  0.17628348940E+02  0.51100000000E-03 0.  1.
         12    1    3    3    0    0  0.89003763358E+01  0.85208925229E+01  0.12064565872E+02  0.17244595037E+02  0.00000000000E+00 0. -1.
</event>
<event>
 7    1  0.3054835E-011  0.5052886E+02  0.7816164E-02  0.1300439E+00
        -11   -1    0    0    0    0  0.00000000000E+00  0.00000000000E+00  0.45593999997E+02  0.45594000000E+02  0.51100000000E-03 0. -1.
         11   -1    0    0    0    0 -0.00000000000E+00 -0.00000000000E+00 -0.45593999997E+02  0.45594000000E+02  0.51100000000E-03 0.  1.
    9900012    2    1    2    0    0  0.19725124297E+02 -0.31823544396E+02 -0.15853936399E+02  0.50528858275E+02  0.29999995214E+02 0.  0.
         12    1    1    2    0    0 -0.19725124297E+02  0.31823544396E+02  0.15853936399E+02  0.40659141725E+02  0.00000000000E+00 0. -1.
         11    1    3    3    0    0  0.25260777392E+01  0.35313527947E+01 -0.55747438580E+01  0.70660661367E+01  0.51100000000E-03 0. -1.
        -11    1    3    3    0    0  0.33929576162E+01 -0.18980119830E+02 -0.10678964054E+02  0.22040811775E+02  0.51100000000E-03 0.  1.
         12    1    3    3    0    0  0.13806088941E+02 -0.16374777361E+02  0.39977151299E+00  0.21421980364E+02  0.00000000000E+00 0. -1.
</event>
<event>
 7    1  0.3054835E-011  0.5052885E+02  0.7816164E-02  0.1300439E+00
        -11   -1    0    0    0    0  0.00000000000E+00  0.00000000000E+00  0.45593999997E+02  0.45594000000E+02  0.51100000000E-03 0.  1.
         11   -1    0    0    0    0 -0.00000000000E+00 -0.00000000000E+00 -0.45593999997E+02  0.45594000000E+02  0.51100000000E-03 0. -1.
    9900012    2    1    2    0    0  0.14938489487E+01  0.28229848952E+02  0.29223454077E+02  0.50528853123E+02  0.29999979554E+02 0.  0.
         12    1    1    2    0    0 -0.14938489487E+01 -0.28229848952E+02 -0.29223454077E+02  0.40659146877E+02  0.00000000000E+00 0. -1.
         11    1    3    3    0    0  0.71808707252E+01  0.28647357714E+02  0.20066653861E+02  0.35705834338E+02  0.51100000000E-03 0. -1.
        -11    1    3    3    0    0 -0.44228899114E+01  0.43080964238E+01  0.27417256955E+01  0.67556428277E+01  0.51100000000E-03 0.  1.
         12    1    3    3    0    0 -0.12641318651E+01 -0.47256051852E+01  0.64150745204E+01  0.80673759576E+01  0.00000000000E+00 0. -1.
</event>
<event>
 7    1  0.3054835E-011  0.5052885E+02  0.7816164E-02  0.1300439E+00
        -11   -1    0    0    0    0  0.00000000000E+00  0.00000000000E+00  0.45593999997E+02  0.45594000000E+02  0.51100000000E-03 0.  1.
         11   -1    0    0    0    0 -0.00000000000E+00 -0.00000000000E+00 -0.45593999997E+02  0.45594000000E+02  0.51100000000E-03 0. -1.
    9900012    2    1    2    0    0 -0.25335252419E+02 -0.16748529972E+02 -0.27032916769E+02  0.50528845306E+02  0.29999955792E+02 0.  0.
         12    1    1    2    0    0  0.25335252419E+02  0.16748529972E+02  0.27032916769E+02  0.40659154694E+02  0.00000000000E+00 0. -1.
         11    1    3    3    0    0 -0.13322406954E+02 -0.23146046581E+01 -0.16422077554E+02  0.21272718519E+02  0.51100000000E-03 0. -1.
        -11    1    3    3    0    0 -0.36431363286E+01 -0.13284913913E+02  0.21601185490E+01  0.13943725915E+02  0.51100000000E-03 0.  1.
        -12    1    3    3    0    0 -0.83697091371E+01 -0.11490114014E+01 -0.12770957764E+02  0.15312400872E+02  0.00000000000E+00 0.  1.
</event>
<event>
 7    1  0.3054835E-011  0.5052887E+02  0.7816164E-02  0.1300439E+00
        -11   -1    0    0    0    0  0.00000000000E+00  0.00000000000E+00  0.45593999997E+02  0.45594000000E+02  0.51100000000E-03 0.  1.
         11   -1    0    0    0    0 -0.00000000000E+00 -0.00000000000E+00 -0.45593999997E+02  0.45594000000E+02  0.51100000000E-03 0. -1.
    9900012    2    1    2    0    0  0.25851642292E+02  0.31380655038E+02 -0.33489821616E+00  0.50528867242E+02  0.30000022469E+02 0.  0.
         12    1    1    2    0    0 -0.25851642292E+02 -0.31380655038E+02  0.33489821616E+00  0.40659132758E+02  0.00000000000E+00 0. -1.
         11    1    3    3    0    0  0.15470599177E+02  0.12147282004E+02 -0.40908533601E+00  0.19673923098E+02  0.51100000000E-03 0. -1.
        -11    1    3    3    0    0 -0.27063323653E+01  0.17224491510E+02  0.16832816748E+01  0.17516871299E+02  0.51100000000E-03 0.  1.
        -12    1    3    3    0    0  0.13087375480E+02  0.20088815238E+01 -0.16090945550E+01  0.13338072845E+02  0.00000000000E+00 0.  1.
</event>
<event>
 7    1  0.3054835E-011  0.5052885E+02  0.7816164E-02  0.1300439E+00
        -11   -1    0    0    0    0  0.00000000000E+00  0.00000000000E+00  0.45593999997E+02  0.45594000000E+02  0.51100000000E-03 0.  1.
         11   -1    0    0    0    0 -0.00000000000E+00 -0.00000000000E+00 -0.45593999997E+02  0.45594000000E+02  0.51100000000E-03 0. -1.
    9900012    2    1    2    0    0  0.64696491089E+01  0.18203088056E+01  0.40099831879E+02  0.50528850963E+02  0.29999972986E+02 0.  0.
         12    1    1    2    0    0 -0.64696491089E+01 -0.18203088056E+01 -0.40099831879E+02  0.40659149037E+02  0.00000000000E+00 0. -1.
         11    1    3    3    0    0  0.73280106405E+01  0.10628465710E+02  0.25357650514E+02  0.28454779267E+02  0.51100000000E-03 0.  1.
        -11    1    3    3    0    0 -0.15673293822E+01 -0.88233668728E+01  0.17265687420E+02  0.19452822076E+02  0.51100000000E-03 0. -1.
        -12    1    3    3    0    0  0.70896785070E+00  0.15209968288E-01 -0.25235060553E+01  0.26212496195E+01  0.00000000000E+00 0.  1.
</event>
<event>
 7    1  0.3054835E-011  0.5052887E+02  0.7816164E-02  0.1300439E+00
        -11   -1    0    0    0    0  0.00000000000E+00  0.00000000000E+00  0.45593999997E+02  0.45594000000E+02  0.51100000000E-03 0. -1.
         11   -1    0    0    0    0 -0.00000000000E+00 -0.00000000000E+00 -0.45593999997E+02  0.45594000000E+02  0.51100000000E-03 0.  1.
    9900012    2    1    2    0    0 -0.34376347934E+02  0.19349451277E+02 -0.98503870309E+01  0.50528872038E+02  0.30000037046E+02 0.  0.
         12    1    1    2    0    0  0.34376347934E+02 -0.19349451277E+02  0.98503870309E+01  0.40659127962E+02  0.00000000000E+00 0. -1.
         11    1    3    3    0    0 -0.91632978557E+01 -0.34245608780E+01 -0.12745251807E+01  0.98649916116E+01  0.51100000000E-03 0.  1.
        -11    1    3    3    0    0 -0.16385178706E+00  0.12395263631E+02 -0.64295857770E+00  0.12413009461E+02  0.51100000000E-03 0. -1.
        -12    1    3    3    0    0 -0.25049198291E+02  0.10378748524E+02 -0.79329032726E+01  0.28250870965E+02  0.00000000000E+00 0.  1.
</event>
<event>
 7    1  0.3054835E-011  0.5052886E+02  0.7816164E-02  0.1300439E+00
        -11   -1    0    0    0    0  0.00000000000E+00  0.00000000000E+00  0.45593999997E+02  0.45594000000E+02  0.51100000000E-03 0.  1.
         11   -1    0    0    0    0 -0.00000000000E+00 -0.00000000000E+00 -0.45593999997E+02  0.45594000000E+02  0.51100000000E-03 0. -1.
    9900012    2    1    2    0    0  0.59108873671E+01 -0.72559896924E+01  0.39567381476E+02  0.50528860157E+02  0.30000000933E+02 0.  0.
         12    1    1    2    0    0 -0.59108873671E+01  0.72559896924E+01 -0.39567381476E+02  0.40659139843E+02  0.00000000000E+00 0. -1.
         11    1    3    3    0    0  0.59128506469E+01  0.90150255504E+01  0.21265078959E+02  0.23841897405E+02  0.51100000000E-03 0. -1.
        -11    1    3    3    0    0  0.52077572302E+01 -0.96856033461E+01  0.96608256190E+01  0.14637732046E+02  0.51100000000E-03 0.  1.
         12    1    3    3    0    0 -0.52097205100E+01 -0.65854118968E+01  0.86414768981E+01  0.12049230707E+02  0.00000000000E+00 0. -1.
</event>
<event>
 7    1  0.3054835E-011  0.5052886E+02  0.7816164E-02  0.1300439E+00
        -11   -1    0    0    0    0  0.00000000000E+00  0.00000000000E+00  0.45593999997E+02  0.45594000000E+02  0.51100000000E-03 0.  1.
         11   -1    0    0    0    0 -0.00000000000E+00 -0.00000000000E+00 -0.45593999997E+02  0.45594000000E+02  0.51100000000E-03 0. -1.
    9900012    2    1    2    0    0 -0.29526486063E+02  0.15002431176E+02  0.23585578336E+02  0.50528858028E+02  0.29999994463E+02 0.  0.
         12    1    1    2    0    0  0.29526486063E+02 -0.15002431176E+02 -0.23585578336E+02  0.40659141972E+02  0.00000000000E+00 0. -1.
         11    1    3    3    0    0 -0.24914629176E+02 -0.15269750911E+01  0.18402200861E+02  0.31011472018E+02  0.51100000000E-03 0. -1.
        -11    1    3    3    0    0 -0.11326512631E+01  0.53607242041E+01  0.55697455560E+01  0.78129590230E+01  0.51100000000E-03 0.  1.
         12    1    3    3    0    0 -0.34792056241E+01  0.11168682063E+02 -0.38636808163E+00  0.11704426987E+02  0.00000000000E+00 0. -1.
</event>
<event>
 7    1  0.3054835E-011  0.5052886E+02  0.7816164E-02  0.1300439E+00
        -11   -1    0    0    0    0  0.00000000000E+00  0.00000000000E+00  0.45593999997E+02  0.45594000000E+02  0.51100000000E-03 0. -1.
         11   -1    0    0    0    0 -0.00000000000E+00 -0.00000000000E+00 -0.45593999997E+02  0.45594000000E+02  0.51100000000E-03 0.  1.
    9900012    2    1    2    0    0  0.26886998382E+01 -0.73954451743E+01 -0.39890396217E+02  0.50528862939E+02  0.30000009390E+02 0.  0.
         12    1    1    2    0    0 -0.26886998382E+01  0.73954451743E+01  0.39890396217E+02  0.40659137061E+02  0.00000000000E+00 0. -1.
         11    1    3    3    0    0  0.38721021755E+01 -0.16485501430E+02 -0.19181629400E+02  0.25587102989E+02  0.51100000000E-03 0. -1.
        -11    1    3    3    0    0  0.91527011758E+00  0.53058877965E+01 -0.20073714148E+01  0.57462774868E+01  0.51100000000E-03 0.  1.
         12    1    3    3    0    0 -0.20986724549E+01  0.37841684596E+01 -0.18701395402E+02  0.19195482463E+02  0.00000000000E+00 0. -1.
</event>
<event>
 7    1  0.3054835E-011  0.5052886E+02  0.7816164E-02  0.1300439E+00
        -11   -1    0    0    0    0  0.00000000000E+00  0.00000000000E+00  0.45593999997E+02  0.45594000000E+02  0.51100000000E-03 0.  1.
         11   -1    0    0    0    0 -0.00000000000E+00 -0.00000000000E+00 -0.45593999997E+02  0.45594000000E+02  0.51100000000E-03 0. -1.
    9900012    2    1    2    0    0 -0.28932652987E+02 -0.41834716846E+01  0.28258905048E+02  0.50528861314E+02  0.30000004449E+02 0.  0.
         12    1    1    2    0    0  0.28932652987E+02  0.41834716846E+01 -0.28258905048E+02  0.40659138686E+02  0.00000000000E+00 0. -1.
         11    1    3    3    0    0 -0.55564971843E+01  0.65736116236E+01  0.16966079356E+02  0.19024586190E+02  0.51100000000E-03 0. -1.
        -11    1    3    3    0    0 -0.13737180837E+02 -0.12197427879E+02  0.11647113319E+02  0.21751842063E+02  0.51100000000E-03 0.  1.
        -12    1    3    3    0    0 -0.96389749657E+01  0.14403445708E+01 -0.35428762686E+00  0.97524330603E+01  0.00000000000E+00 0.  1.
</event>
<event>
 7    1  0.3054835E-011  0.5052886E+02  0.7816164E-02  0.1300439E+00
        -11   -1    0    0    0    0  0.00000000000E+00  0.00000000000E+00  0.45593999997E+02  0.45594000000E+02  0.51100000000E-03 0.  1.
         11   -1    0    0    0    0 -0.00000000000E+00 -0.00000000000E+00 -0.45593999997E+02  0.45594000000E+02  0.51100000000E-03 0. -1.
    9900012    2    1    2    0    0  0.13386066495E+02 -0.21569394133E+02  0.31760664941E+02  0.50528863548E+02  0.30000011241E+02 0.  0.
         12    1    1    2    0    0 -0.13386066495E+02  0.21569394133E+02 -0.31760664941E+02  0.40659136452E+02  0.00000000000E+00 0. -1.
         11    1    3    3    0    0 -0.54307166840E+01 -0.56236784184E-01 -0.45763931681E+00  0.54502550659E+01  0.51100000000E-03 0. -1.
        -11    1    3    3    0    0  0.91774805049E+01 -0.16436956283E+02  0.27211977089E+02  0.33089142896E+02  0.51100000000E-03 0.  1.
         12    1    3    3    0    0  0.96393026744E+01 -0.50762010660E+01  0.50063271692E+01  0.11989465586E+02  0.00000000000E+00 0. -1.
</event>
<event>
 7    1  0.3054835E-011  0.5052888E+02  0.7816164E-02  0.1300439E+00
        -11   -1    0    0    0    0  0.00000000000E+00  0.00000000000E+00  0.45593999997E+02  0.45594000000E+02  0.51100000000E-03 0.  1.
         11   -1    0    0    0    0 -0.00000000000E+00 -0.00000000000E+00 -0.45593999997E+02  0.45594000000E+02  0.51100000000E-03 0. -1.
    9900012    2    1    2    0    0 -0.31999919444E+02 -0.25083233648E+02  0.26331651379E-01  0.50528878661E+02  0.30000057179E+02 0.  0.
         12    1    1    2    0    0  0.31999919444E+02  0.25083233648E+02 -0.26331651379E-01  0.40659121339E+02  0.00000000000E+00 0. -1.
         11    1    3    3    0    0 -0.52236852220E+00 -0.15204546474E+02 -0.45368392393E+01  0.15875579135E+02  0.51100000000E-03 0. -1.
        -11    1    3    3    0    0 -0.80871429177E+01 -0.44277894216E+01  0.52813122731E+01  0.10625415725E+02  0.51100000000E-03 0.  1.
         12    1    3    3    0    0 -0.23390408005E+02 -0.54508977526E+01 -0.71814138239E+00  0.24027883801E+02  0.00000000000E+00 0. -1.
</event>
<event>
 7    1  0.3054835E-011  0.5052885E+02  0.7816164E-02  0.1300439E+00
        -11   -1    0    0    0    0  0.00000000000E+00  0.00000000000E+00  0.45593999997E+02  0.45594000000E+02  0.51100000000E-03 0.  1.
         11   -1    0    0    0    0 -0.00000000000E+00 -0.00000000000E+00 -0.45593999997E+02  0.45594000000E+02  0.51100000000E-03 0. -1.
    9900012    2    1    2    0    0  0.15402979741E+02  0.54478062995E-01  0.37628605007E+02  0.50528847678E+02  0.29999963003E+02 0.  0.
         12    1    1    2    0    0 -0.15402979741E+02 -0.54478062995E-01 -0.37628605007E+02  0.40659152322E+02  0.00000000000E+00 0. -1.
         11    1    3    3    0    0  0.30923067642E+01 -0.12815644538E+01  0.50074139046E+01  0.60232020426E+01  0.51100000000E-03 0. -1.
        -11    1    3    3    0    0  0.10431621834E+02 -0.82392578422E+01  0.32088802424E+02  0.34733202345E+02  0.51100000000E-03 0.  1.
        -12    1    3    3    0    0  0.18790511431E+01  0.95753003590E+01  0.53238867773E+00  0.97724432905E+01  0.00000000000E+00 0.  1.
</event>
<event>
 7    1  0.3054835E-011  0.5052886E+02  0.7816164E-02  0.1300439E+00
        -11   -1    0    0    0    0  0.00000000000E+00  0.00000000000E+00  0.45593999997E+02  0.45594000000E+02  0.51100000000E-03 0. -1.
         11   -1    0    0    0    0 -0.00000000000E+00 -0.00000000000E+00 -0.45593999997E+02  0.45594000000E+02  0.51100000000E-03 0.  1.
    9900012    2    1    2    0    0  0.29179261932E+01 -0.35365525733E+02  0.19847695736E+02  0.50528859211E+02  0.29999998059E+02 0.  0.
         12    1    1    2    0    0 -0.29179261932E+01  0.35365525733E+02 -0.19847695736E+02  0.40659140789E+02  0.00000000000E+00 0. -1.
         11    1    3    3    0    0  0.58702324436E+01 -0.20583959214E+02  0.11293274418E+01  0.21434420603E+02  0.51100000000E-03 0.  1.
        -11    1    3    3    0    0 -0.51909393029E+01 -0.15198760238E+02  0.20613606710E+02  0.26131761239E+02  0.51100000000E-03 0. -1.
         12    1    3    3    0    0  0.22386330526E+01  0.41719371809E+00 -0.18952384158E+01  0.29626773694E+01  0.00000000000E+00 0. -1.
</event>
<event>
 7    1  0.3054835E-011  0.5052884E+02  0.7816164E-02  0.1300439E+00
        -11   -1    0    0    0    0  0.00000000000E+00  0.00000000000E+00  0.45593999997E+02  0.45594000000E+02  0.51100000000E-03 0.  1.
         11   -1    0    0    0    0 -0.00000000000E+00 -0.00000000000E+00 -0.45593999997E+02  0.45594000000E+02  0.51100000000E-03 0. -1.
    9900012    2    1    2    0    0 -0.28690023940E+02  0.17658238222E+02  0.22764809119E+02  0.50528838855E+02  0.29999936185E+02 0.  0.
         12    1    1    2    0    0  0.28690023940E+02 -0.17658238222E+02 -0.22764809119E+02  0.40659161145E+02  0.00000000000E+00 0. -1.
         11    1    3    3    0    0 -0.39845717179E+01 -0.40651629175E+01 -0.39775132772E+01  0.69442763088E+01  0.51100000000E-03 0. -1.
        -11    1    3    3    0    0 -0.22514471663E+02  0.15980652494E+02  0.18229607180E+02  0.33084758826E+02  0.51100000000E-03 0.  1.
         12    1    3    3    0    0 -0.21909805588E+01  0.57427486456E+01  0.85127152158E+01  0.10499803720E+02  0.00000000000E+00 0. -1.
</event>
<event>
 7    1  0.3054835E-011  0.5052886E+02  0.7816164E-02  0.1300439E+00
        -11   -1    0    0    0    0  0.00000000000E+00  0.00000000000E+00  0.45593999997E+02  0.45594000000E+02  0.51100000000E-03 0. -1.
         11   -1    0    0    0    0 -0.00000000000E+00 -0.00000000000E+00 -0.45593999997E+02  0.45594000000E+02  0.51100000000E-03 0.  1.
    9900012    2    1    2    0    0 -0.26157135423E+02  0.30917940825E+02 -0.36126199909E+01  0.50528858081E+02  0.29999994623E+02 0.  0.
         12    1    1    2    0    0  0.26157135423E+02 -0.30917940825E+02  0.36126199909E+01  0.40659141919E+02  0.00000000000E+00 0. -1.
         11    1    3    3    0    0  0.54252922134E+01  0.52229243691E+01 -0.28314318097E+01  0.80454795333E+01  0.51100000000E-03 0. -1.
        -11    1    3    3    0    0 -0.23361736740E+02  0.20720329259E+02 -0.56147784305E+01  0.31727409684E+02  0.51100000000E-03 0.  1.
         12    1    3    3    0    0 -0.82206908957E+01  0.49746871968E+01  0.48335902493E+01  0.10755968864E+02  0.00000000000E+00 0. -1.
</event>
<event>
 7    1  0.3054835E-011  0.5052885E+02  0.7816164E-02  0.1300439E+00
        -11   -1    0    0    0    0  0.00000000000E+00  0.00000000000E+00  0.45593999997E+02  0.45594000000E+02  0.51100000000E-03 0. -1.
         11   -1    0    0    0    0 -0.00000000000E+00 -0.00000000000E+00 -0.45593999997E+02  0.45594000000E+02  0.51100000000E-03 0.  1.
    9900012    2    1    2    0    0  0.15747548394E+02  0.25822850059E+02 -0.27172804171E+02  0.50528854016E+02  0.29999982268E+02 0.  0.
         12    1    1    2    0    0 -0.15747548394E+02 -0.25822850059E+02  0.27172804171E+02  0.40659145984E+02  0.00000000000E+00 0. -1.
         11    1    3    3    0    0 -0.32340353028E+01 -0.78686911395E+00 -0.37276759080E+01  0.49973708366E+01  0.51100000000E-03 0. -1.
        -11    1    3    3    0    0  0.15691810329E+02  0.21770245240E+02 -0.27490535539E+02  0.38417522483E+02  0.51100000000E-03 0.  1.
        -12    1    3    3    0    0  0.32897733680E+01  0.48394739335E+01  0.40454072764E+01  0.71139606970E+01  0.00000000000E+00 0.  1.
</event>
<event>
 7    1  0.3054835E-011  0.5052885E+02  0.7816164E-02  0.1300439E+00
        -11   -1    0    0    0    0  0.00000000000E+00  0.00000000000E+00  0.45593999997E+02  0.45594000000E+02  0.51100000000E-03 0.  1.
         11   -1    0    0    0    0 -0.00000000000E+00 -0.00000000000E+00 -0.45593999997E+02  0.45594000000E+02  0.51100000000E-03 0. -1.
    9900012    2    1    2    0    0  0.35224389237E+02  0.15860602477E+02  0.12682657672E+02  0.50528854489E+02  0.29999983705E+02 0.  0.
         12    1    1    2    0    0 -0.35224389237E+02 -0.15860602477E+02 -0.12682657672E+02  0.40659145511E+02  0.00000000000E+00 0. -1.
         11    1    3    3    0    0  0.16419056718E+02 -0.20975420687E+01  0.16571404370E+02  0.23422138017E+02  0.51100000000E-03 0. -1.
        -11    1    3    3    0    0  0.15684097237E+01  0.46212790345E+01  0.39301326533E+00  0.48959767834E+01  0.51100000000E-03 0.  1.
         12    1    3    3    0    0  0.17236922795E+02  0.13336865512E+02 -0.42817599633E+01  0.22210739688E+02  0.00000000000E+00 0. -1.
</event>
<event>
 7    1  0.3054835E-011  0.5052886E+02  0.7816164E-02  0.1300439E+00
        -11   -1    0    0    0    0  0.00000000000E+00  0.00000000000E+00  0.45593999997E+02  0.45594000000E+02  0.51100000000E-03 0.  1.
         11   -1    0    0    0    0 -0.00000000000E+00 -0.00000000000E+00 -0.45593999997E+02  0.45594000000E+02  0.51100000000E-03 0. -1.
    9900012    2    1    2    0    0  0.15964724346E+02 -0.16721874922E+02  0.33446554072E+02  0.50528861991E+02  0.30000006507E+02 0.  0.
         12    1    1    2    0    0 -0.15964724346E+02  0.16721874922E+02 -0.33446554072E+02  0.40659138009E+02  0.00000000000E+00 0. -1.
         11    1    3    3    0    0  0.33182743110E+00 -0.24349723137E+01 -0.34584620910E+01  0.42426595325E+01  0.51100000000E-03 0. -1.
        -11    1    3    3    0    0  0.15870876287E+02 -0.29758972847E+01  0.17404592679E+02  0.23741535867E+02  0.51100000000E-03 0.  1.
        -12    1    3    3    0    0 -0.23797937185E+00 -0.11311005324E+02  0.19500423485E+02  0.22544666591E+02  0.00000000000E+00 0.  1.
</event>
<event>
 7    1  0.3054835E-011  0.5052885E+02  0.7816164E-02  0.1300439E+00
        -11   -1    0    0    0    0  0.00000000000E+00  0.00000000000E+00  0.45593999997E+02  0.45594000000E+02  0.51100000000E-03 0.  1.
         11   -1    0    0    0    0 -0.00000000000E+00 -0.00000000000E+00 -0.45593999997E+02  0.45594000000E+02  0.51100000000E-03 0. -1.
    9900012    2    1    2    0    0 -0.37827646976E+02 -0.14901491879E+02 -0.42519651187E+00  0.50528854312E+02  0.29999983167E+02 0.  0.
         12    1    1    2    0    0  0.37827646976E+02  0.14901491879E+02  0.42519651187E+00  0.40659145688E+02  0.00000000000E+00 0. -1.
         11    1    3    3    0    0 -0.89887286820E+01 -0.12264658786E+02 -0.11887915579E+02  0.19301337662E+02  0.51100000000E-03 0. -1.
        -11    1    3    3    0    0 -0.17626391848E+02 -0.20475155613E+01  0.59234081980E+01  0.18707452378E+02  0.51100000000E-03 0.  1.
         12    1    3    3    0    0 -0.11212526447E+02 -0.58931753134E+00  0.55393108692E+01  0.12520064272E+02  0.00000000000E+00 0. -1.
</event>
<event>
 7    1  0.3054835E-011  0.5052885E+02  0.7816164E-02  0.1300439E+00
        -11   -1    0    0    0    0  0.00000000000E+00  0.00000000000E+00  0.45593999997E+02  0.45594000000E+02  0.51100000000E-03 0.  1.
         11   -1    0    0    0    0 -0.00000000000E+00 -0.00000000000E+00 -0.45593999997E+02  0.45594000000E+02  0.51100000000E-03 0. -1.
    9900012    2    1    2    0    0 -0.30935242548E+02  0.27763858128E+01  0.26238691722E+02  0.50528849824E+02  0.29999969527E+02 0.  0.
         12    1    1    2    0    0  0.30935242548E+02 -0.27763858128E+01 -0.26238691722E+02  0.40659150176E+02  0.00000000000E+00 0. -1.
         11    1    3    3    0    0 -0.89368203936E+01 -0.52715424627E+01  0.37642273991E+01  0.11037451103E+02  0.51100000000E-03 0. -1.
        -11    1    3    3    0    0 -0.44573954719E+01  0.13140277141E+02  0.12522646151E+02  0.18690958366E+02  0.51100000000E-03 0.  1.
        -12    1    3    3    0    0 -0.17541026683E+02 -0.50923488656E+01  0.99518181714E+01  0.20800440355E+02  0.00000000000E+00 0.  1.
</event>
<event>
 7    1  0.3054835E-011  0.5052886E+02  0.7816164E-02  0.1300439E+00
        -11   -1    0    0    0    0  0.00000000000E+00  0.00000000000E+00  0.45593999997E+02  0.45594000000E+02  0.51100000000E-03 0.  1.
         11   -1    0    0    0    0 -0.00000000000E+00 -0.00000000000E+00 -0.45593999997E+02  0.45594000000E+02  0.51100000000E-03 0. -1.
    9900012    2    1    2    0    0  0.25695866461E+02  0.25534257449E+02  0.18463205509E+02  0.50528858171E+02  0.29999994895E+02 0.  0.
         12    1    1    2    0    0 -0.25695866461E+02 -0.25534257449E+02 -0.18463205509E+02  0.40659141829E+02  0.00000000000E+00 0. -1.
         11    1    3    3    0    0  0.47435913314E+01  0.42757904838E+01 -0.78813425907E+01  0.10143944217E+02  0.51100000000E-03 0. -1.
        -11    1    3    3    0    0  0.13875642812E+02  0.16122712647E+02  0.14848047646E+02  0.25941084127E+02  0.51100000000E-03 0.  1.
         12    1    3    3    0    0  0.70766323179E+01  0.51357543180E+01  0.11496500454E+02  0.14443829827E+02  0.00000000000E+00 0. -1.
</event>
<event>
 7    1  0.3054835E-011  0.5052885E+02  0.7816164E-02  0.1300439E+00
        -11   -1    0    0    0    0  0.00000000000E+00  0.00000000000E+00  0.45593999997E+02  0.45594000000E+02  0.51100000000E-03 0.  1.
         11   -1    0    0    0    0 -0.00000000000E+00 -0.00000000000E+00 -0.45593999997E+02  0.45594000000E+02  0.51100000000E-03 0. -1.
    9900012    2    1    2    0    0 -0.33482199375E+02 -0.17278944128E+02 -0.15282229399E+02  0.50528854405E+02  0.29999983448E+02 0.  0.
         12    1    1    2    0    0  0.33482199375E+02  0.17278944128E+02  0.15282229399E+02  0.40659145595E+02  0.00000000000E+00 0. -1.
         11    1    3    3    0    0  0.22820408915E+01 -0.44121647507E+01 -0.97084589797E+01  0.10905461221E+02  0.51100000000E-03 0. -1.
        -11    1    3    3    0    0 -0.25708794608E+02 -0.11982324131E+02 -0.60023608841E+00  0.28370380600E+02  0.51100000000E-03 0.  1.
        -12    1    3    3    0    0 -0.10055445658E+02 -0.88445524631E+00 -0.49735343306E+01  0.11253012583E+02  0.00000000000E+00 0.  1.
</event>
<event>
 7    1  0.3054835E-011  0.5052887E+02  0.7816164E-02  0.1300439E+00
        -11   -1    0    0    0    0  0.00000000000E+00  0.00000000000E+00  0.45593999997E+02  0.45594000000E+02  0.51100000000E-03 0.  1.
         11   -1    0    0    0    0 -0.00000000000E+00 -0.00000000000E+00 -0.45593999997E+02  0.45594000000E+02  0.51100000000E-03 0. -1.
    9900012    2    1    2    0    0 -0.67881137546E+00  0.32501776423E+02  0.24420045222E+02  0.50528869855E+02  0.30000030410E+02 0.  0.
         12    1    1    2    0    0  0.67881137546E+00 -0.32501776423E+02 -0.24420045222E+02  0.40659130145E+02  0.00000000000E+00 0. -1.
         11    1    3    3    0    0  0.36490280997E+01  0.10702402047E+01  0.15617820547E+02  0.16074113943E+02  0.51100000000E-03 0. -1.
        -11    1    3    3    0    0 -0.73735850242E+01  0.16986871475E+02  0.41591685916E+01  0.18979521655E+02  0.51100000000E-03 0.  1.
         12    1    3    3    0    0  0.30457455490E+01  0.14444664744E+02  0.46430560835E+01  0.15475234257E+02  0.00000000000E+00 0. -1.
</event>
<event>
 7    1  0.3054835E-011  0.5052885E+02  0.7816164E-02  0.1300439E+00
        -11   -1    0    0    0    0  0.00000000000E+00  0.00000000000E+00  0.45593999997E+02  0.45594000000E+02  0.51100000000E-03 0. -1.
         11   -1    0    0    0    0 -0.00000000000E+00 -0.00000000000E+00 -0.45593999997E+02  0.45594000000E+02  0.51100000000E-03 0.  1.
    9900012    2    1    2    0    0  0.30738856999E+02  0.19556456123E+01 -0.26541747476E+02  0.50528852954E+02  0.29999979040E+02 0.  0.
         12    1    1    2    0    0 -0.30738856999E+02 -0.19556456123E+01  0.26541747476E+02  0.40659147046E+02  0.00000000000E+00 0. -1.
         11    1    3    3    0    0 -0.25585617149E+01  0.74833756682E+00 -0.10011971405E+01  0.28475679339E+01  0.51100000000E-03 0. -1.
        -11    1    3    3    0    0  0.33463992319E+02  0.64220880757E+01 -0.18070985202E+02  0.38569968934E+02  0.51100000000E-03 0.  1.
        -12    1    3    3    0    0 -0.16657360452E+00 -0.52147800302E+01 -0.74695651342E+01  0.91113160862E+01  0.00000000000E+00 0.  1.
</event>
<event>
 7    1  0.3054835E-011  0.5052886E+02  0.7816164E-02  0.1300439E+00
        -11   -1    0    0    0    0  0.00000000000E+00  0.00000000000E+00  0.45593999997E+02  0.45594000000E+02  0.51100000000E-03 0. -1.
         11   -1    0    0    0    0 -0.00000000000E+00 -0.00000000000E+00 -0.45593999997E+02  0.45594000000E+02  0.51100000000E-03 0.  1.
    9900012    2    1    2    0    0  0.24168388269E+02 -0.31374120129E+01 -0.32545528135E+02  0.50528858995E+02  0.29999997401E+02 0.  0.
         12    1    1    2    0    0 -0.24168388269E+02  0.31374120129E+01  0.32545528135E+02  0.40659141005E+02  0.00000000000E+00 0. -1.
         11    1    3    3    0    0  0.18440972787E+02 -0.11217393870E+01 -0.26322498279E+01  0.18661632190E+02  0.51100000000E-03 0. -1.
        -11    1    3    3    0    0  0.47046710845E+01 -0.80093811653E+00 -0.29900772124E+02  0.30279227297E+02  0.51100000000E-03 0.  1.
        -12    1    3    3    0    0  0.10227443972E+01 -0.12147345094E+01 -0.12506183779E-01  0.15879995072E+01  0.00000000000E+00 0.  1.
</event>
<event>
 7    1  0.3054835E-011  0.5052886E+02  0.7816164E-02  0.1300439E+00
        -11   -1    0    0    0    0  0.00000000000E+00  0.00000000000E+00  0.45593999997E+02  0.45594000000E+02  0.51100000000E-03 0. -1.
         11   -1    0    0    0    0 -0.00000000000E+00 -0.00000000000E+00 -0.45593999997E+02  0.45594000000E+02  0.51100000000E-03 0.  1.
    9900012    2    1    2    0    0 -0.13557444337E+02  0.35476046370E+02 -0.14519353148E+02  0.50528858607E+02  0.29999996221E+02 0.  0.
         12    1    1    2    0    0  0.13557444337E+02 -0.35476046370E+02  0.14519353148E+02  0.40659141393E+02  0.00000000000E+00 0. -1.
         11    1    3    3    0    0  0.43773805062E+01  0.89355904213E+00  0.35797070488E+01  0.57248764767E+01  0.51100000000E-03 0. -1.
        -11    1    3    3    0    0 -0.10253304762E+02  0.10628948928E+02 -0.11717195722E+02  0.18851989012E+02  0.51100000000E-03 0.  1.
        -12    1    3    3    0    0 -0.76815200817E+01  0.23953538400E+02 -0.63818644750E+01  0.25951993118E+02  0.00000000000E+00 0.  1.
</event>
<event>
 7    1  0.3054835E-011  0.5052886E+02  0.7816164E-02  0.1300439E+00
        -11   -1    0    0    0    0  0.00000000000E+00  0.00000000000E+00  0.45593999997E+02  0.45594000000E+02  0.51100000000E-03 0. -1.
         11   -1    0    0    0    0 -0.00000000000E+00 -0.00000000000E+00 -0.45593999997E+02  0.45594000000E+02  0.51100000000E-03 0.  1.
    9900012    2    1    2    0    0 -0.37915269052E+02  0.12892674101E+02 -0.70268618443E+01  0.50528862526E+02  0.30000008133E+02 0.  0.
         12    1    1    2    0    0  0.37915269052E+02 -0.12892674101E+02  0.70268618443E+01  0.40659137474E+02  0.00000000000E+00 0. -1.
         11    1    3    3    0    0 -0.21851788059E+02  0.14237253571E+02  0.14689750703E+01  0.26121981522E+02  0.51100000000E-03 0.  1.
        -11    1    3    3    0    0 -0.97950878377E+01  0.41987077190E+01 -0.11346782541E+02  0.15566706991E+02  0.51100000000E-03 0. -1.
         12    1    3    3    0    0 -0.62683931556E+01 -0.55432871886E+01  0.28509456262E+01  0.88401740125E+01  0.00000000000E+00 0. -1.
</event>
<event>
 7    1  0.3054835E-011  0.5052887E+02  0.7816164E-02  0.1300439E+00
        -11   -1    0    0    0    0  0.00000000000E+00  0.00000000000E+00  0.45593999997E+02  0.45594000000E+02  0.51100000000E-03 0. -1.
         11   -1    0    0    0    0 -0.00000000000E+00 -0.00000000000E+00 -0.45593999997E+02  0.45594000000E+02  0.51100000000E-03 0.  1.
    9900012    2    1    2    0    0  0.16801216153E+02  0.36451427775E+02  0.64944132477E+01  0.50528869974E+02  0.30000030773E+02 0.  0.
         12    1    1    2    0    0 -0.16801216153E+02 -0.36451427775E+02 -0.64944132477E+01  0.40659130026E+02  0.00000000000E+00 0. -1.
         11    1    3    3    0    0  0.63408256866E+01  0.95360090324E+01  0.72943085874E+01  0.13577498911E+02  0.51100000000E-03 0. -1.
        -11    1    3    3    0    0 -0.67410919024E+01  0.13613125480E+02 -0.68323683967E+00  0.15206127653E+02  0.51100000000E-03 0.  1.
        -12    1    3    3    0    0  0.17201482369E+02  0.13302293263E+02 -0.11665850005E+00  0.21745243410E+02  0.00000000000E+00 0.  1.
</event>
<event>
 7    1  0.3054835E-011  0.5052886E+02  0.7816164E-02  0.1300439E+00
        -11   -1    0    0    0    0  0.00000000000E+00  0.00000000000E+00  0.45593999997E+02  0.45594000000E+02  0.51100000000E-03 0. -1.
         11   -1    0    0    0    0 -0.00000000000E+00 -0.00000000000E+00 -0.45593999997E+02  0.45594000000E+02  0.51100000000E-03 0.  1.
    9900012    2    1    2    0    0 -0.67124305877E+01 -0.78051590002E+01 -0.39334320614E+02  0.50528855769E+02  0.29999987595E+02 0.  0.
         12    1    1    2    0    0  0.67124305877E+01  0.78051590002E+01  0.39334320614E+02  0.40659144231E+02  0.00000000000E+00 0. -1.
         11    1    3    3    0    0  0.34088933974E+01 -0.29457396822E+01 -0.22460909190E+02  0.22908303699E+02  0.51100000000E-03 0. -1.
        -11    1    3    3    0    0 -0.11512785849E+02  0.32757839014E+01 -0.14940258183E+02  0.19143832245E+02  0.51100000000E-03 0.  1.
         12    1    3    3    0    0  0.13914618639E+01 -0.81352032194E+01 -0.19331532411E+01  0.84767198251E+01  0.00000000000E+00 0. -1.
</event>
<event>
 7    1  0.3054835E-011  0.5052885E+02  0.7816164E-02  0.1300439E+00
        -11   -1    0    0    0    0  0.00000000000E+00  0.00000000000E+00  0.45593999997E+02  0.45594000000E+02  0.51100000000E-03 0.  1.
         11   -1    0    0    0    0 -0.00000000000E+00 -0.00000000000E+00 -0.45593999997E+02  0.45594000000E+02  0.51100000000E-03 0. -1.
    9900012    2    1    2    0    0 -0.21350022332E+01  0.71437350658E+01  0.39969676656E+02  0.50528852970E+02  0.29999979086E+02 0.  0.
         12    1    1    2    0    0  0.21350022332E+01 -0.71437350658E+01 -0.39969676656E+02  0.40659147030E+02  0.00000000000E+00 0. -1.
         11    1    3    3    0    0 -0.11569497830E+02  0.13021851845E+01  0.24968097254E+02  0.27549135141E+02  0.51100000000E-03 0. -1.
        -11    1    3    3    0    0  0.17513859056E+01 -0.40770214944E+01  0.18616053663E+01  0.48119675453E+01  0.51100000000E-03 0.  1.
         12    1    3    3    0    0  0.76831096915E+01  0.99185713756E+01  0.13139974036E+02  0.18167750283E+02  0.00000000000E+00 0. -1.
</event>
<event>
 7    1  0.3054835E-011  0.5052886E+02  0.7816164E-02  0.1300439E+00
        -11   -1    0    0    0    0  0.00000000000E+00  0.00000000000E+00  0.45593999997E+02  0.45594000000E+02  0.51100000000E-03 0.  1.
         11   -1    0    0    0    0 -0.00000000000E+00 -0.00000000000E+00 -0.45593999997E+02  0.45594000000E+02  0.51100000000E-03 0. -1.
    9900012    2    1    2    0    0 -0.24963864247E+02 -0.79210003085E+01  0.31100298707E+02  0.50528863958E+02  0.30000012485E+02 0.  0.
         12    1    1    2    0    0  0.24963864247E+02  0.79210003085E+01 -0.31100298707E+02  0.40659136042E+02  0.00000000000E+00 0. -1.
         11    1    3    3    0    0 -0.95308353927E+01 -0.66172034498E+01 -0.17390656087E+01  0.11732372063E+02  0.51100000000E-03 0.  1.
        -11    1    3    3    0    0 -0.33582579409E+01  0.53361774229E+01  0.14871765725E+02  0.16153083357E+02  0.51100000000E-03 0. -1.
         12    1    3    3    0    0 -0.12074770914E+02 -0.66399742816E+01  0.17967598591E+02  0.22643408538E+02  0.00000000000E+00 0. -1.
</event>
<event>
 7    1  0.3054835E-011  0.5052886E+02  0.7816164E-02  0.1300439E+00
        -11   -1    0    0    0    0  0.00000000000E+00  0.00000000000E+00  0.45593999997E+02  0.45594000000E+02  0.51100000000E-03 0.  1.
         11   -1    0    0    0    0 -0.00000000000E+00 -0.00000000000E+00 -0.45593999997E+02  0.45594000000E+02  0.51100000000E-03 0. -1.
    9900012    2    1    2    0    0 -0.14883198447E+02  0.29641145701E+02  0.23517202052E+02  0.50528857032E+02  0.29999991436E+02 0.  0.
         12    1    1    2    0    0  0.14883198447E+02 -0.29641145701E+02 -0.23517202052E+02  0.40659142968E+02  0.00000000000E+00 0. -1.
         11    1    3    3    0    0 -0.27036070635E+01 -0.29353438678E+01  0.87097853506E+01  0.95805060352E+01  0.51100000000E-03 0. -1.
        -11    1    3    3    0    0 -0.15878429037E+02  0.23597657448E+02  0.11666429081E+02  0.30742145557E+02  0.51100000000E-03 0.  1.
         12    1    3    3    0    0  0.36988376532E+01  0.89788321213E+01  0.31409876205E+01  0.10206205440E+02  0.00000000000E+00 0. -1.
</event>
<event>
 7    1  0.3054835E-011  0.5052885E+02  0.7816164E-02  0.1300439E+00
        -11   -1    0    0    0    0  0.00000000000E+00  0.00000000000E+00  0.45593999997E+02  0.45594000000E+02  0.51100000000E-03 0. -1.
         11   -1    0    0    0    0 -0.00000000000E+00 -0.00000000000E+00 -0.45593999997E+02  0.45594000000E+02  0.51100000000E-03 0.  1.
    9900012    2    1    2    0    0 -0.11974638976E+02  0.98301399278E+01 -0.37591792992E+02  0.50528849370E+02  0.29999968144E+02 0.  0.
         12    1    1    2    0    0  0.11974638976E+02 -0.98301399278E+01  0.37591792992E+02  0.40659150630E+02  0.00000000000E+00 0. -1.
         11    1    3    3    0    0 -0.32317659512E+01 -0.36612944482E+01 -0.79596827161E+00  0.49480252577E+01  0.51100000000E-03 0. -1.
        -11    1    3    3    0    0 -0.60325856616E+01  0.11181138802E+02 -0.39250526970E+02  0.41255470211E+02  0.51100000000E-03 0.  1.
        -12    1    3    3    0    0 -0.27102873637E+01  0.23102955739E+01  0.24547022495E+01  0.43253539007E+01  0.00000000000E+00 0.  1.
</event>
<event>
 7    1  0.3054835E-011  0.5052886E+02  0.7816164E-02  0.1300439E+00
        -11   -1    0    0    0    0  0.00000000000E+00  0.00000000000E+00  0.45593999997E+02  0.45594000000E+02  0.51100000000E-03 0.  1.
         11   -1    0    0    0    0 -0.00000000000E+00 -0.00000000000E+00 -0.45593999997E+02  0.45594000000E+02  0.51100000000E-03 0. -1.
    9900012    2    1    2    0    0  0.38006661314E+02 -0.10830775229E+02  0.95579238914E+01  0.50528857051E+02  0.29999991491E+02 0.  0.
         12    1    1    2    0    0 -0.38006661314E+02  0.10830775229E+02 -0.95579238914E+01  0.40659142949E+02  0.00000000000E+00 0. -1.
         11    1    3    3    0    0  0.23414732237E+02 -0.10306721636E+02  0.16430354672E+02  0.30404518604E+02  0.51100000000E-03 0.  1.
        -11    1    3    3    0    0  0.43580300179E+01 -0.31478746411E+01 -0.78498851798E+01  0.95143175262E+01  0.51100000000E-03 0. -1.
        -12    1    3    3    0    0  0.10233899058E+02  0.26238210483E+01  0.97745439913E+00  0.10610020921E+02  0.00000000000E+00 0.  1.
</event>
<event>
 7    1  0.3054835E-011  0.5052886E+02  0.7816164E-02  0.1300439E+00
        -11   -1    0    0    0    0  0.00000000000E+00  0.00000000000E+00  0.45593999997E+02  0.45594000000E+02  0.51100000000E-03 0. -1.
         11   -1    0    0    0    0 -0.00000000000E+00 -0.00000000000E+00 -0.45593999997E+02  0.45594000000E+02  0.51100000000E-03 0.  1.
    9900012    2    1    2    0    0 -0.29983677741E+02 -0.95080723454E+01 -0.25763174521E+02  0.50528861642E+02  0.30000005446E+02 0.  0.
         12    1    1    2    0    0  0.29983677741E+02  0.95080723454E+01  0.25763174521E+02  0.40659138358E+02  0.00000000000E+00 0. -1.
         11    1    3    3    0    0 -0.12979020583E+02  0.72772810667E+01 -0.16009433992E+02  0.21856710000E+02  0.51100000000E-03 0. -1.
        -11    1    3    3    0    0 -0.10966290908E+02 -0.13749562842E+02 -0.10036278662E+01  0.17615824811E+02  0.51100000000E-03 0.  1.
        -12    1    3    3    0    0 -0.60383662511E+01 -0.30357905700E+01 -0.87501126636E+01  0.11056326831E+02  0.00000000000E+00 0.  1.
</event>
<event>
 7    1  0.3054835E-011  0.5052887E+02  0.7816164E-02  0.1300439E+00
        -11   -1    0    0    0    0  0.00000000000E+00  0.00000000000E+00  0.45593999997E+02  0.45594000000E+02  0.51100000000E-03 0.  1.
         11   -1    0    0    0    0 -0.00000000000E+00 -0.00000000000E+00 -0.45593999997E+02  0.45594000000E+02  0.51100000000E-03 0. -1.
    9900012    2    1    2    0    0 -0.28505936728E+02 -0.27648901113E+02 -0.87243923485E+01  0.50528865930E+02  0.30000018480E+02 0.  0.
         12    1    1    2    0    0  0.28505936728E+02  0.27648901113E+02  0.87243923485E+01  0.40659134070E+02  0.00000000000E+00 0. -1.
         11    1    3    3    0    0 -0.24909222906E+02 -0.97741196679E+01 -0.21601327052E+01  0.26845278442E+02  0.51100000000E-03 0. -1.
        -11    1    3    3    0    0  0.20175806498E+01 -0.13481655392E+02  0.50879276489E+00  0.13641280517E+02  0.51100000000E-03 0.  1.
        -12    1    3    3    0    0 -0.56142944715E+01 -0.43931260526E+01 -0.70730524082E+01  0.10042306971E+02  0.00000000000E+00 0.  1.
</event>
<event>
 7    1  0.3054835E-011  0.5052887E+02  0.7816164E-02  0.1300439E+00
        -11   -1    0    0    0    0  0.00000000000E+00  0.00000000000E+00  0.45593999997E+02  0.45594000000E+02  0.51100000000E-03 0.  1.
         11   -1    0    0    0    0 -0.00000000000E+00 -0.00000000000E+00 -0.45593999997E+02  0.45594000000E+02  0.51100000000E-03 0. -1.
    9900012    2    1    2    0    0 -0.25348856022E+02 -0.15737191190E+02  0.27621387917E+02  0.50528871153E+02  0.30000034357E+02 0.  0.
         12    1    1    2    0    0  0.25348856022E+02  0.15737191190E+02 -0.27621387917E+02  0.40659128847E+02  0.00000000000E+00 0. -1.
         11    1    3    3    0    0 -0.13959139825E+02  0.15634078629E+01  0.23923581517E+01  0.14248691399E+02  0.51100000000E-03 0. -1.
        -11    1    3    3    0    0 -0.13288529267E+02 -0.94687468581E+01  0.22455045862E+02  0.27757364106E+02  0.51100000000E-03 0.  1.
        -12    1    3    3    0    0  0.18988130708E+01 -0.78318521950E+01  0.27739839025E+01  0.85228156482E+01  0.00000000000E+00 0.  1.
</event>
<event>
 7    1  0.3054835E-011  0.5052886E+02  0.7816164E-02  0.1300439E+00
        -11   -1    0    0    0    0  0.00000000000E+00  0.00000000000E+00  0.45593999997E+02  0.45594000000E+02  0.51100000000E-03 0. -1.
         11   -1    0    0    0    0 -0.00000000000E+00 -0.00000000000E+00 -0.45593999997E+02  0.45594000000E+02  0.51100000000E-03 0.  1.
    9900012    2    1    2    0    0 -0.15428045250E+02 -0.36950440973E+02  0.70573640392E+01  0.50528855204E+02  0.29999985878E+02 0.  0.
         12    1    1    2    0    0  0.15428045250E+02  0.36950440973E+02 -0.70573640392E+01  0.40659144796E+02  0.00000000000E+00 0. -1.
         11    1    3    3    0    0 -0.13261283154E+02 -0.59892042010E+01 -0.29716829763E+00  0.14554054662E+02  0.51100000000E-03 0. -1.
        -11    1    3    3    0    0 -0.61820368003E+01 -0.26519686316E+02  0.10531959583E+02  0.29196464071E+02  0.51100000000E-03 0.  1.
        -12    1    3    3    0    0  0.40152747046E+01 -0.44415504564E+01 -0.31774272465E+01  0.67783364712E+01  0.00000000000E+00 0.  1.
</event>
<event>
 7    1  0.3054835E-011  0.5052884E+02  0.7816164E-02  0.1300439E+00
        -11   -1    0    0    0    0  0.00000000000E+00  0.00000000000E+00  0.45593999997E+02  0.45594000000E+02  0.51100000000E-03 0.  1.
         11   -1    0    0    0    0 -0.00000000000E+00 -0.00000000000E+00 -0.45593999997E+02  0.45594000000E+02  0.51100000000E-03 0. -1.
    9900012    2    1    2    0    0 -0.33464407930E+02  0.10716707725E+02  0.20456126491E+02  0.50528837028E+02  0.29999930631E+02 0.  0.
         12    1    1    2    0    0  0.33464407930E+02 -0.10716707725E+02 -0.20456126491E+02  0.40659162972E+02  0.00000000000E+00 0. -1.
         11    1    3    3    0    0 -0.22259988691E+02  0.16846237492E+01  0.59640691530E+01  0.23106604571E+02  0.51100000000E-03 0.  1.
        -11    1    3    3    0    0 -0.14284381321E+01  0.53536477772E+01  0.15941507588E+02  0.16877015271E+02  0.51100000000E-03 0. -1.
         12    1    3    3    0    0 -0.97759811066E+01  0.36784361986E+01 -0.14494502506E+01  0.10545217186E+02  0.00000000000E+00 0. -1.
</event>
<event>
 7    1  0.3054835E-011  0.5052885E+02  0.7816164E-02  0.1300439E+00
        -11   -1    0    0    0    0  0.00000000000E+00  0.00000000000E+00  0.45593999997E+02  0.45594000000E+02  0.51100000000E-03 0. -1.
         11   -1    0    0    0    0 -0.00000000000E+00 -0.00000000000E+00 -0.45593999997E+02  0.45594000000E+02  0.51100000000E-03 0.  1.
    9900012    2    1    2    0    0  0.13472354503E+02 -0.35990539991E+02 -0.13279421728E+02  0.50528851630E+02  0.29999975016E+02 0.  0.
         12    1    1    2    0    0 -0.13472354503E+02  0.35990539991E+02  0.13279421728E+02  0.40659148370E+02  0.00000000000E+00 0. -1.
         11    1    3    3    0    0  0.15728078128E+02 -0.38300934140E+02 -0.10785683107E+02  0.42786270671E+02  0.51100000000E-03 0. -1.
        -11    1    3    3    0    0 -0.36862104752E+00 -0.22686764724E+01 -0.27223619699E+00  0.23144950251E+01  0.51100000000E-03 0.  1.
         12    1    3    3    0    0 -0.18871025779E+01  0.45790706208E+01 -0.22215024237E+01  0.54280859342E+01  0.00000000000E+00 0. -1.
</event>
<event>
 7    1  0.3054835E-011  0.5052885E+02  0.7816164E-02  0.1300439E+00
        -11   -1    0    0    0    0  0.00000000000E+00  0.00000000000E+00  0.45593999997E+02  0.45594000000E+02  0.51100000000E-03 0. -1.
         11   -1    0    0    0    0 -0.00000000000E+00 -0.00000000000E+00 -0.45593999997E+02  0.45594000000E+02  0.51100000000E-03 0.  1.
    9900012    2    1    2    0    0  0.19532686114E+02  0.26419634607E+02 -0.23950852201E+02  0.50528852926E+02  0.29999978955E+02 0.  0.
         12    1    1    2    0    0 -0.19532686114E+02 -0.26419634607E+02  0.23950852201E+02  0.40659147074E+02  0.00000000000E+00 0. -1.
         11    1    3    3    0    0 -0.95538741447E+00  0.17878381305E+02 -0.70034677891E+01  0.19224927686E+02  0.51100000000E-03 0. -1.
        -11    1    3    3    0    0  0.21241762249E+02  0.84373746528E+01 -0.11102952974E+02  0.25410181414E+02  0.51100000000E-03 0.  1.
        -12    1    3    3    0    0 -0.75368872099E+00  0.10387864962E+00 -0.58444314377E+01  0.58937438264E+01  0.00000000000E+00 0.  1.
</event>
<event>
 7    1  0.3054835E-011  0.5052886E+02  0.7816164E-02  0.1300439E+00
        -11   -1    0    0    0    0  0.00000000000E+00  0.00000000000E+00  0.45593999997E+02  0.45594000000E+02  0.51100000000E-03 0.  1.
         11   -1    0    0    0    0 -0.00000000000E+00 -0.00000000000E+00 -0.45593999997E+02  0.45594000000E+02  0.51100000000E-03 0. -1.
    9900012    2    1    2    0    0 -0.23135641758E+02 -0.11305549486E+02  0.31465728999E+02  0.50528862403E+02  0.30000007759E+02 0.  0.
         12    1    1    2    0    0  0.23135641758E+02  0.11305549486E+02 -0.31465728999E+02  0.40659137597E+02  0.00000000000E+00 0. -1.
         11    1    3    3    0    0 -0.13414663455E+02  0.47454898371E+01  0.64652228959E+01  0.15629202691E+02  0.51100000000E-03 0. -1.
        -11    1    3    3    0    0  0.37360506157E+01 -0.73645499465E+01  0.98328505260E+01  0.12840545933E+02  0.51100000000E-03 0.  1.
        -12    1    3    3    0    0 -0.13457028919E+02 -0.86864893765E+01  0.15167655577E+02  0.22059113779E+02  0.00000000000E+00 0.  1.
</event>
<event>
 7    1  0.3054835E-011  0.5052883E+02  0.7816164E-02  0.1300439E+00
        -11   -1    0    0    0    0  0.00000000000E+00  0.00000000000E+00  0.45593999997E+02  0.45594000000E+02  0.51100000000E-03 0.  1.
         11   -1    0    0    0    0 -0.00000000000E+00 -0.00000000000E+00 -0.45593999997E+02  0.45594000000E+02  0.51100000000E-03 0. -1.
    9900012    2    1    2    0    0  0.95932923606E+01 -0.33286176878E+01  0.39370763057E+02  0.50528832058E+02  0.29999915523E+02 0.  0.
         12    1    1    2    0    0 -0.95932923606E+01  0.33286176878E+01 -0.39370763057E+02  0.40659167942E+02  0.00000000000E+00 0. -1.
         11    1    3    3    0    0 -0.90254491199E+01 -0.18301223195E+01  0.21348262902E+02  0.23249869005E+02  0.51100000000E-03 0. -1.
        -11    1    3    3    0    0  0.54853852443E+01 -0.17644369582E+01  0.10916839079E+02  0.12344232045E+02  0.51100000000E-03 0.  1.
         12    1    3    3    0    0  0.13133356236E+02  0.26594158990E+00  0.71056610762E+01  0.14934731008E+02  0.00000000000E+00 0. -1.
</event>
<event>
 7    1  0.3054835E-011  0.5052886E+02  0.7816164E-02  0.1300439E+00
        -11   -1    0    0    0    0  0.00000000000E+00  0.00000000000E+00  0.45593999997E+02  0.45594000000E+02  0.51100000000E-03 0.  1.
         11   -1    0    0    0    0 -0.00000000000E+00 -0.00000000000E+00 -0.45593999997E+02  0.45594000000E+02  0.51100000000E-03 0. -1.
    9900012    2    1    2    0    0 -0.26139708493E+02 -0.10525983227E+02  0.29310154107E+02  0.50528858140E+02  0.29999994804E+02 0.  0.
         12    1    1    2    0    0  0.26139708493E+02  0.10525983227E+02 -0.29310154107E+02  0.40659141860E+02  0.00000000000E+00 0. -1.
         11    1    3    3    0    0 -0.18080293115E+02  0.14799747537E+01  0.22155529529E+01  0.18275557435E+02  0.51100000000E-03 0. -1.
        -11    1    3    3    0    0 -0.11944615099E+01  0.13356147316E+01  0.66911563142E+01  0.69269169254E+01  0.51100000000E-03 0.  1.
         12    1    3    3    0    0 -0.68649538677E+01 -0.13341572713E+02  0.20403444840E+02  0.25326383780E+02  0.00000000000E+00 0. -1.
</event>
<event>
 7    1  0.3054835E-011  0.5052880E+02  0.7816164E-02  0.1300439E+00
        -11   -1    0    0    0    0  0.00000000000E+00  0.00000000000E+00  0.45593999997E+02  0.45594000000E+02  0.51100000000E-03 0.  1.
         11   -1    0    0    0    0 -0.00000000000E+00 -0.00000000000E+00 -0.45593999997E+02  0.45594000000E+02  0.51100000000E-03 0. -1.
    9900012    2    1    2    0    0  0.33895960435E+02 -0.14568305977E+02  0.17087978777E+02  0.50528798194E+02  0.29999812590E+02 0.  0.
         12    1    1    2    0    0 -0.33895960435E+02  0.14568305977E+02 -0.17087978777E+02  0.40659201806E+02  0.00000000000E+00 0. -1.
         11    1    3    3    0    0  0.86997217905E+00  0.29922138510E+01  0.55393821088E+01  0.63557021430E+01  0.51100000000E-03 0. -1.
        -11    1    3    3    0    0  0.25120248323E+02 -0.20184803885E+02  0.14498351460E+02  0.35336318130E+02  0.51100000000E-03 0.  1.
        -12    1    3    3    0    0  0.79057399324E+01  0.26242840565E+01 -0.29497547920E+01  0.88367779208E+01  0.00000000000E+00 0.  1.
</event>
<event>
 7    1  0.3054835E-011  0.5052887E+02  0.7816164E-02  0.1300439E+00
        -11   -1    0    0    0    0  0.00000000000E+00  0.00000000000E+00  0.45593999997E+02  0.45594000000E+02  0.51100000000E-03 0.  1.
         11   -1    0    0    0    0 -0.00000000000E+00 -0.00000000000E+00 -0.45593999997E+02  0.45594000000E+02  0.51100000000E-03 0. -1.
    9900012    2    1    2    0    0 -0.15114288559E+02 -0.37608882480E+02  0.32085432558E+01  0.50528874212E+02  0.30000043654E+02 0.  0.
         12    1    1    2    0    0  0.15114288559E+02  0.37608882480E+02 -0.32085432558E+01  0.40659125788E+02  0.00000000000E+00 0. -1.
         11    1    3    3    0    0  0.73690789988E-01  0.10512642325E+01  0.28787762294E+00  0.10924562261E+01  0.51100000000E-03 0. -1.
        -11    1    3    3    0    0 -0.65353872079E+01 -0.25762498883E+02  0.14301358592E+02  0.30181890141E+02  0.51100000000E-03 0.  1.
        -12    1    3    3    0    0 -0.86525921407E+01 -0.12897647830E+02 -0.11380692959E+02  0.19254527844E+02  0.00000000000E+00 0.  1.
</event>
<event>
 7    1  0.3054835E-011  0.5052886E+02  0.7816164E-02  0.1300439E+00
        -11   -1    0    0    0    0  0.00000000000E+00  0.00000000000E+00  0.45593999997E+02  0.45594000000E+02  0.51100000000E-03 0.  1.
         11   -1    0    0    0    0 -0.00000000000E+00 -0.00000000000E+00 -0.45593999997E+02  0.45594000000E+02  0.51100000000E-03 0. -1.
    9900012    2    1    2    0    0 -0.86709834473E+00 -0.61868949097E+01  0.40176317323E+02  0.50528855865E+02  0.29999987887E+02 0.  0.
         12    1    1    2    0    0  0.86709834473E+00  0.61868949097E+01 -0.40176317323E+02  0.40659144135E+02  0.00000000000E+00 0. -1.
         11    1    3    3    0    0  0.23834611248E+01 -0.93190869390E+01  0.57757808423E+01  0.11219889167E+02  0.51100000000E-03 0. -1.
        -11    1    3    3    0    0  0.40505345785E+00 -0.23457042799E+01  0.32312729719E+02  0.32400291650E+02  0.51100000000E-03 0.  1.
         12    1    3    3    0    0 -0.36556129274E+01  0.54778963092E+01  0.20878067622E+01  0.69086750485E+01  0.00000000000E+00 0. -1.
</event>
<event>
 7    1  0.3054835E-011  0.5052886E+02  0.7816164E-02  0.1300439E+00
        -11   -1    0    0    0    0  0.00000000000E+00  0.00000000000E+00  0.45593999997E+02  0.45594000000E+02  0.51100000000E-03 0.  1.
         11   -1    0    0    0    0 -0.00000000000E+00 -0.00000000000E+00 -0.45593999997E+02  0.45594000000E+02  0.51100000000E-03 0. -1.
    9900012    2    1    2    0    0 -0.21664237738E+02 -0.27553616314E+02  0.20606423916E+02  0.50528859879E+02  0.30000000088E+02 0.  0.
         12    1    1    2    0    0  0.21664237738E+02  0.27553616314E+02 -0.20606423916E+02  0.40659140121E+02  0.00000000000E+00 0. -1.
         11    1    3    3    0    0 -0.16008161469E+02 -0.13907721842E+02  0.19744026088E+01  0.21297516907E+02  0.51100000000E-03 0. -1.
        -11    1    3    3    0    0 -0.40777773642E+01 -0.23895683329E+01  0.17125229610E+02  0.17765466346E+02  0.51100000000E-03 0.  1.
         12    1    3    3    0    0 -0.15782989046E+01 -0.11256326139E+02  0.15067916979E+01  0.11465876626E+02  0.00000000000E+00 0. -1.
</event>
<event>
 7    1  0.3054835E-011  0.5052886E+02  0.7816164E-02  0.1300439E+00
        -11   -1    0    0    0    0  0.00000000000E+00  0.00000000000E+00  0.45593999997E+02  0.45594000000E+02  0.51100000000E-03 0.  1.
         11   -1    0    0    0    0 -0.00000000000E+00 -0.00000000000E+00 -0.45593999997E+02  0.45594000000E+02  0.51100000000E-03 0. -1.
    9900012    2    1    2    0    0 -0.35062321911E+02  0.34595268196E+01  0.20293622421E+02  0.50528857675E+02  0.29999993390E+02 0.  0.
         12    1    1    2    0    0  0.35062321911E+02 -0.34595268196E+01 -0.20293622421E+02  0.40659142325E+02  0.00000000000E+00 0. -1.
         11    1    3    3    0    0 -0.11084926588E+02  0.70007724089E+01  0.80149200384E+01  0.15366370920E+02  0.51100000000E-03 0.  1.
        -11    1    3    3    0    0 -0.53268835973E+01 -0.11457385016E+02  0.37525662817E+01  0.13180634060E+02  0.51100000000E-03 0. -1.
         12    1    3    3    0    0 -0.18650511726E+02  0.79161394271E+01  0.85261361004E+01  0.21981852694E+02  0.00000000000E+00 0. -1.
</event>
<event>
 7    1  0.3054835E-011  0.5052888E+02  0.7816164E-02  0.1300439E+00
        -11   -1    0    0    0    0  0.00000000000E+00  0.00000000000E+00  0.45593999997E+02  0.45594000000E+02  0.51100000000E-03 0.  1.
         11   -1    0    0    0    0 -0.00000000000E+00 -0.00000000000E+00 -0.45593999997E+02  0.45594000000E+02  0.51100000000E-03 0. -1.
    9900012    2    1    2    0    0  0.22549998078E+02 -0.29753651228E+01  0.33701766352E+02  0.50528877208E+02  0.30000052762E+02 0.  0.
         12    1    1    2    0    0 -0.22549998078E+02  0.29753651228E+01 -0.33701766352E+02  0.40659122792E+02  0.00000000000E+00 0. -1.
         11    1    3    3    0    0  0.45814383735E+01 -0.89970444577E+01  0.15855529170E+02  0.18797185748E+02  0.51100000000E-03 0. -1.
        -11    1    3    3    0    0  0.21726731367E+02  0.56320816646E+01  0.15637865968E+02  0.27355329500E+02  0.51100000000E-03 0.  1.
        -12    1    3    3    0    0 -0.37581716616E+01  0.38959767032E+00  0.22083712138E+01  0.43763619596E+01  0.00000000000E+00 0.  1.
</event>
<event>
 7    1  0.3054835E-011  0.5052886E+02  0.7816164E-02  0.1300439E+00
        -11   -1    0    0    0    0  0.00000000000E+00  0.00000000000E+00  0.45593999997E+02  0.45594000000E+02  0.51100000000E-03 0.  1.
         11   -1    0    0    0    0 -0.00000000000E+00 -0.00000000000E+00 -0.45593999997E+02  0.45594000000E+02  0.51100000000E-03 0. -1.
    9900012    2    1    2    0    0  0.23679439659E+02  0.32981186831E+02 -0.21659287849E+01  0.50528858409E+02  0.29999995621E+02 0.  0.
         12    1    1    2    0    0 -0.23679439659E+02 -0.32981186831E+02  0.21659287849E+01  0.40659141591E+02  0.00000000000E+00 0. -1.
         11    1    3    3    0    0  0.85361570555E+01 -0.37615977146E+01 -0.20887305070E+00  0.93305531913E+01  0.51100000000E-03 0. -1.
        -11    1    3    3    0    0  0.36003532882E+01  0.16430860519E+02  0.35594868140E+01  0.17193186669E+02  0.51100000000E-03 0.  1.
        -12    1    3    3    0    0  0.11542929316E+02  0.20311924028E+02 -0.55165425482E+01  0.24005118549E+02  0.00000000000E+00 0.  1.
</event>
<event>
 7    1  0.3054835E-011  0.5052889E+02  0.7816164E-02  0.1300439E+00
        -11   -1    0    0    0    0  0.00000000000E+00  0.00000000000E+00  0.45593999997E+02  0.45594000000E+02  0.51100000000E-03 0. -1.
         11   -1    0    0    0    0 -0.00000000000E+00 -0.00000000000E+00 -0.45593999997E+02  0.45594000000E+02  0.51100000000E-03 0.  1.
    9900012    2    1    2    0    0  0.20161658096E+02  0.31155750808E+02  0.16612957159E+02  0.50528885263E+02  0.30000077246E+02 0.  0.
         12    1    1    2    0    0 -0.20161658096E+02 -0.31155750808E+02 -0.16612957159E+02  0.40659114737E+02  0.00000000000E+00 0. -1.
         11    1    3    3    0    0  0.12890721466E+02  0.25817247632E+01  0.95010088205E+01  0.16220516994E+02  0.51100000000E-03 0. -1.
        -11    1    3    3    0    0  0.24634093252E+01  0.20455175085E+02 -0.26015524605E+01  0.20766575277E+02  0.51100000000E-03 0.  1.
        -12    1    3    3    0    0  0.48075273046E+01  0.81188509600E+01  0.97135007986E+01  0.13541792993E+02  0.00000000000E+00 0.  1.
</event>
<event>
 7    1  0.3054835E-011  0.5052886E+02  0.7816164E-02  0.1300439E+00
        -11   -1    0    0    0    0  0.00000000000E+00  0.00000000000E+00  0.45593999997E+02  0.45594000000E+02  0.51100000000E-03 0.  1.
         11   -1    0    0    0    0 -0.00000000000E+00 -0.00000000000E+00 -0.45593999997E+02  0.45594000000E+02  0.51100000000E-03 0. -1.
    9900012    2    1    2    0    0  0.77442068853E+01 -0.85816408847E+00  0.39905598367E+02  0.50528856294E+02  0.29999989191E+02 0.  0.
         12    1    1    2    0    0 -0.77442068853E+01  0.85816408847E+00 -0.39905598367E+02  0.40659143706E+02  0.00000000000E+00 0. -1.
         11    1    3    3    0    0  0.94260825610E+01  0.71912413263E+01  0.26381908279E+02  0.28923521034E+02  0.51100000000E-03 0. -1.
        -11    1    3    3    0    0  0.54159033656E+01 -0.79909278207E+01  0.66314976546E+01  0.11711690660E+02  0.51100000000E-03 0.  1.
         12    1    3    3    0    0 -0.70977790413E+01 -0.58477594061E-01  0.68921924331E+01  0.98936446006E+01  0.00000000000E+00 0. -1.
</event>
<event>
 7    1  0.3054835E-011  0.5052883E+02  0.7816164E-02  0.1300439E+00
        -11   -1    0    0    0    0  0.00000000000E+00  0.00000000000E+00  0.45593999997E+02  0.45594000000E+02  0.51100000000E-03 0. -1.
         11   -1    0    0    0    0 -0.00000000000E+00 -0.00000000000E+00 -0.45593999997E+02  0.45594000000E+02  0.51100000000E-03 0.  1.
    9900012    2    1    2    0    0  0.26879598003E+02  0.42859155033E+01 -0.30204071032E+02  0.50528834152E+02  0.29999921890E+02 0.  0.
         12    1    1    2    0    0 -0.26879598003E+02 -0.42859155033E+01  0.30204071032E+02  0.40659165848E+02  0.00000000000E+00 0. -1.
         11    1    3    3    0    0 -0.24552890176E+01  0.11149856206E+01 -0.63358439970E+01  0.68858228637E+01  0.51100000000E-03 0. -1.
        -11    1    3    3    0    0  0.13844027846E+02 -0.88962304979E+01 -0.75231208815E+01  0.18094125348E+02  0.51100000000E-03 0.  1.
        -12    1    3    3    0    0  0.15490859175E+02  0.12067160381E+02 -0.16345106154E+02  0.25548885940E+02  0.00000000000E+00 0.  1.
</event>
<event>
 7    1  0.3054835E-011  0.5052886E+02  0.7816164E-02  0.1300439E+00
        -11   -1    0    0    0    0  0.00000000000E+00  0.00000000000E+00  0.45593999997E+02  0.45594000000E+02  0.51100000000E-03 0.  1.
         11   -1    0    0    0    0 -0.00000000000E+00 -0.00000000000E+00 -0.45593999997E+02  0.45594000000E+02  0.51100000000E-03 0. -1.
    9900012    2    1    2    0    0  0.70296750793E+01 -0.17524271722E+02  0.36009011943E+02  0.50528863607E+02  0.30000011421E+02 0.  0.
         12    1    1    2    0    0 -0.70296750793E+01  0.17524271722E+02 -0.36009011943E+02  0.40659136393E+02  0.00000000000E+00 0. -1.
         11    1    3    3    0    0 -0.67129957245E+01 -0.32062720427E+00  0.12069297900E+02  0.13814306550E+02  0.51100000000E-03 0. -1.
        -11    1    3    3    0    0  0.14103128032E+02 -0.18380971478E+02  0.25677639405E+02  0.34584671438E+02  0.51100000000E-03 0.  1.
         12    1    3    3    0    0 -0.36045722835E+00  0.11773269604E+01 -0.17379253628E+01  0.21298856194E+01  0.00000000000E+00 0. -1.
</event>
<event>
 7    1  0.3054835E-011  0.5052886E+02  0.7816164E-02  0.1300439E+00
        -11   -1    0    0    0    0  0.00000000000E+00  0.00000000000E+00  0.45593999997E+02  0.45594000000E+02  0.51100000000E-03 0. -1.
         11   -1    0    0    0    0 -0.00000000000E+00 -0.00000000000E+00 -0.45593999997E+02  0.45594000000E+02  0.51100000000E-03 0.  1.
    9900012    2    1    2    0    0 -0.36679549676E+02  0.68786856806E+00  0.17530058081E+02  0.50528862479E+02  0.30000007991E+02 0.  0.
         12    1    1    2    0    0  0.36679549676E+02 -0.68786856806E+00 -0.17530058081E+02  0.40659137521E+02  0.00000000000E+00 0. -1.
         11    1    3    3    0    0  0.21826831444E+01  0.10505396868E+01  0.65048224386E+01  0.69412141994E+01  0.51100000000E-03 0. -1.
        -11    1    3    3    0    0 -0.18056920818E+02  0.51327720534E+00 -0.32316782005E+01  0.18351010522E+02  0.51100000000E-03 0.  1.
        -12    1    3    3    0    0 -0.20805312002E+02 -0.87594832411E+00  0.14256913843E+02  0.25236637758E+02  0.00000000000E+00 0.  1.
</event>
<event>
 7    1  0.3054835E-011  0.5052886E+02  0.7816164E-02  0.1300439E+00
        -11   -1    0    0    0    0  0.00000000000E+00  0.00000000000E+00  0.45593999997E+02  0.45594000000E+02  0.51100000000E-03 0. -1.
         11   -1    0    0    0    0 -0.00000000000E+00 -0.00000000000E+00 -0.45593999997E+02  0.45594000000E+02  0.51100000000E-03 0.  1.
    9900012    2    1    2    0    0 -0.23614100765E+02 -0.26703571355E+02 -0.19556557675E+02  0.50528862944E+02  0.30000009405E+02 0.  0.
         12    1    1    2    0    0  0.23614100765E+02  0.26703571355E+02  0.19556557675E+02  0.40659137056E+02  0.00000000000E+00 0. -1.
         11    1    3    3    0    0 -0.59096387165E+01 -0.16218062062E+02 -0.34964803060E+01  0.17611778491E+02  0.51100000000E-03 0. -1.
        -11    1    3    3    0    0 -0.96790716726E+01  0.15999558803E+01  0.17298507220E+01  0.99617604390E+01  0.51100000000E-03 0.  1.
        -12    1    3    3    0    0 -0.80253903758E+01 -0.12085465173E+02 -0.17789928091E+02  0.22955324014E+02  0.00000000000E+00 0.  1.
</event>
<event>
 7    1  0.3054835E-011  0.5052886E+02  0.7816164E-02  0.1300439E+00
        -11   -1    0    0    0    0  0.00000000000E+00  0.00000000000E+00  0.45593999997E+02  0.45594000000E+02  0.51100000000E-03 0. -1.
         11   -1    0    0    0    0 -0.00000000000E+00 -0.00000000000E+00 -0.45593999997E+02  0.45594000000E+02  0.51100000000E-03 0.  1.
    9900012    2    1    2    0    0  0.31948591100E+02  0.13507034255E+02  0.21213516407E+02  0.50528859256E+02  0.29999998196E+02 0.  0.
         12    1    1    2    0    0 -0.31948591100E+02 -0.13507034255E+02 -0.21213516407E+02  0.40659140744E+02  0.00000000000E+00 0. -1.
         11    1    3    3    0    0  0.19851158876E+02  0.10541469179E+02  0.16093532385E+02  0.27644038526E+02  0.51100000000E-03 0.  1.
        -11    1    3    3    0    0  0.70383472278E+01  0.35527439220E+01 -0.64868250809E+01  0.10209761063E+02  0.51100000000E-03 0. -1.
         12    1    3    3    0    0  0.50590849968E+01 -0.58717884613E+00  0.11606809103E+02  0.12675059667E+02  0.00000000000E+00 0. -1.
</event>
<event>
 7    1  0.3054835E-011  0.5052882E+02  0.7816164E-02  0.1300439E+00
        -11   -1    0    0    0    0  0.00000000000E+00  0.00000000000E+00  0.45593999997E+02  0.45594000000E+02  0.51100000000E-03 0.  1.
         11   -1    0    0    0    0 -0.00000000000E+00 -0.00000000000E+00 -0.45593999997E+02  0.45594000000E+02  0.51100000000E-03 0. -1.
    9900012    2    1    2    0    0  0.24359099329E+02  0.18751923862E+02  0.26611429875E+02  0.50528824299E+02  0.29999891940E+02 0.  0.
         12    1    1    2    0    0 -0.24359099329E+02 -0.18751923862E+02 -0.26611429875E+02  0.40659175701E+02  0.00000000000E+00 0. -1.
         11    1    3    3    0    0  0.57298849729E+01  0.11249123506E+02  0.47261079590E+01  0.13480002158E+02  0.51100000000E-03 0. -1.
        -11    1    3    3    0    0  0.20560484220E+02 -0.15676480802E+01  0.15080653682E+02  0.25546372494E+02  0.51100000000E-03 0.  1.
        -12    1    3    3    0    0 -0.19312698642E+01  0.90704484362E+01  0.68046682345E+01  0.11502449648E+02  0.00000000000E+00 0.  1.
</event>
<event>
 7    1  0.3054835E-011  0.5052887E+02  0.7816164E-02  0.1300439E+00
        -11   -1    0    0    0    0  0.00000000000E+00  0.00000000000E+00  0.45593999997E+02  0.45594000000E+02  0.51100000000E-03 0. -1.
         11   -1    0    0    0    0 -0.00000000000E+00 -0.00000000000E+00 -0.45593999997E+02  0.45594000000E+02  0.51100000000E-03 0.  1.
    9900012    2    1    2    0    0  0.67569158195E+01  0.33268912880E+02 -0.22376070607E+02  0.50528868044E+02  0.30000024906E+02 0.  0.
         12    1    1    2    0    0 -0.67569158195E+01 -0.33268912880E+02  0.22376070607E+02  0.40659131956E+02  0.00000000000E+00 0. -1.
         11    1    3    3    0    0 -0.17730666839E+01  0.36075215636E+01  0.35248901447E+01  0.53462910593E+01  0.51100000000E-03 0. -1.
        -11    1    3    3    0    0  0.29016548055E+00  0.18866676120E+02 -0.25336469422E+02  0.31590700322E+02  0.51100000000E-03 0.  1.
        -12    1    3    3    0    0  0.82398170228E+01  0.10794715197E+02 -0.56449132978E+00  0.13591876662E+02  0.00000000000E+00 0.  1.
</event>
<event>
 7    1  0.3054835E-011  0.5052886E+02  0.7816164E-02  0.1300439E+00
        -11   -1    0    0    0    0  0.00000000000E+00  0.00000000000E+00  0.45593999997E+02  0.45594000000E+02  0.51100000000E-03 0.  1.
         11   -1    0    0    0    0 -0.00000000000E+00 -0.00000000000E+00 -0.45593999997E+02  0.45594000000E+02  0.51100000000E-03 0. -1.
    9900012    2    1    2    0    0  0.33250309033E+02  0.17282944483E+02  0.15776001548E+02  0.50528862704E+02  0.30000008675E+02 0.  0.
         12    1    1    2    0    0 -0.33250309033E+02 -0.17282944483E+02 -0.15776001548E+02  0.40659137296E+02  0.00000000000E+00 0. -1.
         11    1    3    3    0    0  0.12266137535E+02  0.16572883310E+02  0.78985492779E+01  0.22079530615E+02  0.51100000000E-03 0. -1.
        -11    1    3    3    0    0  0.20911329669E+02 -0.49236753776E+01  0.47377773421E+01  0.21999382313E+02  0.51100000000E-03 0.  1.
        -12    1    3    3    0    0  0.72841829171E-01  0.56337365508E+01  0.31396749283E+01  0.64499497759E+01  0.00000000000E+00 0.  1.
</event>
<event>
 7    1  0.3054835E-011  0.5052886E+02  0.7816164E-02  0.1300439E+00
        -11   -1    0    0    0    0  0.00000000000E+00  0.00000000000E+00  0.45593999997E+02  0.45594000000E+02  0.51100000000E-03 0. -1.
         11   -1    0    0    0    0 -0.00000000000E+00 -0.00000000000E+00 -0.45593999997E+02  0.45594000000E+02  0.51100000000E-03 0.  1.
    9900012    2    1    2    0    0  0.36492852392E+02 -0.16121489493E+02 -0.78444260732E+01  0.50528859336E+02  0.29999998436E+02 0.  0.
         12    1    1    2    0    0 -0.36492852392E+02  0.16121489493E+02  0.78444260732E+01  0.40659140664E+02  0.00000000000E+00 0. -1.
         11    1    3    3    0    0  0.13930513946E+02 -0.92215260877E+01  0.38873793452E+01  0.17152477390E+02  0.51100000000E-03 0. -1.
        -11    1    3    3    0    0 -0.12776776039E+01 -0.32012294107E+01 -0.83268688343E+01  0.90120516334E+01  0.51100000000E-03 0.  1.
        -12    1    3    3    0    0  0.23840016050E+02 -0.36987339947E+01 -0.34049365841E+01  0.24364330312E+02  0.00000000000E+00 0.  1.
</event>
<event>
 7    1  0.3054835E-011  0.5052885E+02  0.7816164E-02  0.1300439E+00
        -11   -1    0    0    0    0  0.00000000000E+00  0.00000000000E+00  0.45593999997E+02  0.45594000000E+02  0.51100000000E-03 0.  1.
         11   -1    0    0    0    0 -0.00000000000E+00 -0.00000000000E+00 -0.45593999997E+02  0.45594000000E+02  0.51100000000E-03 0. -1.
    9900012    2    1    2    0    0 -0.35677283601E+02  0.12747099729E+02  0.14758354995E+02  0.50528853934E+02  0.29999982018E+02 0.  0.
         12    1    1    2    0    0  0.35677283601E+02 -0.12747099729E+02 -0.14758354995E+02  0.40659146066E+02  0.00000000000E+00 0. -1.
         11    1    3    3    0    0 -0.13451240677E+02 -0.33806801809E+01 -0.41505693799E+01  0.14477296041E+02  0.51100000000E-03 0. -1.
        -11    1    3    3    0    0 -0.20242440423E+02  0.14621235069E+02  0.10166104644E+02  0.26960834429E+02  0.51100000000E-03 0.  1.
         12    1    3    3    0    0 -0.19836025011E+01  0.15065448406E+01  0.87428197313E+01  0.90907234637E+01  0.00000000000E+00 0. -1.
</event>
<event>
 7    1  0.3054835E-011  0.5052887E+02  0.7816164E-02  0.1300439E+00
        -11   -1    0    0    0    0  0.00000000000E+00  0.00000000000E+00  0.45593999997E+02  0.45594000000E+02  0.51100000000E-03 0.  1.
         11   -1    0    0    0    0 -0.00000000000E+00 -0.00000000000E+00 -0.45593999997E+02  0.45594000000E+02  0.51100000000E-03 0. -1.
    9900012    2    1    2    0    0  0.11674090650E+02  0.33417162661E+02  0.20004333107E+02  0.50528874384E+02  0.30000044177E+02 0.  0.
         12    1    1    2    0    0 -0.11674090650E+02 -0.33417162661E+02 -0.20004333107E+02  0.40659125616E+02  0.00000000000E+00 0. -1.
         11    1    3    3    0    0  0.14160076178E+02  0.26357141142E+02  0.23756918671E+02  0.38204683371E+02  0.51100000000E-03 0. -1.
        -11    1    3    3    0    0 -0.17919205052E+01  0.91244134312E+01 -0.40188955784E+01  0.10130025740E+02  0.51100000000E-03 0.  1.
         12    1    3    3    0    0 -0.69406502206E+00 -0.20643919118E+01  0.26631001410E+00  0.21941652727E+01  0.00000000000E+00 0. -1.
</event>
<event>
 7    1  0.3054835E-011  0.5052886E+02  0.7816164E-02  0.1300439E+00
        -11   -1    0    0    0    0  0.00000000000E+00  0.00000000000E+00  0.45593999997E+02  0.45594000000E+02  0.51100000000E-03 0. -1.
         11   -1    0    0    0    0 -0.00000000000E+00 -0.00000000000E+00 -0.45593999997E+02  0.45594000000E+02  0.51100000000E-03 0.  1.
    9900012    2    1    2    0    0  0.15091885323E+02  0.19629744844E+02 -0.32250174685E+02  0.50528860161E+02  0.30000000946E+02 0.  0.
         12    1    1    2    0    0 -0.15091885323E+02 -0.19629744844E+02  0.32250174685E+02  0.40659139839E+02  0.00000000000E+00 0. -1.
         11    1    3    3    0    0 -0.61874616658E+01  0.19301713556E+01 -0.51763347558E+00  0.65021679464E+01  0.51100000000E-03 0. -1.
        -11    1    3    3    0    0  0.19382247409E+02  0.19520585486E+02 -0.26632265833E+02  0.38288410205E+02  0.51100000000E-03 0.  1.
        -12    1    3    3    0    0  0.18970995796E+01 -0.18210119980E+01 -0.51002753757E+01  0.57382820094E+01  0.00000000000E+00 0.  1.
</event>
<event>
 7    1  0.3054835E-011  0.5052887E+02  0.7816164E-02  0.1300439E+00
        -11   -1    0    0    0    0  0.00000000000E+00  0.00000000000E+00  0.45593999997E+02  0.45594000000E+02  0.51100000000E-03 0. -1.
         11   -1    0    0    0    0 -0.00000000000E+00 -0.00000000000E+00 -0.45593999997E+02  0.45594000000E+02  0.51100000000E-03 0.  1.
    9900012    2    1    2    0    0 -0.31512129474E+02 -0.16678687968E+02 -0.19544102426E+02  0.50528869710E+02  0.30000029969E+02 0.  0.
         12    1    1    2    0    0  0.31512129474E+02  0.16678687968E+02  0.19544102426E+02  0.40659130290E+02  0.00000000000E+00 0. -1.
         11    1    3    3    0    0 -0.23657741934E+02 -0.68862431508E+01 -0.29671628592E+00  0.24641370476E+02  0.51100000000E-03 0. -1.
        -11    1    3    3    0    0 -0.74856788417E+01 -0.86388081064E+01 -0.66346918843E+01  0.13216789697E+02  0.51100000000E-03 0.  1.
         12    1    3    3    0    0 -0.36870869826E+00 -0.11536367111E+01 -0.12612694256E+02  0.12670709537E+02  0.00000000000E+00 0. -1.
</event>
<event>
 7    1  0.3054835E-011  0.5052886E+02  0.7816164E-02  0.1300439E+00
        -11   -1    0    0    0    0  0.00000000000E+00  0.00000000000E+00  0.45593999997E+02  0.45594000000E+02  0.51100000000E-03 0. -1.
         11   -1    0    0    0    0 -0.00000000000E+00 -0.00000000000E+00 -0.45593999997E+02  0.45594000000E+02  0.51100000000E-03 0.  1.
    9900012    2    1    2    0    0 -0.20363423024E+02 -0.24069325402E+00 -0.35191459141E+02  0.50528859245E+02  0.29999998160E+02 0.  0.
         12    1    1    2    0    0  0.20363423024E+02  0.24069325402E+00  0.35191459141E+02  0.40659140755E+02  0.00000000000E+00 0. -1.
         11    1    3    3    0    0  0.36491488908E+01 -0.11578414502E+01 -0.19128379099E+01  0.42797001742E+01  0.51100000000E-03 0. -1.
        -11    1    3    3    0    0 -0.21362051276E+02  0.49501105092E+01 -0.13190886149E+02  0.25589847722E+02  0.51100000000E-03 0.  1.
        -12    1    3    3    0    0 -0.26505206391E+01 -0.40329623131E+01 -0.20087735082E+02  0.20659311348E+02  0.00000000000E+00 0.  1.
</event>
<event>
 7    1  0.3054835E-011  0.5052886E+02  0.7816164E-02  0.1300439E+00
        -11   -1    0    0    0    0  0.00000000000E+00  0.00000000000E+00  0.45593999997E+02  0.45594000000E+02  0.51100000000E-03 0.  1.
         11   -1    0    0    0    0 -0.00000000000E+00 -0.00000000000E+00 -0.45593999997E+02  0.45594000000E+02  0.51100000000E-03 0. -1.
    9900012    2    1    2    0    0  0.26623818688E+02 -0.17577465349E+02  0.25206562131E+02  0.50528858542E+02  0.29999996024E+02 0.  0.
         12    1    1    2    0    0 -0.26623818688E+02  0.17577465349E+02 -0.25206562131E+02  0.40659141458E+02  0.00000000000E+00 0. -1.
         11    1    3    3    0    0  0.10223431551E+02 -0.99329543967E+01  0.26269118666E+02  0.29887267046E+02  0.51100000000E-03 0. -1.
        -11    1    3    3    0    0  0.14148325274E+02 -0.18088907285E+01  0.17828969922E+00  0.14264605890E+02  0.51100000000E-03 0.  1.
         12    1    3    3    0    0  0.22520618632E+01 -0.58356202239E+01 -0.12408462346E+01  0.63769856054E+01  0.00000000000E+00 0. -1.
</event>
<event>
 7    1  0.3054835E-011  0.5052885E+02  0.7816164E-02  0.1300439E+00
        -11   -1    0    0    0    0  0.00000000000E+00  0.00000000000E+00  0.45593999997E+02  0.45594000000E+02  0.51100000000E-03 0.  1.
         11   -1    0    0    0    0 -0.00000000000E+00 -0.00000000000E+00 -0.45593999997E+02  0.45594000000E+02  0.51100000000E-03 0. -1.
    9900012    2    1    2    0    0  0.12515138218E+02 -0.38683805863E+02  0.31785389052E+00  0.50528849102E+02  0.29999967329E+02 0.  0.
         12    1    1    2    0    0 -0.12515138218E+02  0.38683805863E+02 -0.31785389052E+00  0.40659150898E+02  0.00000000000E+00 0. -1.
         11    1    3    3    0    0  0.55626003153E+01 -0.18721248057E+01  0.96183201737E+01  0.11267628712E+02  0.51100000000E-03 0. -1.
        -11    1    3    3    0    0  0.77843319107E+01 -0.25025941680E+02 -0.49584297695E+01  0.26673575056E+02  0.51100000000E-03 0.  1.
         12    1    3    3    0    0 -0.83179400833E+00 -0.11785739378E+02 -0.43420365137E+01  0.12587645334E+02  0.00000000000E+00 0. -1.
</event>
<event>
 7    1  0.3054835E-011  0.5052886E+02  0.7816164E-02  0.1300439E+00
        -11   -1    0    0    0    0  0.00000000000E+00  0.00000000000E+00  0.45593999997E+02  0.45594000000E+02  0.51100000000E-03 0.  1.
         11   -1    0    0    0    0 -0.00000000000E+00 -0.00000000000E+00 -0.45593999997E+02  0.45594000000E+02  0.51100000000E-03 0. -1.
    9900012    2    1    2    0    0 -0.23591901726E+02 -0.32594110654E+02 -0.58491017286E+01  0.50528857518E+02  0.29999992911E+02 0.  0.
         12    1    1    2    0    0  0.23591901726E+02  0.32594110654E+02  0.58491017286E+01  0.40659142482E+02  0.00000000000E+00 0. -1.
         11    1    3    3    0    0 -0.13388476664E+02  0.12046314966E+01 -0.33200289689E+01  0.13846481034E+02  0.51100000000E-03 0. -1.
        -11    1    3    3    0    0 -0.64827680527E+01 -0.22518243269E+02 -0.62192676725E+01  0.24244109639E+02  0.51100000000E-03 0.  1.
         12    1    3    3    0    0 -0.37206570092E+01 -0.11280498882E+02  0.36901949128E+01  0.12438266845E+02  0.00000000000E+00 0. -1.
</event>
<event>
 7    1  0.3054835E-011  0.5052883E+02  0.7816164E-02  0.1300439E+00
        -11   -1    0    0    0    0  0.00000000000E+00  0.00000000000E+00  0.45593999997E+02  0.45594000000E+02  0.51100000000E-03 0.  1.
         11   -1    0    0    0    0 -0.00000000000E+00 -0.00000000000E+00 -0.45593999997E+02  0.45594000000E+02  0.51100000000E-03 0. -1.
    9900012    2    1    2    0    0  0.22832333399E+02 -0.16053547318E+02  0.29565789702E+02  0.50528834359E+02  0.29999922517E+02 0.  0.
         12    1    1    2    0    0 -0.22832333399E+02  0.16053547318E+02 -0.29565789702E+02  0.40659165641E+02  0.00000000000E+00 0. -1.
         11    1    3    3    0    0  0.13527346807E+02  0.46590912684E+01  0.70684519331E+01  0.15958046750E+02  0.51100000000E-03 0. -1.
        -11    1    3    3    0    0  0.36348108089E+01 -0.19414435860E+02  0.13752061790E+02  0.24067641619E+02  0.51100000000E-03 0.  1.
        -12    1    3    3    0    0  0.56701757822E+01 -0.12982027269E+01  0.87452759794E+01  0.10503145990E+02  0.00000000000E+00 0.  1.
</event>
<event>
 7    1  0.3054835E-011  0.5052887E+02  0.7816164E-02  0.1300439E+00
        -11   -1    0    0    0    0  0.00000000000E+00  0.00000000000E+00  0.45593999997E+02  0.45594000000E+02  0.51100000000E-03 0.  1.
         11   -1    0    0    0    0 -0.00000000000E+00 -0.00000000000E+00 -0.45593999997E+02  0.45594000000E+02  0.51100000000E-03 0. -1.
    9900012    2    1    2    0    0  0.17318960949E+02  0.16484728400E+02  0.32885749911E+02  0.50528865405E+02  0.30000016886E+02 0.  0.
         12    1    1    2    0    0 -0.17318960949E+02 -0.16484728400E+02 -0.32885749911E+02  0.40659134595E+02  0.00000000000E+00 0. -1.
         11    1    3    3    0    0  0.25454835733E+00  0.45667623954E+00 -0.30537633059E+00  0.60547751270E+00  0.51100000000E-03 0. -1.
        -11    1    3    3    0    0  0.79657301726E+01  0.18752484577E+02  0.61796826589E+01  0.21290772955E+02  0.51100000000E-03 0.  1.
        -12    1    3    3    0    0  0.90986824188E+01 -0.27244324166E+01  0.27011443583E+02  0.28632614938E+02  0.00000000000E+00 0.  1.
</event>
<event>
 7    1  0.3054835E-011  0.5052885E+02  0.7816164E-02  0.1300439E+00
        -11   -1    0    0    0    0  0.00000000000E+00  0.00000000000E+00  0.45593999997E+02  0.45594000000E+02  0.51100000000E-03 0. -1.
         11   -1    0    0    0    0 -0.00000000000E+00 -0.00000000000E+00 -0.45593999997E+02  0.45594000000E+02  0.51100000000E-03 0.  1.
    9900012    2    1    2    0    0  0.15224665777E+02  0.33269678980E+02 -0.17734268303E+02  0.50528852694E+02  0.29999978248E+02 0.  0.
         12    1    1    2    0    0 -0.15224665777E+02 -0.33269678980E+02  0.17734268303E+02  0.40659147306E+02  0.00000000000E+00 0. -1.
         11    1    3    3    0    0  0.32083693691E+00  0.22677046255E+02 -0.38471351410E+01  0.23003300029E+02  0.51100000000E-03 0. -1.
        -11    1    3    3    0    0  0.14626920028E+02  0.63137105989E+01 -0.16142957233E+02  0.22680493811E+02  0.51100000000E-03 0.  1.
        -12    1    3    3    0    0  0.27690881209E+00  0.42789221259E+01  0.22558240711E+01  0.48450588530E+01  0.00000000000E+00 0.  1.
</event>
<event>
 7    1  0.3054835E-011  0.5052888E+02  0.7816164E-02  0.1300439E+00
        -11   -1    0    0    0    0  0.00000000000E+00  0.00000000000E+00  0.45593999997E+02  0.45594000000E+02  0.51100000000E-03 0.  1.
         11   -1    0    0    0    0 -0.00000000000E+00 -0.00000000000E+00 -0.45593999997E+02  0.45594000000E+02  0.51100000000E-03 0. -1.
    9900012    2    1    2    0    0 -0.40557207494E+02 -0.28658061695E+01  0.25370978053E+00  0.50528876874E+02  0.30000051745E+02 0.  0.
         12    1    1    2    0    0  0.40557207494E+02  0.28658061695E+01 -0.25370978053E+00  0.40659123126E+02  0.00000000000E+00 0. -1.
         11    1    3    3    0    0 -0.16738732957E+02 -0.14164995364E+01 -0.95378707045E+01  0.19317417783E+02  0.51100000000E-03 0. -1.
        -11    1    3    3    0    0 -0.20760366107E+02  0.59592333022E+01  0.76744917766E+01  0.22921672861E+02  0.51100000000E-03 0.  1.
        -12    1    3    3    0    0 -0.30581084300E+01 -0.74085399353E+01  0.21170887084E+01  0.82897862301E+01  0.00000000000E+00 0.  1.
</event>
<event>
 7    1  0.3054835E-011  0.5052886E+02  0.7816164E-02  0.1300439E+00
        -11   -1    0    0    0    0  0.00000000000E+00  0.00000000000E+00  0.45593999997E+02  0.45594000000E+02  0.51100000000E-03 0.  1.
         11   -1    0    0    0    0 -0.00000000000E+00 -0.00000000000E+00 -0.45593999997E+02  0.45594000000E+02  0.51100000000E-03 0. -1.
    9900012    2    1    2    0    0  0.22639789364E+02  0.19008866447E+02  0.27915382876E+02  0.50528859980E+02  0.30000000395E+02 0.  0.
         12    1    1    2    0    0 -0.22639789364E+02 -0.19008866447E+02 -0.27915382876E+02  0.40659140020E+02  0.00000000000E+00 0. -1.
         11    1    3    3    0    0  0.69468760389E+01  0.29522844001E+01  0.34232445115E+01  0.82881646416E+01  0.51100000000E-03 0. -1.
        -11    1    3    3    0    0  0.87677569709E+01  0.21722156040E+02  0.23595158997E+02  0.33248415807E+02  0.51100000000E-03 0.  1.
        -12    1    3    3    0    0  0.69251563539E+01 -0.56655739924E+01  0.89697936792E+00  0.89922795317E+01  0.00000000000E+00 0.  1.
</event>
<event>
 7    1  0.3054835E-011  0.5052883E+02  0.7816164E-02  0.1300439E+00
        -11   -1    0    0    0    0  0.00000000000E+00  0.00000000000E+00  0.45593999997E+02  0.45594000000E+02  0.51100000000E-03 0.  1.
         11   -1    0    0    0    0 -0.00000000000E+00 -0.00000000000E+00 -0.45593999997E+02  0.45594000000E+02  0.51100000000E-03 0. -1.
    9900012    2    1    2    0    0 -0.14386370279E+02 -0.10769485200E+01  0.38013685198E+02  0.50528834610E+02  0.29999923279E+02 0.  0.
         12    1    1    2    0    0  0.14386370279E+02  0.10769485200E+01 -0.38013685198E+02  0.40659165390E+02  0.00000000000E+00 0. -1.
         11    1    3    3    0    0  0.14849490326E+01  0.94774594641E+01  0.73259238198E+01  0.12070479344E+02  0.51100000000E-03 0. -1.
        -11    1    3    3    0    0 -0.12338222692E+02 -0.91113964274E+01  0.31043056630E+02  0.34625433561E+02  0.51100000000E-03 0.  1.
        -12    1    3    3    0    0 -0.35330966199E+01 -0.14430115566E+01 -0.35529525214E+00  0.38329217047E+01  0.00000000000E+00 0.  1.
</event>
<event>
 7    1  0.3054835E-011  0.5052885E+02  0.7816164E-02  0.1300439E+00
        -11   -1    0    0    0    0  0.00000000000E+00  0.00000000000E+00  0.45593999997E+02  0.45594000000E+02  0.51100000000E-03 0.  1.
         11   -1    0    0    0    0 -0.00000000000E+00 -0.00000000000E+00 -0.45593999997E+02  0.45594000000E+02  0.51100000000E-03 0. -1.
    9900012    2    1    2    0    0  0.19107798892E+01 -0.24584018150E+01  0.40539752945E+02  0.50528851115E+02  0.29999973448E+02 0.  0.
         12    1    1    2    0    0 -0.19107798892E+01  0.24584018150E+01 -0.40539752945E+02  0.40659148885E+02  0.00000000000E+00 0. -1.
         11    1    3    3    0    0 -0.33351390235E+01  0.10545139810E+01  0.17360782778E+01  0.39050121754E+01  0.51100000000E-03 0. -1.
        -11    1    3    3    0    0  0.80561791383E+01 -0.12821363700E+02  0.17094673733E+02  0.22836752391E+02  0.51100000000E-03 0.  1.
        -12    1    3    3    0    0 -0.28102602256E+01  0.93084479044E+01  0.21709000934E+02  0.23787086549E+02  0.00000000000E+00 0.  1.
</event>
<event>
 7    1  0.3054835E-011  0.5052888E+02  0.7816164E-02  0.1300439E+00
        -11   -1    0    0    0    0  0.00000000000E+00  0.00000000000E+00  0.45593999997E+02  0.45594000000E+02  0.51100000000E-03 0. -1.
         11   -1    0    0    0    0 -0.00000000000E+00 -0.00000000000E+00 -0.45593999997E+02  0.45594000000E+02  0.51100000000E-03 0.  1.
    9900012    2    1    2    0    0 -0.33043983461E+02 -0.11228538692E+01 -0.23664286137E+02  0.50528879471E+02  0.30000059641E+02 0.  0.
         12    1    1    2    0    0  0.33043983461E+02  0.11228538692E+01  0.23664286137E+02  0.40659120529E+02  0.00000000000E+00 0. -1.
         11    1    3    3    0    0 -0.24828814512E+02 -0.59883225451E+01 -0.63711089110E+01  0.26323393892E+02  0.51100000000E-03 0. -1.
        -11    1    3    3    0    0  0.36153645724E+01  0.31643361978E+01 -0.66313275821E+01  0.81889187519E+01  0.51100000000E-03 0.  1.
        -12    1    3    3    0    0 -0.11830533521E+02  0.17011324781E+01 -0.10661849644E+02  0.16016566827E+02  0.00000000000E+00 0.  1.
</event>
<event>
 7    1  0.3054835E-011  0.5052890E+02  0.7816164E-02  0.1300439E+00
        -11   -1    0    0    0    0  0.00000000000E+00  0.00000000000E+00  0.45593999997E+02  0.45594000000E+02  0.51100000000E-03 0. -1.
         11   -1    0    0    0    0 -0.00000000000E+00 -0.00000000000E+00 -0.45593999997E+02  0.45594000000E+02  0.51100000000E-03 0.  1.
    9900012    2    1    2    0    0  0.32935214598E+01 -0.34695203018E+02 -0.20941774844E+02  0.50528901022E+02  0.30000125147E+02 0.  0.
         12    1    1    2    0    0 -0.32935214598E+01  0.34695203018E+02  0.20941774844E+02  0.40659098978E+02  0.00000000000E+00 0. -1.
         11    1    3    3    0    0  0.64819671114E+01 -0.87476867509E+01  0.48364863719E+01  0.11913417722E+02  0.51100000000E-03 0. -1.
        -11    1    3    3    0    0 -0.24087727477E+01 -0.12819256435E+01 -0.72788964591E+01  0.77735354524E+01  0.51100000000E-03 0.  1.
         12    1    3    3    0    0 -0.77967290377E+00 -0.24665590624E+02 -0.18499364757E+02  0.30841947848E+02  0.00000000000E+00 0. -1.
</event>
<event>
 7    1  0.3054835E-011  0.5052885E+02  0.7816164E-02  0.1300439E+00
        -11   -1    0    0    0    0  0.00000000000E+00  0.00000000000E+00  0.45593999997E+02  0.45594000000E+02  0.51100000000E-03 0.  1.
         11   -1    0    0    0    0 -0.00000000000E+00 -0.00000000000E+00 -0.45593999997E+02  0.45594000000E+02  0.51100000000E-03 0. -1.
    9900012    2    1    2    0    0  0.34257019353E+01 -0.23702169464E+02  0.32857845808E+02  0.50528852171E+02  0.29999976659E+02 0.  0.
         12    1    1    2    0    0 -0.34257019353E+01  0.23702169464E+02 -0.32857845808E+02  0.40659147829E+02  0.00000000000E+00 0. -1.
         11    1    3    3    0    0  0.11418182123E+02  0.15566019522E+01  0.11976096931E+02  0.16620011751E+02  0.51100000000E-03 0. -1.
        -11    1    3    3    0    0 -0.37402010836E+00 -0.48366262286E+01  0.47723347096E+01  0.68049998646E+01  0.51100000000E-03 0.  1.
         12    1    3    3    0    0 -0.76184600797E+01 -0.20422145187E+02  0.16109414168E+02  0.27103840556E+02  0.00000000000E+00 0. -1.
</event>
<event>
 7    1  0.3054835E-011  0.5052885E+02  0.7816164E-02  0.1300439E+00
        -11   -1    0    0    0    0  0.00000000000E+00  0.00000000000E+00  0.45593999997E+02  0.45594000000E+02  0.51100000000E-03 0.  1.
         11   -1    0    0    0    0 -0.00000000000E+00 -0.00000000000E+00 -0.45593999997E+02  0.45594000000E+02  0.51100000000E-03 0. -1.
    9900012    2    1    2    0    0 -0.40370102571E+02  0.31273336807E+01  0.36933374840E+01  0.50528854174E+02  0.29999982748E+02 0.  0.
         12    1    1    2    0    0  0.40370102571E+02 -0.31273336807E+01 -0.36933374840E+01  0.40659145826E+02  0.00000000000E+00 0. -1.
         11    1    3    3    0    0 -0.38062740833E+02  0.42478455847E+01  0.31575057437E+01  0.38428977017E+02  0.51100000000E-03 0. -1.
        -11    1    3    3    0    0 -0.42840825595E+01 -0.21871122695E+00 -0.47407809670E+01  0.63934499619E+01  0.51100000000E-03 0.  1.
         12    1    3    3    0    0  0.19767208219E+01 -0.90180067704E+00  0.52766127073E+01  0.57064271950E+01  0.00000000000E+00 0. -1.
</event>
<event>
 7    1  0.3054835E-011  0.5052886E+02  0.7816164E-02  0.1300439E+00
        -11   -1    0    0    0    0  0.00000000000E+00  0.00000000000E+00  0.45593999997E+02  0.45594000000E+02  0.51100000000E-03 0.  1.
         11   -1    0    0    0    0 -0.00000000000E+00 -0.00000000000E+00 -0.45593999997E+02  0.45594000000E+02  0.51100000000E-03 0. -1.
    9900012    2    1    2    0    0 -0.19759644133E+02 -0.52128058891E+01  0.35150370520E+02  0.50528862906E+02  0.30000009290E+02 0.  0.
         12    1    1    2    0    0  0.19759644133E+02  0.52128058891E+01 -0.35150370520E+02  0.40659137094E+02  0.00000000000E+00 0. -1.
         11    1    3    3    0    0  0.18020857140E+01 -0.84059495563E+00  0.11273763467E+00  0.19916884383E+01  0.51100000000E-03 0. -1.
        -11    1    3    3    0    0 -0.20868427874E+02 -0.13210600371E+02  0.26597201843E+02  0.36296313728E+02  0.51100000000E-03 0.  1.
        -12    1    3    3    0    0 -0.69330197252E+00  0.88383894376E+01  0.84404310421E+01  0.12240860740E+02  0.00000000000E+00 0.  1.
</event>
<event>
 7    1  0.3054835E-011  0.5052886E+02  0.7816164E-02  0.1300439E+00
        -11   -1    0    0    0    0  0.00000000000E+00  0.00000000000E+00  0.45593999997E+02  0.45594000000E+02  0.51100000000E-03 0.  1.
         11   -1    0    0    0    0 -0.00000000000E+00 -0.00000000000E+00 -0.45593999997E+02  0.45594000000E+02  0.51100000000E-03 0. -1.
    9900012    2    1    2    0    0  0.29321596520E+02 -0.23829713072E+02 -0.15018474160E+02  0.50528858178E+02  0.29999994919E+02 0.  0.
         12    1    1    2    0    0 -0.29321596520E+02  0.23829713072E+02  0.15018474160E+02  0.40659141822E+02  0.00000000000E+00 0. -1.
         11    1    3    3    0    0 -0.10967681130E+00 -0.17919638667E+00  0.54838456260E+01  0.54878687538E+01  0.51100000000E-03 0. -1.
        -11    1    3    3    0    0  0.21729988452E+02 -0.89641192136E+01 -0.12621185779E+02  0.26680370352E+02  0.51100000000E-03 0.  1.
        -12    1    3    3    0    0  0.77012848792E+01 -0.14686397472E+02 -0.78811340069E+01  0.18360619072E+02  0.00000000000E+00 0.  1.
</event>
<event>
 7    1  0.3054835E-011  0.5052884E+02  0.7816164E-02  0.1300439E+00
        -11   -1    0    0    0    0  0.00000000000E+00  0.00000000000E+00  0.45593999997E+02  0.45594000000E+02  0.51100000000E-03 0.  1.
         11   -1    0    0    0    0 -0.00000000000E+00 -0.00000000000E+00 -0.45593999997E+02  0.45594000000E+02  0.51100000000E-03 0. -1.
    9900012    2    1    2    0    0 -0.23336422276E+02  0.31689591126E+02  0.10215108042E+02  0.50528840851E+02  0.29999942250E+02 0.  0.
         12    1    1    2    0    0  0.23336422276E+02 -0.31689591126E+02 -0.10215108042E+02  0.40659159149E+02  0.00000000000E+00 0. -1.
         11    1    3    3    0    0  0.94777860498E+00  0.18475405230E+02  0.64505726778E+01  0.19592058871E+02  0.51100000000E-03 0.  1.
        -11    1    3    3    0    0 -0.14753813955E+02  0.99756768473E+01 -0.39649181067E+01  0.18245814058E+02  0.51100000000E-03 0. -1.
         12    1    3    3    0    0 -0.95303869260E+01  0.32385090493E+01  0.77294534711E+01  0.12690967921E+02  0.00000000000E+00 0. -1.
</event>
<event>
 7    1  0.3054835E-011  0.5052885E+02  0.7816164E-02  0.1300439E+00
        -11   -1    0    0    0    0  0.00000000000E+00  0.00000000000E+00  0.45593999997E+02  0.45594000000E+02  0.51100000000E-03 0.  1.
         11   -1    0    0    0    0 -0.00000000000E+00 -0.00000000000E+00 -0.45593999997E+02  0.45594000000E+02  0.51100000000E-03 0. -1.
    9900012    2    1    2    0    0 -0.68696738163E+01  0.13372814203E+02  0.37777526404E+02  0.50528854913E+02  0.29999984993E+02 0.  0.
         12    1    1    2    0    0  0.68696738163E+01 -0.13372814203E+02 -0.37777526404E+02  0.40659145087E+02  0.00000000000E+00 0. -1.
         11    1    3    3    0    0  0.35512295109E+01  0.89331439200E+01 -0.84957806284E+00  0.96505996953E+01  0.51100000000E-03 0. -1.
        -11    1    3    3    0    0 -0.55956001825E+01  0.20990084480E+01  0.92295277591E+01  0.10995488201E+02  0.51100000000E-03 0.  1.
         12    1    3    3    0    0 -0.48253031447E+01  0.23406618349E+01  0.29397576707E+02  0.29882767016E+02  0.00000000000E+00 0. -1.
</event>
<event>
 7    1  0.3054835E-011  0.5052886E+02  0.7816164E-02  0.1300439E+00
        -11   -1    0    0    0    0  0.00000000000E+00  0.00000000000E+00  0.45593999997E+02  0.45594000000E+02  0.51100000000E-03 0.  1.
         11   -1    0    0    0    0 -0.00000000000E+00 -0.00000000000E+00 -0.45593999997E+02  0.45594000000E+02  0.51100000000E-03 0. -1.
    9900012    2    1    2    0    0 -0.12728488146E+02  0.31903008178E+02  0.21756586447E+02  0.50528863325E+02  0.30000010563E+02 0.  0.
         12    1    1    2    0    0  0.12728488146E+02 -0.31903008178E+02 -0.21756586447E+02  0.40659136675E+02  0.00000000000E+00 0. -1.
         11    1    3    3    0    0 -0.37035484427E+01  0.20200857196E+02  0.20557356785E+01  0.20640178099E+02  0.51100000000E-03 0. -1.
        -11    1    3    3    0    0 -0.55135021402E+01 -0.25728915355E+00  0.15941235894E+02  0.16869733420E+02  0.51100000000E-03 0.  1.
        -12    1    3    3    0    0 -0.35114375635E+01  0.11959440136E+02  0.37596148747E+01  0.13018951806E+02  0.00000000000E+00 0.  1.
</event>
<event>
 7    1  0.3054835E-011  0.5052887E+02  0.7816164E-02  0.1300439E+00
        -11   -1    0    0    0    0  0.00000000000E+00  0.00000000000E+00  0.45593999997E+02  0.45594000000E+02  0.51100000000E-03 0.  1.
         11   -1    0    0    0    0 -0.00000000000E+00 -0.00000000000E+00 -0.45593999997E+02  0.45594000000E+02  0.51100000000E-03 0. -1.
    9900012    2    1    2    0    0 -0.24594617877E+02  0.30641828447E+02  0.10456966543E+02  0.50528867836E+02  0.30000024273E+02 0.  0.
         12    1    1    2    0    0  0.24594617877E+02 -0.30641828447E+02 -0.10456966543E+02  0.40659132164E+02  0.00000000000E+00 0. -1.
         11    1    3    3    0    0 -0.19793121222E+02  0.17399946095E+02  0.17183897896E+02  0.31461279678E+02  0.51100000000E-03 0.  1.
        -11    1    3    3    0    0  0.14076825882E+01  0.14989758917E+01 -0.53275644560E+01  0.57106428962E+01  0.51100000000E-03 0. -1.
        -12    1    3    3    0    0 -0.62091792433E+01  0.11742906460E+02 -0.13993668971E+01  0.13356945261E+02  0.00000000000E+00 0.  1.
</event>
<event>
 7    1  0.3054835E-011  0.5052886E+02  0.7816164E-02  0.1300439E+00
        -11   -1    0    0    0    0  0.00000000000E+00  0.00000000000E+00  0.45593999997E+02  0.45594000000E+02  0.51100000000E-03 0. -1.
         11   -1    0    0    0    0 -0.00000000000E+00 -0.00000000000E+00 -0.45593999997E+02  0.45594000000E+02  0.51100000000E-03 0.  1.
    9900012    2    1    2    0    0  0.40307860264E+02  0.51414842011E+01  0.14167630274E+01  0.50528859867E+02  0.30000000052E+02 0.  0.
         12    1    1    2    0    0 -0.40307860264E+02 -0.51414842011E+01 -0.14167630274E+01  0.40659140133E+02  0.00000000000E+00 0. -1.
         11    1    3    3    0    0  0.32001340186E+02 -0.12205977884E+01  0.89296387787E+01  0.33246264176E+02  0.51100000000E-03 0. -1.
        -11    1    3    3    0    0 -0.18773450617E+01  0.27278230192E+01 -0.52940392153E+01  0.62443810245E+01  0.51100000000E-03 0.  1.
         12    1    3    3    0    0  0.10183865140E+02  0.36342589703E+01 -0.22188365359E+01  0.11038214666E+02  0.00000000000E+00 0. -1.
</event>
<event>
 7    1  0.3054835E-011  0.5052886E+02  0.7816164E-02  0.1300439E+00
        -11   -1    0    0    0    0  0.00000000000E+00  0.00000000000E+00  0.45593999997E+02  0.45594000000E+02  0.51100000000E-03 0.  1.
         11   -1    0    0    0    0 -0.00000000000E+00 -0.00000000000E+00 -0.45593999997E+02  0.45594000000E+02  0.51100000000E-03 0. -1.
    9900012    2    1    2    0    0 -0.30248160415E+02  0.81860845238E+01  0.25907579181E+02  0.50528857764E+02  0.29999993659E+02 0.  0.
         12    1    1    2    0    0  0.30248160415E+02 -0.81860845238E+01 -0.25907579181E+02  0.40659142236E+02  0.00000000000E+00 0. -1.
         11    1    3    3    0    0 -0.24557074320E+02  0.86877852880E+01  0.23087731634E+02  0.34807626530E+02  0.51100000000E-03 0.  1.
        -11    1    3    3    0    0  0.29882622329E+01  0.37385855324E+01  0.36597904643E+01  0.60250144779E+01  0.51100000000E-03 0. -1.
         12    1    3    3    0    0 -0.86793483278E+01 -0.42402862966E+01 -0.83994291714E+00  0.96962167559E+01  0.00000000000E+00 0. -1.
</event>
<event>
 7    1  0.3054835E-011  0.5052886E+02  0.7816164E-02  0.1300439E+00
        -11   -1    0    0    0    0  0.00000000000E+00  0.00000000000E+00  0.45593999997E+02  0.45594000000E+02  0.51100000000E-03 0.  1.
         11   -1    0    0    0    0 -0.00000000000E+00 -0.00000000000E+00 -0.45593999997E+02  0.45594000000E+02  0.51100000000E-03 0. -1.
    9900012    2    1    2    0    0 -0.29017627631E+02  0.18962038729E+02  0.21250504937E+02  0.50528860976E+02  0.30000003424E+02 0.  0.
         12    1    1    2    0    0  0.29017627631E+02 -0.18962038729E+02 -0.21250504937E+02  0.40659139024E+02  0.00000000000E+00 0. -1.
         11    1    3    3    0    0 -0.11073540177E+02  0.20340267491E+02  0.31418798807E+01  0.23371375294E+02  0.51100000000E-03 0. -1.
        -11    1    3    3    0    0 -0.17149447338E+02 -0.82247442740E-01  0.12174196122E+02  0.21031437424E+02  0.51100000000E-03 0.  1.
         12    1    3    3    0    0 -0.79464011547E+00 -0.12959813194E+01  0.59344289344E+01  0.61260482589E+01  0.00000000000E+00 0. -1.
</event>
<event>
 7    1  0.3054835E-011  0.5052886E+02  0.7816164E-02  0.1300439E+00
        -11   -1    0    0    0    0  0.00000000000E+00  0.00000000000E+00  0.45593999997E+02  0.45594000000E+02  0.51100000000E-03 0. -1.
         11   -1    0    0    0    0 -0.00000000000E+00 -0.00000000000E+00 -0.45593999997E+02  0.45594000000E+02  0.51100000000E-03 0.  1.
    9900012    2    1    2    0    0  0.33966419680E+02  0.25835538326E+00 -0.22346843984E+02  0.50528857739E+02  0.29999993584E+02 0.  0.
         12    1    1    2    0    0 -0.33966419680E+02 -0.25835538326E+00  0.22346843984E+02  0.40659142261E+02  0.00000000000E+00 0. -1.
         11    1    3    3    0    0 -0.11181141874E+01  0.55044967351E+01 -0.60401680545E+01  0.82482297513E+01  0.51100000000E-03 0. -1.
        -11    1    3    3    0    0  0.16662851103E+02  0.20198396096E+01 -0.14872497216E+02  0.22425912080E+02  0.51100000000E-03 0.  1.
         12    1    3    3    0    0  0.18421682764E+02 -0.72659809614E+01 -0.14341787128E+01  0.19854715908E+02  0.00000000000E+00 0. -1.
</event>
<event>
 7    1  0.3054835E-011  0.5052884E+02  0.7816164E-02  0.1300439E+00
        -11   -1    0    0    0    0  0.00000000000E+00  0.00000000000E+00  0.45593999997E+02  0.45594000000E+02  0.51100000000E-03 0.  1.
         11   -1    0    0    0    0 -0.00000000000E+00 -0.00000000000E+00 -0.45593999997E+02  0.45594000000E+02  0.51100000000E-03 0. -1.
    9900012    2    1    2    0    0 -0.23072694410E+02  0.24516531720E+02  0.22798201093E+02  0.50528837097E+02  0.29999930839E+02 0.  0.
         12    1    1    2    0    0  0.23072694410E+02 -0.24516531720E+02 -0.22798201093E+02  0.40659162903E+02  0.00000000000E+00 0. -1.
         11    1    3    3    0    0  0.45413202506E+01  0.74408179404E+01 -0.87265852882E+00  0.87607587805E+01  0.51100000000E-03 0. -1.
        -11    1    3    3    0    0 -0.14683734781E+02  0.30815809204E+01  0.13433344538E+02  0.20138593640E+02  0.51100000000E-03 0.  1.
        -12    1    3    3    0    0 -0.12930279880E+02  0.13994132859E+02  0.10237515085E+02  0.21629484676E+02  0.00000000000E+00 0.  1.
</event>
<event>
 7    1  0.3054835E-011  0.5052883E+02  0.7816164E-02  0.1300439E+00
        -11   -1    0    0    0    0  0.00000000000E+00  0.00000000000E+00  0.45593999997E+02  0.45594000000E+02  0.51100000000E-03 0. -1.
         11   -1    0    0    0    0 -0.00000000000E+00 -0.00000000000E+00 -0.45593999997E+02  0.45594000000E+02  0.51100000000E-03 0.  1.
    9900012    2    1    2    0    0  0.25724832059E+02 -0.16134331284E+02 -0.27038573483E+02  0.50528830229E+02  0.29999909965E+02 0.  0.
         12    1    1    2    0    0 -0.25724832059E+02  0.16134331284E+02  0.27038573483E+02  0.40659169771E+02  0.00000000000E+00 0. -1.
         11    1    3    3    0    0  0.11228879085E+02 -0.80405514351E+01 -0.13922505225E+01  0.13880798056E+02  0.51100000000E-03 0. -1.
        -11    1    3    3    0    0 -0.40252789865E+01 -0.18321254453E+01 -0.12044866255E+02  0.12831147959E+02  0.51100000000E-03 0.  1.
        -12    1    3    3    0    0  0.18521231960E+02 -0.62616544035E+01 -0.13601456705E+02  0.23816884215E+02  0.00000000000E+00 0.  1.
</event>
<event>
 7    1  0.3054835E-011  0.5052885E+02  0.7816164E-02  0.1300439E+00
        -11   -1    0    0    0    0  0.00000000000E+00  0.00000000000E+00  0.45593999997E+02  0.45594000000E+02  0.51100000000E-03 0.  1.
         11   -1    0    0    0    0 -0.00000000000E+00 -0.00000000000E+00 -0.45593999997E+02  0.45594000000E+02  0.51100000000E-03 0. -1.
    9900012    2    1    2    0    0  0.23310496247E+02 -0.16766947961E+02  0.28786390891E+02  0.50528854906E+02  0.29999984972E+02 0.  0.
         12    1    1    2    0    0 -0.23310496247E+02  0.16766947961E+02 -0.28786390891E+02  0.40659145094E+02  0.00000000000E+00 0. -1.
         11    1    3    3    0    0  0.13280638623E+02  0.52071175011E+01  0.25175071226E+01  0.14485416020E+02  0.51100000000E-03 0. -1.
        -11    1    3    3    0    0  0.28483813557E+01 -0.10932469246E+02  0.98039121244E+01  0.14958236974E+02  0.51100000000E-03 0.  1.
         12    1    3    3    0    0  0.71814762684E+01 -0.11041596217E+02  0.16464971644E+02  0.21085201912E+02  0.00000000000E+00 0. -1.
</event>
<event>
 7    1  0.3054835E-011  0.5052885E+02  0.7816164E-02  0.1300439E+00
        -11   -1    0    0    0    0  0.00000000000E+00  0.00000000000E+00  0.45593999997E+02  0.45594000000E+02  0.51100000000E-03 0.  1.
         11   -1    0    0    0    0 -0.00000000000E+00 -0.00000000000E+00 -0.45593999997E+02  0.45594000000E+02  0.51100000000E-03 0. -1.
    9900012    2    1    2    0    0 -0.17777884135E+01  0.19383223821E+02  0.35697294053E+02  0.50528847278E+02  0.29999961786E+02 0.  0.
         12    1    1    2    0    0  0.17777884135E+01 -0.19383223821E+02 -0.35697294053E+02  0.40659152722E+02  0.00000000000E+00 0. -1.
         11    1    3    3    0    0 -0.11393983034E+02  0.14288008850E+02  0.19823156013E+02  0.26961594182E+02  0.51100000000E-03 0.  1.
        -11    1    3    3    0    0  0.10071709037E+02  0.75885171520E+01  0.16677450901E+02  0.20908426156E+02  0.51100000000E-03 0. -1.
        -12    1    3    3    0    0 -0.45551441706E+00 -0.24933021809E+01 -0.80331285967E+00  0.26588269406E+01  0.00000000000E+00 0.  1.
</event>
<event>
 7    1  0.3054835E-011  0.5052886E+02  0.7816164E-02  0.1300439E+00
        -11   -1    0    0    0    0  0.00000000000E+00  0.00000000000E+00  0.45593999997E+02  0.45594000000E+02  0.51100000000E-03 0.  1.
         11   -1    0    0    0    0 -0.00000000000E+00 -0.00000000000E+00 -0.45593999997E+02  0.45594000000E+02  0.51100000000E-03 0. -1.
    9900012    2    1    2    0    0 -0.74130168011E+01 -0.31563225469E+02  0.24535191946E+02  0.50528860019E+02  0.30000000515E+02 0.  0.
         12    1    1    2    0    0  0.74130168011E+01  0.31563225469E+02 -0.24535191946E+02  0.40659139981E+02  0.00000000000E+00 0. -1.
         11    1    3    3    0    0 -0.44187510790E+01 -0.36840070941E+01  0.16496528980E+02  0.17470911196E+02  0.51100000000E-03 0. -1.
        -11    1    3    3    0    0  0.35983077457E+01 -0.17036027995E+02 -0.10584506422E+01  0.17444035843E+02  0.51100000000E-03 0.  1.
        -12    1    3    3    0    0 -0.65925734678E+01 -0.10843190381E+02  0.90971136089E+01  0.15613912981E+02  0.00000000000E+00 0.  1.
</event>
<event>
 7    1  0.3054835E-011  0.5052887E+02  0.7816164E-02  0.1300439E+00
        -11   -1    0    0    0    0  0.00000000000E+00  0.00000000000E+00  0.45593999997E+02  0.45594000000E+02  0.51100000000E-03 0. -1.
         11   -1    0    0    0    0 -0.00000000000E+00 -0.00000000000E+00 -0.45593999997E+02  0.45594000000E+02  0.51100000000E-03 0.  1.
    9900012    2    1    2    0    0  0.29616041174E+02 -0.27760731588E+02 -0.23230337273E+01  0.50528873118E+02  0.30000040328E+02 0.  0.
         12    1    1    2    0    0 -0.29616041174E+02  0.27760731588E+02  0.23230337273E+01  0.40659126882E+02  0.00000000000E+00 0. -1.
         11    1    3    3    0    0  0.20111924800E+01  0.13728273216E+01 -0.28495451694E+01  0.37482606606E+01  0.51100000000E-03 0. -1.
        -11    1    3    3    0    0  0.13231984059E+02 -0.28040690526E+02 -0.48762490803E+01  0.31386996235E+02  0.51100000000E-03 0.  1.
        -12    1    3    3    0    0  0.14372864635E+02 -0.10928683840E+01  0.54027605224E+01  0.15393616222E+02  0.00000000000E+00 0.  1.
</event>
<event>
 7    1  0.3054835E-011  0.5052875E+02  0.7816164E-02  0.1300439E+00
        -11   -1    0    0    0    0  0.00000000000E+00  0.00000000000E+00  0.45593999997E+02  0.45594000000E+02  0.51100000000E-03 0.  1.
         11   -1    0    0    0    0 -0.00000000000E+00 -0.00000000000E+00 -0.45593999997E+02  0.45594000000E+02  0.51100000000E-03 0. -1.
    9900012    2    1    2    0    0  0.19886280366E+02 -0.35355125732E+02  0.27794173704E+01  0.50528754763E+02  0.29999680575E+02 0.  0.
         12    1    1    2    0    0 -0.19886280366E+02  0.35355125732E+02 -0.27794173704E+01  0.40659245237E+02  0.00000000000E+00 0. -1.
         11    1    3    3    0    0  0.61343427788E+01  0.24472355803E-01 -0.13894576883E+01  0.62897816459E+01  0.51100000000E-03 0. -1.
        -11    1    3    3    0    0  0.90414417251E+01 -0.20027407167E+02  0.13379378101E+02  0.25726493444E+02  0.51100000000E-03 0.  1.
        -12    1    3    3    0    0  0.47104958620E+01 -0.15352190922E+02 -0.92105030422E+01  0.18512479673E+02  0.00000000000E+00 0.  1.
</event>
<event>
 7    1  0.3054835E-011  0.5052886E+02  0.7816164E-02  0.1300439E+00
        -11   -1    0    0    0    0  0.00000000000E+00  0.00000000000E+00  0.45593999997E+02  0.45594000000E+02  0.51100000000E-03 0.  1.
         11   -1    0    0    0    0 -0.00000000000E+00 -0.00000000000E+00 -0.45593999997E+02  0.45594000000E+02  0.51100000000E-03 0. -1.
    9900012    2    1    2    0    0 -0.16834540951E+02 -0.30766917613E+02  0.20570872780E+02  0.50528858403E+02  0.29999995603E+02 0.  0.
         12    1    1    2    0    0  0.16834540951E+02  0.30766917613E+02 -0.20570872780E+02  0.40659141597E+02  0.00000000000E+00 0. -1.
         11    1    3    3    0    0 -0.18135182703E+01 -0.21358689349E+02  0.97977474878E+00  0.21457922034E+02  0.51100000000E-03 0.  1.
        -11    1    3    3    0    0 -0.29137601581E+01 -0.47146459643E+00  0.11724845317E+02  0.12090668927E+02  0.51100000000E-03 0. -1.
         12    1    3    3    0    0 -0.12107262523E+02 -0.89367636682E+01  0.78662527137E+01  0.16980267442E+02  0.00000000000E+00 0. -1.
</event>
<event>
 7    1  0.3054835E-011  0.5052890E+02  0.7816164E-02  0.1300439E+00
        -11   -1    0    0    0    0  0.00000000000E+00  0.00000000000E+00  0.45593999997E+02  0.45594000000E+02  0.51100000000E-03 0.  1.
         11   -1    0    0    0    0 -0.00000000000E+00 -0.00000000000E+00 -0.45593999997E+02  0.45594000000E+02  0.51100000000E-03 0. -1.
    9900012    2    1    2    0    0  0.36070091547E+02 -0.82517134943E+01  0.16852901479E+02  0.50528898091E+02  0.30000116236E+02 0.  0.
         12    1    1    2    0    0 -0.36070091547E+02  0.82517134943E+01 -0.16852901479E+02  0.40659101909E+02  0.00000000000E+00 0. -1.
         11    1    3    3    0    0  0.81358040138E+01 -0.10952189919E+02  0.10130094169E+02  0.16992956750E+02  0.51100000000E-03 0. -1.
        -11    1    3    3    0    0  0.85715975272E+01  0.89989438880E+01  0.35815708680E+01  0.12933712747E+02  0.51100000000E-03 0.  1.
        -12    1    3    3    0    0  0.19362690006E+02 -0.62984674633E+01  0.31412364421E+01  0.20602228594E+02  0.00000000000E+00 0.  1.
</event>
<event>
 7    1  0.3054835E-011  0.5052887E+02  0.7816164E-02  0.1300439E+00
        -11   -1    0    0    0    0  0.00000000000E+00  0.00000000000E+00  0.45593999997E+02  0.45594000000E+02  0.51100000000E-03 0.  1.
         11   -1    0    0    0    0 -0.00000000000E+00 -0.00000000000E+00 -0.45593999997E+02  0.45594000000E+02  0.51100000000E-03 0. -1.
    9900012    2    1    2    0    0  0.39563053987E+02 -0.69878737200E+01  0.62529363324E+01  0.50528870242E+02  0.30000031586E+02 0.  0.
         12    1    1    2    0    0 -0.39563053987E+02  0.69878737200E+01 -0.62529363324E+01  0.40659129758E+02  0.00000000000E+00 0. -1.
         11    1    3    3    0    0 -0.30504324908E+01  0.27210980838E+01 -0.81288729108E+00  0.41677690881E+01  0.51100000000E-03 0. -1.
        -11    1    3    3    0    0  0.33990102995E+02 -0.29902497108E+01  0.89322044848E+01  0.35271135113E+02  0.51100000000E-03 0.  1.
         12    1    3    3    0    0  0.86233834833E+01 -0.67187220929E+01 -0.18663808613E+01  0.11089966041E+02  0.00000000000E+00 0. -1.
</event>
<event>
 7    1  0.3054835E-011  0.5052886E+02  0.7816164E-02  0.1300439E+00
        -11   -1    0    0    0    0  0.00000000000E+00  0.00000000000E+00  0.45593999997E+02  0.45594000000E+02  0.51100000000E-03 0.  1.
         11   -1    0    0    0    0 -0.00000000000E+00 -0.00000000000E+00 -0.45593999997E+02  0.45594000000E+02  0.51100000000E-03 0. -1.
    9900012    2    1    2    0    0  0.38536719021E+02  0.87432440200E+01  0.95730269209E+01  0.50528857445E+02  0.29999992689E+02 0.  0.
         12    1    1    2    0    0 -0.38536719021E+02 -0.87432440200E+01 -0.95730269209E+01  0.40659142555E+02  0.00000000000E+00 0. -1.
         11    1    3    3    0    0  0.86547050170E+01 -0.37862614114E+01 -0.60701764730E+01  0.11228835072E+02  0.51100000000E-03 0. -1.
        -11    1    3    3    0    0  0.31233993868E+02  0.12152011140E+02  0.16792091512E+02  0.37486105230E+02  0.51100000000E-03 0.  1.
        -12    1    3    3    0    0 -0.13519798639E+01  0.37749429157E+00 -0.11488881180E+01  0.18139171426E+01  0.00000000000E+00 0.  1.
</event>
<event>
 7    1  0.3054835E-011  0.5052888E+02  0.7816164E-02  0.1300439E+00
        -11   -1    0    0    0    0  0.00000000000E+00  0.00000000000E+00  0.45593999997E+02  0.45594000000E+02  0.51100000000E-03 0.  1.
         11   -1    0    0    0    0 -0.00000000000E+00 -0.00000000000E+00 -0.45593999997E+02  0.45594000000E+02  0.51100000000E-03 0. -1.
    9900012    2    1    2    0    0 -0.36156623052E+02  0.18231619090E+02  0.36702056985E+01  0.50528883740E+02  0.30000072615E+02 0.  0.
         12    1    1    2    0    0  0.36156623052E+02 -0.18231619090E+02 -0.36702056985E+01  0.40659116260E+02  0.00000000000E+00 0. -1.
         11    1    3    3    0    0 -0.10609572369E+02 -0.38875732482E+01 -0.34490530278E+01  0.11814068675E+02  0.51100000000E-03 0. -1.
        -11    1    3    3    0    0 -0.27971360436E+02  0.18896137001E+02  0.48946504944E+01  0.34108922615E+02  0.51100000000E-03 0.  1.
         12    1    3    3    0    0  0.24243097521E+01  0.32230553367E+01  0.22246082318E+01  0.46058924502E+01  0.00000000000E+00 0. -1.
</event>
<event>
 7    1  0.3054835E-011  0.5052885E+02  0.7816164E-02  0.1300439E+00
        -11   -1    0    0    0    0  0.00000000000E+00  0.00000000000E+00  0.45593999997E+02  0.45594000000E+02  0.51100000000E-03 0.  1.
         11   -1    0    0    0    0 -0.00000000000E+00 -0.00000000000E+00 -0.45593999997E+02  0.45594000000E+02  0.51100000000E-03 0. -1.
    9900012    2    1    2    0    0 -0.33682968201E+02 -0.11399993547E+02  0.19714572200E+02  0.50528849040E+02  0.29999967143E+02 0.  0.
         12    1    1    2    0    0  0.33682968201E+02  0.11399993547E+02 -0.19714572200E+02  0.40659150960E+02  0.00000000000E+00 0. -1.
         11    1    3    3    0    0 -0.17912130156E+02 -0.19415848729E+02  0.96159920159E+01  0.28112041749E+02  0.51100000000E-03 0. -1.
        -11    1    3    3    0    0 -0.13648225504E+02  0.23619630846E+01  0.58658091153E+01  0.15041962833E+02  0.51100000000E-03 0.  1.
         12    1    3    3    0    0 -0.21226125413E+01  0.56538920981E+01  0.42327710689E+01  0.73748444580E+01  0.00000000000E+00 0. -1.
</event>
<event>
 7    1  0.3054835E-011  0.5052886E+02  0.7816164E-02  0.1300439E+00
        -11   -1    0    0    0    0  0.00000000000E+00  0.00000000000E+00  0.45593999997E+02  0.45594000000E+02  0.51100000000E-03 0.  1.
         11   -1    0    0    0    0 -0.00000000000E+00 -0.00000000000E+00 -0.45593999997E+02  0.45594000000E+02  0.51100000000E-03 0. -1.
    9900012    2    1    2    0    0  0.30572501949E+02 -0.12113372799E+02 -0.23911372801E+02  0.50528862955E+02  0.30000009439E+02 0.  0.
         12    1    1    2    0    0 -0.30572501949E+02  0.12113372799E+02  0.23911372801E+02  0.40659137045E+02  0.00000000000E+00 0. -1.
         11    1    3    3    0    0  0.17831904322E+01 -0.41270439271E+01 -0.43995085195E+00  0.45172797906E+01  0.51100000000E-03 0. -1.
        -11    1    3    3    0    0  0.14547476288E+02  0.69336759728E+01 -0.18986225366E+02  0.24903447206E+02  0.51100000000E-03 0.  1.
        -12    1    3    3    0    0  0.14241835229E+02 -0.14920004845E+02 -0.44851965827E+01  0.21108135959E+02  0.00000000000E+00 0.  1.
</event>
<event>
 7    1  0.3054835E-011  0.5052886E+02  0.7816164E-02  0.1300439E+00
        -11   -1    0    0    0    0  0.00000000000E+00  0.00000000000E+00  0.45593999997E+02  0.45594000000E+02  0.51100000000E-03 0.  1.
         11   -1    0    0    0    0 -0.00000000000E+00 -0.00000000000E+00 -0.45593999997E+02  0.45594000000E+02  0.51100000000E-03 0. -1.
    9900012    2    1    2    0    0  0.31070181932E+02  0.23131494012E+02  0.12358953535E+02  0.50528856465E+02  0.29999989711E+02 0.  0.
         12    1    1    2    0    0 -0.31070181932E+02 -0.23131494012E+02 -0.12358953535E+02  0.40659143535E+02  0.00000000000E+00 0. -1.
         11    1    3    3    0    0  0.15743075933E+02  0.77077368937E+01  0.16570521958E+02  0.24121273725E+02  0.51100000000E-03 0. -1.
        -11    1    3    3    0    0  0.13571662968E+02  0.10498545625E+02 -0.89490511550E+01  0.19351873625E+02  0.51100000000E-03 0.  1.
        -12    1    3    3    0    0  0.17554430302E+01  0.49252114937E+01  0.47374827314E+01  0.70557091154E+01  0.00000000000E+00 0.  1.
</event>
<event>
 7    1  0.3054835E-011  0.5052887E+02  0.7816164E-02  0.1300439E+00
        -11   -1    0    0    0    0  0.00000000000E+00  0.00000000000E+00  0.45593999997E+02  0.45594000000E+02  0.51100000000E-03 0. -1.
         11   -1    0    0    0    0 -0.00000000000E+00 -0.00000000000E+00 -0.45593999997E+02  0.45594000000E+02  0.51100000000E-03 0.  1.
    9900012    2    1    2    0    0  0.25250440587E+02  0.25118988927E+00 -0.31867178284E+02  0.50528869439E+02  0.30000029146E+02 0.  0.
         12    1    1    2    0    0 -0.25250440587E+02 -0.25118988927E+00  0.31867178284E+02  0.40659130561E+02  0.00000000000E+00 0. -1.
         11    1    3    3    0    0 -0.19965301919E+01  0.30718882697E+01  0.20495389033E+01  0.41980043266E+01  0.51100000000E-03 0. -1.
        -11    1    3    3    0    0  0.26008352682E+02 -0.41129952699E+01 -0.22092528062E+02  0.34371949840E+02  0.51100000000E-03 0.  1.
        -12    1    3    3    0    0  0.12386180970E+01  0.12922968895E+01 -0.11824189125E+02  0.11958915273E+02  0.00000000000E+00 0.  1.
</event>
<event>
 7    1  0.3054835E-011  0.5052886E+02  0.7816164E-02  0.1300439E+00
        -11   -1    0    0    0    0  0.00000000000E+00  0.00000000000E+00  0.45593999997E+02  0.45594000000E+02  0.51100000000E-03 0. -1.
         11   -1    0    0    0    0 -0.00000000000E+00 -0.00000000000E+00 -0.45593999997E+02  0.45594000000E+02  0.51100000000E-03 0.  1.
    9900012    2    1    2    0    0 -0.47249602663E+01  0.56516360264E+01 -0.39986237558E+02  0.50528862855E+02  0.30000009134E+02 0.  0.
         12    1    1    2    0    0  0.47249602663E+01 -0.56516360264E+01  0.39986237558E+02  0.40659137145E+02  0.00000000000E+00 0. -1.
         11    1    3    3    0    0  0.12821762697E+00 -0.81379014307E+00  0.90934881258E+00  0.12270328769E+01  0.51100000000E-03 0. -1.
        -11    1    3    3    0    0  0.15513162696E+01 -0.33952145181E+01 -0.36590643721E+02  0.36780555623E+02  0.51100000000E-03 0.  1.
        -12    1    3    3    0    0 -0.64044941629E+01  0.98606406876E+01 -0.43049426501E+01  0.12521274355E+02  0.00000000000E+00 0.  1.
</event>
<event>
 7    1  0.3054835E-011  0.5052886E+02  0.7816164E-02  0.1300439E+00
        -11   -1    0    0    0    0  0.00000000000E+00  0.00000000000E+00  0.45593999997E+02  0.45594000000E+02  0.51100000000E-03 0. -1.
         11   -1    0    0    0    0 -0.00000000000E+00 -0.00000000000E+00 -0.45593999997E+02  0.45594000000E+02  0.51100000000E-03 0.  1.
    9900012    2    1    2    0    0 -0.40421362845E+02  0.43471551219E+01  0.61746861253E+00  0.50528860814E+02  0.30000002929E+02 0.  0.
         12    1    1    2    0    0  0.40421362845E+02 -0.43471551219E+01 -0.61746861253E+00  0.40659139186E+02  0.00000000000E+00 0. -1.
         11    1    3    3    0    0 -0.11967537006E+02  0.25803038635E-01  0.70553126061E+01  0.13892445573E+02  0.51100000000E-03 0. -1.
        -11    1    3    3    0    0 -0.54112362050E+01  0.10780274285E+02 -0.32653994591E+01  0.12496344458E+02  0.51100000000E-03 0.  1.
        -12    1    3    3    0    0 -0.23042589634E+02 -0.64589222013E+01 -0.31724445345E+01  0.24140070783E+02  0.00000000000E+00 0.  1.
</event>
<event>
 7    1  0.3054835E-011  0.5052886E+02  0.7816164E-02  0.1300439E+00
        -11   -1    0    0    0    0  0.00000000000E+00  0.00000000000E+00  0.45593999997E+02  0.45594000000E+02  0.51100000000E-03 0.  1.
         11   -1    0    0    0    0 -0.00000000000E+00 -0.00000000000E+00 -0.45593999997E+02  0.45594000000E+02  0.51100000000E-03 0. -1.
    9900012    2    1    2    0    0  0.24737891036E+02 -0.21961555577E+02  0.23640904912E+02  0.50528861281E+02  0.30000004350E+02 0.  0.
         12    1    1    2    0    0 -0.24737891036E+02  0.21961555577E+02 -0.23640904912E+02  0.40659138719E+02  0.00000000000E+00 0. -1.
         11    1    3    3    0    0 -0.88949491567E-01 -0.12942368291E+02 -0.88542108170E+00  0.12972924872E+02  0.51100000000E-03 0. -1.
        -11    1    3    3    0    0  0.15194421276E+02 -0.10489095470E+02  0.18280443484E+02  0.25982035639E+02  0.51100000000E-03 0.  1.
         12    1    3    3    0    0  0.96324192522E+01  0.14699081831E+01  0.62458825095E+01  0.11573900770E+02  0.00000000000E+00 0. -1.
</event>
<event>
 7    1  0.3054835E-011  0.5052886E+02  0.7816164E-02  0.1300439E+00
        -11   -1    0    0    0    0  0.00000000000E+00  0.00000000000E+00  0.45593999997E+02  0.45594000000E+02  0.51100000000E-03 0.  1.
         11   -1    0    0    0    0 -0.00000000000E+00 -0.00000000000E+00 -0.45593999997E+02  0.45594000000E+02  0.51100000000E-03 0. -1.
    9900012    2    1    2    0    0 -0.67495411132E+01  0.21707474305E+02  0.33710459881E+02  0.50528857715E+02  0.29999993511E+02 0.  0.
         12    1    1    2    0    0  0.67495411132E+01 -0.21707474305E+02 -0.33710459881E+02  0.40659142285E+02  0.00000000000E+00 0. -1.
         11    1    3    3    0    0 -0.10026380072E+02  0.12178088522E+02  0.40020932327E+01  0.16274240010E+02  0.51100000000E-03 0. -1.
        -11    1    3    3    0    0  0.43050921867E+01  0.12779207018E+02  0.21666275102E+02  0.25519980952E+02  0.51100000000E-03 0.  1.
        -12    1    3    3    0    0 -0.10282532278E+01 -0.32498212352E+01  0.80420915471E+01  0.87346367534E+01  0.00000000000E+00 0.  1.
</event>
<event>
 7    1  0.3054835E-011  0.5052886E+02  0.7816164E-02  0.1300439E+00
        -11   -1    0    0    0    0  0.00000000000E+00  0.00000000000E+00  0.45593999997E+02  0.45594000000E+02  0.51100000000E-03 0.  1.
         11   -1    0    0    0    0 -0.00000000000E+00 -0.00000000000E+00 -0.45593999997E+02  0.45594000000E+02  0.51100000000E-03 0. -1.
    9900012    2    1    2    0    0 -0.27135800635E+02 -0.99312211033E+01  0.28603930473E+02  0.50528859980E+02  0.30000000395E+02 0.  0.
         12    1    1    2    0    0  0.27135800635E+02  0.99312211033E+01 -0.28603930473E+02  0.40659140020E+02  0.00000000000E+00 0. -1.
         11    1    3    3    0    0 -0.93387806975E+01  0.30957437386E+01  0.13752962358E+02  0.16909773153E+02  0.51100000000E-03 0. -1.
        -11    1    3    3    0    0 -0.55708800782E+01 -0.61881180334E+01 -0.47046333088E+01  0.95635288713E+01  0.51100000000E-03 0.  1.
        -12    1    3    3    0    0 -0.12226139859E+02 -0.68388468085E+01  0.19555601424E+02  0.24055557956E+02  0.00000000000E+00 0.  1.
</event>
<event>
 7    1  0.3054835E-011  0.5052885E+02  0.7816164E-02  0.1300439E+00
        -11   -1    0    0    0    0  0.00000000000E+00  0.00000000000E+00  0.45593999997E+02  0.45594000000E+02  0.51100000000E-03 0. -1.
         11   -1    0    0    0    0 -0.00000000000E+00 -0.00000000000E+00 -0.45593999997E+02  0.45594000000E+02  0.51100000000E-03 0.  1.
    9900012    2    1    2    0    0 -0.40524789059E+02  0.22621915108E+01 -0.24062732507E+01  0.50528853555E+02  0.29999980865E+02 0.  0.
         12    1    1    2    0    0  0.40524789059E+02 -0.22621915108E+01  0.24062732507E+01  0.40659146445E+02  0.00000000000E+00 0. -1.
         11    1    3    3    0    0  0.26907227189E+01 -0.49627299019E+00  0.43400903496E+01  0.51305613860E+01  0.51100000000E-03 0. -1.
        -11    1    3    3    0    0 -0.33830533342E+02  0.28690631789E+01 -0.19538757579E+00  0.33952535786E+02  0.51100000000E-03 0.  1.
        -12    1    3    3    0    0 -0.93849784360E+01 -0.11059867793E+00 -0.65509760246E+01  0.11445756383E+02  0.00000000000E+00 0.  1.
</event>
<event>
 7    1  0.3054835E-011  0.5052883E+02  0.7816164E-02  0.1300439E+00
        -11   -1    0    0    0    0  0.00000000000E+00  0.00000000000E+00  0.45593999997E+02  0.45594000000E+02  0.51100000000E-03 0. -1.
         11   -1    0    0    0    0 -0.00000000000E+00 -0.00000000000E+00 -0.45593999997E+02  0.45594000000E+02  0.51100000000E-03 0.  1.
    9900012    2    1    2    0    0 -0.14418489149E+02  0.19609928521E+02 -0.32568790726E+02  0.50528828153E+02  0.29999903655E+02 0.  0.
         12    1    1    2    0    0  0.14418489149E+02 -0.19609928521E+02  0.32568790726E+02  0.40659171847E+02  0.00000000000E+00 0. -1.
         11    1    3    3    0    0  0.32480365600E+01 -0.18407097803E+00 -0.53397644276E+01  0.62527360430E+01  0.51100000000E-03 0.  1.
        -11    1    3    3    0    0 -0.12186112663E+02  0.60614538823E+01 -0.36899669693E+00  0.13615385556E+02  0.51100000000E-03 0. -1.
        -12    1    3    3    0    0 -0.54804130458E+01  0.13732545616E+02 -0.26860029601E+02  0.30660706555E+02  0.00000000000E+00 0.  1.
</event>
<event>
 7    1  0.3054835E-011  0.5052885E+02  0.7816164E-02  0.1300439E+00
        -11   -1    0    0    0    0  0.00000000000E+00  0.00000000000E+00  0.45593999997E+02  0.45594000000E+02  0.51100000000E-03 0.  1.
         11   -1    0    0    0    0 -0.00000000000E+00 -0.00000000000E+00 -0.45593999997E+02  0.45594000000E+02  0.51100000000E-03 0. -1.
    9900012    2    1    2    0    0  0.14527095897E+02  0.14341465886E+02  0.35163222682E+02  0.50528851111E+02  0.29999973437E+02 0.  0.
         12    1    1    2    0    0 -0.14527095897E+02 -0.14341465886E+02 -0.35163222682E+02  0.40659148889E+02  0.00000000000E+00 0. -1.
         11    1    3    3    0    0  0.39630311286E+01 -0.73731224664E+01  0.10369889634E+02  0.13326783630E+02  0.51100000000E-03 0. -1.
        -11    1    3    3    0    0  0.37173905669E+01  0.20201967503E+02  0.16541194215E+02  0.26373274160E+02  0.51100000000E-03 0.  1.
        -12    1    3    3    0    0  0.68466742018E+01  0.15126208490E+01  0.82521388338E+01  0.10828793321E+02  0.00000000000E+00 0.  1.
</event>
<event>
 7    1  0.3054835E-011  0.5052887E+02  0.7816164E-02  0.1300439E+00
        -11   -1    0    0    0    0  0.00000000000E+00  0.00000000000E+00  0.45593999997E+02  0.45594000000E+02  0.51100000000E-03 0.  1.
         11   -1    0    0    0    0 -0.00000000000E+00 -0.00000000000E+00 -0.45593999997E+02  0.45594000000E+02  0.51100000000E-03 0. -1.
    9900012    2    1    2    0    0  0.27089290914E+02 -0.29520883458E+02 -0.69175581955E+01  0.50528869983E+02  0.30000030799E+02 0.  0.
         12    1    1    2    0    0 -0.27089290914E+02  0.29520883458E+02  0.69175581955E+01  0.40659130017E+02  0.00000000000E+00 0. -1.
         11    1    3    3    0    0  0.27660924841E+02 -0.27558808725E+02 -0.81368441177E+01  0.39885121710E+02  0.51100000000E-03 0. -1.
        -11    1    3    3    0    0 -0.14867911227E+01 -0.61071454402E+01  0.11987187502E+01  0.63988045894E+01  0.51100000000E-03 0.  1.
         12    1    3    3    0    0  0.91515719594E+00  0.41450707072E+01  0.20567172079E-01  0.42449436827E+01  0.00000000000E+00 0. -1.
</event>
<event>
 7    1  0.3054835E-011  0.5052889E+02  0.7816164E-02  0.1300439E+00
        -11   -1    0    0    0    0  0.00000000000E+00  0.00000000000E+00  0.45593999997E+02  0.45594000000E+02  0.51100000000E-03 0.  1.
         11   -1    0    0    0    0 -0.00000000000E+00 -0.00000000000E+00 -0.45593999997E+02  0.45594000000E+02  0.51100000000E-03 0. -1.
    9900012    2    1    2    0    0 -0.10357421077E+02 -0.39164086822E+02  0.34729307372E+01  0.50528891354E+02  0.30000095760E+02 0.  0.
         12    1    1    2    0    0  0.10357421077E+02  0.39164086822E+02 -0.34729307372E+01  0.40659108646E+02  0.00000000000E+00 0. -1.
         11    1    3    3    0    0 -0.12674845784E+02 -0.23145059086E+02 -0.73636962294E+01  0.27396523468E+02  0.51100000000E-03 0. -1.
        -11    1    3    3    0    0 -0.47433627946E+01 -0.10323149788E+02  0.57838340762E+01  0.12748319459E+02  0.51100000000E-03 0.  1.
         12    1    3    3    0    0  0.70607875012E+01 -0.56958779476E+01  0.50527928904E+01  0.10384048426E+02  0.00000000000E+00 0. -1.
</event>
<event>
 7    1  0.3054835E-011  0.5052886E+02  0.7816164E-02  0.1300439E+00
        -11   -1    0    0    0    0  0.00000000000E+00  0.00000000000E+00  0.45593999997E+02  0.45594000000E+02  0.51100000000E-03 0.  1.
         11   -1    0    0    0    0 -0.00000000000E+00 -0.00000000000E+00 -0.45593999997E+02  0.45594000000E+02  0.51100000000E-03 0. -1.
    9900012    2    1    2    0    0 -0.17881235359E+01 -0.38436186473E+02 -0.13138803298E+02  0.50528856275E+02  0.29999989132E+02 0.  0.
         12    1    1    2    0    0  0.17881235359E+01  0.38436186473E+02  0.13138803298E+02  0.40659143725E+02  0.00000000000E+00 0. -1.
         11    1    3    3    0    0  0.68136166276E+01 -0.55019172652E+01  0.57331957780E+01  0.10467377858E+02  0.51100000000E-03 0. -1.
        -11    1    3    3    0    0  0.54129992999E+00 -0.15646456249E+02 -0.10074038975E+02  0.18616950886E+02  0.51100000000E-03 0.  1.
         12    1    3    3    0    0 -0.91430400934E+01 -0.17287812959E+02 -0.87979601009E+01  0.21444527530E+02  0.00000000000E+00 0. -1.
</event>
<event>
 7    1  0.3054835E-011  0.5052886E+02  0.7816164E-02  0.1300439E+00
        -11   -1    0    0    0    0  0.00000000000E+00  0.00000000000E+00  0.45593999997E+02  0.45594000000E+02  0.51100000000E-03 0.  1.
         11   -1    0    0    0    0 -0.00000000000E+00 -0.00000000000E+00 -0.45593999997E+02  0.45594000000E+02  0.51100000000E-03 0. -1.
    9900012    2    1    2    0    0  0.19886924341E+02 -0.32668406929E+02  0.13800395408E+02  0.50528862227E+02  0.30000007226E+02 0.  0.
         12    1    1    2    0    0 -0.19886924341E+02  0.32668406929E+02 -0.13800395408E+02  0.40659137773E+02  0.00000000000E+00 0. -1.
         11    1    3    3    0    0  0.84173607293E+01 -0.20057892668E+02 -0.55328300505E+01  0.22445115918E+02  0.51100000000E-03 0. -1.
        -11    1    3    3    0    0  0.73531702744E+00 -0.89308390728E+01  0.74575415591E+01  0.11658280493E+02  0.51100000000E-03 0.  1.
         12    1    3    3    0    0  0.10734246584E+02 -0.36796751876E+01  0.11875683900E+02  0.16425465817E+02  0.00000000000E+00 0. -1.
</event>
<event>
 7    1  0.3054835E-011  0.5052889E+02  0.7816164E-02  0.1300439E+00
        -11   -1    0    0    0    0  0.00000000000E+00  0.00000000000E+00  0.45593999997E+02  0.45594000000E+02  0.51100000000E-03 0.  1.
         11   -1    0    0    0    0 -0.00000000000E+00 -0.00000000000E+00 -0.45593999997E+02  0.45594000000E+02  0.51100000000E-03 0. -1.
    9900012    2    1    2    0    0  0.20978473054E+02 -0.86011937344E+01  0.33750354864E+02  0.50528888859E+02  0.30000088175E+02 0.  0.
         12    1    1    2    0    0 -0.20978473054E+02  0.86011937344E+01 -0.33750354864E+02  0.40659111141E+02  0.00000000000E+00 0. -1.
         11    1    3    3    0    0  0.14168832040E+02  0.83431755751E+01  0.88812060778E+01  0.18687969438E+02  0.51100000000E-03 0. -1.
        -11    1    3    3    0    0 -0.51159764301E+00 -0.60926315464E+01  0.43572127821E+01  0.75078089213E+01  0.51100000000E-03 0.  1.
         12    1    3    3    0    0  0.73212386577E+01 -0.10851737763E+02  0.20511936004E+02  0.24333110500E+02  0.00000000000E+00 0. -1.
</event>
<event>
 7    1  0.3054835E-011  0.5052886E+02  0.7816164E-02  0.1300439E+00
        -11   -1    0    0    0    0  0.00000000000E+00  0.00000000000E+00  0.45593999997E+02  0.45594000000E+02  0.51100000000E-03 0.  1.
         11   -1    0    0    0    0 -0.00000000000E+00 -0.00000000000E+00 -0.45593999997E+02  0.45594000000E+02  0.51100000000E-03 0. -1.
    9900012    2    1    2    0    0  0.31342988321E+02  0.11126885410E+02  0.23387504711E+02  0.50528857456E+02  0.29999992722E+02 0.  0.
         12    1    1    2    0    0 -0.31342988321E+02 -0.11126885410E+02 -0.23387504711E+02  0.40659142544E+02  0.00000000000E+00 0. -1.
         11    1    3    3    0    0  0.24148981823E+02 -0.15264914912E-01  0.53733640551E+01  0.24739575534E+02  0.51100000000E-03 0. -1.
        -11    1    3    3    0    0  0.65512420480E+01  0.23598813523E+01  0.14903959755E+02  0.16450405132E+02  0.51100000000E-03 0.  1.
         12    1    3    3    0    0  0.64276445068E+00  0.87822689722E+01  0.31101809008E+01  0.93388767887E+01  0.00000000000E+00 0. -1.
</event>
<event>
 7    1  0.3054835E-011  0.5052886E+02  0.7816164E-02  0.1300439E+00
        -11   -1    0    0    0    0  0.00000000000E+00  0.00000000000E+00  0.45593999997E+02  0.45594000000E+02  0.51100000000E-03 0.  1.
         11   -1    0    0    0    0 -0.00000000000E+00 -0.00000000000E+00 -0.45593999997E+02  0.45594000000E+02  0.51100000000E-03 0. -1.
    9900012    2    1    2    0    0 -0.64685911772E+01  0.20440388097E+02  0.34547266896E+02  0.50528858502E+02  0.29999995903E+02 0.  0.
         12    1    1    2    0    0  0.64685911772E+01 -0.20440388097E+02 -0.34547266896E+02  0.40659141498E+02  0.00000000000E+00 0. -1.
         11    1    3    3    0    0 -0.71010947748E+01  0.13462082459E+02  0.61777687324E+01  0.16426138862E+02  0.51100000000E-03 0. -1.
        -11    1    3    3    0    0 -0.12158173500E+01  0.46891453682E+01  0.30233913235E+02  0.30619533078E+02  0.51100000000E-03 0.  1.
        -12    1    3    3    0    0  0.18483209476E+01  0.22891602699E+01 -0.18644150724E+01  0.34831865625E+01  0.00000000000E+00 0.  1.
</event>
<event>
 7    1  0.3054835E-011  0.5052877E+02  0.7816164E-02  0.1300439E+00
        -11   -1    0    0    0    0  0.00000000000E+00  0.00000000000E+00  0.45593999997E+02  0.45594000000E+02  0.51100000000E-03 0.  1.
         11   -1    0    0    0    0 -0.00000000000E+00 -0.00000000000E+00 -0.45593999997E+02  0.45594000000E+02  0.51100000000E-03 0. -1.
    9900012    2    1    2    0    0 -0.32080780445E+02  0.79691432930E+01  0.23674662874E+02  0.50528765120E+02  0.29999712059E+02 0.  0.
         12    1    1    2    0    0  0.32080780445E+02 -0.79691432930E+01 -0.23674662874E+02  0.40659234880E+02  0.00000000000E+00 0. -1.
         11    1    3    3    0    0  0.25240529836E+01  0.28721084171E+00  0.53547694980E+01  0.59267942574E+01  0.51100000000E-03 0. -1.
        -11    1    3    3    0    0 -0.29723853449E+02  0.11142131015E+02  0.20984229275E+02  0.38052495659E+02  0.51100000000E-03 0.  1.
         12    1    3    3    0    0 -0.48809799800E+01 -0.34601985633E+01 -0.26643358987E+01  0.65494752038E+01  0.00000000000E+00 0. -1.
</event>
<event>
 7    1  0.3054835E-011  0.5052886E+02  0.7816164E-02  0.1300439E+00
        -11   -1    0    0    0    0  0.00000000000E+00  0.00000000000E+00  0.45593999997E+02  0.45594000000E+02  0.51100000000E-03 0.  1.
         11   -1    0    0    0    0 -0.00000000000E+00 -0.00000000000E+00 -0.45593999997E+02  0.45594000000E+02  0.51100000000E-03 0. -1.
    9900012    2    1    2    0    0 -0.28302853801E+02  0.64531856558E+01  0.28468765106E+02  0.50528859268E+02  0.29999998232E+02 0.  0.
         12    1    1    2    0    0  0.28302853801E+02 -0.64531856558E+01 -0.28468765106E+02  0.40659140732E+02  0.00000000000E+00 0. -1.
         11    1    3    3    0    0 -0.31858936804E+01 -0.50589720871E+01  0.10741628048E+02  0.12293318937E+02  0.51100000000E-03 0. -1.
        -11    1    3    3    0    0 -0.15594487284E+02  0.16824934366E+02  0.11220639141E+02  0.25537603510E+02  0.51100000000E-03 0.  1.
        -12    1    3    3    0    0 -0.95224728360E+01 -0.53127766226E+01  0.65064979171E+01  0.12697936821E+02  0.00000000000E+00 0.  1.
</event>
<event>
 7    1  0.3054835E-011  0.5052885E+02  0.7816164E-02  0.1300439E+00
        -11   -1    0    0    0    0  0.00000000000E+00  0.00000000000E+00  0.45593999997E+02  0.45594000000E+02  0.51100000000E-03 0. -1.
         11   -1    0    0    0    0 -0.00000000000E+00 -0.00000000000E+00 -0.45593999997E+02  0.45594000000E+02  0.51100000000E-03 0.  1.
    9900012    2    1    2    0    0 -0.20130195629E+02 -0.16549072832E+02 -0.31210088129E+02  0.50528853567E+02  0.29999980902E+02 0.  0.
         12    1    1    2    0    0  0.20130195629E+02  0.16549072832E+02  0.31210088129E+02  0.40659146433E+02  0.00000000000E+00 0. -1.
         11    1    3    3    0    0 -0.89655814484E+01 -0.56772190082E+00 -0.29627268571E+01  0.94594772348E+01  0.51100000000E-03 0. -1.
        -11    1    3    3    0    0  0.72888299404E+00 -0.15885030463E+02 -0.85369395263E+01  0.18048401591E+02  0.51100000000E-03 0.  1.
        -12    1    3    3    0    0 -0.11893497174E+02 -0.96320467454E-01 -0.19710421745E+02  0.23020974742E+02  0.00000000000E+00 0.  1.
</event>
<event>
 7    1  0.3054835E-011  0.5052886E+02  0.7816164E-02  0.1300439E+00
        -11   -1    0    0    0    0  0.00000000000E+00  0.00000000000E+00  0.45593999997E+02  0.45594000000E+02  0.51100000000E-03 0.  1.
         11   -1    0    0    0    0 -0.00000000000E+00 -0.00000000000E+00 -0.45593999997E+02  0.45594000000E+02  0.51100000000E-03 0. -1.
    9900012    2    1    2    0    0 -0.21477858908E+02 -0.57461424230E+01  0.34041871323E+02  0.50528861062E+02  0.30000003685E+02 0.  0.
         12    1    1    2    0    0  0.21477858908E+02  0.57461424230E+01 -0.34041871323E+02  0.40659138938E+02  0.00000000000E+00 0. -1.
         11    1    3    3    0    0 -0.18070996538E+02 -0.15472563540E+02  0.22951112607E+02  0.33056235547E+02  0.51100000000E-03 0. -1.
        -11    1    3    3    0    0 -0.50220521505E+01  0.10105733848E+02  0.75935003137E+01  0.13601768697E+02  0.51100000000E-03 0.  1.
        -12    1    3    3    0    0  0.16151897810E+01 -0.37931273041E+00  0.34972584018E+01  0.38708568180E+01  0.00000000000E+00 0.  1.
</event>
<event>
 7    1  0.3054835E-011  0.5052886E+02  0.7816164E-02  0.1300439E+00
        -11   -1    0    0    0    0  0.00000000000E+00  0.00000000000E+00  0.45593999997E+02  0.45594000000E+02  0.51100000000E-03 0.  1.
         11   -1    0    0    0    0 -0.00000000000E+00 -0.00000000000E+00 -0.45593999997E+02  0.45594000000E+02  0.51100000000E-03 0. -1.
    9900012    2    1    2    0    0  0.38842679586E+02  0.11208563588E+02  0.43335846637E+01  0.50528860669E+02  0.30000002488E+02 0.  0.
         12    1    1    2    0    0 -0.38842679586E+02 -0.11208563588E+02 -0.43335846637E+01  0.40659139331E+02  0.00000000000E+00 0. -1.
         11    1    3    3    0    0  0.10943363411E+02 -0.77384277272E+01  0.37175091369E+01  0.13909002152E+02  0.51100000000E-03 0. -1.
        -11    1    3    3    0    0  0.52838393299E+01  0.83561655676E+01  0.52913164182E+01  0.11213495920E+02  0.51100000000E-03 0.  1.
         12    1    3    3    0    0  0.22615476845E+02  0.10590825748E+02 -0.46752408915E+01  0.25406362596E+02  0.00000000000E+00 0. -1.
</event>
<event>
 7    1  0.3054835E-011  0.5052885E+02  0.7816164E-02  0.1300439E+00
        -11   -1    0    0    0    0  0.00000000000E+00  0.00000000000E+00  0.45593999997E+02  0.45594000000E+02  0.51100000000E-03 0.  1.
         11   -1    0    0    0    0 -0.00000000000E+00 -0.00000000000E+00 -0.45593999997E+02  0.45594000000E+02  0.51100000000E-03 0. -1.
    9900012    2    1    2    0    0  0.21892048012E+02 -0.34225699540E+02 -0.15829851667E+01  0.50528854446E+02  0.29999983574E+02 0.  0.
         12    1    1    2    0    0 -0.21892048012E+02  0.34225699540E+02  0.15829851667E+01  0.40659145554E+02  0.00000000000E+00 0. -1.
         11    1    3    3    0    0 -0.48617293871E+01 -0.34726049370E+01 -0.55932213324E+00  0.60006865601E+01  0.51100000000E-03 0. -1.
        -11    1    3    3    0    0  0.26439634149E+02 -0.28876034753E+02 -0.56200843712E+01  0.39553318262E+02  0.51100000000E-03 0.  1.
        -12    1    3    3    0    0  0.31414325073E+00 -0.18770598497E+01  0.45964213377E+01  0.49748496233E+01  0.00000000000E+00 0.  1.
</event>
<event>
 7    1  0.3054835E-011  0.5052885E+02  0.7816164E-02  0.1300439E+00
        -11   -1    0    0    0    0  0.00000000000E+00  0.00000000000E+00  0.45593999997E+02  0.45594000000E+02  0.51100000000E-03 0. -1.
         11   -1    0    0    0    0 -0.00000000000E+00 -0.00000000000E+00 -0.45593999997E+02  0.45594000000E+02  0.51100000000E-03 0.  1.
    9900012    2    1    2    0    0 -0.38472784421E+02 -0.23065416313E+00 -0.13151348970E+02  0.50528851925E+02  0.29999975911E+02 0.  0.
         12    1    1    2    0    0  0.38472784421E+02  0.23065416313E+00  0.13151348970E+02  0.40659148075E+02  0.00000000000E+00 0. -1.
         11    1    3    3    0    0  0.25894525105E+01 -0.42451859870E+01 -0.89622880415E-01  0.49734194363E+01  0.51100000000E-03 0. -1.
        -11    1    3    3    0    0 -0.32835029263E+02  0.24948694054E+01 -0.16099570716E+02  0.36654599951E+02  0.51100000000E-03 0.  1.
        -12    1    3    3    0    0 -0.82272076686E+01  0.15196624184E+01  0.30378446269E+01  0.89008325377E+01  0.00000000000E+00 0.  1.
</event>
<event>
 7    1  0.3054835E-011  0.5052888E+02  0.7816164E-02  0.1300439E+00
        -11   -1    0    0    0    0  0.00000000000E+00  0.00000000000E+00  0.45593999997E+02  0.45594000000E+02  0.51100000000E-03 0.  1.
         11   -1    0    0    0    0 -0.00000000000E+00 -0.00000000000E+00 -0.45593999997E+02  0.45594000000E+02  0.51100000000E-03 0. -1.
    9900012    2    1    2    0    0  0.96979506267E+01  0.13788625813E+02  0.36999837633E+02  0.50528875157E+02  0.30000046526E+02 0.  0.
         12    1    1    2    0    0 -0.96979506267E+01 -0.13788625813E+02 -0.36999837633E+02  0.40659124843E+02  0.00000000000E+00 0. -1.
         11    1    3    3    0    0 -0.69530325908E+01 -0.14149379512E+00  0.11603158481E+02  0.13527674216E+02  0.51100000000E-03 0. -1.
        -11    1    3    3    0    0  0.66379212145E+01  0.15078206911E+02  0.18589076188E+02  0.24838842072E+02  0.51100000000E-03 0.  1.
         12    1    3    3    0    0  0.10013062003E+02 -0.11480873029E+01  0.68076029639E+01  0.12162358868E+02  0.00000000000E+00 0. -1.
</event>
<event>
 7    1  0.3054835E-011  0.5052886E+02  0.7816164E-02  0.1300439E+00
        -11   -1    0    0    0    0  0.00000000000E+00  0.00000000000E+00  0.45593999997E+02  0.45594000000E+02  0.51100000000E-03 0. -1.
         11   -1    0    0    0    0 -0.00000000000E+00 -0.00000000000E+00 -0.45593999997E+02  0.45594000000E+02  0.51100000000E-03 0.  1.
    9900012    2    1    2    0    0  0.26297141068E+02  0.22228916382E+02 -0.21621772431E+02  0.50528863327E+02  0.30000010569E+02 0.  0.
         12    1    1    2    0    0 -0.26297141068E+02 -0.22228916382E+02  0.21621772431E+02  0.40659136673E+02  0.00000000000E+00 0. -1.
         11    1    3    3    0    0  0.25364361255E+01  0.56769749331E+01  0.52102262397E+01  0.81122136522E+01  0.51100000000E-03 0. -1.
        -11    1    3    3    0    0  0.18700292011E+02  0.14981713229E+02 -0.28139551085E+02  0.36959261195E+02  0.51100000000E-03 0.  1.
        -12    1    3    3    0    0  0.50604129316E+01  0.15702282200E+01  0.13075524138E+01  0.54573884795E+01  0.00000000000E+00 0.  1.
</event>
<event>
 7    1  0.3054835E-011  0.5052886E+02  0.7816164E-02  0.1300439E+00
        -11   -1    0    0    0    0  0.00000000000E+00  0.00000000000E+00  0.45593999997E+02  0.45594000000E+02  0.51100000000E-03 0.  1.
         11   -1    0    0    0    0 -0.00000000000E+00 -0.00000000000E+00 -0.45593999997E+02  0.45594000000E+02  0.51100000000E-03 0. -1.
    9900012    2    1    2    0    0  0.34760388664E+02  0.21089222025E+02  0.35445574543E+00  0.50528861488E+02  0.30000004979E+02 0.  0.
         12    1    1    2    0    0 -0.34760388664E+02 -0.21089222025E+02 -0.35445574543E+00  0.40659138512E+02  0.00000000000E+00 0. -1.
         11    1    3    3    0    0  0.28681325421E+02  0.19471099932E+02 -0.45886465809E+01  0.34968526394E+02  0.51100000000E-03 0. -1.
        -11    1    3    3    0    0  0.66070760532E+01 -0.10286292000E+01  0.86761399596E+01  0.10953854886E+02  0.51100000000E-03 0.  1.
         12    1    3    3    0    0 -0.52801281091E+00  0.26467512926E+01 -0.37330376332E+01  0.46064802077E+01  0.00000000000E+00 0. -1.
</event>
<event>
 7    1  0.3054835E-011  0.5052886E+02  0.7816164E-02  0.1300439E+00
        -11   -1    0    0    0    0  0.00000000000E+00  0.00000000000E+00  0.45593999997E+02  0.45594000000E+02  0.51100000000E-03 0. -1.
         11   -1    0    0    0    0 -0.00000000000E+00 -0.00000000000E+00 -0.45593999997E+02  0.45594000000E+02  0.51100000000E-03 0.  1.
    9900012    2    1    2    0    0 -0.21007354003E+02  0.31652103527E+02 -0.14491402297E+02  0.50528864244E+02  0.30000013358E+02 0.  0.
         12    1    1    2    0    0  0.21007354003E+02 -0.31652103527E+02  0.14491402297E+02  0.40659135756E+02  0.00000000000E+00 0. -1.
         11    1    3    3    0    0 -0.71380482243E+01  0.76828913257E+01 -0.16504761029E+02  0.19554684566E+02  0.51100000000E-03 0.  1.
        -11    1    3    3    0    0 -0.10175927635E+02  0.13543997073E+02  0.76182993682E+01  0.18574925181E+02  0.51100000000E-03 0. -1.
        -12    1    3    3    0    0 -0.36933781437E+01  0.10425215128E+02 -0.56049406361E+01  0.12399254498E+02  0.00000000000E+00 0.  1.
</event>
<event>
 7    1  0.3054835E-011  0.5052886E+02  0.7816164E-02  0.1300439E+00
        -11   -1    0    0    0    0  0.00000000000E+00  0.00000000000E+00  0.45593999997E+02  0.45594000000E+02  0.51100000000E-03 0.  1.
         11   -1    0    0    0    0 -0.00000000000E+00 -0.00000000000E+00 -0.45593999997E+02  0.45594000000E+02  0.51100000000E-03 0. -1.
    9900012    2    1    2    0    0 -0.13899137955E+02  0.30845393361E+02 -0.22550866019E+02  0.50528857293E+02  0.29999992227E+02 0.  0.
         12    1    1    2    0    0  0.13899137955E+02 -0.30845393361E+02  0.22550866019E+02  0.40659142707E+02  0.00000000000E+00 0. -1.
         11    1    3    3    0    0  0.51315854490E+00  0.28681180618E+01 -0.11669633481E+02  0.12027875072E+02  0.51100000000E-03 0. -1.
        -11    1    3    3    0    0 -0.16167013409E+02  0.26216833768E+02 -0.14553900628E+02  0.34066269522E+02  0.51100000000E-03 0.  1.
        -12    1    3    3    0    0  0.17547169092E+01  0.17604415310E+01  0.36726680902E+01  0.44347126983E+01  0.00000000000E+00 0.  1.
</event>
<event>
 7    1  0.3054835E-011  0.5052886E+02  0.7816164E-02  0.1300439E+00
        -11   -1    0    0    0    0  0.00000000000E+00  0.00000000000E+00  0.45593999997E+02  0.45594000000E+02  0.51100000000E-03 0.  1.
         11   -1    0    0    0    0 -0.00000000000E+00 -0.00000000000E+00 -0.45593999997E+02  0.45594000000E+02  0.51100000000E-03 0. -1.
    9900012    2    1    2    0    0 -0.18305732298E+01  0.41672360284E+01  0.40403578048E+02  0.50528856212E+02  0.29999988943E+02 0.  0.
         12    1    1    2    0    0  0.18305732298E+01 -0.41672360284E+01 -0.40403578048E+02  0.40659143788E+02  0.00000000000E+00 0. -1.
         11    1    3    3    0    0  0.81321425107E+01  0.37841893007E+01  0.13013565633E+02  0.15805211837E+02  0.51100000000E-03 0. -1.
        -11    1    3    3    0    0 -0.87201968053E+01  0.58079003977E+01  0.49205242117E+01  0.11575193222E+02  0.51100000000E-03 0.  1.
        -12    1    3    3    0    0 -0.12425189352E+01 -0.54248536700E+01  0.22469488204E+02  0.23148451153E+02  0.00000000000E+00 0.  1.
</event>
<event>
 7    1  0.3054835E-011  0.5052886E+02  0.7816164E-02  0.1300439E+00
        -11   -1    0    0    0    0  0.00000000000E+00  0.00000000000E+00  0.45593999997E+02  0.45594000000E+02  0.51100000000E-03 0. -1.
         11   -1    0    0    0    0 -0.00000000000E+00 -0.00000000000E+00 -0.45593999997E+02  0.45594000000E+02  0.51100000000E-03 0.  1.
    9900012    2    1    2    0    0  0.25619832896E+02  0.24202783417E+02 -0.20273505455E+02  0.50528860975E+02  0.30000003421E+02 0.  0.
         12    1    1    2    0    0 -0.25619832896E+02 -0.24202783417E+02  0.20273505455E+02  0.40659139025E+02  0.00000000000E+00 0. -1.
         11    1    3    3    0    0  0.51317936907E+01  0.18841684195E+02 -0.94613477670E+00  0.19550947319E+02  0.51100000000E-03 0. -1.
        -11    1    3    3    0    0  0.63186118591E+01 -0.34880479112E+01 -0.81050268508E+01  0.10852778196E+02  0.51100000000E-03 0.  1.
        -12    1    3    3    0    0  0.14169427347E+02  0.88491471329E+01 -0.11222343828E+02  0.20125135460E+02  0.00000000000E+00 0.  1.
</event>
<event>
 7    1  0.3054835E-011  0.5052886E+02  0.7816164E-02  0.1300439E+00
        -11   -1    0    0    0    0  0.00000000000E+00  0.00000000000E+00  0.45593999997E+02  0.45594000000E+02  0.51100000000E-03 0.  1.
         11   -1    0    0    0    0 -0.00000000000E+00 -0.00000000000E+00 -0.45593999997E+02  0.45594000000E+02  0.51100000000E-03 0. -1.
    9900012    2    1    2    0    0 -0.19367895205E+02 -0.18794354668E+02  0.30410896382E+02  0.50528858951E+02  0.29999997268E+02 0.  0.
         12    1    1    2    0    0  0.19367895205E+02  0.18794354668E+02 -0.30410896382E+02  0.40659141049E+02  0.00000000000E+00 0. -1.
         11    1    3    3    0    0  0.56392022819E+01 -0.11245530024E+02  0.12245307880E+02  0.17555913910E+02  0.51100000000E-03 0. -1.
        -11    1    3    3    0    0 -0.18465758051E+02 -0.87379822587E+01  0.11015663316E+02  0.23209510828E+02  0.51100000000E-03 0.  1.
         12    1    3    3    0    0 -0.65413394366E+01  0.11891576148E+01  0.71499251863E+01  0.97634342127E+01  0.00000000000E+00 0. -1.
</event>
<event>
 7    1  0.3054835E-011  0.5052886E+02  0.7816164E-02  0.1300439E+00
        -11   -1    0    0    0    0  0.00000000000E+00  0.00000000000E+00  0.45593999997E+02  0.45594000000E+02  0.51100000000E-03 0.  1.
         11   -1    0    0    0    0 -0.00000000000E+00 -0.00000000000E+00 -0.45593999997E+02  0.45594000000E+02  0.51100000000E-03 0. -1.
    9900012    2    1    2    0    0  0.14935216638E+02  0.23324509305E+02  0.29766970346E+02  0.50528856454E+02  0.29999989676E+02 0.  0.
         12    1    1    2    0    0 -0.14935216638E+02 -0.23324509305E+02 -0.29766970346E+02  0.40659143546E+02  0.00000000000E+00 0. -1.
         11    1    3    3    0    0  0.80241813007E+01  0.68676880884E+01 -0.34544786870E+01  0.11112427659E+02  0.51100000000E-03 0. -1.
        -11    1    3    3    0    0 -0.77648893570E+00  0.12203289890E+02  0.21939522246E+02  0.25117043135E+02  0.51100000000E-03 0.  1.
         12    1    3    3    0    0  0.76875242735E+01  0.42535313270E+01  0.11281926787E+02  0.14299385659E+02  0.00000000000E+00 0. -1.
</event>
<event>
 7    1  0.3054835E-011  0.5052883E+02  0.7816164E-02  0.1300439E+00
        -11   -1    0    0    0    0  0.00000000000E+00  0.00000000000E+00  0.45593999997E+02  0.45594000000E+02  0.51100000000E-03 0.  1.
         11   -1    0    0    0    0 -0.00000000000E+00 -0.00000000000E+00 -0.45593999997E+02  0.45594000000E+02  0.51100000000E-03 0. -1.
    9900012    2    1    2    0    0 -0.24979805778E+02 -0.30985840133E+02  0.83099444994E+01  0.50528829287E+02  0.29999907102E+02 0.  0.
         12    1    1    2    0    0  0.24979805778E+02  0.30985840133E+02 -0.83099444994E+01  0.40659170713E+02  0.00000000000E+00 0. -1.
         11    1    3    3    0    0 -0.77863407294E+01 -0.20934234226E+02  0.16915096713E+02  0.28017668741E+02  0.51100000000E-03 0.  1.
        -11    1    3    3    0    0 -0.16581192240E+02 -0.82275526937E+01 -0.64019105589E+01  0.19586041419E+02  0.51100000000E-03 0. -1.
        -12    1    3    3    0    0 -0.61227280869E+00 -0.18240532134E+01 -0.22032416552E+01  0.29251191272E+01  0.00000000000E+00 0.  1.
</event>
<event>
 7    1  0.3054835E-011  0.5052885E+02  0.7816164E-02  0.1300439E+00
        -11   -1    0    0    0    0  0.00000000000E+00  0.00000000000E+00  0.45593999997E+02  0.45594000000E+02  0.51100000000E-03 0.  1.
         11   -1    0    0    0    0 -0.00000000000E+00 -0.00000000000E+00 -0.45593999997E+02  0.45594000000E+02  0.51100000000E-03 0. -1.
    9900012    2    1    2    0    0 -0.79740277703E+01 -0.15323143583E+01  0.39840093282E+02  0.50528854179E+02  0.29999982763E+02 0.  0.
         12    1    1    2    0    0  0.79740277703E+01  0.15323143583E+01 -0.39840093282E+02  0.40659145821E+02  0.00000000000E+00 0. -1.
         11    1    3    3    0    0 -0.14831541133E+02  0.11931253735E+01  0.23384747383E+02  0.27717225167E+02  0.51100000000E-03 0. -1.
        -11    1    3    3    0    0  0.83596117288E+01 -0.47415192355E+00  0.27074842656E+01  0.87999090685E+01  0.51100000000E-03 0.  1.
        -12    1    3    3    0    0 -0.15020983664E+01 -0.22512878083E+01  0.13747861633E+02  0.14011719943E+02  0.00000000000E+00 0.  1.
</event>
<event>
 7    1  0.3054835E-011  0.5052884E+02  0.7816164E-02  0.1300439E+00
        -11   -1    0    0    0    0  0.00000000000E+00  0.00000000000E+00  0.45593999997E+02  0.45594000000E+02  0.51100000000E-03 0.  1.
         11   -1    0    0    0    0 -0.00000000000E+00 -0.00000000000E+00 -0.45593999997E+02  0.45594000000E+02  0.51100000000E-03 0. -1.
    9900012    2    1    2    0    0  0.92792813166E+01  0.32444844307E+01  0.39452952256E+02  0.50528841343E+02  0.29999943745E+02 0.  0.
         12    1    1    2    0    0 -0.92792813166E+01 -0.32444844307E+01 -0.39452952256E+02  0.40659158657E+02  0.00000000000E+00 0. -1.
         11    1    3    3    0    0  0.31464127431E+01  0.42342050558E+01  0.29346681994E+01  0.60366119062E+01  0.51100000000E-03 0. -1.
        -11    1    3    3    0    0 -0.39730779256E+01 -0.57004415639E+01  0.70580047994E+00  0.69841632860E+01  0.51100000000E-03 0.  1.
        -12    1    3    3    0    0  0.10105946499E+02  0.47107209389E+01  0.35812483577E+02  0.37508066151E+02  0.00000000000E+00 0.  1.
</event>
<event>
 7    1  0.3054835E-011  0.5052886E+02  0.7816164E-02  0.1300439E+00
        -11   -1    0    0    0    0  0.00000000000E+00  0.00000000000E+00  0.45593999997E+02  0.45594000000E+02  0.51100000000E-03 0. -1.
         11   -1    0    0    0    0 -0.00000000000E+00 -0.00000000000E+00 -0.45593999997E+02  0.45594000000E+02  0.51100000000E-03 0.  1.
    9900012    2    1    2    0    0  0.50461457897E+01 -0.39579443238E+02 -0.78211088965E+01  0.50528860083E+02  0.30000000709E+02 0.  0.
         12    1    1    2    0    0 -0.50461457897E+01  0.39579443238E+02  0.78211088965E+01  0.40659139917E+02  0.00000000000E+00 0. -1.
         11    1    3    3    0    0 -0.74233079998E+01 -0.39056190556E+00  0.29046949836E+01  0.79809331203E+01  0.51100000000E-03 0. -1.
        -11    1    3    3    0    0  0.89968057998E+01 -0.25521599913E+02 -0.75238683822E+01  0.28087420181E+02  0.51100000000E-03 0.  1.
         12    1    3    3    0    0  0.34726479897E+01 -0.13667281420E+02 -0.32019354979E+01  0.14460506782E+02  0.00000000000E+00 0. -1.
</event>
<event>
 7    1  0.3054835E-011  0.5052886E+02  0.7816164E-02  0.1300439E+00
        -11   -1    0    0    0    0  0.00000000000E+00  0.00000000000E+00  0.45593999997E+02  0.45594000000E+02  0.51100000000E-03 0.  1.
         11   -1    0    0    0    0 -0.00000000000E+00 -0.00000000000E+00 -0.45593999997E+02  0.45594000000E+02  0.51100000000E-03 0. -1.
    9900012    2    1    2    0    0 -0.10311007563E+02 -0.32219853560E+02  0.22555033735E+02  0.50528863423E+02  0.30000010860E+02 0.  0.
         12    1    1    2    0    0  0.10311007563E+02  0.32219853560E+02 -0.22555033735E+02  0.40659136577E+02  0.00000000000E+00 0. -1.
         11    1    3    3    0    0  0.47285493169E+01 -0.18124500197E+02  0.94303919590E+01  0.20971146340E+02  0.51100000000E-03 0. -1.
        -11    1    3    3    0    0 -0.13217342954E+02 -0.77712286470E+01  0.16189417063E+02  0.22297698862E+02  0.51100000000E-03 0.  1.
        -12    1    3    3    0    0 -0.18222139260E+01 -0.63241247155E+01 -0.30647752868E+01  0.72600182209E+01  0.00000000000E+00 0.  1.
</event>
<event>
 7    1  0.3054835E-011  0.5052897E+02  0.7816164E-02  0.1300438E+00
        -11   -1    0    0    0    0  0.00000000000E+00  0.00000000000E+00  0.45593999997E+02  0.45594000000E+02  0.51100000000E-03 0.  1.
         11   -1    0    0    0    0 -0.00000000000E+00 -0.00000000000E+00 -0.45593999997E+02  0.45594000000E+02  0.51100000000E-03 0. -1.
    9900012    2    1    2    0    0  0.17060154187E+01  0.19759153241E+02  0.35493968466E+02  0.50528973661E+02  0.30000345937E+02 0.  0.
         12    1    1    2    0    0 -0.17060154187E+01 -0.19759153241E+02 -0.35493968466E+02  0.40659026339E+02  0.00000000000E+00 0. -1.
         11    1    3    3    0    0 -0.12380481676E+02  0.14934221309E+02  0.20404474342E+02  0.28154038185E+02  0.51100000000E-03 0. -1.
        -11    1    3    3    0    0  0.76895277819E+01  0.55106249779E+01  0.58728072893E+01  0.11134886208E+02  0.51100000000E-03 0.  1.
         12    1    3    3    0    0  0.63969693129E+01 -0.68569304570E+00  0.92166868339E+01  0.11240049268E+02  0.00000000000E+00 0. -1.
</event>
<event>
 7    1  0.3054835E-011  0.5052886E+02  0.7816164E-02  0.1300439E+00
        -11   -1    0    0    0    0  0.00000000000E+00  0.00000000000E+00  0.45593999997E+02  0.45594000000E+02  0.51100000000E-03 0. -1.
         11   -1    0    0    0    0 -0.00000000000E+00 -0.00000000000E+00 -0.45593999997E+02  0.45594000000E+02  0.51100000000E-03 0.  1.
    9900012    2    1    2    0    0 -0.28473953093E+02 -0.23615342119E+02 -0.16873518203E+02  0.50528855830E+02  0.29999987780E+02 0.  0.
         12    1    1    2    0    0  0.28473953093E+02  0.23615342119E+02  0.16873518203E+02  0.40659144170E+02  0.00000000000E+00 0. -1.
         11    1    3    3    0    0 -0.22573481508E+02 -0.19172154080E+02 -0.72643572321E+01  0.30494334650E+02  0.51100000000E-03 0. -1.
        -11    1    3    3    0    0  0.33830503710E+01  0.36601900410E+01 -0.44276000889E+01  0.66667581145E+01  0.51100000000E-03 0.  1.
        -12    1    3    3    0    0 -0.92835219555E+01 -0.81033780796E+01 -0.51815608821E+01  0.13367763065E+02  0.00000000000E+00 0.  1.
</event>
<event>
 7    1  0.3054835E-011  0.5052886E+02  0.7816164E-02  0.1300439E+00
        -11   -1    0    0    0    0  0.00000000000E+00  0.00000000000E+00  0.45593999997E+02  0.45594000000E+02  0.51100000000E-03 0.  1.
         11   -1    0    0    0    0 -0.00000000000E+00 -0.00000000000E+00 -0.45593999997E+02  0.45594000000E+02  0.51100000000E-03 0. -1.
    9900012    2    1    2    0    0 -0.28208088995E+02 -0.14738007219E+02  0.25303363486E+02  0.50528863939E+02  0.30000012428E+02 0.  0.
         12    1    1    2    0    0  0.28208088995E+02  0.14738007219E+02 -0.25303363486E+02  0.40659136061E+02  0.00000000000E+00 0. -1.
         11    1    3    3    0    0 -0.90047925505E+01 -0.10944602191E+01 -0.19288423543E+01  0.92738646280E+01  0.51100000000E-03 0. -1.
        -11    1    3    3    0    0  0.26699250981E+00  0.22638647762E+01  0.11214525174E+02  0.11443860532E+02  0.51100000000E-03 0.  1.
        -12    1    3    3    0    0 -0.19470288955E+02 -0.15907411776E+02  0.16017680666E+02  0.29811138779E+02  0.00000000000E+00 0.  1.
</event>
<event>
 7    1  0.3054835E-011  0.5052886E+02  0.7816164E-02  0.1300439E+00
        -11   -1    0    0    0    0  0.00000000000E+00  0.00000000000E+00  0.45593999997E+02  0.45594000000E+02  0.51100000000E-03 0.  1.
         11   -1    0    0    0    0 -0.00000000000E+00 -0.00000000000E+00 -0.45593999997E+02  0.45594000000E+02  0.51100000000E-03 0. -1.
    9900012    2    1    2    0    0  0.13845199736E+02  0.27266001463E+02  0.26796287364E+02  0.50528863167E+02  0.30000010082E+02 0.  0.
         12    1    1    2    0    0 -0.13845199736E+02 -0.27266001463E+02 -0.26796287364E+02  0.40659136833E+02  0.00000000000E+00 0. -1.
         11    1    3    3    0    0 -0.54042181450E+01  0.16741950005E+02  0.13206561853E+02  0.21997993999E+02  0.51100000000E-03 0. -1.
        -11    1    3    3    0    0  0.10991030981E+02 -0.35649684522E-01  0.94657967309E+01  0.14505355595E+02  0.51100000000E-03 0.  1.
        -12    1    3    3    0    0  0.82583869005E+01  0.10559701142E+02  0.41239287801E+01  0.14025513573E+02  0.00000000000E+00 0.  1.
</event>
<event>
 7    1  0.3054835E-011  0.5052887E+02  0.7816164E-02  0.1300439E+00
        -11   -1    0    0    0    0  0.00000000000E+00  0.00000000000E+00  0.45593999997E+02  0.45594000000E+02  0.51100000000E-03 0.  1.
         11   -1    0    0    0    0 -0.00000000000E+00 -0.00000000000E+00 -0.45593999997E+02  0.45594000000E+02  0.51100000000E-03 0. -1.
    9900012    2    1    2    0    0  0.21321288885E+02 -0.28991234587E+02  0.18922887476E+02  0.50528871713E+02  0.30000036059E+02 0.  0.
         12    1    1    2    0    0 -0.21321288885E+02  0.28991234587E+02 -0.18922887476E+02  0.40659128287E+02  0.00000000000E+00 0. -1.
         11    1    3    3    0    0 -0.71427182670E+00 -0.94290580802E+00 -0.17820156641E+01  0.21388865546E+01  0.51100000000E-03 0. -1.
        -11    1    3    3    0    0  0.15061731366E+02 -0.23754506031E+02  0.26271161114E+02  0.38487741101E+02  0.51100000000E-03 0.  1.
        -12    1    3    3    0    0  0.69738293464E+01 -0.42938227478E+01 -0.55662579737E+01  0.99022440574E+01  0.00000000000E+00 0.  1.
</event>
<event>
 7    1  0.3054835E-011  0.5052885E+02  0.7816164E-02  0.1300439E+00
        -11   -1    0    0    0    0  0.00000000000E+00  0.00000000000E+00  0.45593999997E+02  0.45594000000E+02  0.51100000000E-03 0.  1.
         11   -1    0    0    0    0 -0.00000000000E+00 -0.00000000000E+00 -0.45593999997E+02  0.45594000000E+02  0.51100000000E-03 0. -1.
    9900012    2    1    2    0    0 -0.19026985992E+02 -0.22274655216E+02  0.28195384268E+02  0.50528853981E+02  0.29999982161E+02 0.  0.
         12    1    1    2    0    0  0.19026985992E+02  0.22274655216E+02 -0.28195384268E+02  0.40659146019E+02  0.00000000000E+00 0. -1.
         11    1    3    3    0    0  0.48418178814E+01  0.24937079842E+01  0.37470125990E+01  0.66107400180E+01  0.51100000000E-03 0. -1.
        -11    1    3    3    0    0 -0.14072215823E+02 -0.12819637164E+02  0.62295933284E+01  0.20029433054E+02  0.51100000000E-03 0.  1.
        -12    1    3    3    0    0 -0.97965880511E+01 -0.11948726037E+02  0.18218778341E+02  0.23888680909E+02  0.00000000000E+00 0.  1.
</event>
<event>
 7    1  0.3054835E-011  0.5052887E+02  0.7816164E-02  0.1300439E+00
        -11   -1    0    0    0    0  0.00000000000E+00  0.00000000000E+00  0.45593999997E+02  0.45594000000E+02  0.51100000000E-03 0. -1.
         11   -1    0    0    0    0 -0.00000000000E+00 -0.00000000000E+00 -0.45593999997E+02  0.45594000000E+02  0.51100000000E-03 0.  1.
    9900012    2    1    2    0    0 -0.32625463624E+02 -0.20672138091E+02 -0.12704604175E+02  0.50528866498E+02  0.30000020206E+02 0.  0.
         12    1    1    2    0    0  0.32625463624E+02  0.20672138091E+02  0.12704604175E+02  0.40659133502E+02  0.00000000000E+00 0. -1.
         11    1    3    3    0    0  0.11756637998E+01 -0.43416058114E+01 -0.97903210117E+01  0.10774140901E+02  0.51100000000E-03 0. -1.
        -11    1    3    3    0    0 -0.13571774767E+02 -0.10091916199E+02  0.41917318206E+01  0.17424421334E+02  0.51100000000E-03 0.  1.
         12    1    3    3    0    0 -0.20229352656E+02 -0.62386160803E+01 -0.71060149839E+01  0.22330304262E+02  0.00000000000E+00 0. -1.
</event>
<event>
 7    1  0.3054835E-011  0.5052886E+02  0.7816164E-02  0.1300439E+00
        -11   -1    0    0    0    0  0.00000000000E+00  0.00000000000E+00  0.45593999997E+02  0.45594000000E+02  0.51100000000E-03 0.  1.
         11   -1    0    0    0    0 -0.00000000000E+00 -0.00000000000E+00 -0.45593999997E+02  0.45594000000E+02  0.51100000000E-03 0. -1.
    9900012    2    1    2    0    0 -0.16267826513E+02 -0.66040250016E+01  0.36673022358E+02  0.50528857184E+02  0.29999991897E+02 0.  0.
         12    1    1    2    0    0  0.16267826513E+02  0.66040250016E+01 -0.36673022358E+02  0.40659142816E+02  0.00000000000E+00 0. -1.
         11    1    3    3    0    0 -0.26828811655E+01 -0.41958801906E+01  0.11248162950E+01  0.51057295151E+01  0.51100000000E-03 0. -1.
        -11    1    3    3    0    0 -0.17515324441E+01  0.10376344251E+02  0.16861708935E+02  0.19875955685E+02  0.51100000000E-03 0.  1.
        -12    1    3    3    0    0 -0.11833412903E+02 -0.12784489061E+02  0.18686497127E+02  0.25547171984E+02  0.00000000000E+00 0.  1.
</event>
<event>
 7    1  0.3054835E-011  0.5052886E+02  0.7816164E-02  0.1300439E+00
        -11   -1    0    0    0    0  0.00000000000E+00  0.00000000000E+00  0.45593999997E+02  0.45594000000E+02  0.51100000000E-03 0.  1.
         11   -1    0    0    0    0 -0.00000000000E+00 -0.00000000000E+00 -0.45593999997E+02  0.45594000000E+02  0.51100000000E-03 0. -1.
    9900012    2    1    2    0    0  0.14320726091E+02 -0.64593020034E+01  0.37501469911E+02  0.50528855596E+02  0.29999987071E+02 0.  0.
         12    1    1    2    0    0 -0.14320726091E+02  0.64593020034E+01 -0.37501469911E+02  0.40659144404E+02  0.00000000000E+00 0. -1.
         11    1    3    3    0    0 -0.10525431773E+01 -0.24029342788E+01 -0.10760482574E+01  0.28354577058E+01  0.51100000000E-03 0. -1.
        -11    1    3    3    0    0  0.68032177346E+01  0.96902646138E+01  0.16699943884E+02  0.20471275628E+02  0.51100000000E-03 0.  1.
        -12    1    3    3    0    0  0.85700515338E+01 -0.13746632339E+02  0.21877574284E+02  0.27222122263E+02  0.00000000000E+00 0.  1.
</event>
<event>
 7    1  0.3054835E-011  0.5052890E+02  0.7816164E-02  0.1300439E+00
        -11   -1    0    0    0    0  0.00000000000E+00  0.00000000000E+00  0.45593999997E+02  0.45594000000E+02  0.51100000000E-03 0.  1.
         11   -1    0    0    0    0 -0.00000000000E+00 -0.00000000000E+00 -0.45593999997E+02  0.45594000000E+02  0.51100000000E-03 0. -1.
    9900012    2    1    2    0    0  0.12250370049E+02 -0.36205017624E+02  0.13866777627E+02  0.50528900290E+02  0.30000122922E+02 0.  0.
         12    1    1    2    0    0 -0.12250370049E+02  0.36205017624E+02 -0.13866777627E+02  0.40659099710E+02  0.00000000000E+00 0. -1.
         11    1    3    3    0    0 -0.45660806361E+00  0.47694180604E+01  0.29841506553E+01  0.56445544512E+01  0.51100000000E-03 0. -1.
        -11    1    3    3    0    0 -0.35135279532E+00 -0.79574217067E+01  0.30212389794E+01  0.85189139118E+01  0.51100000000E-03 0.  1.
         12    1    3    3    0    0  0.13058330908E+02 -0.33017013977E+02  0.78613879923E+01  0.36365431927E+02  0.00000000000E+00 0. -1.
</event>
<event>
 7    1  0.3054835E-011  0.5052886E+02  0.7816164E-02  0.1300439E+00
        -11   -1    0    0    0    0  0.00000000000E+00  0.00000000000E+00  0.45593999997E+02  0.45594000000E+02  0.51100000000E-03 0.  1.
         11   -1    0    0    0    0 -0.00000000000E+00 -0.00000000000E+00 -0.45593999997E+02  0.45594000000E+02  0.51100000000E-03 0. -1.
    9900012    2    1    2    0    0  0.22422837958E+00 -0.89818001658E+01  0.39654034637E+02  0.50528862336E+02  0.30000007557E+02 0.  0.
         12    1    1    2    0    0 -0.22422837958E+00  0.89818001658E+01 -0.39654034637E+02  0.40659137664E+02  0.00000000000E+00 0. -1.
         11    1    3    3    0    0  0.29017942492E+01  0.15319927435E+01  0.35644212952E+01  0.48448437603E+01  0.51100000000E-03 0. -1.
        -11    1    3    3    0    0 -0.13278664935E+02 -0.48048508883E+01  0.11159166083E+02  0.17998236649E+02  0.51100000000E-03 0.  1.
        -12    1    3    3    0    0  0.10601099066E+02 -0.57089420210E+01  0.24930447258E+02  0.27685781927E+02  0.00000000000E+00 0.  1.
</event>
<event>
 7    1  0.3054835E-011  0.5052886E+02  0.7816164E-02  0.1300439E+00
        -11   -1    0    0    0    0  0.00000000000E+00  0.00000000000E+00  0.45593999997E+02  0.45594000000E+02  0.51100000000E-03 0.  1.
         11   -1    0    0    0    0 -0.00000000000E+00 -0.00000000000E+00 -0.45593999997E+02  0.45594000000E+02  0.51100000000E-03 0. -1.
    9900012    2    1    2    0    0  0.51851781054E+01  0.37107202156E+02  0.15790349486E+02  0.50528860059E+02  0.30000000636E+02 0.  0.
         12    1    1    2    0    0 -0.51851781054E+01 -0.37107202156E+02 -0.15790349486E+02  0.40659139941E+02  0.00000000000E+00 0. -1.
         11    1    3    3    0    0 -0.49293471328E+01  0.22914451341E+02  0.11061102314E+01  0.23464740006E+02  0.51100000000E-03 0. -1.
        -11    1    3    3    0    0  0.31485466149E+01  0.10761564283E+02  0.15636020172E+02  0.19240835186E+02  0.51100000000E-03 0.  1.
         12    1    3    3    0    0  0.69659786234E+01  0.34311865319E+01 -0.95178091738E+00  0.78232848671E+01  0.00000000000E+00 0. -1.
</event>
<event>
 7    1  0.3054835E-011  0.5052886E+02  0.7816164E-02  0.1300439E+00
        -11   -1    0    0    0    0  0.00000000000E+00  0.00000000000E+00  0.45593999997E+02  0.45594000000E+02  0.51100000000E-03 0.  1.
         11   -1    0    0    0    0 -0.00000000000E+00 -0.00000000000E+00 -0.45593999997E+02  0.45594000000E+02  0.51100000000E-03 0. -1.
    9900012    2    1    2    0    0  0.25076633689E+02 -0.10226586434E+02  0.30327291891E+02  0.50528864978E+02  0.30000015588E+02 0.  0.
         12    1    1    2    0    0 -0.25076633689E+02  0.10226586434E+02 -0.30327291891E+02  0.40659135022E+02  0.00000000000E+00 0. -1.
         11    1    3    3    0    0  0.11208355486E+02 -0.33529345011E+01  0.54996111081E+01  0.12927301539E+02  0.51100000000E-03 0. -1.
        -11    1    3    3    0    0  0.10644640149E+01  0.61981719611E+01  0.16187802653E+02  0.17366501498E+02  0.51100000000E-03 0.  1.
        -12    1    3    3    0    0  0.12803814188E+02 -0.13071823894E+02  0.86398781304E+01  0.20235061942E+02  0.00000000000E+00 0.  1.
</event>
<event>
 7    1  0.3054835E-011  0.5052885E+02  0.7816164E-02  0.1300439E+00
        -11   -1    0    0    0    0  0.00000000000E+00  0.00000000000E+00  0.45593999997E+02  0.45594000000E+02  0.51100000000E-03 0.  1.
         11   -1    0    0    0    0 -0.00000000000E+00 -0.00000000000E+00 -0.45593999997E+02  0.45594000000E+02  0.51100000000E-03 0. -1.
    9900012    2    1    2    0    0  0.38155008863E+02 -0.12988373012E+02  0.53538971485E+01  0.50528846670E+02  0.29999959938E+02 0.  0.
         12    1    1    2    0    0 -0.38155008863E+02  0.12988373012E+02 -0.53538971485E+01  0.40659153330E+02  0.00000000000E+00 0. -1.
         11    1    3    3    0    0  0.48063573759E+00 -0.83209156633E+01  0.88500789789E+01  0.12156995779E+02  0.51100000000E-03 0. -1.
        -11    1    3    3    0    0  0.28742216140E+02 -0.21669035358E+01 -0.39059775669E+01  0.29087232948E+02  0.51100000000E-03 0.  1.
         12    1    3    3    0    0  0.89321569856E+01 -0.25005538130E+01  0.40979573652E+00  0.92846179422E+01  0.00000000000E+00 0. -1.
</event>
<event>
 7    1  0.3054835E-011  0.5052886E+02  0.7816164E-02  0.1300439E+00
        -11   -1    0    0    0    0  0.00000000000E+00  0.00000000000E+00  0.45593999997E+02  0.45594000000E+02  0.51100000000E-03 0.  1.
         11   -1    0    0    0    0 -0.00000000000E+00 -0.00000000000E+00 -0.45593999997E+02  0.45594000000E+02  0.51100000000E-03 0. -1.
    9900012    2    1    2    0    0 -0.17423002130E+02 -0.36705761391E+02 -0.15137268731E+01  0.50528864599E+02  0.30000014435E+02 0.  0.
         12    1    1    2    0    0  0.17423002130E+02  0.36705761391E+02  0.15137268731E+01  0.40659135401E+02  0.00000000000E+00 0. -1.
         11    1    3    3    0    0 -0.78752613513E+01 -0.44860887241E+00 -0.50986854299E+01  0.93924216604E+01  0.51100000000E-03 0. -1.
        -11    1    3    3    0    0 -0.13394212494E+02 -0.33069635463E+02  0.14638473626E+01  0.35709222441E+02  0.51100000000E-03 0.  1.
         12    1    3    3    0    0  0.38464717146E+01 -0.31875170559E+01  0.21211111942E+01  0.54272204978E+01  0.00000000000E+00 0. -1.
</event>
<event>
 7    1  0.3054835E-011  0.5052885E+02  0.7816164E-02  0.1300439E+00
        -11   -1    0    0    0    0  0.00000000000E+00  0.00000000000E+00  0.45593999997E+02  0.45594000000E+02  0.51100000000E-03 0. -1.
         11   -1    0    0    0    0 -0.00000000000E+00 -0.00000000000E+00 -0.45593999997E+02  0.45594000000E+02  0.51100000000E-03 0.  1.
    9900012    2    1    2    0    0 -0.44064155336E+01 -0.36655121047E+02  0.17033847567E+02  0.50528851463E+02  0.29999974506E+02 0.  0.
         12    1    1    2    0    0  0.44064155336E+01  0.36655121047E+02 -0.17033847567E+02  0.40659148537E+02  0.00000000000E+00 0. -1.
         11    1    3    3    0    0  0.36891328422E+01 -0.15602213929E+02  0.21313569995E+02  0.26670340208E+02  0.51100000000E-03 0. -1.
        -11    1    3    3    0    0 -0.41328592334E+01 -0.99797950343E+01 -0.53407861989E+01  0.12049930782E+02  0.51100000000E-03 0.  1.
         12    1    3    3    0    0 -0.39626891424E+01 -0.11073112084E+02  0.10610637715E+01  0.11808580473E+02  0.00000000000E+00 0. -1.
</event>
<event>
 7    1  0.3054835E-011  0.5052873E+02  0.7816164E-02  0.1300439E+00
        -11   -1    0    0    0    0  0.00000000000E+00  0.00000000000E+00  0.45593999997E+02  0.45594000000E+02  0.51100000000E-03 0.  1.
         11   -1    0    0    0    0 -0.00000000000E+00 -0.00000000000E+00 -0.45593999997E+02  0.45594000000E+02  0.51100000000E-03 0. -1.
    9900012    2    1    2    0    0 -0.18740195165E+02  0.93515308695E+01  0.34850111363E+02  0.50528729145E+02  0.29999602707E+02 0.  0.
         12    1    1    2    0    0  0.18740195165E+02 -0.93515308695E+01 -0.34850111363E+02  0.40659270855E+02  0.00000000000E+00 0. -1.
         11    1    3    3    0    0 -0.94287841265E+01  0.15170264410E+02  0.20501152320E+02  0.27190736274E+02  0.51100000000E-03 0. -1.
        -11    1    3    3    0    0 -0.96272123024E+01 -0.38766659553E+01  0.16756157873E+01  0.10512822845E+02  0.51100000000E-03 0.  1.
        -12    1    3    3    0    0  0.31580126370E+00 -0.19420675854E+01  0.12673343255E+02  0.12825170027E+02  0.00000000000E+00 0.  1.
</event>
<event>
 7    1  0.3054835E-011  0.5052886E+02  0.7816164E-02  0.1300439E+00
        -11   -1    0    0    0    0  0.00000000000E+00  0.00000000000E+00  0.45593999997E+02  0.45594000000E+02  0.51100000000E-03 0.  1.
         11   -1    0    0    0    0 -0.00000000000E+00 -0.00000000000E+00 -0.45593999997E+02  0.45594000000E+02  0.51100000000E-03 0. -1.
    9900012    2    1    2    0    0 -0.95974500043E+01  0.28040667979E+02  0.27834797726E+02  0.50528855005E+02  0.29999985273E+02 0.  0.
         12    1    1    2    0    0  0.95974500043E+01 -0.28040667979E+02 -0.27834797726E+02  0.40659144995E+02  0.00000000000E+00 0. -1.
         11    1    3    3    0    0 -0.25160445875E+01  0.12279254783E+01 -0.49412547336E+01  0.56792851619E+01  0.51100000000E-03 0. -1.
        -11    1    3    3    0    0 -0.40159979317E+00  0.16778399449E+02  0.11335259049E+02  0.20252507707E+02  0.51100000000E-03 0.  1.
         12    1    3    3    0    0 -0.66798056237E+01  0.10034343052E+02  0.21440793410E+02  0.24597062136E+02  0.00000000000E+00 0. -1.
</event>
<event>
 7    1  0.3054835E-011  0.5052886E+02  0.7816164E-02  0.1300439E+00
        -11   -1    0    0    0    0  0.00000000000E+00  0.00000000000E+00  0.45593999997E+02  0.45594000000E+02  0.51100000000E-03 0. -1.
         11   -1    0    0    0    0 -0.00000000000E+00 -0.00000000000E+00 -0.45593999997E+02  0.45594000000E+02  0.51100000000E-03 0.  1.
    9900012    2    1    2    0    0  0.37974077654E+02  0.35875549328E+01 -0.14080638156E+02  0.50528862098E+02  0.30000006833E+02 0.  0.
         12    1    1    2    0    0 -0.37974077654E+02 -0.35875549328E+01  0.14080638156E+02  0.40659137902E+02  0.00000000000E+00 0. -1.
         11    1    3    3    0    0  0.10292094732E+02 -0.85827953400E+01 -0.46458817203E+01  0.14183645760E+02  0.51100000000E-03 0. -1.
        -11    1    3    3    0    0  0.30263134122E+02  0.11819419846E+02 -0.88952952538E+01  0.33685044906E+02  0.51100000000E-03 0.  1.
        -12    1    3    3    0    0 -0.25811512003E+01  0.35093042671E+00 -0.53946118173E+00  0.26601714324E+01  0.00000000000E+00 0.  1.
</event>
<event>
 7    1  0.3054835E-011  0.5052885E+02  0.7816164E-02  0.1300439E+00
        -11   -1    0    0    0    0  0.00000000000E+00  0.00000000000E+00  0.45593999997E+02  0.45594000000E+02  0.51100000000E-03 0.  1.
         11   -1    0    0    0    0 -0.00000000000E+00 -0.00000000000E+00 -0.45593999997E+02  0.45594000000E+02  0.51100000000E-03 0. -1.
    9900012    2    1    2    0    0  0.17305081854E+02  0.16262758399E+02  0.33003378631E+02  0.50528853799E+02  0.29999981608E+02 0.  0.
         12    1    1    2    0    0 -0.17305081854E+02 -0.16262758399E+02 -0.33003378631E+02  0.40659146201E+02  0.00000000000E+00 0. -1.
         11    1    3    3    0    0 -0.37657866196E+01 -0.48078914536E+00  0.10021171700E+02  0.10716164872E+02  0.51100000000E-03 0. -1.
        -11    1    3    3    0    0  0.16925359988E+02  0.20727002499E+02  0.18816373868E+02  0.32712877725E+02  0.51100000000E-03 0.  1.
        -12    1    3    3    0    0  0.41455084856E+01 -0.39834549547E+01  0.41658330639E+01  0.70998112015E+01  0.00000000000E+00 0.  1.
</event>
<event>
 7    1  0.3054835E-011  0.5052886E+02  0.7816164E-02  0.1300439E+00
        -11   -1    0    0    0    0  0.00000000000E+00  0.00000000000E+00  0.45593999997E+02  0.45594000000E+02  0.51100000000E-03 0. -1.
         11   -1    0    0    0    0 -0.00000000000E+00 -0.00000000000E+00 -0.45593999997E+02  0.45594000000E+02  0.51100000000E-03 0.  1.
    9900012    2    1    2    0    0 -0.30888283695E+02 -0.20769976152E+02 -0.16361162449E+02  0.50528860614E+02  0.30000002321E+02 0.  0.
         12    1    1    2    0    0  0.30888283695E+02  0.20769976152E+02  0.16361162449E+02  0.40659139386E+02  0.00000000000E+00 0. -1.
         11    1    3    3    0    0  0.74947972710E+00  0.59992942660E+00  0.14969638301E+01  0.17783520877E+01  0.51100000000E-03 0. -1.
        -11    1    3    3    0    0 -0.19795495868E+02 -0.25954720666E+02 -0.12188062557E+02  0.34843335815E+02  0.51100000000E-03 0.  1.
        -12    1    3    3    0    0 -0.11842267554E+02  0.45848150882E+01 -0.56700637218E+01  0.13907172711E+02  0.00000000000E+00 0.  1.
</event>
<event>
 7    1  0.3054835E-011  0.5052885E+02  0.7816164E-02  0.1300439E+00
        -11   -1    0    0    0    0  0.00000000000E+00  0.00000000000E+00  0.45593999997E+02  0.45594000000E+02  0.51100000000E-03 0.  1.
         11   -1    0    0    0    0 -0.00000000000E+00 -0.00000000000E+00 -0.45593999997E+02  0.45594000000E+02  0.51100000000E-03 0. -1.
    9900012    2    1    2    0    0  0.27363044555E+02  0.29067572782E+01  0.29932941799E+02  0.50528850354E+02  0.29999971137E+02 0.  0.
         12    1    1    2    0    0 -0.27363044555E+02 -0.29067572782E+01 -0.29932941799E+02  0.40659149646E+02  0.00000000000E+00 0. -1.
         11    1    3    3    0    0  0.72460754002E+01  0.81373062424E+01 -0.61417237564E+00  0.10913229108E+02  0.51100000000E-03 0. -1.
        -11    1    3    3    0    0  0.19117922589E+02 -0.25553401292E+01  0.31205299465E+02  0.36685084738E+02  0.51100000000E-03 0.  1.
        -12    1    3    3    0    0  0.99904656555E+00 -0.26752088351E+01 -0.65818529062E+00  0.29305365086E+01  0.00000000000E+00 0.  1.
</event>
<event>
 7    1  0.3054835E-011  0.5052886E+02  0.7816164E-02  0.1300439E+00
        -11   -1    0    0    0    0  0.00000000000E+00  0.00000000000E+00  0.45593999997E+02  0.45594000000E+02  0.51100000000E-03 0.  1.
         11   -1    0    0    0    0 -0.00000000000E+00 -0.00000000000E+00 -0.45593999997E+02  0.45594000000E+02  0.51100000000E-03 0. -1.
    9900012    2    1    2    0    0  0.13953253340E+02  0.71695448223E+01  0.37510934825E+02  0.50528857324E+02  0.29999992322E+02 0.  0.
         12    1    1    2    0    0 -0.13953253340E+02 -0.71695448223E+01 -0.37510934825E+02  0.40659142676E+02  0.00000000000E+00 0. -1.
         11    1    3    3    0    0  0.97137594103E+01 -0.75883601842E+01  0.19160457974E+02  0.22782964737E+02  0.51100000000E-03 0. -1.
        -11    1    3    3    0    0 -0.51492622821E+01  0.39735589495E+01  0.53804978929E+01  0.84411984108E+01  0.51100000000E-03 0.  1.
         12    1    3    3    0    0  0.93887562113E+01  0.10784346057E+02  0.12969978958E+02  0.19304694176E+02  0.00000000000E+00 0. -1.
</event>
<event>
 7    1  0.3054835E-011  0.5052886E+02  0.7816164E-02  0.1300439E+00
        -11   -1    0    0    0    0  0.00000000000E+00  0.00000000000E+00  0.45593999997E+02  0.45594000000E+02  0.51100000000E-03 0.  1.
         11   -1    0    0    0    0 -0.00000000000E+00 -0.00000000000E+00 -0.45593999997E+02  0.45594000000E+02  0.51100000000E-03 0. -1.
    9900012    2    1    2    0    0  0.70680203282E+01 -0.38839519288E+02 -0.97314174418E+01  0.50528860126E+02  0.30000000838E+02 0.  0.
         12    1    1    2    0    0 -0.70680203282E+01  0.38839519288E+02  0.97314174418E+01  0.40659139874E+02  0.00000000000E+00 0. -1.
         11    1    3    3    0    0  0.15659291894E+02 -0.18015790520E+02  0.31396753333E+01  0.24075707511E+02  0.51100000000E-03 0. -1.
        -11    1    3    3    0    0 -0.22347949205E+01 -0.12147537734E+02 -0.71186878655E+01  0.14255970627E+02  0.51100000000E-03 0.  1.
         12    1    3    3    0    0 -0.63564766450E+01 -0.86761910335E+01 -0.57524049096E+01  0.12197181987E+02  0.00000000000E+00 0. -1.
</event>
<event>
 7    1  0.3054835E-011  0.5052885E+02  0.7816164E-02  0.1300439E+00
        -11   -1    0    0    0    0  0.00000000000E+00  0.00000000000E+00  0.45593999997E+02  0.45594000000E+02  0.51100000000E-03 0.  1.
         11   -1    0    0    0    0 -0.00000000000E+00 -0.00000000000E+00 -0.45593999997E+02  0.45594000000E+02  0.51100000000E-03 0. -1.
    9900012    2    1    2    0    0 -0.31883897341E+02 -0.20365224650E+02  0.14894338494E+02  0.50528848461E+02  0.29999965381E+02 0.  0.
         12    1    1    2    0    0  0.31883897341E+02  0.20365224650E+02 -0.14894338494E+02  0.40659151539E+02  0.00000000000E+00 0. -1.
         11    1    3    3    0    0  0.16592573865E+01  0.37515712535E+01  0.41856594039E+01  0.58606456003E+01  0.51100000000E-03 0. -1.
        -11    1    3    3    0    0 -0.17255561544E+02 -0.16701983598E+02  0.11763524904E+02  0.26741188805E+02  0.51100000000E-03 0.  1.
         12    1    3    3    0    0 -0.16287593184E+02 -0.74148123053E+01 -0.10548458133E+01  0.17927014055E+02  0.00000000000E+00 0. -1.
</event>
<event>
 7    1  0.3054835E-011  0.5052886E+02  0.7816164E-02  0.1300439E+00
        -11   -1    0    0    0    0  0.00000000000E+00  0.00000000000E+00  0.45593999997E+02  0.45594000000E+02  0.51100000000E-03 0.  1.
         11   -1    0    0    0    0 -0.00000000000E+00 -0.00000000000E+00 -0.45593999997E+02  0.45594000000E+02  0.51100000000E-03 0. -1.
    9900012    2    1    2    0    0  0.28075729846E+02  0.29107678494E+02  0.42026084213E+01  0.50528862389E+02  0.30000007718E+02 0.  0.
         12    1    1    2    0    0 -0.28075729846E+02 -0.29107678494E+02 -0.42026084213E+01  0.40659137611E+02  0.00000000000E+00 0. -1.
         11    1    3    3    0    0  0.85816739848E+01  0.67746119497E+01 -0.11171982049E+02  0.15631816229E+02  0.51100000000E-03 0. -1.
        -11    1    3    3    0    0  0.15794302101E+02  0.10905691810E+02  0.10944777164E+02  0.22094846461E+02  0.51100000000E-03 0.  1.
        -12    1    3    3    0    0  0.36997537606E+01  0.11427374734E+02  0.44298133064E+01  0.12802199699E+02  0.00000000000E+00 0.  1.
</event>
<event>
 7    1  0.3054835E-011  0.5052886E+02  0.7816164E-02  0.1300439E+00
        -11   -1    0    0    0    0  0.00000000000E+00  0.00000000000E+00  0.45593999997E+02  0.45594000000E+02  0.51100000000E-03 0.  1.
         11   -1    0    0    0    0 -0.00000000000E+00 -0.00000000000E+00 -0.45593999997E+02  0.45594000000E+02  0.51100000000E-03 0. -1.
    9900012    2    1    2    0    0 -0.48613638644E+01 -0.23555220597E+02  0.32782375742E+02  0.50528862832E+02  0.30000009063E+02 0.  0.
         12    1    1    2    0    0  0.48613638644E+01  0.23555220597E+02 -0.32782375742E+02  0.40659137168E+02  0.00000000000E+00 0. -1.
         11    1    3    3    0    0 -0.32588288394E+01 -0.64469352511E+01  0.94113098044E+01  0.11864050406E+02  0.51100000000E-03 0. -1.
        -11    1    3    3    0    0  0.90136064969E-01 -0.17916022954E+02  0.29496285583E+01  0.18157431313E+02  0.51100000000E-03 0.  1.
        -12    1    3    3    0    0 -0.16926710899E+01  0.80773760808E+00  0.20421437379E+02  0.20507381112E+02  0.00000000000E+00 0.  1.
</event>
<event>
 7    1  0.3054835E-011  0.5052886E+02  0.7816164E-02  0.1300439E+00
        -11   -1    0    0    0    0  0.00000000000E+00  0.00000000000E+00  0.45593999997E+02  0.45594000000E+02  0.51100000000E-03 0. -1.
         11   -1    0    0    0    0 -0.00000000000E+00 -0.00000000000E+00 -0.45593999997E+02  0.45594000000E+02  0.51100000000E-03 0.  1.
    9900012    2    1    2    0    0  0.24798345484E+02  0.16283848564E+02 -0.27803674571E+02  0.50528856103E+02  0.29999988611E+02 0.  0.
         12    1    1    2    0    0 -0.24798345484E+02 -0.16283848564E+02  0.27803674571E+02  0.40659143897E+02  0.00000000000E+00 0. -1.
         11    1    3    3    0    0 -0.23792564489E+01  0.22407925615E+01 -0.77958552471E+01  0.84532462314E+01  0.51100000000E-03 0. -1.
        -11    1    3    3    0    0  0.23497781706E+02  0.74659559250E+01 -0.23233808061E+02  0.33877663441E+02  0.51100000000E-03 0.  1.
        -12    1    3    3    0    0  0.36798202274E+01  0.65771000776E+01  0.32259887380E+01  0.81979464303E+01  0.00000000000E+00 0.  1.
</event>
<event>
 7    1  0.3054835E-011  0.5052886E+02  0.7816164E-02  0.1300439E+00
        -11   -1    0    0    0    0  0.00000000000E+00  0.00000000000E+00  0.45593999997E+02  0.45594000000E+02  0.51100000000E-03 0. -1.
         11   -1    0    0    0    0 -0.00000000000E+00 -0.00000000000E+00 -0.45593999997E+02  0.45594000000E+02  0.51100000000E-03 0.  1.
    9900012    2    1    2    0    0 -0.44616959548E+01 -0.38994596632E+02  0.10615086966E+02  0.50528863652E+02  0.30000011556E+02 0.  0.
         12    1    1    2    0    0  0.44616959548E+01  0.38994596632E+02 -0.10615086966E+02  0.40659136348E+02  0.00000000000E+00 0. -1.
         11    1    3    3    0    0 -0.10724750720E+02 -0.47685315335E+01  0.70686835330E+01  0.13701294032E+02  0.51100000000E-03 0. -1.
        -11    1    3    3    0    0  0.87857078347E+01 -0.31020719595E+02  0.15293364581E+01  0.32277121566E+02  0.51100000000E-03 0.  1.
        -12    1    3    3    0    0 -0.25226530694E+01 -0.32053455037E+01  0.20170669753E+01  0.45504480537E+01  0.00000000000E+00 0.  1.
</event>
<event>
 7    1  0.3054835E-011  0.5052885E+02  0.7816164E-02  0.1300439E+00
        -11   -1    0    0    0    0  0.00000000000E+00  0.00000000000E+00  0.45593999997E+02  0.45594000000E+02  0.51100000000E-03 0. -1.
         11   -1    0    0    0    0 -0.00000000000E+00 -0.00000000000E+00 -0.45593999997E+02  0.45594000000E+02  0.51100000000E-03 0.  1.
    9900012    2    1    2    0    0  0.41927194362E+01  0.14420498555E+02 -0.37784077367E+02  0.50528853706E+02  0.29999981326E+02 0.  0.
         12    1    1    2    0    0 -0.41927194362E+01 -0.14420498555E+02  0.37784077367E+02  0.40659146294E+02  0.00000000000E+00 0. -1.
         11    1    3    3    0    0 -0.41306962996E+01 -0.13700294944E+01  0.24769395533E+01  0.50074806587E+01  0.51100000000E-03 0. -1.
        -11    1    3    3    0    0  0.91593699611E+01  0.76892150188E+01 -0.16317646486E+02  0.20230760559E+02  0.51100000000E-03 0.  1.
         12    1    3    3    0    0 -0.83595422523E+00  0.81013130308E+01 -0.23943370435E+02  0.25290612489E+02  0.00000000000E+00 0. -1.
</event>
<event>
 7    1  0.3054835E-011  0.5052886E+02  0.7816164E-02  0.1300439E+00
        -11   -1    0    0    0    0  0.00000000000E+00  0.00000000000E+00  0.45593999997E+02  0.45594000000E+02  0.51100000000E-03 0. -1.
         11   -1    0    0    0    0 -0.00000000000E+00 -0.00000000000E+00 -0.45593999997E+02  0.45594000000E+02  0.51100000000E-03 0.  1.
    9900012    2    1    2    0    0 -0.31648114209E+01 -0.29367805283E+02 -0.27940686957E+02  0.50528855812E+02  0.29999987726E+02 0.  0.
         12    1    1    2    0    0  0.31648114209E+01  0.29367805283E+02  0.27940686957E+02  0.40659144188E+02  0.00000000000E+00 0. -1.
         11    1    3    3    0    0 -0.15578684131E+01  0.23896696258E+00  0.14161713874E+01  0.21188678253E+01  0.51100000000E-03 0. -1.
        -11    1    3    3    0    0  0.90773379662E+01 -0.23170635170E+02 -0.13750322131E+02  0.28431457185E+02  0.51100000000E-03 0.  1.
        -12    1    3    3    0    0 -0.10684280974E+02 -0.64361370759E+01 -0.15606536214E+02  0.19978530801E+02  0.00000000000E+00 0.  1.
</event>
<event>
 7    1  0.3054835E-011  0.5052886E+02  0.7816164E-02  0.1300439E+00
        -11   -1    0    0    0    0  0.00000000000E+00  0.00000000000E+00  0.45593999997E+02  0.45594000000E+02  0.51100000000E-03 0.  1.
         11   -1    0    0    0    0 -0.00000000000E+00 -0.00000000000E+00 -0.45593999997E+02  0.45594000000E+02  0.51100000000E-03 0. -1.
    9900012    2    1    2    0    0  0.45570360009E+01 -0.22985982919E+02  0.33227149379E+02  0.50528862728E+02  0.30000008748E+02 0.  0.
         12    1    1    2    0    0 -0.45570360009E+01  0.22985982919E+02 -0.33227149379E+02  0.40659137272E+02  0.00000000000E+00 0. -1.
         11    1    3    3    0    0  0.67867689094E+01 -0.38515072944E+01  0.40306872664E+01  0.87829824529E+01  0.51100000000E-03 0. -1.
        -11    1    3    3    0    0 -0.11976257851E+02 -0.57629245247E+01  0.13094349762E+02  0.18657546653E+02  0.51100000000E-03 0.  1.
         12    1    3    3    0    0  0.97465249421E+01 -0.13371551100E+02  0.16102112351E+02  0.23088333622E+02  0.00000000000E+00 0. -1.
</event>
<event>
 7    1  0.3054835E-011  0.5052886E+02  0.7816164E-02  0.1300439E+00
        -11   -1    0    0    0    0  0.00000000000E+00  0.00000000000E+00  0.45593999997E+02  0.45594000000E+02  0.51100000000E-03 0.  1.
         11   -1    0    0    0    0 -0.00000000000E+00 -0.00000000000E+00 -0.45593999997E+02  0.45594000000E+02  0.51100000000E-03 0. -1.
    9900012    2    1    2    0    0 -0.39542827541E+02 -0.86229170946E+01  0.38956492373E+01  0.50528855984E+02  0.29999988249E+02 0.  0.
         12    1    1    2    0    0  0.39542827541E+02  0.86229170946E+01 -0.38956492373E+01  0.40659144016E+02  0.00000000000E+00 0. -1.
         11    1    3    3    0    0 -0.67532160712E+01  0.49316598395E+01  0.78968530786E+01  0.11501629662E+02  0.51100000000E-03 0. -1.
        -11    1    3    3    0    0 -0.22838738958E+02 -0.16742824301E+02 -0.20063370557E+01  0.28389356305E+02  0.51100000000E-03 0.  1.
         12    1    3    3    0    0 -0.99508725114E+01  0.31882473664E+01 -0.19948667856E+01  0.10637870017E+02  0.00000000000E+00 0. -1.
</event>
<event>
 7    1  0.3054835E-011  0.5052883E+02  0.7816164E-02  0.1300439E+00
        -11   -1    0    0    0    0  0.00000000000E+00  0.00000000000E+00  0.45593999997E+02  0.45594000000E+02  0.51100000000E-03 0.  1.
         11   -1    0    0    0    0 -0.00000000000E+00 -0.00000000000E+00 -0.45593999997E+02  0.45594000000E+02  0.51100000000E-03 0. -1.
    9900012    2    1    2    0    0  0.36641417571E+01 -0.36002086042E+02  0.18536240078E+02  0.50528827229E+02  0.29999900846E+02 0.  0.
         12    1    1    2    0    0 -0.36641417571E+01  0.36002086042E+02 -0.18536240078E+02  0.40659172771E+02  0.00000000000E+00 0. -1.
         11    1    3    3    0    0  0.24308978153E+01  0.46751995279E+00 -0.11628945016E+01  0.27349886613E+01  0.51100000000E-03 0. -1.
        -11    1    3    3    0    0  0.65200050729E+01 -0.26609351514E+02  0.23379165804E+02  0.36016016550E+02  0.51100000000E-03 0.  1.
        -12    1    3    3    0    0 -0.52867611310E+01 -0.98602544801E+01 -0.36800312251E+01  0.11777822018E+02  0.00000000000E+00 0.  1.
</event>
<event>
 7    1  0.3054835E-011  0.5052886E+02  0.7816164E-02  0.1300439E+00
        -11   -1    0    0    0    0  0.00000000000E+00  0.00000000000E+00  0.45593999997E+02  0.45594000000E+02  0.51100000000E-03 0.  1.
         11   -1    0    0    0    0 -0.00000000000E+00 -0.00000000000E+00 -0.45593999997E+02  0.45594000000E+02  0.51100000000E-03 0. -1.
    9900012    2    1    2    0    0  0.26945206808E+02 -0.19686148492E+02  0.23228795586E+02  0.50528861338E+02  0.30000004522E+02 0.  0.
         12    1    1    2    0    0 -0.26945206808E+02  0.19686148492E+02 -0.23228795586E+02  0.40659138662E+02  0.00000000000E+00 0. -1.
         11    1    3    3    0    0  0.88641686452E+01 -0.92765523807E+01 -0.51515652320E+01  0.13826298653E+02  0.51100000000E-03 0. -1.
        -11    1    3    3    0    0 -0.96376410782E+00 -0.19339344597E+01  0.45792044991E+01  0.50634037816E+01  0.51100000000E-03 0.  1.
         12    1    3    3    0    0  0.19044802271E+02 -0.84756616521E+01  0.23801156319E+02  0.31639158903E+02  0.00000000000E+00 0. -1.
</event>
<event>
 7    1  0.3054835E-011  0.5052884E+02  0.7816164E-02  0.1300439E+00
        -11   -1    0    0    0    0  0.00000000000E+00  0.00000000000E+00  0.45593999997E+02  0.45594000000E+02  0.51100000000E-03 0. -1.
         11   -1    0    0    0    0 -0.00000000000E+00 -0.00000000000E+00 -0.45593999997E+02  0.45594000000E+02  0.51100000000E-03 0.  1.
    9900012    2    1    2    0    0  0.25428210812E+02  0.60618296174E+01 -0.31142054819E+02  0.50528840371E+02  0.29999940792E+02 0.  0.
         12    1    1    2    0    0 -0.25428210812E+02 -0.60618296174E+01  0.31142054819E+02  0.40659159629E+02  0.00000000000E+00 0. -1.
         11    1    3    3    0    0  0.56256054323E+01  0.10387488545E+02 -0.23517615093E+02  0.26317780580E+02  0.51100000000E-03 0. -1.
        -11    1    3    3    0    0  0.15713521565E+02  0.11944682820E+01 -0.33216769737E+01  0.16105125042E+02  0.51100000000E-03 0.  1.
        -12    1    3    3    0    0  0.40890838142E+01 -0.55201272092E+01 -0.43027627526E+01  0.81059347487E+01  0.00000000000E+00 0.  1.
</event>
<event>
 7    1  0.3054835E-011  0.5052887E+02  0.7816164E-02  0.1300439E+00
        -11   -1    0    0    0    0  0.00000000000E+00  0.00000000000E+00  0.45593999997E+02  0.45594000000E+02  0.51100000000E-03 0.  1.
         11   -1    0    0    0    0 -0.00000000000E+00 -0.00000000000E+00 -0.45593999997E+02  0.45594000000E+02  0.51100000000E-03 0. -1.
    9900012    2    1    2    0    0  0.23767713234E+01  0.18526401685E+02  0.36114934530E+02  0.50528866986E+02  0.30000021690E+02 0.  0.
         12    1    1    2    0    0 -0.23767713234E+01 -0.18526401685E+02 -0.36114934530E+02  0.40659133014E+02  0.00000000000E+00 0. -1.
         11    1    3    3    0    0  0.25023417862E+01  0.17698258150E+02  0.24836680193E+02  0.30599848680E+02  0.51100000000E-03 0. -1.
        -11    1    3    3    0    0 -0.82449365901E+01  0.10207155223E+01  0.58202677385E+01  0.10143784124E+02  0.51100000000E-03 0.  1.
         12    1    3    3    0    0  0.81193661273E+01 -0.19257198642E+00  0.54579865985E+01  0.97852341816E+01  0.00000000000E+00 0. -1.
</event>
<event>
 7    1  0.3054835E-011  0.5052886E+02  0.7816164E-02  0.1300439E+00
        -11   -1    0    0    0    0  0.00000000000E+00  0.00000000000E+00  0.45593999997E+02  0.45594000000E+02  0.51100000000E-03 0.  1.
         11   -1    0    0    0    0 -0.00000000000E+00 -0.00000000000E+00 -0.45593999997E+02  0.45594000000E+02  0.51100000000E-03 0. -1.
    9900012    2    1    2    0    0  0.15916870061E+02 -0.17164270208E+01  0.37374761854E+02  0.50528859602E+02  0.29999999247E+02 0.  0.
         12    1    1    2    0    0 -0.15916870061E+02  0.17164270208E+01 -0.37374761854E+02  0.40659140398E+02  0.00000000000E+00 0. -1.
         11    1    3    3    0    0 -0.55418478372E+00 -0.50420868092E+00 -0.46124187913E+01  0.46728743334E+01  0.51100000000E-03 0. -1.
        -11    1    3    3    0    0  0.99886910677E+01 -0.35718598102E+01  0.17968016760E+02  0.20865803562E+02  0.51100000000E-03 0.  1.
         12    1    3    3    0    0  0.64823637771E+01  0.23596414704E+01  0.24019163885E+02  0.24990181707E+02  0.00000000000E+00 0. -1.
</event>
<event>
 7    1  0.3054835E-011  0.5052887E+02  0.7816164E-02  0.1300439E+00
        -11   -1    0    0    0    0  0.00000000000E+00  0.00000000000E+00  0.45593999997E+02  0.45594000000E+02  0.51100000000E-03 0.  1.
         11   -1    0    0    0    0 -0.00000000000E+00 -0.00000000000E+00 -0.45593999997E+02  0.45594000000E+02  0.51100000000E-03 0. -1.
    9900012    2    1    2    0    0 -0.24248432532E+02  0.42873996272E+01  0.32354239552E+02  0.50528867043E+02  0.30000021863E+02 0.  0.
         12    1    1    2    0    0  0.24248432532E+02 -0.42873996272E+01 -0.32354239552E+02  0.40659132957E+02  0.00000000000E+00 0. -1.
         11    1    3    3    0    0 -0.43173527882E+01 -0.10624720401E+02  0.16907360317E+02  0.20429954769E+02  0.51100000000E-03 0. -1.
        -11    1    3    3    0    0 -0.95557516104E+01  0.31050517026E+01  0.49729396850E+01  0.11210881513E+02  0.51100000000E-03 0.  1.
         12    1    3    3    0    0 -0.10375328134E+02  0.11807068326E+02  0.10473939550E+02  0.18888030761E+02  0.00000000000E+00 0. -1.
</event>
<event>
 7    1  0.3054835E-011  0.5052886E+02  0.7816164E-02  0.1300439E+00
        -11   -1    0    0    0    0  0.00000000000E+00  0.00000000000E+00  0.45593999997E+02  0.45594000000E+02  0.51100000000E-03 0.  1.
         11   -1    0    0    0    0 -0.00000000000E+00 -0.00000000000E+00 -0.45593999997E+02  0.45594000000E+02  0.51100000000E-03 0. -1.
    9900012    2    1    2    0    0 -0.23197391047E+02 -0.33323820560E+02  0.21376369633E+01  0.50528862529E+02  0.30000008144E+02 0.  0.
         12    1    1    2    0    0  0.23197391047E+02  0.33323820560E+02 -0.21376369633E+01  0.40659137471E+02  0.00000000000E+00 0. -1.
         11    1    3    3    0    0  0.34774076363E+01 -0.41895632754E+01 -0.50880887385E+01  0.74520769977E+01  0.51100000000E-03 0. -1.
        -11    1    3    3    0    0 -0.18634661232E+02 -0.28295082721E+02  0.84057762935E+01  0.34907296956E+02  0.51100000000E-03 0.  1.
         12    1    3    3    0    0 -0.80401374517E+01 -0.83917456348E+00 -0.11800505917E+01  0.81694885757E+01  0.00000000000E+00 0. -1.
</event>
<event>
 7    1  0.3054835E-011  0.5052886E+02  0.7816164E-02  0.1300439E+00
        -11   -1    0    0    0    0  0.00000000000E+00  0.00000000000E+00  0.45593999997E+02  0.45594000000E+02  0.51100000000E-03 0.  1.
         11   -1    0    0    0    0 -0.00000000000E+00 -0.00000000000E+00 -0.45593999997E+02  0.45594000000E+02  0.51100000000E-03 0. -1.
    9900012    2    1    2    0    0 -0.12926262026E+02  0.37742000283E+02 -0.78497890663E+01  0.50528855596E+02  0.29999987069E+02 0.  0.
         12    1    1    2    0    0  0.12926262026E+02 -0.37742000283E+02  0.78497890663E+01  0.40659144404E+02  0.00000000000E+00 0. -1.
         11    1    3    3    0    0 -0.72863330870E+01  0.11605060798E+02 -0.14443633428E+02  0.19909460887E+02  0.51100000000E-03 0. -1.
        -11    1    3    3    0    0 -0.72658376757E+01  0.21959883128E+02  0.97869588785E+01  0.25115999452E+02  0.51100000000E-03 0.  1.
        -12    1    3    3    0    0  0.16259087368E+01  0.41770563572E+01 -0.31931145170E+01  0.55033952566E+01  0.00000000000E+00 0.  1.
</event>
<event>
 7    1  0.3054835E-011  0.5052890E+02  0.7816164E-02  0.1300439E+00
        -11   -1    0    0    0    0  0.00000000000E+00  0.00000000000E+00  0.45593999997E+02  0.45594000000E+02  0.51100000000E-03 0. -1.
         11   -1    0    0    0    0 -0.00000000000E+00 -0.00000000000E+00 -0.45593999997E+02  0.45594000000E+02  0.51100000000E-03 0.  1.
    9900012    2    1    2    0    0  0.21501389723E+02  0.28330166528E+02  0.19704174505E+02  0.50528897840E+02  0.30000115475E+02 0.  0.
         12    1    1    2    0    0 -0.21501389723E+02 -0.28330166528E+02 -0.19704174505E+02  0.40659102160E+02  0.00000000000E+00 0. -1.
         11    1    3    3    0    0 -0.48120295980E+01 -0.51688002911E+00  0.72506899655E+01  0.87175282652E+01  0.51100000000E-03 0. -1.
        -11    1    3    3    0    0  0.19835032133E+02  0.18770807674E+02  0.11985136665E+02  0.29823065262E+02  0.51100000000E-03 0.  1.
         12    1    3    3    0    0  0.64783871873E+01  0.10076238883E+02  0.46834787437E+00  0.11988304314E+02  0.00000000000E+00 0. -1.
</event>
<event>
 7    1  0.3054835E-011  0.5052886E+02  0.7816164E-02  0.1300439E+00
        -11   -1    0    0    0    0  0.00000000000E+00  0.00000000000E+00  0.45593999997E+02  0.45594000000E+02  0.51100000000E-03 0.  1.
         11   -1    0    0    0    0 -0.00000000000E+00 -0.00000000000E+00 -0.45593999997E+02  0.45594000000E+02  0.51100000000E-03 0. -1.
    9900012    2    1    2    0    0 -0.53450701055E+01  0.15957603107E+02  0.37012840856E+02  0.50528864992E+02  0.30000015630E+02 0.  0.
         12    1    1    2    0    0  0.53450701055E+01 -0.15957603107E+02 -0.37012840856E+02  0.40659135008E+02  0.00000000000E+00 0. -1.
         11    1    3    3    0    0  0.29209392675E+01 -0.19268880474E+01 -0.16587057780E+01  0.38724783887E+01  0.51100000000E-03 0. -1.
        -11    1    3    3    0    0 -0.30124645407E+01  0.19320617478E+02  0.23702531976E+02  0.30727369309E+02  0.51100000000E-03 0.  1.
        -12    1    3    3    0    0 -0.52535448323E+01 -0.14361263233E+01  0.14969014658E+02  0.15929017294E+02  0.00000000000E+00 0.  1.
</event>
<event>
 7    1  0.3054835E-011  0.5052886E+02  0.7816164E-02  0.1300439E+00
        -11   -1    0    0    0    0  0.00000000000E+00  0.00000000000E+00  0.45593999997E+02  0.45594000000E+02  0.51100000000E-03 0.  1.
         11   -1    0    0    0    0 -0.00000000000E+00 -0.00000000000E+00 -0.45593999997E+02  0.45594000000E+02  0.51100000000E-03 0. -1.
    9900012    2    1    2    0    0  0.18558807040E+02  0.16863463530E+02  0.32005618089E+02  0.50528864369E+02  0.30000013736E+02 0.  0.
         12    1    1    2    0    0 -0.18558807040E+02 -0.16863463530E+02 -0.32005618089E+02  0.40659135631E+02  0.00000000000E+00 0. -1.
         11    1    3    3    0    0  0.11596823105E+02  0.18056050245E+02  0.22728307085E+02  0.31258330086E+02  0.51100000000E-03 0. -1.
        -11    1    3    3    0    0 -0.19699171286E+01 -0.51825982581E+01  0.75015453402E+01  0.93280802393E+01  0.51100000000E-03 0.  1.
        -12    1    3    3    0    0  0.89319010632E+01  0.39900115434E+01  0.17757656645E+01  0.99424540438E+01  0.00000000000E+00 0.  1.
</event>
<event>
 7    1  0.3054835E-011  0.5052886E+02  0.7816164E-02  0.1300439E+00
        -11   -1    0    0    0    0  0.00000000000E+00  0.00000000000E+00  0.45593999997E+02  0.45594000000E+02  0.51100000000E-03 0. -1.
         11   -1    0    0    0    0 -0.00000000000E+00 -0.00000000000E+00 -0.45593999997E+02  0.45594000000E+02  0.51100000000E-03 0.  1.
    9900012    2    1    2    0    0 -0.27919070179E+02  0.17124514861E+02 -0.24092368137E+02  0.50528859683E+02  0.29999999492E+02 0.  0.
         12    1    1    2    0    0  0.27919070179E+02 -0.17124514861E+02  0.24092368137E+02  0.40659140317E+02  0.00000000000E+00 0. -1.
         11    1    3    3    0    0  0.28460480924E+01 -0.50648397138E+01 -0.67637140437E+00  0.58489374769E+01  0.51100000000E-03 0. -1.
        -11    1    3    3    0    0 -0.22669538825E+02  0.17760862390E+02 -0.17014602307E+02  0.33449258816E+02  0.51100000000E-03 0.  1.
        -12    1    3    3    0    0 -0.80955794460E+01  0.44284921854E+01 -0.64013944251E+01  0.11230663390E+02  0.00000000000E+00 0.  1.
</event>
<event>
 7    1  0.3054835E-011  0.5052877E+02  0.7816164E-02  0.1300439E+00
        -11   -1    0    0    0    0  0.00000000000E+00  0.00000000000E+00  0.45593999997E+02  0.45594000000E+02  0.51100000000E-03 0.  1.
         11   -1    0    0    0    0 -0.00000000000E+00 -0.00000000000E+00 -0.45593999997E+02  0.45594000000E+02  0.51100000000E-03 0. -1.
    9900012    2    1    2    0    0  0.36177462945E+02 -0.35895053145E+01  0.18206576796E+02  0.50528772115E+02  0.29999733321E+02 0.  0.
         12    1    1    2    0    0 -0.36177462945E+02  0.35895053145E+01 -0.18206576796E+02  0.40659227885E+02  0.00000000000E+00 0. -1.
         11    1    3    3    0    0  0.15193290850E+02  0.79826578407E+01  0.32297538113E+01  0.17463969279E+02  0.51100000000E-03 0.  1.
        -11    1    3    3    0    0  0.69807419127E+01 -0.13380241747E+02  0.99517868782E+01  0.18077601865E+02  0.51100000000E-03 0. -1.
         12    1    3    3    0    0  0.14003430183E+02  0.18080785917E+01  0.50250361062E+01  0.14987200971E+02  0.00000000000E+00 0. -1.
</event>
<event>
 7    1  0.3054835E-011  0.5052887E+02  0.7816164E-02  0.1300439E+00
        -11   -1    0    0    0    0  0.00000000000E+00  0.00000000000E+00  0.45593999997E+02  0.45594000000E+02  0.51100000000E-03 0.  1.
         11   -1    0    0    0    0 -0.00000000000E+00 -0.00000000000E+00 -0.45593999997E+02  0.45594000000E+02  0.51100000000E-03 0. -1.
    9900012    2    1    2    0    0  0.11405927893E+02  0.27989670761E+02  0.27196465900E+02  0.50528872883E+02  0.30000039616E+02 0.  0.
         12    1    1    2    0    0 -0.11405927893E+02 -0.27989670761E+02 -0.27196465900E+02  0.40659127117E+02  0.00000000000E+00 0. -1.
         11    1    3    3    0    0  0.15051437581E+02  0.11244395721E+02  0.59371344138E+01  0.19703597988E+02  0.51100000000E-03 0. -1.
        -11    1    3    3    0    0 -0.52693662557E+01  0.12157841408E+02  0.55263491505E+01  0.14356875135E+02  0.51100000000E-03 0.  1.
         12    1    3    3    0    0  0.16238565681E+01  0.45874336322E+01  0.15732982336E+02  0.16468399760E+02  0.00000000000E+00 0. -1.
</event>
<event>
 7    1  0.3054835E-011  0.5052886E+02  0.7816164E-02  0.1300439E+00
        -11   -1    0    0    0    0  0.00000000000E+00  0.00000000000E+00  0.45593999997E+02  0.45594000000E+02  0.51100000000E-03 0.  1.
         11   -1    0    0    0    0 -0.00000000000E+00 -0.00000000000E+00 -0.45593999997E+02  0.45594000000E+02  0.51100000000E-03 0. -1.
    9900012    2    1    2    0    0  0.20480964258E+01 -0.40093540665E+02  0.64404087182E+01  0.50528861218E+02  0.30000004158E+02 0.  0.
         12    1    1    2    0    0 -0.20480964258E+01  0.40093540665E+02 -0.64404087182E+01  0.40659138782E+02  0.00000000000E+00 0. -1.
         11    1    3    3    0    0  0.11762974071E+01 -0.36179046749E+01  0.41159328731E+01  0.56048027177E+01  0.51100000000E-03 0. -1.
        -11    1    3    3    0    0 -0.81557721442E+01 -0.18616485285E+02 -0.86642036240E+01  0.22094310769E+02  0.51100000000E-03 0.  1.
        -12    1    3    3    0    0  0.90275711630E+01 -0.17859150705E+02  0.10988679469E+02  0.22829747731E+02  0.00000000000E+00 0.  1.
</event>
<event>
 7    1  0.3054835E-011  0.5052888E+02  0.7816164E-02  0.1300439E+00
        -11   -1    0    0    0    0  0.00000000000E+00  0.00000000000E+00  0.45593999997E+02  0.45594000000E+02  0.51100000000E-03 0.  1.
         11   -1    0    0    0    0 -0.00000000000E+00 -0.00000000000E+00 -0.45593999997E+02  0.45594000000E+02  0.51100000000E-03 0. -1.
    9900012    2    1    2    0    0  0.32172694324E+02 -0.61333246984E+01  0.24092829384E+02  0.50528876059E+02  0.30000049268E+02 0.  0.
         12    1    1    2    0    0 -0.32172694324E+02  0.61333246984E+01 -0.24092829384E+02  0.40659123941E+02  0.00000000000E+00 0. -1.
         11    1    3    3    0    0 -0.82444377297E+00 -0.56021320744E+00 -0.33940097331E+01  0.35373505201E+01  0.51100000000E-03 0. -1.
        -11    1    3    3    0    0  0.20430116232E+02  0.83887903721E+00  0.25590793602E+02  0.32756405248E+02  0.51100000000E-03 0.  1.
        -12    1    3    3    0    0  0.12567021866E+02 -0.64119905281E+01  0.18960455149E+01  0.14235120291E+02  0.00000000000E+00 0.  1.
</event>
<event>
 7    1  0.3054835E-011  0.5052886E+02  0.7816164E-02  0.1300439E+00
        -11   -1    0    0    0    0  0.00000000000E+00  0.00000000000E+00  0.45593999997E+02  0.45594000000E+02  0.51100000000E-03 0.  1.
         11   -1    0    0    0    0 -0.00000000000E+00 -0.00000000000E+00 -0.45593999997E+02  0.45594000000E+02  0.51100000000E-03 0. -1.
    9900012    2    1    2    0    0  0.37645190552E+02  0.14905200194E+02  0.37202876800E+01  0.50528857056E+02  0.29999991506E+02 0.  0.
         12    1    1    2    0    0 -0.37645190552E+02 -0.14905200194E+02 -0.37202876800E+01  0.40659142944E+02  0.00000000000E+00 0. -1.
         11    1    3    3    0    0  0.49247637155E+01 -0.53427021906E+01 -0.29219881548E+01  0.78317162480E+01  0.51100000000E-03 0. -1.
        -11    1    3    3    0    0  0.85991934050E+01  0.12410361158E+02  0.83925980664E+01  0.17274226288E+02  0.51100000000E-03 0.  1.
        -12    1    3    3    0    0  0.24121233432E+02  0.78375412268E+01 -0.17503222315E+01  0.25422914519E+02  0.00000000000E+00 0.  1.
</event>
<event>
 7    1  0.3054835E-011  0.5052886E+02  0.7816164E-02  0.1300439E+00
        -11   -1    0    0    0    0  0.00000000000E+00  0.00000000000E+00  0.45593999997E+02  0.45594000000E+02  0.51100000000E-03 0.  1.
         11   -1    0    0    0    0 -0.00000000000E+00 -0.00000000000E+00 -0.45593999997E+02  0.45594000000E+02  0.51100000000E-03 0. -1.
    9900012    2    1    2    0    0  0.22050443566E+02  0.22352652647E+02 -0.25832201338E+02  0.50528858743E+02  0.29999996636E+02 0.  0.
         12    1    1    2    0    0 -0.22050443566E+02 -0.22352652647E+02  0.25832201338E+02  0.40659141257E+02  0.00000000000E+00 0. -1.
         11    1    3    3    0    0 -0.17264241801E+01  0.51464437477E+00 -0.48544672278E+01  0.51779582471E+01  0.51100000000E-03 0. -1.
        -11    1    3    3    0    0  0.24806922005E+02  0.14089899274E+02 -0.23684555546E+02  0.37079196493E+02  0.51100000000E-03 0.  1.
        -12    1    3    3    0    0 -0.10300542589E+01  0.77481089983E+01  0.27068214361E+01  0.82717040030E+01  0.00000000000E+00 0.  1.
</event>
<event>
 7    1  0.3054835E-011  0.5052886E+02  0.7816164E-02  0.1300439E+00
        -11   -1    0    0    0    0  0.00000000000E+00  0.00000000000E+00  0.45593999997E+02  0.45594000000E+02  0.51100000000E-03 0.  1.
         11   -1    0    0    0    0 -0.00000000000E+00 -0.00000000000E+00 -0.45593999997E+02  0.45594000000E+02  0.51100000000E-03 0. -1.
    9900012    2    1    2    0    0 -0.12136550099E+02 -0.89155884820E+01  0.37767472969E+02  0.50528861043E+02  0.30000003626E+02 0.  0.
         12    1    1    2    0    0  0.12136550099E+02  0.89155884820E+01 -0.37767472969E+02  0.40659138957E+02  0.00000000000E+00 0. -1.
         11    1    3    3    0    0 -0.10672928383E+02  0.38851432724E+01  0.62632718183E+01  0.12970517054E+02  0.51100000000E-03 0. -1.
        -11    1    3    3    0    0 -0.43146819757E+01 -0.13940294031E+02  0.31235616649E+02  0.34476253072E+02  0.51100000000E-03 0.  1.
        -12    1    3    3    0    0  0.28510602595E+01  0.11395622764E+01  0.26858450189E+00  0.30820909168E+01  0.00000000000E+00 0.  1.
</event>
<event>
 7    1  0.3054835E-011  0.5052887E+02  0.7816164E-02  0.1300439E+00
        -11   -1    0    0    0    0  0.00000000000E+00  0.00000000000E+00  0.45593999997E+02  0.45594000000E+02  0.51100000000E-03 0.  1.
         11   -1    0    0    0    0 -0.00000000000E+00 -0.00000000000E+00 -0.45593999997E+02  0.45594000000E+02  0.51100000000E-03 0. -1.
    9900012    2    1    2    0    0 -0.11887746870E+02 -0.16564638655E+02  0.35177542196E+02  0.50528865056E+02  0.30000015825E+02 0.  0.
         12    1    1    2    0    0  0.11887746870E+02  0.16564638655E+02 -0.35177542196E+02  0.40659134944E+02  0.00000000000E+00 0. -1.
         11    1    3    3    0    0 -0.95561218020E+01 -0.18397654310E+01  0.46598604640E+01  0.10789740522E+02  0.51100000000E-03 0. -1.
        -11    1    3    3    0    0  0.33434182186E+01 -0.13932305378E+02  0.30833937336E+02  0.34000283387E+02  0.51100000000E-03 0.  1.
        -12    1    3    3    0    0 -0.56750432868E+01 -0.79256784615E+00 -0.31625560398E+00  0.57388411465E+01  0.00000000000E+00 0.  1.
</event>
<event>
 7    1  0.3054835E-011  0.5052885E+02  0.7816164E-02  0.1300439E+00
        -11   -1    0    0    0    0  0.00000000000E+00  0.00000000000E+00  0.45593999997E+02  0.45594000000E+02  0.51100000000E-03 0.  1.
         11   -1    0    0    0    0 -0.00000000000E+00 -0.00000000000E+00 -0.45593999997E+02  0.45594000000E+02  0.51100000000E-03 0. -1.
    9900012    2    1    2    0    0 -0.15600323866E+02 -0.30980501479E+02  0.21213316924E+02  0.50528851072E+02  0.29999973319E+02 0.  0.
         12    1    1    2    0    0  0.15600323866E+02  0.30980501479E+02 -0.21213316924E+02  0.40659148928E+02  0.00000000000E+00 0. -1.
         11    1    3    3    0    0 -0.45548817977E+01 -0.34229376844E+01  0.15922935780E+02  0.16911633118E+02  0.51100000000E-03 0. -1.
        -11    1    3    3    0    0 -0.10218328643E+02 -0.72495361399E+01 -0.31788049701E+00  0.12532799478E+02  0.51100000000E-03 0.  1.
        -12    1    3    3    0    0 -0.82711342556E+00 -0.20308027655E+02  0.56082616406E+01  0.21084418476E+02  0.00000000000E+00 0.  1.
</event>
<event>
 7    1  0.3054835E-011  0.5052886E+02  0.7816164E-02  0.1300439E+00
        -11   -1    0    0    0    0  0.00000000000E+00  0.00000000000E+00  0.45593999997E+02  0.45594000000E+02  0.51100000000E-03 0. -1.
         11   -1    0    0    0    0 -0.00000000000E+00 -0.00000000000E+00 -0.45593999997E+02  0.45594000000E+02  0.51100000000E-03 0.  1.
    9900012    2    1    2    0    0 -0.62370297950E+01  0.24406279858E+02 -0.31915493674E+02  0.50528858671E+02  0.29999996417E+02 0.  0.
         12    1    1    2    0    0  0.62370297950E+01 -0.24406279858E+02  0.31915493674E+02  0.40659141329E+02  0.00000000000E+00 0. -1.
         11    1    3    3    0    0 -0.11783220676E+02  0.15717857560E+02 -0.25231016805E+02  0.31976546797E+02  0.51100000000E-03 0. -1.
        -11    1    3    3    0    0  0.69886545495E+01  0.11718185989E+02 -0.38959451098E+01  0.14189276367E+02  0.51100000000E-03 0.  1.
        -12    1    3    3    0    0 -0.14424636685E+01 -0.30297636914E+01 -0.27885317587E+01  0.43630355064E+01  0.00000000000E+00 0.  1.
</event>
<event>
 7    1  0.3054835E-011  0.5052886E+02  0.7816164E-02  0.1300439E+00
        -11   -1    0    0    0    0  0.00000000000E+00  0.00000000000E+00  0.45593999997E+02  0.45594000000E+02  0.51100000000E-03 0.  1.
         11   -1    0    0    0    0 -0.00000000000E+00 -0.00000000000E+00 -0.45593999997E+02  0.45594000000E+02  0.51100000000E-03 0. -1.
    9900012    2    1    2    0    0  0.30587224449E+02  0.62159612757E+01  0.26056651554E+02  0.50528861245E+02  0.30000004242E+02 0.  0.
         12    1    1    2    0    0 -0.30587224449E+02 -0.62159612757E+01 -0.26056651554E+02  0.40659138755E+02  0.00000000000E+00 0. -1.
         11    1    3    3    0    0 -0.81521698437E+00 -0.15759937152E+01  0.10168958700E+02  0.10322599296E+02  0.51100000000E-03 0. -1.
        -11    1    3    3    0    0  0.32135025396E+02  0.98911188352E+01  0.17048570074E+02  0.37698114420E+02  0.51100000000E-03 0.  1.
        -12    1    3    3    0    0 -0.73258396266E+00 -0.20991638443E+01 -0.11608772204E+01  0.25081475292E+01  0.00000000000E+00 0.  1.
</event>
<event>
 7    1  0.3054835E-011  0.5052882E+02  0.7816164E-02  0.1300439E+00
        -11   -1    0    0    0    0  0.00000000000E+00  0.00000000000E+00  0.45593999997E+02  0.45594000000E+02  0.51100000000E-03 0. -1.
         11   -1    0    0    0    0 -0.00000000000E+00 -0.00000000000E+00 -0.45593999997E+02  0.45594000000E+02  0.51100000000E-03 0.  1.
    9900012    2    1    2    0    0  0.18446471304E+02 -0.20936271682E+02 -0.29573115641E+02  0.50528819681E+02  0.29999877901E+02 0.  0.
         12    1    1    2    0    0 -0.18446471304E+02  0.20936271682E+02  0.29573115641E+02  0.40659180319E+02  0.00000000000E+00 0. -1.
         11    1    3    3    0    0 -0.31545274640E+01 -0.12419393252E+02 -0.73200896078E+00  0.12834648793E+02  0.51100000000E-03 0. -1.
        -11    1    3    3    0    0  0.13891729543E+02 -0.61481941997E+01 -0.23630632070E+02  0.28092476108E+02  0.51100000000E-03 0.  1.
         12    1    3    3    0    0  0.77092692251E+01 -0.23686842304E+01 -0.52104746109E+01  0.96016947795E+01  0.00000000000E+00 0. -1.
</event>
<event>
 7    1  0.3054835E-011  0.5052887E+02  0.7816164E-02  0.1300439E+00
        -11   -1    0    0    0    0  0.00000000000E+00  0.00000000000E+00  0.45593999997E+02  0.45594000000E+02  0.51100000000E-03 0.  1.
         11   -1    0    0    0    0 -0.00000000000E+00 -0.00000000000E+00 -0.45593999997E+02  0.45594000000E+02  0.51100000000E-03 0. -1.
    9900012    2    1    2    0    0  0.30142898586E+02 -0.27107859646E+02  0.31200541915E+01  0.50528866611E+02  0.30000020552E+02 0.  0.
         12    1    1    2    0    0 -0.30142898586E+02  0.27107859646E+02 -0.31200541915E+01  0.40659133389E+02  0.00000000000E+00 0. -1.
         11    1    3    3    0    0  0.16296983293E+02 -0.26324094181E+02 -0.20579357991E+01  0.31028772114E+02  0.51100000000E-03 0. -1.
        -11    1    3    3    0    0  0.10967582483E+02 -0.55938652037E+01  0.62275565747E+01  0.13797161106E+02  0.51100000000E-03 0.  1.
         12    1    3    3    0    0  0.28783328092E+01  0.48100997378E+01 -0.10495665841E+01  0.57029333910E+01  0.00000000000E+00 0. -1.
</event>
<event>
 7    1  0.3054835E-011  0.5052888E+02  0.7816164E-02  0.1300439E+00
        -11   -1    0    0    0    0  0.00000000000E+00  0.00000000000E+00  0.45593999997E+02  0.45594000000E+02  0.51100000000E-03 0. -1.
         11   -1    0    0    0    0 -0.00000000000E+00 -0.00000000000E+00 -0.45593999997E+02  0.45594000000E+02  0.51100000000E-03 0.  1.
    9900012    2    1    2    0    0  0.25941380917E+02 -0.16084219005E+02 -0.26860870609E+02  0.50528883989E+02  0.30000073374E+02 0.  0.
         12    1    1    2    0    0 -0.25941380917E+02  0.16084219005E+02  0.26860870609E+02  0.40659116011E+02  0.00000000000E+00 0. -1.
         11    1    3    3    0    0  0.23305105751E+01 -0.51470013009E+01  0.66391247792E+00  0.56889086802E+01  0.51100000000E-03 0. -1.
        -11    1    3    3    0    0  0.18873670986E+02 -0.10115513394E+02 -0.31845772316E+02  0.38375673055E+02  0.51100000000E-03 0.  1.
        -12    1    3    3    0    0  0.47371993562E+01 -0.82170430977E+00  0.43209892296E+01  0.64643022543E+01  0.00000000000E+00 0.  1.
</event>
<event>
 7    1  0.3054835E-011  0.5052886E+02  0.7816164E-02  0.1300439E+00
        -11   -1    0    0    0    0  0.00000000000E+00  0.00000000000E+00  0.45593999997E+02  0.45594000000E+02  0.51100000000E-03 0.  1.
         11   -1    0    0    0    0 -0.00000000000E+00 -0.00000000000E+00 -0.45593999997E+02  0.45594000000E+02  0.51100000000E-03 0. -1.
    9900012    2    1    2    0    0  0.13269861516E+02 -0.92213750341E+01  0.37310083626E+02  0.50528864220E+02  0.30000013284E+02 0.  0.
         12    1    1    2    0    0 -0.13269861516E+02  0.92213750341E+01 -0.37310083626E+02  0.40659135780E+02  0.00000000000E+00 0. -1.
         11    1    3    3    0    0 -0.14474680959E+01  0.65577018081E+01  0.97403787656E+01  0.11831043726E+02  0.51100000000E-03 0. -1.
        -11    1    3    3    0    0  0.11479282505E+02 -0.19144120580E+02  0.21079035694E+02  0.30701743040E+02  0.51100000000E-03 0.  1.
        -12    1    3    3    0    0  0.32380471069E+01  0.33650437382E+01  0.64906691665E+01  0.79960774543E+01  0.00000000000E+00 0.  1.
</event>
<event>
 7    1  0.3054835E-011  0.5052886E+02  0.7816164E-02  0.1300439E+00
        -11   -1    0    0    0    0  0.00000000000E+00  0.00000000000E+00  0.45593999997E+02  0.45594000000E+02  0.51100000000E-03 0.  1.
         11   -1    0    0    0    0 -0.00000000000E+00 -0.00000000000E+00 -0.45593999997E+02  0.45594000000E+02  0.51100000000E-03 0. -1.
    9900012    2    1    2    0    0  0.36879108069E+01  0.40168069389E+02  0.51079249789E+01  0.50528863485E+02  0.30000011049E+02 0.  0.
         12    1    1    2    0    0 -0.36879108069E+01 -0.40168069389E+02 -0.51079249789E+01  0.40659136515E+02  0.00000000000E+00 0. -1.
         11    1    3    3    0    0 -0.10180124517E+02  0.18040300204E+02 -0.49702742222E+00  0.20720386173E+02  0.51100000000E-03 0. -1.
        -11    1    3    3    0    0  0.15837998334E+02  0.20370250911E+02  0.71166179906E+01  0.26766314003E+02  0.51100000000E-03 0.  1.
         12    1    3    3    0    0 -0.19699630106E+01  0.17575182744E+01 -0.15116655895E+01  0.30421633096E+01  0.00000000000E+00 0. -1.
</event>
<event>
 7    1  0.3054835E-011  0.5052885E+02  0.7816164E-02  0.1300439E+00
        -11   -1    0    0    0    0  0.00000000000E+00  0.00000000000E+00  0.45593999997E+02  0.45594000000E+02  0.51100000000E-03 0.  1.
         11   -1    0    0    0    0 -0.00000000000E+00 -0.00000000000E+00 -0.45593999997E+02  0.45594000000E+02  0.51100000000E-03 0. -1.
    9900012    2    1    2    0    0  0.14554072842E+02  0.13356898439E+02  0.35537852954E+02  0.50528846482E+02  0.29999959368E+02 0.  0.
         12    1    1    2    0    0 -0.14554072842E+02 -0.13356898439E+02 -0.35537852954E+02  0.40659153518E+02  0.00000000000E+00 0. -1.
         11    1    3    3    0    0 -0.69143412470E+01  0.78264148093E+01  0.11768785240E+02  0.15734204458E+02  0.51100000000E-03 0. -1.
        -11    1    3    3    0    0  0.14971439105E+02 -0.17861615089E+01  0.17821624691E+02  0.23344049964E+02  0.51100000000E-03 0.  1.
         12    1    3    3    0    0  0.64969749837E+01  0.73166451389E+01  0.59474430235E+01  0.11450592061E+02  0.00000000000E+00 0. -1.
</event>
<event>
 7    1  0.3054835E-011  0.5052885E+02  0.7816164E-02  0.1300439E+00
        -11   -1    0    0    0    0  0.00000000000E+00  0.00000000000E+00  0.45593999997E+02  0.45594000000E+02  0.51100000000E-03 0.  1.
         11   -1    0    0    0    0 -0.00000000000E+00 -0.00000000000E+00 -0.45593999997E+02  0.45594000000E+02  0.51100000000E-03 0. -1.
    9900012    2    1    2    0    0 -0.15369515640E+02  0.85345459654E+01  0.36662047811E+02  0.50528852990E+02  0.29999979149E+02 0.  0.
         12    1    1    2    0    0  0.15369515640E+02 -0.85345459654E+01 -0.36662047811E+02  0.40659147010E+02  0.00000000000E+00 0. -1.
         11    1    3    3    0    0 -0.49595066820E+00  0.15363855553E+02  0.12728614428E+02  0.19957746617E+02  0.51100000000E-03 0. -1.
        -11    1    3    3    0    0 -0.71296264859E+01  0.18195153517E+00  0.42901906958E+01  0.83228851162E+01  0.51100000000E-03 0.  1.
         12    1    3    3    0    0 -0.77439384859E+01 -0.70112611227E+01  0.19643242687E+02  0.22248221256E+02  0.00000000000E+00 0. -1.
</event>
<event>
 7    1  0.3054835E-011  0.5052886E+02  0.7816164E-02  0.1300439E+00
        -11   -1    0    0    0    0  0.00000000000E+00  0.00000000000E+00  0.45593999997E+02  0.45594000000E+02  0.51100000000E-03 0. -1.
         11   -1    0    0    0    0 -0.00000000000E+00 -0.00000000000E+00 -0.45593999997E+02  0.45594000000E+02  0.51100000000E-03 0.  1.
    9900012    2    1    2    0    0  0.48400141652E+01 -0.24860668942E+02 -0.31807028329E+02  0.50528860209E+02  0.30000001093E+02 0.  0.
         12    1    1    2    0    0 -0.48400141652E+01  0.24860668942E+02  0.31807028329E+02  0.40659139791E+02  0.00000000000E+00 0. -1.
         11    1    3    3    0    0  0.10873205001E+02 -0.55065487137E+01 -0.22084044713E+01  0.12386513485E+02  0.51100000000E-03 0. -1.
        -11    1    3    3    0    0 -0.50334081753E+01 -0.13445171537E+02 -0.96133183289E+01  0.17277839132E+02  0.51100000000E-03 0.  1.
         12    1    3    3    0    0 -0.99978266049E+00 -0.59089486915E+01 -0.19985305529E+02  0.20864507593E+02  0.00000000000E+00 0. -1.
</event>
<event>
 7    1  0.3054835E-011  0.5052886E+02  0.7816164E-02  0.1300439E+00
        -11   -1    0    0    0    0  0.00000000000E+00  0.00000000000E+00  0.45593999997E+02  0.45594000000E+02  0.51100000000E-03 0.  1.
         11   -1    0    0    0    0 -0.00000000000E+00 -0.00000000000E+00 -0.45593999997E+02  0.45594000000E+02  0.51100000000E-03 0. -1.
    9900012    2    1    2    0    0 -0.41125255359E+01  0.40022705508E+02  0.58682193808E+01  0.50528858087E+02  0.29999994640E+02 0.  0.
         12    1    1    2    0    0  0.41125255359E+01 -0.40022705508E+02 -0.58682193808E+01  0.40659141913E+02  0.00000000000E+00 0. -1.
         11    1    3    3    0    0  0.18219248664E+01 -0.24149614478E+01  0.32444980749E+01  0.44360136420E+01  0.51100000000E-03 0. -1.
        -11    1    3    3    0    0 -0.10001341356E+02  0.15017992064E+02  0.34062102608E+01  0.18362167169E+02  0.51100000000E-03 0.  1.
        -12    1    3    3    0    0  0.40668909536E+01  0.27419674892E+02 -0.78248895500E+00  0.27730677275E+02  0.00000000000E+00 0.  1.
</event>
<event>
 7    1  0.3054835E-011  0.5052886E+02  0.7816164E-02  0.1300439E+00
        -11   -1    0    0    0    0  0.00000000000E+00  0.00000000000E+00  0.45593999997E+02  0.45594000000E+02  0.51100000000E-03 0.  1.
         11   -1    0    0    0    0 -0.00000000000E+00 -0.00000000000E+00 -0.45593999997E+02  0.45594000000E+02  0.51100000000E-03 0. -1.
    9900012    2    1    2    0    0  0.18751354873E+02  0.13653804346E+02  0.33393500974E+02  0.50528860929E+02  0.30000003280E+02 0.  0.
         12    1    1    2    0    0 -0.18751354873E+02 -0.13653804346E+02 -0.33393500974E+02  0.40659139071E+02  0.00000000000E+00 0. -1.
         11    1    3    3    0    0  0.12819605344E+02  0.67313615611E+01 -0.90107727693E+00  0.14507427414E+02  0.51100000000E-03 0. -1.
        -11    1    3    3    0    0  0.43136412679E+01  0.89630415321E+00  0.18977830236E+02  0.19482528143E+02  0.51100000000E-03 0.  1.
         12    1    3    3    0    0  0.16181082609E+01  0.60261386317E+01  0.15316748015E+02  0.16538905372E+02  0.00000000000E+00 0. -1.
</event>
<event>
 7    1  0.3054835E-011  0.5052886E+02  0.7816164E-02  0.1300439E+00
        -11   -1    0    0    0    0  0.00000000000E+00  0.00000000000E+00  0.45593999997E+02  0.45594000000E+02  0.51100000000E-03 0. -1.
         11   -1    0    0    0    0 -0.00000000000E+00 -0.00000000000E+00 -0.45593999997E+02  0.45594000000E+02  0.51100000000E-03 0.  1.
    9900012    2    1    2    0    0 -0.31943848368E+02  0.21059621983E+02 -0.13756774189E+02  0.50528856345E+02  0.29999989347E+02 0.  0.
         12    1    1    2    0    0  0.31943848368E+02 -0.21059621983E+02  0.13756774189E+02  0.40659143655E+02  0.00000000000E+00 0. -1.
         11    1    3    3    0    0 -0.54718792037E+01  0.83868200437E+01 -0.12490302564E+02  0.16008993437E+02  0.51100000000E-03 0. -1.
        -11    1    3    3    0    0 -0.28910336190E+02  0.11857122045E+02 -0.30421541426E+01  0.31395120384E+02  0.51100000000E-03 0.  1.
        -12    1    3    3    0    0  0.24383670255E+01  0.81567989435E+00  0.17756825173E+01  0.31247425243E+01  0.00000000000E+00 0.  1.
</event>
<event>
 7    1  0.3054835E-011  0.5052886E+02  0.7816164E-02  0.1300439E+00
        -11   -1    0    0    0    0  0.00000000000E+00  0.00000000000E+00  0.45593999997E+02  0.45594000000E+02  0.51100000000E-03 0.  1.
         11   -1    0    0    0    0 -0.00000000000E+00 -0.00000000000E+00 -0.45593999997E+02  0.45594000000E+02  0.51100000000E-03 0. -1.
    9900012    2    1    2    0    0 -0.10115385675E+02 -0.27139796392E+02  0.28535524550E+02  0.50528859122E+02  0.29999997788E+02 0.  0.
         12    1    1    2    0    0  0.10115385675E+02  0.27139796392E+02 -0.28535524550E+02  0.40659140878E+02  0.00000000000E+00 0. -1.
         11    1    3    3    0    0 -0.61289282795E+01 -0.18812074957E+02  0.18659718289E+02  0.27196378673E+02  0.51100000000E-03 0. -1.
        -11    1    3    3    0    0 -0.95671381890E+01  0.16205192417E+01  0.39283874569E+01  0.10468449934E+02  0.51100000000E-03 0.  1.
         12    1    3    3    0    0  0.55806807931E+01 -0.99482406767E+01  0.59474188045E+01  0.12864030516E+02  0.00000000000E+00 0. -1.
</event>
<event>
 7    1  0.3054835E-011  0.5052885E+02  0.7816164E-02  0.1300439E+00
        -11   -1    0    0    0    0  0.00000000000E+00  0.00000000000E+00  0.45593999997E+02  0.45594000000E+02  0.51100000000E-03 0.  1.
         11   -1    0    0    0    0 -0.00000000000E+00 -0.00000000000E+00 -0.45593999997E+02  0.45594000000E+02  0.51100000000E-03 0. -1.
    9900012    2    1    2    0    0  0.26795455044E+02  0.91106502421E+01  0.29191884421E+02  0.50528850047E+02  0.29999970203E+02 0.  0.
         12    1    1    2    0    0 -0.26795455044E+02 -0.91106502421E+01 -0.29191884421E+02  0.40659149953E+02  0.00000000000E+00 0. -1.
         11    1    3    3    0    0  0.25208116208E+02  0.32013149939E+01  0.29205092312E+02  0.38712206830E+02  0.51100000000E-03 0. -1.
        -11    1    3    3    0    0  0.19330908494E+01  0.54767917482E+01  0.44515501656E+01  0.73176763541E+01  0.51100000000E-03 0.  1.
         12    1    3    3    0    0 -0.34575201328E+00  0.43254350001E+00 -0.44647580565E+01  0.44989668633E+01  0.00000000000E+00 0. -1.
</event>
<event>
 7    1  0.3054835E-011  0.5052887E+02  0.7816164E-02  0.1300439E+00
        -11   -1    0    0    0    0  0.00000000000E+00  0.00000000000E+00  0.45593999997E+02  0.45594000000E+02  0.51100000000E-03 0.  1.
         11   -1    0    0    0    0 -0.00000000000E+00 -0.00000000000E+00 -0.45593999997E+02  0.45594000000E+02  0.51100000000E-03 0. -1.
    9900012    2    1    2    0    0 -0.14042185311E+02 -0.66894062124E+01  0.37566394486E+02  0.50528866728E+02  0.30000020906E+02 0.  0.
         12    1    1    2    0    0  0.14042185311E+02  0.66894062124E+01 -0.37566394486E+02  0.40659133272E+02  0.00000000000E+00 0. -1.
         11    1    3    3    0    0 -0.29048268128E+01 -0.20130091244E+01  0.28246012894E+00  0.35454207836E+01  0.51100000000E-03 0. -1.
        -11    1    3    3    0    0 -0.11364957767E+02 -0.18788216567E+01  0.40851253865E+02  0.42444283225E+02  0.51100000000E-03 0.  1.
        -12    1    3    3    0    0  0.22759926799E+00 -0.27975754314E+01 -0.35673195081E+01  0.45391627195E+01  0.00000000000E+00 0.  1.
</event>
<event>
 7    1  0.3054835E-011  0.5052886E+02  0.7816164E-02  0.1300439E+00
        -11   -1    0    0    0    0  0.00000000000E+00  0.00000000000E+00  0.45593999997E+02  0.45594000000E+02  0.51100000000E-03 0.  1.
         11   -1    0    0    0    0 -0.00000000000E+00 -0.00000000000E+00 -0.45593999997E+02  0.45594000000E+02  0.51100000000E-03 0. -1.
    9900012    2    1    2    0    0  0.88345857651E+01 -0.28573839054E+02  0.27543627125E+02  0.50528861063E+02  0.30000003687E+02 0.  0.
         12    1    1    2    0    0 -0.88345857651E+01  0.28573839054E+02 -0.27543627125E+02  0.40659138937E+02  0.00000000000E+00 0. -1.
         11    1    3    3    0    0 -0.10457537361E+01 -0.82996061856E+01  0.37378772431E+01  0.91623572436E+01  0.51100000000E-03 0. -1.
        -11    1    3    3    0    0  0.11440670198E+02 -0.11959331883E+02  0.27530890321E+02  0.32122647397E+02  0.51100000000E-03 0.  1.
        -12    1    3    3    0    0 -0.15603306967E+01 -0.83149009852E+01 -0.37251404388E+01  0.92438564228E+01  0.00000000000E+00 0.  1.
</event>
<event>
 7    1  0.3054835E-011  0.5052885E+02  0.7816164E-02  0.1300439E+00
        -11   -1    0    0    0    0  0.00000000000E+00  0.00000000000E+00  0.45593999997E+02  0.45594000000E+02  0.51100000000E-03 0.  1.
         11   -1    0    0    0    0 -0.00000000000E+00 -0.00000000000E+00 -0.45593999997E+02  0.45594000000E+02  0.51100000000E-03 0. -1.
    9900012    2    1    2    0    0 -0.40587598793E-01 -0.26335282307E+01  0.40573748792E+02  0.50528853313E+02  0.29999980130E+02 0.  0.
         12    1    1    2    0    0  0.40587598793E-01  0.26335282307E+01 -0.40573748792E+02  0.40659146687E+02  0.00000000000E+00 0. -1.
         11    1    3    3    0    0 -0.73261788367E+00  0.78720589067E+01 -0.12578691068E+00  0.79070767672E+01  0.51100000000E-03 0. -1.
        -11    1    3    3    0    0 -0.22860616528E+01 -0.54553203155E+01  0.12629707496E+02  0.13946186193E+02  0.51100000000E-03 0.  1.
         12    1    3    3    0    0  0.29780919377E+01 -0.50502668220E+01  0.28069828207E+02  0.28675590353E+02  0.00000000000E+00 0. -1.
</event>
<event>
 7    1  0.3054835E-011  0.5052885E+02  0.7816164E-02  0.1300439E+00
        -11   -1    0    0    0    0  0.00000000000E+00  0.00000000000E+00  0.45593999997E+02  0.45594000000E+02  0.51100000000E-03 0. -1.
         11   -1    0    0    0    0 -0.00000000000E+00 -0.00000000000E+00 -0.45593999997E+02  0.45594000000E+02  0.51100000000E-03 0.  1.
    9900012    2    1    2    0    0 -0.29682189061E+02  0.24982983275E+02  0.12164899876E+02  0.50528848634E+02  0.29999965909E+02 0.  0.
         12    1    1    2    0    0  0.29682189061E+02 -0.24982983275E+02 -0.12164899876E+02  0.40659151366E+02  0.00000000000E+00 0. -1.
         11    1    3    3    0    0 -0.95438948683E+01 -0.46150372945E+01  0.89387092635E+01  0.13866687494E+02  0.51100000000E-03 0. -1.
        -11    1    3    3    0    0 -0.13146412921E+02  0.20342189682E+02  0.55106559685E+01  0.24839488385E+02  0.51100000000E-03 0.  1.
         12    1    3    3    0    0 -0.69918812709E+01  0.92558308882E+01 -0.22844653560E+01  0.11822672756E+02  0.00000000000E+00 0. -1.
</event>
<event>
 7    1  0.3054835E-011  0.5052887E+02  0.7816164E-02  0.1300439E+00
        -11   -1    0    0    0    0  0.00000000000E+00  0.00000000000E+00  0.45593999997E+02  0.45594000000E+02  0.51100000000E-03 0.  1.
         11   -1    0    0    0    0 -0.00000000000E+00 -0.00000000000E+00 -0.45593999997E+02  0.45594000000E+02  0.51100000000E-03 0. -1.
    9900012    2    1    2    0    0  0.16230890728E+02  0.32919962800E+02  0.17492834761E+02  0.50528867784E+02  0.30000024117E+02 0.  0.
         12    1    1    2    0    0 -0.16230890728E+02 -0.32919962800E+02 -0.17492834761E+02  0.40659132216E+02  0.00000000000E+00 0. -1.
         11    1    3    3    0    0 -0.53553704657E+01 -0.34062374314E+00  0.37209850472E+01  0.65300648803E+01  0.51100000000E-03 0. -1.
        -11    1    3    3    0    0  0.13587498613E+02  0.23599426475E+02  0.15506201733E+02  0.31336804894E+02  0.51100000000E-03 0.  1.
        -12    1    3    3    0    0  0.79987625811E+01  0.96611600681E+01 -0.17343520196E+01  0.12661998011E+02  0.00000000000E+00 0.  1.
</event>
<event>
 7    1  0.3054835E-011  0.5052886E+02  0.7816164E-02  0.1300439E+00
        -11   -1    0    0    0    0  0.00000000000E+00  0.00000000000E+00  0.45593999997E+02  0.45594000000E+02  0.51100000000E-03 0.  1.
         11   -1    0    0    0    0 -0.00000000000E+00 -0.00000000000E+00 -0.45593999997E+02  0.45594000000E+02  0.51100000000E-03 0. -1.
    9900012    2    1    2    0    0  0.20498767263E+02  0.20270022587E+02  0.28672153169E+02  0.50528860286E+02  0.30000001325E+02 0.  0.
         12    1    1    2    0    0 -0.20498767263E+02 -0.20270022587E+02 -0.28672153169E+02  0.40659139714E+02  0.00000000000E+00 0. -1.
         11    1    3    3    0    0 -0.19658089024E+01  0.59954817502E+01 -0.43416598522E+00  0.63244530531E+01  0.51100000000E-03 0. -1.
        -11    1    3    3    0    0  0.11501963530E+02  0.13677915579E+02  0.27936174649E+02  0.33163389361E+02  0.51100000000E-03 0.  1.
        -12    1    3    3    0    0  0.10962612635E+02  0.59662525726E+00  0.11701445053E+01  0.11041017872E+02  0.00000000000E+00 0.  1.
</event>
<event>
 7    1  0.3054835E-011  0.5052887E+02  0.7816164E-02  0.1300439E+00
        -11   -1    0    0    0    0  0.00000000000E+00  0.00000000000E+00  0.45593999997E+02  0.45594000000E+02  0.51100000000E-03 0. -1.
         11   -1    0    0    0    0 -0.00000000000E+00 -0.00000000000E+00 -0.45593999997E+02  0.45594000000E+02  0.51100000000E-03 0.  1.
    9900012    2    1    2    0    0  0.19388055341E+02 -0.35682157473E+02  0.20129080290E+01  0.50528870022E+02  0.30000030918E+02 0.  0.
         12    1    1    2    0    0 -0.19388055341E+02  0.35682157473E+02 -0.20129080290E+01  0.40659129978E+02  0.00000000000E+00 0. -1.
         11    1    3    3    0    0 -0.59699474522E+01 -0.96523266448E+01 -0.54916025080E+01  0.12608147390E+02  0.51100000000E-03 0. -1.
        -11    1    3    3    0    0  0.19552903369E+02 -0.22976146558E+02  0.38567112272E+01  0.30415350772E+02  0.51100000000E-03 0.  1.
         12    1    3    3    0    0  0.58050994244E+01 -0.30536842701E+01  0.36477993098E+01  0.75053718598E+01  0.00000000000E+00 0. -1.
</event>
<event>
 7    1  0.3054835E-011  0.5052884E+02  0.7816164E-02  0.1300439E+00
        -11   -1    0    0    0    0  0.00000000000E+00  0.00000000000E+00  0.45593999997E+02  0.45594000000E+02  0.51100000000E-03 0. -1.
         11   -1    0    0    0    0 -0.00000000000E+00 -0.00000000000E+00 -0.45593999997E+02  0.45594000000E+02  0.51100000000E-03 0.  1.
    9900012    2    1    2    0    0  0.22668834116E+02 -0.87728851582E+01 -0.32593364049E+02  0.50528844399E+02  0.29999953034E+02 0.  0.
         12    1    1    2    0    0 -0.22668834116E+02  0.87728851582E+01  0.32593364049E+02  0.40659155601E+02  0.00000000000E+00 0. -1.
         11    1    3    3    0    0  0.21655508723E+01  0.42587577280E+01 -0.13669277010E+02  0.14480185158E+02  0.51100000000E-03 0. -1.
        -11    1    3    3    0    0  0.12448192440E+02 -0.53179994012E+01  0.61512537411E+00  0.13550534755E+02  0.51100000000E-03 0.  1.
        -12    1    3    3    0    0  0.80550908035E+01 -0.77136434850E+01 -0.19539212413E+02  0.22498124486E+02  0.00000000000E+00 0.  1.
</event>
<event>
 7    1  0.3054835E-011  0.5052890E+02  0.7816164E-02  0.1300439E+00
        -11   -1    0    0    0    0  0.00000000000E+00  0.00000000000E+00  0.45593999997E+02  0.45594000000E+02  0.51100000000E-03 0. -1.
         11   -1    0    0    0    0 -0.00000000000E+00 -0.00000000000E+00 -0.45593999997E+02  0.45594000000E+02  0.51100000000E-03 0.  1.
    9900012    2    1    2    0    0  0.69761510387E+01  0.38284726895E+02 -0.11780308421E+02  0.50528896920E+02  0.30000112678E+02 0.  0.
         12    1    1    2    0    0 -0.69761510387E+01 -0.38284726895E+02  0.11780308421E+02  0.40659103080E+02  0.00000000000E+00 0. -1.
         11    1    3    3    0    0  0.87417757289E+01  0.85271650021E+01  0.17185963275E+01  0.12332264977E+02  0.51100000000E-03 0. -1.
        -11    1    3    3    0    0 -0.24591702126E+01  0.23502757291E+02 -0.18618166762E+02  0.30084269182E+02  0.51100000000E-03 0.  1.
        -12    1    3    3    0    0  0.69354552238E+00  0.62548046022E+01  0.51192620128E+01  0.81123627606E+01  0.00000000000E+00 0.  1.
</event>
<event>
 7    1  0.3054835E-011  0.5052886E+02  0.7816164E-02  0.1300439E+00
        -11   -1    0    0    0    0  0.00000000000E+00  0.00000000000E+00  0.45593999997E+02  0.45594000000E+02  0.51100000000E-03 0.  1.
         11   -1    0    0    0    0 -0.00000000000E+00 -0.00000000000E+00 -0.45593999997E+02  0.45594000000E+02  0.51100000000E-03 0. -1.
    9900012    2    1    2    0    0 -0.36635878525E+02 -0.15232787770E+02 -0.88848552403E+01  0.50528855012E+02  0.29999985294E+02 0.  0.
         12    1    1    2    0    0  0.36635878525E+02  0.15232787770E+02  0.88848552403E+01  0.40659144988E+02  0.00000000000E+00 0. -1.
         11    1    3    3    0    0 -0.17784837195E+02 -0.13573602507E+02 -0.10562080007E+02  0.24740668007E+02  0.51100000000E-03 0. -1.
        -11    1    3    3    0    0 -0.33647353980E+01  0.70128603663E+01  0.20181350687E+01  0.80358275388E+01  0.51100000000E-03 0.  1.
        -12    1    3    3    0    0 -0.15486305931E+02 -0.86720456289E+01 -0.34091030228E+00  0.17752359466E+02  0.00000000000E+00 0.  1.
</event>
<event>
 7    1  0.3054835E-011  0.5052884E+02  0.7816164E-02  0.1300439E+00
        -11   -1    0    0    0    0  0.00000000000E+00  0.00000000000E+00  0.45593999997E+02  0.45594000000E+02  0.51100000000E-03 0.  1.
         11   -1    0    0    0    0 -0.00000000000E+00 -0.00000000000E+00 -0.45593999997E+02  0.45594000000E+02  0.51100000000E-03 0. -1.
    9900012    2    1    2    0    0 -0.22063866957E+02  0.48459372861E+01  0.33806357388E+02  0.50528841953E+02  0.29999945600E+02 0.  0.
         12    1    1    2    0    0  0.22063866957E+02 -0.48459372861E+01 -0.33806357388E+02  0.40659158047E+02  0.00000000000E+00 0. -1.
         11    1    3    3    0    0 -0.10863476643E+01 -0.66233041759E+01  0.22393970737E+00  0.67155386015E+01  0.51100000000E-03 0. -1.
        -11    1    3    3    0    0 -0.12424955469E+02  0.11247158674E+02  0.12044905580E+02  0.20638746264E+02  0.51100000000E-03 0.  1.
        -12    1    3    3    0    0 -0.85525638236E+01  0.22208278770E+00  0.21537512100E+02  0.23174557087E+02  0.00000000000E+00 0.  1.
</event>
<event>
 7    1  0.3054835E-011  0.5052895E+02  0.7816164E-02  0.1300438E+00
        -11   -1    0    0    0    0  0.00000000000E+00  0.00000000000E+00  0.45593999997E+02  0.45594000000E+02  0.51100000000E-03 0.  1.
         11   -1    0    0    0    0 -0.00000000000E+00 -0.00000000000E+00 -0.45593999997E+02  0.45594000000E+02  0.51100000000E-03 0. -1.
    9900012    2    1    2    0    0 -0.10562143718E+02 -0.22545375183E+02  0.32145065383E+02  0.50528953645E+02  0.30000285097E+02 0.  0.
         12    1    1    2    0    0  0.10562143718E+02  0.22545375183E+02 -0.32145065383E+02  0.40659046355E+02  0.00000000000E+00 0. -1.
         11    1    3    3    0    0 -0.62601247057E+01  0.30683687617E+01  0.39387085878E+01  0.80073387458E+01  0.51100000000E-03 0. -1.
        -11    1    3    3    0    0  0.90884385993E+00 -0.22539039457E+02  0.28638982714E+02  0.36455803763E+02  0.51100000000E-03 0.  1.
        -12    1    3    3    0    0 -0.52108628717E+01 -0.30747044879E+01 -0.43262591918E+00  0.60658111363E+01  0.00000000000E+00 0.  1.
</event>
<event>
 7    1  0.3054835E-011  0.5052886E+02  0.7816164E-02  0.1300439E+00
        -11   -1    0    0    0    0  0.00000000000E+00  0.00000000000E+00  0.45593999997E+02  0.45594000000E+02  0.51100000000E-03 0. -1.
         11   -1    0    0    0    0 -0.00000000000E+00 -0.00000000000E+00 -0.45593999997E+02  0.45594000000E+02  0.51100000000E-03 0.  1.
    9900012    2    1    2    0    0  0.29862794112E+02 -0.26835588206E+02 -0.64210825170E+01  0.50528861209E+02  0.30000004129E+02 0.  0.
         12    1    1    2    0    0 -0.29862794112E+02  0.26835588206E+02  0.64210825170E+01  0.40659138791E+02  0.00000000000E+00 0. -1.
         11    1    3    3    0    0  0.28103181903E+01  0.33161291345E+00  0.46621279063E+01  0.54537411317E+01  0.51100000000E-03 0. -1.
        -11    1    3    3    0    0  0.62065050614E+01 -0.20904531691E+02 -0.38880225597E+01  0.22150324377E+02  0.51100000000E-03 0.  1.
        -12    1    3    3    0    0  0.20845970861E+02 -0.62626694283E+01 -0.71951878636E+01  0.22924795700E+02  0.00000000000E+00 0.  1.
</event>
<event>
 7    1  0.3054835E-011  0.5052887E+02  0.7816164E-02  0.1300439E+00
        -11   -1    0    0    0    0  0.00000000000E+00  0.00000000000E+00  0.45593999997E+02  0.45594000000E+02  0.51100000000E-03 0. -1.
         11   -1    0    0    0    0 -0.00000000000E+00 -0.00000000000E+00 -0.45593999997E+02  0.45594000000E+02  0.51100000000E-03 0.  1.
    9900012    2    1    2    0    0  0.33779449398E+02 -0.14292712651E+02 -0.17545153472E+02  0.50528865148E+02  0.30000016105E+02 0.  0.
         12    1    1    2    0    0 -0.33779449398E+02  0.14292712651E+02  0.17545153472E+02  0.40659134852E+02  0.00000000000E+00 0. -1.
         11    1    3    3    0    0  0.36991324994E+01  0.67592815335E+01 -0.88372582968E+01  0.11724700532E+02  0.51100000000E-03 0. -1.
        -11    1    3    3    0    0  0.26033437886E+02 -0.13887692892E+02 -0.57549132082E+01  0.30062051299E+02  0.51100000000E-03 0.  1.
         12    1    3    3    0    0  0.40468790121E+01 -0.71643012927E+01 -0.29529819666E+01  0.87421133169E+01  0.00000000000E+00 0. -1.
</event>
<event>
 7    1  0.3054835E-011  0.5052884E+02  0.7816164E-02  0.1300439E+00
        -11   -1    0    0    0    0  0.00000000000E+00  0.00000000000E+00  0.45593999997E+02  0.45594000000E+02  0.51100000000E-03 0.  1.
         11   -1    0    0    0    0 -0.00000000000E+00 -0.00000000000E+00 -0.45593999997E+02  0.45594000000E+02  0.51100000000E-03 0. -1.
    9900012    2    1    2    0    0  0.28839136723E+01  0.98758402481E+01  0.39335960803E+02  0.50528843701E+02  0.29999950912E+02 0.  0.
         12    1    1    2    0    0 -0.28839136723E+01 -0.98758402481E+01 -0.39335960803E+02  0.40659156299E+02  0.00000000000E+00 0. -1.
         11    1    3    3    0    0  0.90737326830E+01  0.55865589364E+01  0.12407207701E+02  0.16354848478E+02  0.51100000000E-03 0.  1.
        -11    1    3    3    0    0 -0.11802259309E+02  0.43939261213E+01  0.92507007127E+01  0.15626111976E+02  0.51100000000E-03 0. -1.
        -12    1    3    3    0    0  0.56124402980E+01 -0.10464480959E+00  0.17678052390E+02  0.18547883247E+02  0.00000000000E+00 0.  1.
</event>
<event>
 7    1  0.3054835E-011  0.5052886E+02  0.7816164E-02  0.1300439E+00
        -11   -1    0    0    0    0  0.00000000000E+00  0.00000000000E+00  0.45593999997E+02  0.45594000000E+02  0.51100000000E-03 0. -1.
         11   -1    0    0    0    0 -0.00000000000E+00 -0.00000000000E+00 -0.45593999997E+02  0.45594000000E+02  0.51100000000E-03 0.  1.
    9900012    2    1    2    0    0 -0.56349423324E+01  0.16654220172E+02 -0.36661285398E+02  0.50528862384E+02  0.30000007702E+02 0.  0.
         12    1    1    2    0    0  0.56349423324E+01 -0.16654220172E+02  0.36661285398E+02  0.40659137616E+02  0.00000000000E+00 0. -1.
         11    1    3    3    0    0  0.19619786661E+01  0.85562274959E+01 -0.41502270815E+01  0.97099317370E+01  0.51100000000E-03 0. -1.
        -11    1    3    3    0    0 -0.65133022044E+01  0.19313264254E+01 -0.33758014230E+02  0.34434817444E+02  0.51100000000E-03 0.  1.
        -12    1    3    3    0    0 -0.10836187941E+01  0.61666662510E+01  0.12469559131E+01  0.63841132032E+01  0.00000000000E+00 0.  1.
</event>
<event>
 7    1  0.3054835E-011  0.5052885E+02  0.7816164E-02  0.1300439E+00
        -11   -1    0    0    0    0  0.00000000000E+00  0.00000000000E+00  0.45593999997E+02  0.45594000000E+02  0.51100000000E-03 0. -1.
         11   -1    0    0    0    0 -0.00000000000E+00 -0.00000000000E+00 -0.45593999997E+02  0.45594000000E+02  0.51100000000E-03 0.  1.
    9900012    2    1    2    0    0 -0.24235363425E+02 -0.23248840272E+02 -0.22919528341E+02  0.50528853505E+02  0.29999980714E+02 0.  0.
         12    1    1    2    0    0  0.24235363425E+02  0.23248840272E+02  0.22919528341E+02  0.40659146495E+02  0.00000000000E+00 0. -1.
         11    1    3    3    0    0 -0.24973314674E+01 -0.24101610281E+01  0.39271219759E+01  0.52409758551E+01  0.51100000000E-03 0. -1.
        -11    1    3    3    0    0 -0.46010952882E+01 -0.16860726930E+02 -0.19602028377E+02  0.26262020242E+02  0.51100000000E-03 0.  1.
        -12    1    3    3    0    0 -0.17136936670E+02 -0.39779523131E+01 -0.72446219405E+01  0.19025857407E+02  0.00000000000E+00 0.  1.
</event>
<event>
 7    1  0.3054835E-011  0.5052887E+02  0.7816164E-02  0.1300439E+00
        -11   -1    0    0    0    0  0.00000000000E+00  0.00000000000E+00  0.45593999997E+02  0.45594000000E+02  0.51100000000E-03 0.  1.
         11   -1    0    0    0    0 -0.00000000000E+00 -0.00000000000E+00 -0.45593999997E+02  0.45594000000E+02  0.51100000000E-03 0. -1.
    9900012    2    1    2    0    0 -0.35690636369E+02  0.15768928098E+02  0.11431718136E+02  0.50528870677E+02  0.30000032909E+02 0.  0.
         12    1    1    2    0    0  0.35690636369E+02 -0.15768928098E+02 -0.11431718136E+02  0.40659129323E+02  0.00000000000E+00 0. -1.
         11    1    3    3    0    0  0.24949354101E+01  0.44143374859E+01 -0.24750669640E+01  0.56424316458E+01  0.51100000000E-03 0. -1.
        -11    1    3    3    0    0 -0.31392984730E+02  0.12161761675E+02  0.56054087027E+01  0.34129877590E+02  0.51100000000E-03 0.  1.
        -12    1    3    3    0    0 -0.67925870486E+01 -0.80717106338E+00  0.83013763977E+01  0.10756561441E+02  0.00000000000E+00 0.  1.
</event>
<event>
 7    1  0.3054835E-011  0.5052894E+02  0.7816164E-02  0.1300438E+00
        -11   -1    0    0    0    0  0.00000000000E+00  0.00000000000E+00  0.45593999997E+02  0.45594000000E+02  0.51100000000E-03 0.  1.
         11   -1    0    0    0    0 -0.00000000000E+00 -0.00000000000E+00 -0.45593999997E+02  0.45594000000E+02  0.51100000000E-03 0. -1.
    9900012    2    1    2    0    0 -0.35027004425E+02 -0.24520682125E+01  0.20500124712E+02  0.50528944542E+02  0.30000257429E+02 0.  0.
         12    1    1    2    0    0  0.35027004425E+02  0.24520682125E+01 -0.20500124712E+02  0.40659055458E+02  0.00000000000E+00 0. -1.
         11    1    3    3    0    0 -0.18960010060E+02 -0.24300074530E+01 -0.16095342014E+01  0.19182740115E+02  0.51100000000E-03 0. -1.
        -11    1    3    3    0    0 -0.61352782864E+01  0.74828292231E+01  0.82410914875E+01  0.12710230604E+02  0.51100000000E-03 0.  1.
         12    1    3    3    0    0 -0.99317160786E+01 -0.75048899826E+01  0.13868567426E+02  0.18635973824E+02  0.00000000000E+00 0. -1.
</event>
<event>
 7    1  0.3054835E-011  0.5052886E+02  0.7816164E-02  0.1300439E+00
        -11   -1    0    0    0    0  0.00000000000E+00  0.00000000000E+00  0.45593999997E+02  0.45594000000E+02  0.51100000000E-03 0. -1.
         11   -1    0    0    0    0 -0.00000000000E+00 -0.00000000000E+00 -0.45593999997E+02  0.45594000000E+02  0.51100000000E-03 0.  1.
    9900012    2    1    2    0    0 -0.30931198764E+01  0.36245389342E+02 -0.18162320641E+02  0.50528861664E+02  0.30000005515E+02 0.  0.
         12    1    1    2    0    0  0.30931198764E+01 -0.36245389342E+02  0.18162320641E+02  0.40659138336E+02  0.00000000000E+00 0. -1.
         11    1    3    3    0    0  0.27168239666E+01  0.22078615915E+02 -0.17723058243E+02  0.28442102716E+02  0.51100000000E-03 0.  1.
        -11    1    3    3    0    0 -0.79263571412E+01  0.16675696280E+02  0.10261517911E+01  0.18492132698E+02  0.51100000000E-03 0. -1.
         12    1    3    3    0    0  0.21164132981E+01 -0.25089228529E+01 -0.14654141895E+01  0.35946262500E+01  0.00000000000E+00 0. -1.
</event>
<event>
 7    1  0.3054835E-011  0.5052885E+02  0.7816164E-02  0.1300439E+00
        -11   -1    0    0    0    0  0.00000000000E+00  0.00000000000E+00  0.45593999997E+02  0.45594000000E+02  0.51100000000E-03 0.  1.
         11   -1    0    0    0    0 -0.00000000000E+00 -0.00000000000E+00 -0.45593999997E+02  0.45594000000E+02  0.51100000000E-03 0. -1.
    9900012    2    1    2    0    0  0.35744012255E+02 -0.19337916743E+02  0.12557992180E+01  0.50528850135E+02  0.29999970470E+02 0.  0.
         12    1    1    2    0    0 -0.35744012255E+02  0.19337916743E+02 -0.12557992180E+01  0.40659149865E+02  0.00000000000E+00 0. -1.
         11    1    3    3    0    0  0.84370360535E+01 -0.19143508843E+02  0.56039079660E+01  0.21657822904E+02  0.51100000000E-03 0. -1.
        -11    1    3    3    0    0  0.25214990316E+02  0.14297807475E+01 -0.20051837130E+01  0.25334971316E+02  0.51100000000E-03 0.  1.
         12    1    3    3    0    0  0.20919858864E+01 -0.16241886478E+01 -0.23429250349E+01  0.35360559147E+01  0.00000000000E+00 0. -1.
</event>
<event>
 7    1  0.3054835E-011  0.5052886E+02  0.7816164E-02  0.1300439E+00
        -11   -1    0    0    0    0  0.00000000000E+00  0.00000000000E+00  0.45593999997E+02  0.45594000000E+02  0.51100000000E-03 0.  1.
         11   -1    0    0    0    0 -0.00000000000E+00 -0.00000000000E+00 -0.45593999997E+02  0.45594000000E+02  0.51100000000E-03 0. -1.
    9900012    2    1    2    0    0  0.12502544496E+02 -0.65407409545E+01  0.38132278151E+02  0.50528861445E+02  0.30000004847E+02 0.  0.
         12    1    1    2    0    0 -0.12502544496E+02  0.65407409545E+01 -0.38132278151E+02  0.40659138555E+02  0.00000000000E+00 0. -1.
         11    1    3    3    0    0  0.14566393197E+00 -0.11719710119E+02  0.44190754378E+01  0.12526014978E+02  0.51100000000E-03 0. -1.
        -11    1    3    3    0    0  0.12935556544E+02  0.12623236199E+01  0.29418690661E+02  0.32161801014E+02  0.51100000000E-03 0.  1.
         12    1    3    3    0    0 -0.57867597917E+00  0.39166455445E+01  0.42945120521E+01  0.58410454523E+01  0.00000000000E+00 0. -1.
</event>
<event>
 7    1  0.3054835E-011  0.5052886E+02  0.7816164E-02  0.1300439E+00
        -11   -1    0    0    0    0  0.00000000000E+00  0.00000000000E+00  0.45593999997E+02  0.45594000000E+02  0.51100000000E-03 0.  1.
         11   -1    0    0    0    0 -0.00000000000E+00 -0.00000000000E+00 -0.45593999997E+02  0.45594000000E+02  0.51100000000E-03 0. -1.
    9900012    2    1    2    0    0 -0.28119329262E+01  0.27588043669E+02  0.29734803668E+02  0.50528859952E+02  0.30000000310E+02 0.  0.
         12    1    1    2    0    0  0.28119329262E+01 -0.27588043669E+02 -0.29734803668E+02  0.40659140048E+02  0.00000000000E+00 0. -1.
         11    1    3    3    0    0 -0.37596555782E+01 -0.30606659251E+01  0.95354892273E+01  0.10697113678E+02  0.51100000000E-03 0. -1.
        -11    1    3    3    0    0  0.75141245739E+01  0.19384401879E+02  0.15651751031E+02  0.26022959381E+02  0.51100000000E-03 0.  1.
         12    1    3    3    0    0 -0.65664019218E+01  0.11264307715E+02  0.45475634092E+01  0.13808786893E+02  0.00000000000E+00 0. -1.
</event>
<event>
 7    1  0.3054835E-011  0.5052886E+02  0.7816164E-02  0.1300439E+00
        -11   -1    0    0    0    0  0.00000000000E+00  0.00000000000E+00  0.45593999997E+02  0.45594000000E+02  0.51100000000E-03 0.  1.
         11   -1    0    0    0    0 -0.00000000000E+00 -0.00000000000E+00 -0.45593999997E+02  0.45594000000E+02  0.51100000000E-03 0. -1.
    9900012    2    1    2    0    0  0.10339855071E+02  0.64335478706E+00  0.39317156924E+02  0.50528864042E+02  0.30000012742E+02 0.  0.
         12    1    1    2    0    0 -0.10339855071E+02 -0.64335478706E+00 -0.39317156924E+02  0.40659135958E+02  0.00000000000E+00 0. -1.
         11    1    3    3    0    0  0.79091555491E+01 -0.96363735499E+01  0.14220663055E+02  0.18911417046E+02  0.51100000000E-03 0. -1.
        -11    1    3    3    0    0 -0.57729310167E+01  0.38852053917E+01  0.17212108376E+02  0.18565511802E+02  0.51100000000E-03 0.  1.
        -12    1    3    3    0    0  0.82036305383E+01  0.63945229453E+01  0.78843854929E+01  0.13051935194E+02  0.00000000000E+00 0.  1.
</event>
<event>
 7    1  0.3054835E-011  0.5052886E+02  0.7816164E-02  0.1300439E+00
        -11   -1    0    0    0    0  0.00000000000E+00  0.00000000000E+00  0.45593999997E+02  0.45594000000E+02  0.51100000000E-03 0.  1.
         11   -1    0    0    0    0 -0.00000000000E+00 -0.00000000000E+00 -0.45593999997E+02  0.45594000000E+02  0.51100000000E-03 0. -1.
    9900012    2    1    2    0    0  0.18695212369E+02 -0.35119755274E+02 -0.83819769542E+01  0.50528859408E+02  0.29999998656E+02 0.  0.
         12    1    1    2    0    0 -0.18695212369E+02  0.35119755274E+02  0.83819769542E+01  0.40659140592E+02  0.00000000000E+00 0. -1.
         11    1    3    3    0    0 -0.30263934927E+01 -0.12940330600E+02 -0.59293583756E+01  0.14552268023E+02  0.51100000000E-03 0. -1.
        -11    1    3    3    0    0  0.16873074935E+02 -0.50375131263E+01  0.16804464452E+01  0.17689010622E+02  0.51100000000E-03 0.  1.
        -12    1    3    3    0    0  0.48485309259E+01 -0.17141911548E+02 -0.41330650237E+01  0.18287580763E+02  0.00000000000E+00 0.  1.
</event>
<event>
 7    1  0.3054835E-011  0.5052886E+02  0.7816164E-02  0.1300439E+00
        -11   -1    0    0    0    0  0.00000000000E+00  0.00000000000E+00  0.45593999997E+02  0.45594000000E+02  0.51100000000E-03 0. -1.
         11   -1    0    0    0    0 -0.00000000000E+00 -0.00000000000E+00 -0.45593999997E+02  0.45594000000E+02  0.51100000000E-03 0.  1.
    9900012    2    1    2    0    0 -0.11466138754E+02 -0.27675721039E+02 -0.27490870155E+02  0.50528858165E+02  0.29999994877E+02 0.  0.
         12    1    1    2    0    0  0.11466138754E+02  0.27675721039E+02  0.27490870155E+02  0.40659141835E+02  0.00000000000E+00 0. -1.
         11    1    3    3    0    0  0.53497486881E+01 -0.69203478576E+01 -0.16373157298E+02  0.18563170679E+02  0.51100000000E-03 0. -1.
        -11    1    3    3    0    0 -0.11893187649E+02 -0.55855653616E+01 -0.88850936391E+01  0.15861631130E+02  0.51100000000E-03 0.  1.
        -12    1    3    3    0    0 -0.49226997932E+01 -0.15169807819E+02 -0.22326192176E+01  0.16104056356E+02  0.00000000000E+00 0.  1.
</event>
<event>
 7    1  0.3054835E-011  0.5052886E+02  0.7816164E-02  0.1300439E+00
        -11   -1    0    0    0    0  0.00000000000E+00  0.00000000000E+00  0.45593999997E+02  0.45594000000E+02  0.51100000000E-03 0. -1.
         11   -1    0    0    0    0 -0.00000000000E+00 -0.00000000000E+00 -0.45593999997E+02  0.45594000000E+02  0.51100000000E-03 0.  1.
    9900012    2    1    2    0    0  0.37153976933E+02 -0.14683221533E+02  0.75597793184E+01  0.50528864989E+02  0.30000015619E+02 0.  0.
         12    1    1    2    0    0 -0.37153976933E+02  0.14683221533E+02 -0.75597793184E+01  0.40659135011E+02  0.00000000000E+00 0. -1.
         11    1    3    3    0    0  0.27597686373E+01 -0.12288110169E+02  0.81931587043E+01  0.15024707128E+02  0.51100000000E-03 0. -1.
        -11    1    3    3    0    0  0.25668812722E+02 -0.37343725228E+00  0.29846655122E+01  0.25844450669E+02  0.51100000000E-03 0.  1.
        -12    1    3    3    0    0  0.87253955743E+01 -0.20216741121E+01 -0.36180448982E+01  0.96597071916E+01  0.00000000000E+00 0.  1.
</event>
<event>
 7    1  0.3054835E-011  0.5052886E+02  0.7816164E-02  0.1300439E+00
        -11   -1    0    0    0    0  0.00000000000E+00  0.00000000000E+00  0.45593999997E+02  0.45594000000E+02  0.51100000000E-03 0.  1.
         11   -1    0    0    0    0 -0.00000000000E+00 -0.00000000000E+00 -0.45593999997E+02  0.45594000000E+02  0.51100000000E-03 0. -1.
    9900012    2    1    2    0    0  0.24607873982E+02 -0.31246622452E+02  0.84419836253E+01  0.50528856328E+02  0.29999989296E+02 0.  0.
         12    1    1    2    0    0 -0.24607873982E+02  0.31246622452E+02 -0.84419836253E+01  0.40659143672E+02  0.00000000000E+00 0. -1.
         11    1    3    3    0    0  0.10698725158E+02 -0.40924208837E+00 -0.50282840375E+01  0.11828518069E+02  0.51100000000E-03 0. -1.
        -11    1    3    3    0    0  0.13308640211E+02 -0.17773614086E+02  0.12746809880E+02  0.25602781574E+02  0.51100000000E-03 0.  1.
        -12    1    3    3    0    0  0.60050861300E+00 -0.13063766277E+02  0.72345778243E+00  0.13097556685E+02  0.00000000000E+00 0.  1.
</event>
<event>
 7    1  0.3054835E-011  0.5052886E+02  0.7816164E-02  0.1300439E+00
        -11   -1    0    0    0    0  0.00000000000E+00  0.00000000000E+00  0.45593999997E+02  0.45594000000E+02  0.51100000000E-03 0.  1.
         11   -1    0    0    0    0 -0.00000000000E+00 -0.00000000000E+00 -0.45593999997E+02  0.45594000000E+02  0.51100000000E-03 0. -1.
    9900012    2    1    2    0    0 -0.27841812637E+02  0.12391131115E+02  0.26915770639E+02  0.50528863630E+02  0.30000011490E+02 0.  0.
         12    1    1    2    0    0  0.27841812637E+02 -0.12391131115E+02 -0.26915770639E+02  0.40659136370E+02  0.00000000000E+00 0. -1.
         11    1    3    3    0    0 -0.27089950774E+02 -0.21007792607E+01  0.18213671548E+02  0.32711107257E+02  0.51100000000E-03 0. -1.
        -11    1    3    3    0    0  0.16401974528E+01  0.16396855860E+01  0.22811345146E+01  0.32530587821E+01  0.51100000000E-03 0.  1.
         12    1    3    3    0    0 -0.23920593159E+01  0.12852224790E+02  0.64209645770E+01  0.14564697591E+02  0.00000000000E+00 0. -1.
</event>
<event>
 7    1  0.3054835E-011  0.5052887E+02  0.7816164E-02  0.1300439E+00
        -11   -1    0    0    0    0  0.00000000000E+00  0.00000000000E+00  0.45593999997E+02  0.45594000000E+02  0.51100000000E-03 0.  1.
         11   -1    0    0    0    0 -0.00000000000E+00 -0.00000000000E+00 -0.45593999997E+02  0.45594000000E+02  0.51100000000E-03 0. -1.
    9900012    2    1    2    0    0 -0.14658194897E+02  0.31928615059E+02  0.20466204575E+02  0.50528872280E+02  0.30000037783E+02 0.  0.
         12    1    1    2    0    0  0.14658194897E+02 -0.31928615059E+02 -0.20466204575E+02  0.40659127720E+02  0.00000000000E+00 0. -1.
         11    1    3    3    0    0 -0.31362681561E-01  0.19428946035E+02  0.75326393122E+01  0.20838080115E+02  0.51100000000E-03 0. -1.
        -11    1    3    3    0    0 -0.12504444475E+02 -0.14497571442E+01  0.54256800023E+01  0.13707696055E+02  0.51100000000E-03 0.  1.
        -12    1    3    3    0    0 -0.21223877412E+01  0.13949426169E+02  0.75078852603E+01  0.15983096109E+02  0.00000000000E+00 0.  1.
</event>
<event>
 7    1  0.3054835E-011  0.5052886E+02  0.7816164E-02  0.1300439E+00
        -11   -1    0    0    0    0  0.00000000000E+00  0.00000000000E+00  0.45593999997E+02  0.45594000000E+02  0.51100000000E-03 0.  1.
         11   -1    0    0    0    0 -0.00000000000E+00 -0.00000000000E+00 -0.45593999997E+02  0.45594000000E+02  0.51100000000E-03 0. -1.
    9900012    2    1    2    0    0 -0.33756049931E+02  0.59184952356E+01  0.21878432303E+02  0.50528864583E+02  0.30000014388E+02 0.  0.
         12    1    1    2    0    0  0.33756049931E+02 -0.59184952356E+01 -0.21878432303E+02  0.40659135417E+02  0.00000000000E+00 0. -1.
         11    1    3    3    0    0 -0.48311618202E+01  0.48840357713E+01  0.12117039020E+02  0.13928982907E+02  0.51100000000E-03 0. -1.
        -11    1    3    3    0    0 -0.29941403964E+02  0.39650610876E+01  0.45618400203E+01  0.30545372242E+02  0.51100000000E-03 0.  1.
        -12    1    3    3    0    0  0.10165158540E+01 -0.29306016233E+01  0.51995532631E+01  0.60545094344E+01  0.00000000000E+00 0.  1.
</event>
<event>
 7    1  0.3054835E-011  0.5052888E+02  0.7816164E-02  0.1300439E+00
        -11   -1    0    0    0    0  0.00000000000E+00  0.00000000000E+00  0.45593999997E+02  0.45594000000E+02  0.51100000000E-03 0.  1.
         11   -1    0    0    0    0 -0.00000000000E+00 -0.00000000000E+00 -0.45593999997E+02  0.45594000000E+02  0.51100000000E-03 0. -1.
    9900012    2    1    2    0    0 -0.31638113753E+02  0.23993701646E+02 -0.87462192284E+01  0.50528876653E+02  0.30000051076E+02 0.  0.
         12    1    1    2    0    0  0.31638113753E+02 -0.23993701646E+02  0.87462192284E+01  0.40659123347E+02  0.00000000000E+00 0. -1.
         11    1    3    3    0    0 -0.32358283455E+01  0.28400852666E+01 -0.78272386224E+01  0.89332152172E+01  0.51100000000E-03 0. -1.
        -11    1    3    3    0    0 -0.21787750609E+02  0.25068099116E+02  0.22335744668E+01  0.33288203992E+02  0.51100000000E-03 0.  1.
        -12    1    3    3    0    0 -0.66145347986E+01 -0.39144827366E+01 -0.31525550728E+01  0.83074574440E+01  0.00000000000E+00 0.  1.
</event>
<event>
 7    1  0.3054835E-011  0.5052889E+02  0.7816164E-02  0.1300439E+00
        -11   -1    0    0    0    0  0.00000000000E+00  0.00000000000E+00  0.45593999997E+02  0.45594000000E+02  0.51100000000E-03 0.  1.
         11   -1    0    0    0    0 -0.00000000000E+00 -0.00000000000E+00 -0.45593999997E+02  0.45594000000E+02  0.51100000000E-03 0. -1.
    9900012    2    1    2    0    0 -0.11249619584E+02  0.14846406433E+02  0.36141304596E+02  0.50528885122E+02  0.30000076818E+02 0.  0.
         12    1    1    2    0    0  0.11249619584E+02 -0.14846406433E+02 -0.36141304596E+02  0.40659114878E+02  0.00000000000E+00 0. -1.
         11    1    3    3    0    0 -0.69314989905E+01  0.53161959414E+01  0.23329460142E+01  0.90415847565E+01  0.51100000000E-03 0. -1.
        -11    1    3    3    0    0  0.50204344093E+01  0.12568735328E+02  0.24317380561E+02  0.27830071273E+02  0.51100000000E-03 0.  1.
        -12    1    3    3    0    0 -0.93385550029E+01 -0.30385248368E+01  0.94909780201E+01  0.13657229093E+02  0.00000000000E+00 0.  1.
</event>
<event>
 7    1  0.3054835E-011  0.5052886E+02  0.7816164E-02  0.1300439E+00
        -11   -1    0    0    0    0  0.00000000000E+00  0.00000000000E+00  0.45593999997E+02  0.45594000000E+02  0.51100000000E-03 0.  1.
         11   -1    0    0    0    0 -0.00000000000E+00 -0.00000000000E+00 -0.45593999997E+02  0.45594000000E+02  0.51100000000E-03 0. -1.
    9900012    2    1    2    0    0  0.21929427042E+02 -0.28791566348E+02  0.18528660689E+02  0.50528864125E+02  0.30000012994E+02 0.  0.
         12    1    1    2    0    0 -0.21929427042E+02  0.28791566348E+02 -0.18528660689E+02  0.40659135875E+02  0.00000000000E+00 0. -1.
         11    1    3    3    0    0  0.23035042323E+02 -0.22126925280E+02  0.15623547776E+02  0.35557126466E+02  0.51100000000E-03 0.  1.
        -11    1    3    3    0    0 -0.43214569729E+01 -0.88928228726E+01 -0.33350567426E+00  0.98928517278E+01  0.51100000000E-03 0. -1.
        -12    1    3    3    0    0  0.32158416919E+01  0.22281818047E+01  0.32386185881E+01  0.50788859311E+01  0.00000000000E+00 0.  1.
</event>
<event>
 7    1  0.3054835E-011  0.5052875E+02  0.7816164E-02  0.1300439E+00
        -11   -1    0    0    0    0  0.00000000000E+00  0.00000000000E+00  0.45593999997E+02  0.45594000000E+02  0.51100000000E-03 0.  1.
         11   -1    0    0    0    0 -0.00000000000E+00 -0.00000000000E+00 -0.45593999997E+02  0.45594000000E+02  0.51100000000E-03 0. -1.
    9900012    2    1    2    0    0  0.26234065714E+02 -0.20466789834E+02  0.23367897313E+02  0.50528753637E+02  0.29999677154E+02 0.  0.
         12    1    1    2    0    0 -0.26234065714E+02  0.20466789834E+02 -0.23367897313E+02  0.40659246363E+02  0.00000000000E+00 0. -1.
         11    1    3    3    0    0  0.18790894294E+01 -0.83307996983E+01  0.62465599812E+01  0.10580770887E+02  0.51100000000E-03 0. -1.
        -11    1    3    3    0    0  0.28907790196E+02 -0.82057980530E+01  0.13664478830E+02  0.33010807892E+02  0.51100000000E-03 0.  1.
        -12    1    3    3    0    0 -0.45528139120E+01 -0.39301920825E+01  0.34568585015E+01  0.69371748588E+01  0.00000000000E+00 0.  1.
</event>
<event>
 7    1  0.3054835E-011  0.5052886E+02  0.7816164E-02  0.1300439E+00
        -11   -1    0    0    0    0  0.00000000000E+00  0.00000000000E+00  0.45593999997E+02  0.45594000000E+02  0.51100000000E-03 0.  1.
         11   -1    0    0    0    0 -0.00000000000E+00 -0.00000000000E+00 -0.45593999997E+02  0.45594000000E+02  0.51100000000E-03 0. -1.
    9900012    2    1    2    0    0 -0.15091108996E+02  0.94820841704E+01  0.36544691198E+02  0.50528856555E+02  0.29999989984E+02 0.  0.
         12    1    1    2    0    0  0.15091108996E+02 -0.94820841704E+01 -0.36544691198E+02  0.40659143445E+02  0.00000000000E+00 0. -1.
         11    1    3    3    0    0 -0.19572557072E+00 -0.78718980333E+01  0.12892397955E+02  0.15106919356E+02  0.51100000000E-03 0. -1.
        -11    1    3    3    0    0 -0.10762208609E+02  0.41185340934E+01  0.15577070688E+02  0.19376082904E+02  0.51100000000E-03 0.  1.
         12    1    3    3    0    0 -0.41331748164E+01  0.13235448110E+02  0.80752225553E+01  0.16045854295E+02  0.00000000000E+00 0. -1.
</event>
<event>
 7    1  0.3054835E-011  0.5052889E+02  0.7816164E-02  0.1300439E+00
        -11   -1    0    0    0    0  0.00000000000E+00  0.00000000000E+00  0.45593999997E+02  0.45594000000E+02  0.51100000000E-03 0. -1.
         11   -1    0    0    0    0 -0.00000000000E+00 -0.00000000000E+00 -0.45593999997E+02  0.45594000000E+02  0.51100000000E-03 0.  1.
    9900012    2    1    2    0    0 -0.40399753108E+02 -0.20470212902E+01  0.41027668037E+01  0.50528892253E+02  0.30000098491E+02 0.  0.
         12    1    1    2    0    0  0.40399753108E+02  0.20470212902E+01 -0.41027668037E+01  0.40659107747E+02  0.00000000000E+00 0. -1.
         11    1    3    3    0    0 -0.14681156633E+02  0.11240797168E+02 -0.77495707515E-01  0.18490480981E+02  0.51100000000E-03 0. -1.
        -11    1    3    3    0    0 -0.91318528495E+01 -0.11206026570E+02  0.50146256684E+01  0.15300726741E+02  0.51100000000E-03 0.  1.
        -12    1    3    3    0    0 -0.16586743626E+02 -0.20817918881E+01 -0.83436315711E+00  0.16737684531E+02  0.00000000000E+00 0.  1.
</event>
<event>
 7    1  0.3054835E-011  0.5052886E+02  0.7816164E-02  0.1300439E+00
        -11   -1    0    0    0    0  0.00000000000E+00  0.00000000000E+00  0.45593999997E+02  0.45594000000E+02  0.51100000000E-03 0. -1.
         11   -1    0    0    0    0 -0.00000000000E+00 -0.00000000000E+00 -0.45593999997E+02  0.45594000000E+02  0.51100000000E-03 0.  1.
    9900012    2    1    2    0    0  0.11751228969E+02  0.15848533408E+02 -0.35551348375E+02  0.50528858779E+02  0.29999996746E+02 0.  0.
         12    1    1    2    0    0 -0.11751228969E+02 -0.15848533408E+02  0.35551348375E+02  0.40659141221E+02  0.00000000000E+00 0. -1.
         11    1    3    3    0    0  0.10349730516E+02 -0.45028027873E+01 -0.23641008641E+02  0.26197126646E+02  0.51100000000E-03 0. -1.
        -11    1    3    3    0    0  0.30309696168E+01  0.14922718736E+02 -0.10482742176E+02  0.18486811382E+02  0.51100000000E-03 0.  1.
         12    1    3    3    0    0 -0.16294711641E+01  0.54286174598E+01 -0.14275975590E+01  0.58449207514E+01  0.00000000000E+00 0. -1.
</event>
<event>
 7    1  0.3054835E-011  0.5052886E+02  0.7816164E-02  0.1300439E+00
        -11   -1    0    0    0    0  0.00000000000E+00  0.00000000000E+00  0.45593999997E+02  0.45594000000E+02  0.51100000000E-03 0.  1.
         11   -1    0    0    0    0 -0.00000000000E+00 -0.00000000000E+00 -0.45593999997E+02  0.45594000000E+02  0.51100000000E-03 0. -1.
    9900012    2    1    2    0    0  0.35826055047E+02  0.12528963533E+02  0.14583720702E+02  0.50528855186E+02  0.29999985824E+02 0.  0.
         12    1    1    2    0    0 -0.35826055047E+02 -0.12528963533E+02 -0.14583720702E+02  0.40659144814E+02  0.00000000000E+00 0. -1.
         11    1    3    3    0    0  0.12042782183E+02  0.57590354145E+01 -0.67880804359E+01  0.14975751329E+02  0.51100000000E-03 0. -1.
        -11    1    3    3    0    0  0.13286955769E+02  0.97996226654E+01  0.17247350402E+02  0.23875654842E+02  0.51100000000E-03 0.  1.
        -12    1    3    3    0    0  0.10496317096E+02 -0.30296945471E+01  0.41244507367E+01  0.11677449015E+02  0.00000000000E+00 0.  1.
</event>
<event>
 7    1  0.3054835E-011  0.5052885E+02  0.7816164E-02  0.1300439E+00
        -11   -1    0    0    0    0  0.00000000000E+00  0.00000000000E+00  0.45593999997E+02  0.45594000000E+02  0.51100000000E-03 0.  1.
         11   -1    0    0    0    0 -0.00000000000E+00 -0.00000000000E+00 -0.45593999997E+02  0.45594000000E+02  0.51100000000E-03 0. -1.
    9900012    2    1    2    0    0  0.80454906008E+01 -0.12445997670E+01  0.39835761359E+02  0.50528845673E+02  0.29999956907E+02 0.  0.
         12    1    1    2    0    0 -0.80454906008E+01  0.12445997670E+01 -0.39835761359E+02  0.40659154327E+02  0.00000000000E+00 0. -1.
         11    1    3    3    0    0 -0.45565381096E+01  0.34652184776E+01  0.71163109037E+01  0.91329984003E+01  0.51100000000E-03 0. -1.
        -11    1    3    3    0    0  0.63295981490E+01 -0.12788003797E+02  0.24161577243E+02  0.28060268512E+02  0.51100000000E-03 0.  1.
        -12    1    3    3    0    0  0.62724305614E+01  0.80781855524E+01  0.85578732124E+01  0.13335578761E+02  0.00000000000E+00 0.  1.
</event>
<event>
 7    1  0.3054835E-011  0.5052886E+02  0.7816164E-02  0.1300439E+00
        -11   -1    0    0    0    0  0.00000000000E+00  0.00000000000E+00  0.45593999997E+02  0.45594000000E+02  0.51100000000E-03 0. -1.
         11   -1    0    0    0    0 -0.00000000000E+00 -0.00000000000E+00 -0.45593999997E+02  0.45594000000E+02  0.51100000000E-03 0.  1.
    9900012    2    1    2    0    0 -0.89063309687E+01 -0.10247860430E+02 -0.38325241032E+02  0.50528862345E+02  0.30000007584E+02 0.  0.
         12    1    1    2    0    0  0.89063309687E+01  0.10247860430E+02  0.38325241032E+02  0.40659137655E+02  0.00000000000E+00 0. -1.
         11    1    3    3    0    0 -0.14451210589E+01 -0.89859855459E+01 -0.28245610015E+02  0.29675761093E+02  0.51100000000E-03 0. -1.
        -11    1    3    3    0    0 -0.20890067539E+01  0.75125073207E+01 -0.57620417493E+01  0.96955062190E+01  0.51100000000E-03 0.  1.
         12    1    3    3    0    0 -0.53722031559E+01 -0.87743822050E+01 -0.43175892677E+01  0.11157595033E+02  0.00000000000E+00 0. -1.
</event>
<event>
 7    1  0.3054835E-011  0.5052885E+02  0.7816164E-02  0.1300439E+00
        -11   -1    0    0    0    0  0.00000000000E+00  0.00000000000E+00  0.45593999997E+02  0.45594000000E+02  0.51100000000E-03 0.  1.
         11   -1    0    0    0    0 -0.00000000000E+00 -0.00000000000E+00 -0.45593999997E+02  0.45594000000E+02  0.51100000000E-03 0. -1.
    9900012    2    1    2    0    0  0.29022129130E+02 -0.27723583849E+02 -0.65026920371E+01  0.50528854849E+02  0.29999984799E+02 0.  0.
         12    1    1    2    0    0 -0.29022129130E+02  0.27723583849E+02  0.65026920371E+01  0.40659145151E+02  0.00000000000E+00 0. -1.
         11    1    3    3    0    0  0.25287094897E+02 -0.95244197170E+01 -0.16472394712E+00  0.27021822172E+02  0.51100000000E-03 0. -1.
        -11    1    3    3    0    0  0.30915670717E+01 -0.13245875918E+02 -0.10356850685E+02  0.17096063060E+02  0.51100000000E-03 0.  1.
         12    1    3    3    0    0  0.64346716208E+00 -0.49532882138E+01  0.40188825947E+01  0.64109696168E+01  0.00000000000E+00 0. -1.
</event>
<event>
 7    1  0.3054835E-011  0.5052888E+02  0.7816164E-02  0.1300439E+00
        -11   -1    0    0    0    0  0.00000000000E+00  0.00000000000E+00  0.45593999997E+02  0.45594000000E+02  0.51100000000E-03 0.  1.
         11   -1    0    0    0    0 -0.00000000000E+00 -0.00000000000E+00 -0.45593999997E+02  0.45594000000E+02  0.51100000000E-03 0. -1.
    9900012    2    1    2    0    0  0.30759240037E+02  0.14851062389E+02  0.22056278495E+02  0.50528876513E+02  0.30000050648E+02 0.  0.
         12    1    1    2    0    0 -0.30759240037E+02 -0.14851062389E+02 -0.22056278495E+02  0.40659123487E+02  0.00000000000E+00 0. -1.
         11    1    3    3    0    0 -0.77361667963E+00 -0.13677370189E+01  0.16238253153E+00  0.15797327836E+01  0.51100000000E-03 0. -1.
        -11    1    3    3    0    0  0.24280864157E+02  0.25649954354E+01  0.22875444641E+02  0.33457817227E+02  0.51100000000E-03 0.  1.
        -12    1    3    3    0    0  0.72519925590E+01  0.13653803972E+02 -0.98154867748E+00  0.15491326502E+02  0.00000000000E+00 0.  1.
</event>
<event>
 7    1  0.3054835E-011  0.5052887E+02  0.7816164E-02  0.1300439E+00
        -11   -1    0    0    0    0  0.00000000000E+00  0.00000000000E+00  0.45593999997E+02  0.45594000000E+02  0.51100000000E-03 0.  1.
         11   -1    0    0    0    0 -0.00000000000E+00 -0.00000000000E+00 -0.45593999997E+02  0.45594000000E+02  0.51100000000E-03 0. -1.
    9900012    2    1    2    0    0 -0.13011530504E+02 -0.86095440454E+01  0.37546511558E+02  0.50528871813E+02  0.30000036363E+02 0.  0.
         12    1    1    2    0    0  0.13011530504E+02  0.86095440454E+01 -0.37546511558E+02  0.40659128187E+02  0.00000000000E+00 0. -1.
         11    1    3    3    0    0 -0.64166120168E+01  0.19901163661E+01  0.50509305626E+00  0.67371056234E+01  0.51100000000E-03 0. -1.
        -11    1    3    3    0    0 -0.10839264179E+02 -0.12267271566E+02  0.35298880088E+02  0.38909979894E+02  0.51100000000E-03 0.  1.
        -12    1    3    3    0    0  0.42443456915E+01  0.16676111547E+01  0.17425384134E+01  0.48817862955E+01  0.00000000000E+00 0.  1.
</event>
<event>
 7    1  0.3054835E-011  0.5052889E+02  0.7816164E-02  0.1300439E+00
        -11   -1    0    0    0    0  0.00000000000E+00  0.00000000000E+00  0.45593999997E+02  0.45594000000E+02  0.51100000000E-03 0. -1.
         11   -1    0    0    0    0 -0.00000000000E+00 -0.00000000000E+00 -0.45593999997E+02  0.45594000000E+02  0.51100000000E-03 0.  1.
    9900012    2    1    2    0    0 -0.39596005447E+02 -0.21205599940E+01 -0.89901610942E+01  0.50528887632E+02  0.30000084445E+02 0.  0.
         12    1    1    2    0    0  0.39596005447E+02  0.21205599940E+01  0.89901610942E+01  0.40659112368E+02  0.00000000000E+00 0. -1.
         11    1    3    3    0    0  0.21742996072E+01  0.77645442837E+00  0.14876088944E+01  0.27465324948E+01  0.51100000000E-03 0. -1.
        -11    1    3    3    0    0 -0.38833599252E+02 -0.88204621645E+01 -0.74630695795E+01  0.40516001672E+02  0.51100000000E-03 0.  1.
        -12    1    3    3    0    0 -0.29367058028E+01  0.59234477422E+01 -0.30147004092E+01  0.72663534654E+01  0.00000000000E+00 0.  1.
</event>
<event>
 7    1  0.3054835E-011  0.5052886E+02  0.7816164E-02  0.1300439E+00
        -11   -1    0    0    0    0  0.00000000000E+00  0.00000000000E+00  0.45593999997E+02  0.45594000000E+02  0.51100000000E-03 0.  1.
         11   -1    0    0    0    0 -0.00000000000E+00 -0.00000000000E+00 -0.45593999997E+02  0.45594000000E+02  0.51100000000E-03 0. -1.
    9900012    2    1    2    0    0  0.10588757022E+02 -0.97177280632E+01  0.38034317213E+02  0.50528864497E+02  0.30000014124E+02 0.  0.
         12    1    1    2    0    0 -0.10588757022E+02  0.97177280632E+01 -0.38034317213E+02  0.40659135503E+02  0.00000000000E+00 0. -1.
         11    1    3    3    0    0 -0.50088282311E+01  0.19687320481E+01  0.56453859397E+01  0.77996569666E+01  0.51100000000E-03 0. -1.
        -11    1    3    3    0    0  0.13629184997E+02 -0.16391176883E+02  0.30663460574E+02  0.37345323374E+02  0.51100000000E-03 0.  1.
        -12    1    3    3    0    0  0.19684002559E+01  0.47047167715E+01  0.17254706994E+01  0.53838841557E+01  0.00000000000E+00 0.  1.
</event>
<event>
 7    1  0.3054835E-011  0.5052888E+02  0.7816164E-02  0.1300439E+00
        -11   -1    0    0    0    0  0.00000000000E+00  0.00000000000E+00  0.45593999997E+02  0.45594000000E+02  0.51100000000E-03 0. -1.
         11   -1    0    0    0    0 -0.00000000000E+00 -0.00000000000E+00 -0.45593999997E+02  0.45594000000E+02  0.51100000000E-03 0.  1.
    9900012    2    1    2    0    0 -0.34429183598E+02 -0.43542955017E+01 -0.21185741854E+02  0.50528877648E+02  0.30000054099E+02 0.  0.
         12    1    1    2    0    0  0.34429183598E+02  0.43542955017E+01  0.21185741854E+02  0.40659122352E+02  0.00000000000E+00 0. -1.
         11    1    3    3    0    0 -0.53403796658E+01 -0.10459673448E+02 -0.14625569732E+02  0.18757177662E+02  0.51100000000E-03 0. -1.
        -11    1    3    3    0    0 -0.25948338895E+02  0.22820094939E+01 -0.46091377053E+01  0.26453128536E+02  0.51100000000E-03 0.  1.
        -12    1    3    3    0    0 -0.31404650374E+01  0.38233684519E+01 -0.19510344169E+01  0.53185714498E+01  0.00000000000E+00 0.  1.
</event>
<event>
 7    1  0.3054835E-011  0.5052886E+02  0.7816164E-02  0.1300439E+00
        -11   -1    0    0    0    0  0.00000000000E+00  0.00000000000E+00  0.45593999997E+02  0.45594000000E+02  0.51100000000E-03 0. -1.
         11   -1    0    0    0    0 -0.00000000000E+00 -0.00000000000E+00 -0.45593999997E+02  0.45594000000E+02  0.51100000000E-03 0.  1.
    9900012    2    1    2    0    0  0.33901669201E+02  0.21996951558E+02 -0.44694961570E+01  0.50528862671E+02  0.30000008574E+02 0.  0.
         12    1    1    2    0    0 -0.33901669201E+02 -0.21996951558E+02  0.44694961570E+01  0.40659137329E+02  0.00000000000E+00 0. -1.
         11    1    3    3    0    0  0.88390230695E+00  0.20837200742E+01  0.87268000716E+01  0.90155539146E+01  0.51100000000E-03 0. -1.
        -11    1    3    3    0    0  0.19765965701E+02  0.15822926018E+02 -0.66536164476E+01  0.26178789123E+02  0.51100000000E-03 0.  1.
         12    1    3    3    0    0  0.13251801193E+02  0.40903054661E+01 -0.65426797810E+01  0.15334519633E+02  0.00000000000E+00 0. -1.
</event>
<event>
 7    1  0.3054835E-011  0.5052885E+02  0.7816164E-02  0.1300439E+00
        -11   -1    0    0    0    0  0.00000000000E+00  0.00000000000E+00  0.45593999997E+02  0.45594000000E+02  0.51100000000E-03 0. -1.
         11   -1    0    0    0    0 -0.00000000000E+00 -0.00000000000E+00 -0.45593999997E+02  0.45594000000E+02  0.51100000000E-03 0.  1.
    9900012    2    1    2    0    0 -0.49306116584E+01  0.40120142099E+02  0.43851947485E+01  0.50528847693E+02  0.29999963047E+02 0.  0.
         12    1    1    2    0    0  0.49306116584E+01 -0.40120142099E+02 -0.43851947485E+01  0.40659152307E+02  0.00000000000E+00 0. -1.
         11    1    3    3    0    0 -0.83381974045E+00  0.21535822937E+02  0.16985616186E+02  0.27440810528E+02  0.51100000000E-03 0. -1.
        -11    1    3    3    0    0 -0.38606652544E+01  0.10562493101E+02 -0.63418640634E+01  0.12910857321E+02  0.51100000000E-03 0.  1.
         12    1    3    3    0    0 -0.23612666353E+00  0.80218260608E+01 -0.62585573745E+01  0.10177179843E+02  0.00000000000E+00 0. -1.
</event>
<event>
 7    1  0.3054835E-011  0.5052886E+02  0.7816164E-02  0.1300439E+00
        -11   -1    0    0    0    0  0.00000000000E+00  0.00000000000E+00  0.45593999997E+02  0.45594000000E+02  0.51100000000E-03 0.  1.
         11   -1    0    0    0    0 -0.00000000000E+00 -0.00000000000E+00 -0.45593999997E+02  0.45594000000E+02  0.51100000000E-03 0. -1.
    9900012    2    1    2    0    0  0.97121951568E+01  0.31247725046E+02  0.24133348847E+02  0.50528861029E+02  0.30000003584E+02 0.  0.
         12    1    1    2    0    0 -0.97121951568E+01 -0.31247725046E+02 -0.24133348847E+02  0.40659138971E+02  0.00000000000E+00 0. -1.
         11    1    3    3    0    0 -0.50746425255E+01  0.15432073628E+02  0.18161038606E+02  0.24366456795E+02  0.51100000000E-03 0.  1.
        -11    1    3    3    0    0  0.93653193803E+00  0.45285709894E+00 -0.33254300225E+01  0.34843445178E+01  0.51100000000E-03 0. -1.
         12    1    3    3    0    0  0.13850305744E+02  0.15362794318E+02  0.92977402632E+01  0.22678059716E+02  0.00000000000E+00 0. -1.
</event>
<event>
 7    1  0.3054835E-011  0.5052885E+02  0.7816164E-02  0.1300439E+00
        -11   -1    0    0    0    0  0.00000000000E+00  0.00000000000E+00  0.45593999997E+02  0.45594000000E+02  0.51100000000E-03 0. -1.
         11   -1    0    0    0    0 -0.00000000000E+00 -0.00000000000E+00 -0.45593999997E+02  0.45594000000E+02  0.51100000000E-03 0.  1.
    9900012    2    1    2    0    0 -0.25114827204E+02  0.15843938747E+02 -0.27773753904E+02  0.50528851627E+02  0.29999975005E+02 0.  0.
         12    1    1    2    0    0  0.25114827204E+02 -0.15843938747E+02  0.27773753904E+02  0.40659148373E+02  0.00000000000E+00 0. -1.
         11    1    3    3    0    0 -0.16219417306E+00  0.62448374742E+01  0.41196459244E+01  0.74830331305E+01  0.51100000000E-03 0. -1.
        -11    1    3    3    0    0 -0.13240662190E+02  0.97156663890E+01 -0.23356315685E+02  0.28552176646E+02  0.51100000000E-03 0.  1.
         12    1    3    3    0    0 -0.11711970841E+02 -0.11656511629E+00 -0.85370841432E+01  0.14493641850E+02  0.00000000000E+00 0. -1.
</event>
<event>
 7    1  0.3054835E-011  0.5052886E+02  0.7816164E-02  0.1300439E+00
        -11   -1    0    0    0    0  0.00000000000E+00  0.00000000000E+00  0.45593999997E+02  0.45594000000E+02  0.51100000000E-03 0.  1.
         11   -1    0    0    0    0 -0.00000000000E+00 -0.00000000000E+00 -0.45593999997E+02  0.45594000000E+02  0.51100000000E-03 0. -1.
    9900012    2    1    2    0    0 -0.23584023684E+02 -0.22332714525E+02  0.24458320064E+02  0.50528859188E+02  0.29999997989E+02 0.  0.
         12    1    1    2    0    0  0.23584023684E+02  0.22332714525E+02 -0.24458320064E+02  0.40659140812E+02  0.00000000000E+00 0. -1.
         11    1    3    3    0    0 -0.86537691573E+01 -0.11341367273E+02 -0.45672904836E+01  0.14979134650E+02  0.51100000000E-03 0. -1.
        -11    1    3    3    0    0 -0.57246553161E+01 -0.96385135647E+01  0.15289276502E+02  0.18958760467E+02  0.51100000000E-03 0.  1.
         12    1    3    3    0    0 -0.92055992105E+01 -0.13528336878E+01  0.13736334046E+02  0.16590964072E+02  0.00000000000E+00 0. -1.
</event>
<event>
 7    1  0.3054835E-011  0.5052886E+02  0.7816164E-02  0.1300439E+00
        -11   -1    0    0    0    0  0.00000000000E+00  0.00000000000E+00  0.45593999997E+02  0.45594000000E+02  0.51100000000E-03 0.  1.
         11   -1    0    0    0    0 -0.00000000000E+00 -0.00000000000E+00 -0.45593999997E+02  0.45594000000E+02  0.51100000000E-03 0. -1.
    9900012    2    1    2    0    0  0.30653752411E+02 -0.20038280971E+02 -0.17662965819E+02  0.50528860773E+02  0.30000002806E+02 0.  0.
         12    1    1    2    0    0 -0.30653752411E+02  0.20038280971E+02  0.17662965819E+02  0.40659139227E+02  0.00000000000E+00 0. -1.
         11    1    3    3    0    0  0.22662947636E+02 -0.16993475100E+01 -0.10655843345E+02  0.25100676787E+02  0.51100000000E-03 0. -1.
        -11    1    3    3    0    0  0.74689355978E+01 -0.14991834279E+02  0.95383006126E+00  0.16776468223E+02  0.51100000000E-03 0.  1.
         12    1    3    3    0    0  0.52186917729E+00 -0.33470991820E+01 -0.79609525348E+01  0.86517157624E+01  0.00000000000E+00 0. -1.
</event>
<event>
 7    1  0.3054835E-011  0.5052886E+02  0.7816164E-02  0.1300439E+00
        -11   -1    0    0    0    0  0.00000000000E+00  0.00000000000E+00  0.45593999997E+02  0.45594000000E+02  0.51100000000E-03 0.  1.
         11   -1    0    0    0    0 -0.00000000000E+00 -0.00000000000E+00 -0.45593999997E+02  0.45594000000E+02  0.51100000000E-03 0. -1.
    9900012    2    1    2    0    0 -0.14242408321E+02 -0.35830934107E+02  0.12902079386E+02  0.50528859746E+02  0.29999999683E+02 0.  0.
         12    1    1    2    0    0  0.14242408321E+02  0.35830934107E+02 -0.12902079386E+02  0.40659140254E+02  0.00000000000E+00 0. -1.
         11    1    3    3    0    0 -0.25234827408E+01  0.23952866258E+01 -0.71024933528E+00  0.35510304902E+01  0.51100000000E-03 0. -1.
        -11    1    3    3    0    0 -0.13774387287E+02 -0.39942581485E+02  0.12360772137E+02  0.44021951898E+02  0.51100000000E-03 0.  1.
        -12    1    3    3    0    0  0.20554617077E+01  0.17163607528E+01  0.12515565848E+01  0.29558773572E+01  0.00000000000E+00 0.  1.
</event>
<event>
 7    1  0.3054835E-011  0.5052886E+02  0.7816164E-02  0.1300439E+00
        -11   -1    0    0    0    0  0.00000000000E+00  0.00000000000E+00  0.45593999997E+02  0.45594000000E+02  0.51100000000E-03 0.  1.
         11   -1    0    0    0    0 -0.00000000000E+00 -0.00000000000E+00 -0.45593999997E+02  0.45594000000E+02  0.51100000000E-03 0. -1.
    9900012    2    1    2    0    0  0.77576425766E+00  0.39736565544E+02  0.85772509253E+01  0.50528859763E+02  0.29999999735E+02 0.  0.
         12    1    1    2    0    0 -0.77576425766E+00 -0.39736565544E+02 -0.85772509253E+01  0.40659140237E+02  0.00000000000E+00 0. -1.
         11    1    3    3    0    0 -0.95817524873E+01  0.10648368417E+02  0.99457099785E+01  0.17438889813E+02  0.51100000000E-03 0. -1.
        -11    1    3    3    0    0  0.59308901706E+01  0.27319582547E+02 -0.28432883880E+01  0.28100166153E+02  0.51100000000E-03 0.  1.
         12    1    3    3    0    0  0.44266265743E+01  0.17686145803E+01  0.14748293349E+01  0.49898037966E+01  0.00000000000E+00 0. -1.
</event>
<event>
 7    1  0.3054835E-011  0.5052883E+02  0.7816164E-02  0.1300439E+00
        -11   -1    0    0    0    0  0.00000000000E+00  0.00000000000E+00  0.45593999997E+02  0.45594000000E+02  0.51100000000E-03 0.  1.
         11   -1    0    0    0    0 -0.00000000000E+00 -0.00000000000E+00 -0.45593999997E+02  0.45594000000E+02  0.51100000000E-03 0. -1.
    9900012    2    1    2    0    0  0.66702062764E+01  0.33413472962E+02  0.22185943773E+02  0.50528832174E+02  0.29999915876E+02 0.  0.
         12    1    1    2    0    0 -0.66702062764E+01 -0.33413472962E+02 -0.22185943773E+02  0.40659167826E+02  0.00000000000E+00 0. -1.
         11    1    3    3    0    0  0.39275652703E+01  0.45146240118E+01  0.82612607820E+01  0.10200785700E+02  0.51100000000E-03 0. -1.
        -11    1    3    3    0    0  0.95655374013E+01  0.24465073536E+02  0.26192930230E+01  0.26398864087E+02  0.51100000000E-03 0.  1.
        -12    1    3    3    0    0 -0.68228963953E+01  0.44337754149E+01  0.11305389968E+02  0.13929182387E+02  0.00000000000E+00 0.  1.
</event>
<event>
 7    1  0.3054835E-011  0.5052887E+02  0.7816164E-02  0.1300439E+00
        -11   -1    0    0    0    0  0.00000000000E+00  0.00000000000E+00  0.45593999997E+02  0.45594000000E+02  0.51100000000E-03 0. -1.
         11   -1    0    0    0    0 -0.00000000000E+00 -0.00000000000E+00 -0.45593999997E+02  0.45594000000E+02  0.51100000000E-03 0.  1.
    9900012    2    1    2    0    0  0.33368791559E+02  0.24739342846E+01 -0.23099089785E+02  0.50528873720E+02  0.30000042159E+02 0.  0.
         12    1    1    2    0    0 -0.33368791559E+02 -0.24739342846E+01  0.23099089785E+02  0.40659126280E+02  0.00000000000E+00 0. -1.
         11    1    3    3    0    0  0.24200622955E+02 -0.77033285214E+01 -0.21616090872E+02  0.33350664260E+02  0.51100000000E-03 0. -1.
        -11    1    3    3    0    0  0.83020439924E+01  0.11476532711E+02 -0.35356183088E+01  0.14599155270E+02  0.51100000000E-03 0.  1.
         12    1    3    3    0    0  0.86612461164E+00 -0.12992699052E+01  0.20526193960E+01  0.25790541899E+01  0.00000000000E+00 0. -1.
</event>
<event>
 7    1  0.3054835E-011  0.5052884E+02  0.7816164E-02  0.1300439E+00
        -11   -1    0    0    0    0  0.00000000000E+00  0.00000000000E+00  0.45593999997E+02  0.45594000000E+02  0.51100000000E-03 0.  1.
         11   -1    0    0    0    0 -0.00000000000E+00 -0.00000000000E+00 -0.45593999997E+02  0.45594000000E+02  0.51100000000E-03 0. -1.
    9900012    2    1    2    0    0  0.24474653964E+02  0.90289482978E+01  0.31187119689E+02  0.50528843239E+02  0.29999949510E+02 0.  0.
         12    1    1    2    0    0 -0.24474653964E+02 -0.90289482978E+01 -0.31187119689E+02  0.40659156761E+02  0.00000000000E+00 0. -1.
         11    1    3    3    0    0  0.11756041494E+02 -0.51288128862E+01  0.22553827451E+02  0.25945796696E+02  0.51100000000E-03 0. -1.
        -11    1    3    3    0    0  0.11519580545E+02  0.53799621932E+01  0.76971928111E+00  0.12737236637E+02  0.51100000000E-03 0.  1.
         12    1    3    3    0    0  0.11990319245E+01  0.87777989908E+01  0.78635729572E+01  0.11845809906E+02  0.00000000000E+00 0. -1.
</event>
<event>
 7    1  0.3054835E-011  0.5052886E+02  0.7816164E-02  0.1300439E+00
        -11   -1    0    0    0    0  0.00000000000E+00  0.00000000000E+00  0.45593999997E+02  0.45594000000E+02  0.51100000000E-03 0. -1.
         11   -1    0    0    0    0 -0.00000000000E+00 -0.00000000000E+00 -0.45593999997E+02  0.45594000000E+02  0.51100000000E-03 0.  1.
    9900012    2    1    2    0    0  0.30564748085E+02 -0.24533074237E+02 -0.10820819223E+02  0.50528859752E+02  0.29999999703E+02 0.  0.
         12    1    1    2    0    0 -0.30564748085E+02  0.24533074237E+02  0.10820819223E+02  0.40659140248E+02  0.00000000000E+00 0. -1.
         11    1    3    3    0    0  0.87666953559E+01 -0.11080684592E+02 -0.17230794877E+02  0.22283105952E+02  0.51100000000E-03 0. -1.
        -11    1    3    3    0    0  0.19158161789E+02 -0.13305327606E+02  0.24079447004E+01  0.23449202626E+02  0.51100000000E-03 0.  1.
         12    1    3    3    0    0  0.26398909406E+01 -0.14706203912E+00  0.40020309538E+01  0.47965511752E+01  0.00000000000E+00 0. -1.
</event>
<event>
 7    1  0.3054835E-011  0.5052891E+02  0.7816164E-02  0.1300439E+00
        -11   -1    0    0    0    0  0.00000000000E+00  0.00000000000E+00  0.45593999997E+02  0.45594000000E+02  0.51100000000E-03 0.  1.
         11   -1    0    0    0    0 -0.00000000000E+00 -0.00000000000E+00 -0.45593999997E+02  0.45594000000E+02  0.51100000000E-03 0. -1.
    9900012    2    1    2    0    0  0.25655770766E+01  0.26660255637E+02  0.30591018528E+02  0.50528907156E+02  0.30000143791E+02 0.  0.
         12    1    1    2    0    0 -0.25655770766E+01 -0.26660255637E+02 -0.30591018528E+02  0.40659092844E+02  0.00000000000E+00 0. -1.
         11    1    3    3    0    0  0.60925198830E+01  0.61336695025E+01  0.39860494651E+01  0.95199417377E+01  0.51100000000E-03 0. -1.
        -11    1    3    3    0    0 -0.10800190184E+02  0.15595531676E+02  0.83045693223E+01  0.20708225133E+02  0.51100000000E-03 0.  1.
        -12    1    3    3    0    0  0.72732473772E+01  0.49310544581E+01  0.18300399740E+02  0.20300740285E+02  0.00000000000E+00 0.  1.
</event>
<event>
 7    1  0.3054835E-011  0.5052887E+02  0.7816164E-02  0.1300439E+00
        -11   -1    0    0    0    0  0.00000000000E+00  0.00000000000E+00  0.45593999997E+02  0.45594000000E+02  0.51100000000E-03 0.  1.
         11   -1    0    0    0    0 -0.00000000000E+00 -0.00000000000E+00 -0.45593999997E+02  0.45594000000E+02  0.51100000000E-03 0. -1.
    9900012    2    1    2    0    0  0.22312804010E+02  0.32632669661E+02  0.95085617815E+01  0.50528866965E+02  0.30000021626E+02 0.  0.
         12    1    1    2    0    0 -0.22312804010E+02 -0.32632669661E+02 -0.95085617815E+01  0.40659133035E+02  0.00000000000E+00 0. -1.
         11    1    3    3    0    0  0.95139092333E+01  0.45210476001E+01 -0.15171388463E+00  0.10534579140E+02  0.51100000000E-03 0. -1.
        -11    1    3    3    0    0  0.88206119666E+01  0.29069468035E+02  0.14495957979E+02  0.33659619209E+02  0.51100000000E-03 0.  1.
        -12    1    3    3    0    0  0.39782828105E+01 -0.95784597393E+00 -0.48356823132E+01  0.63346686152E+01  0.00000000000E+00 0.  1.
</event>
<event>
 7    1  0.3054835E-011  0.5052887E+02  0.7816164E-02  0.1300439E+00
        -11   -1    0    0    0    0  0.00000000000E+00  0.00000000000E+00  0.45593999997E+02  0.45594000000E+02  0.51100000000E-03 0.  1.
         11   -1    0    0    0    0 -0.00000000000E+00 -0.00000000000E+00 -0.45593999997E+02  0.45594000000E+02  0.51100000000E-03 0. -1.
    9900012    2    1    2    0    0 -0.36680493047E+02  0.69333903255E+01  0.16113175592E+02  0.50528869423E+02  0.30000029099E+02 0.  0.
         12    1    1    2    0    0  0.36680493047E+02 -0.69333903255E+01 -0.16113175592E+02  0.40659130577E+02  0.00000000000E+00 0. -1.
         11    1    3    3    0    0 -0.35454929268E+01  0.32894387956E+01  0.17914109613E+01  0.51575266531E+01  0.51100000000E-03 0. -1.
        -11    1    3    3    0    0 -0.21229156087E+02  0.78755869217E+01  0.21171235821E+02  0.30998760684E+02  0.51100000000E-03 0.  1.
        -12    1    3    3    0    0 -0.11905844033E+02 -0.42316353918E+01 -0.68494711895E+01  0.14372582086E+02  0.00000000000E+00 0.  1.
</event>
<event>
 7    1  0.3054835E-011  0.5052885E+02  0.7816164E-02  0.1300439E+00
        -11   -1    0    0    0    0  0.00000000000E+00  0.00000000000E+00  0.45593999997E+02  0.45594000000E+02  0.51100000000E-03 0.  1.
         11   -1    0    0    0    0 -0.00000000000E+00 -0.00000000000E+00 -0.45593999997E+02  0.45594000000E+02  0.51100000000E-03 0. -1.
    9900012    2    1    2    0    0 -0.12183018994E+02 -0.18093710671E+02  0.34312647819E+02  0.50528854436E+02  0.29999983542E+02 0.  0.
         12    1    1    2    0    0  0.12183018994E+02  0.18093710671E+02 -0.34312647819E+02  0.40659145564E+02  0.00000000000E+00 0. -1.
         11    1    3    3    0    0 -0.13585540234E+02 -0.32510557568E+01  0.10783716320E+02  0.17647232217E+02  0.51100000000E-03 0. -1.
        -11    1    3    3    0    0 -0.31653211591E+01 -0.76156056858E+01  0.22864310440E+02  0.24306242000E+02  0.51100000000E-03 0.  1.
        -12    1    3    3    0    0  0.45678423991E+01 -0.72270492284E+01  0.66462105849E+00  0.85753802181E+01  0.00000000000E+00 0.  1.
</event>
<event>
 7    1  0.3054835E-011  0.5052886E+02  0.7816164E-02  0.1300439E+00
        -11   -1    0    0    0    0  0.00000000000E+00  0.00000000000E+00  0.45593999997E+02  0.45594000000E+02  0.51100000000E-03 0. -1.
         11   -1    0    0    0    0 -0.00000000000E+00 -0.00000000000E+00 -0.45593999997E+02  0.45594000000E+02  0.51100000000E-03 0.  1.
    9900012    2    1    2    0    0  0.31290415107E+01  0.35146437968E+02  0.20201548774E+02  0.50528861108E+02  0.30000003823E+02 0.  0.
         12    1    1    2    0    0 -0.31290415107E+01 -0.35146437968E+02 -0.20201548774E+02  0.40659138892E+02  0.00000000000E+00 0. -1.
         11    1    3    3    0    0  0.10564071851E+02  0.15346874385E+01  0.20392606382E+00  0.10676912743E+02  0.51100000000E-03 0. -1.
        -11    1    3    3    0    0 -0.34393330621E+01  0.11981245849E+02  0.76903419514E+01  0.14646522577E+02  0.51100000000E-03 0.  1.
         12    1    3    3    0    0 -0.39956972787E+01  0.21630504681E+02  0.12307280758E+02  0.25205425788E+02  0.00000000000E+00 0. -1.
</event>
<event>
 7    1  0.3054835E-011  0.5052882E+02  0.7816164E-02  0.1300439E+00
        -11   -1    0    0    0    0  0.00000000000E+00  0.00000000000E+00  0.45593999997E+02  0.45594000000E+02  0.51100000000E-03 0.  1.
         11   -1    0    0    0    0 -0.00000000000E+00 -0.00000000000E+00 -0.45593999997E+02  0.45594000000E+02  0.51100000000E-03 0. -1.
    9900012    2    1    2    0    0  0.81926484601E+01 -0.27630644481E+02  0.28680953669E+02  0.50528817685E+02  0.29999871834E+02 0.  0.
         12    1    1    2    0    0 -0.81926484601E+01  0.27630644481E+02 -0.28680953669E+02  0.40659182315E+02  0.00000000000E+00 0. -1.
         11    1    3    3    0    0 -0.41448292720E+01 -0.23360632305E+02  0.15886916220E+02  0.28553333581E+02  0.51100000000E-03 0.  1.
        -11    1    3    3    0    0  0.95128350302E+01 -0.42644271252E+01  0.15086248939E+02  0.18337782754E+02  0.51100000000E-03 0. -1.
         12    1    3    3    0    0  0.28246427020E+01 -0.55850506033E-02 -0.22922114908E+01  0.36377013491E+01  0.00000000000E+00 0. -1.
</event>
<event>
 7    1  0.3054835E-011  0.5052886E+02  0.7816164E-02  0.1300439E+00
        -11   -1    0    0    0    0  0.00000000000E+00  0.00000000000E+00  0.45593999997E+02  0.45594000000E+02  0.51100000000E-03 0.  1.
         11   -1    0    0    0    0 -0.00000000000E+00 -0.00000000000E+00 -0.45593999997E+02  0.45594000000E+02  0.51100000000E-03 0. -1.
    9900012    2    1    2    0    0 -0.11435248295E+02  0.18636399619E+02  0.34279519628E+02  0.50528858835E+02  0.29999996916E+02 0.  0.
         12    1    1    2    0    0  0.11435248295E+02 -0.18636399619E+02 -0.34279519628E+02  0.40659141165E+02  0.00000000000E+00 0. -1.
         11    1    3    3    0    0 -0.11873022431E+02  0.58522317204E+01  0.20681102237E+01  0.13397550445E+02  0.51100000000E-03 0. -1.
        -11    1    3    3    0    0  0.48730365238E+01  0.69891242673E+01  0.26583996139E+02  0.27916002471E+02  0.51100000000E-03 0.  1.
        -12    1    3    3    0    0 -0.44352623871E+01  0.57950436310E+01  0.56274132649E+01  0.92153059190E+01  0.00000000000E+00 0.  1.
</event>
<event>
 7    1  0.3054835E-011  0.5052886E+02  0.7816164E-02  0.1300439E+00
        -11   -1    0    0    0    0  0.00000000000E+00  0.00000000000E+00  0.45593999997E+02  0.45594000000E+02  0.51100000000E-03 0.  1.
         11   -1    0    0    0    0 -0.00000000000E+00 -0.00000000000E+00 -0.45593999997E+02  0.45594000000E+02  0.51100000000E-03 0. -1.
    9900012    2    1    2    0    0 -0.20463700886E+02  0.33888735090E+02  0.92712425970E+01  0.50528863767E+02  0.30000011905E+02 0.  0.
         12    1    1    2    0    0  0.20463700886E+02 -0.33888735090E+02 -0.92712425970E+01  0.40659136233E+02  0.00000000000E+00 0. -1.
         11    1    3    3    0    0 -0.59074200459E+01  0.59812727209E+01 -0.12464466708E+01  0.84986389807E+01  0.51100000000E-03 0. -1.
        -11    1    3    3    0    0  0.11331700378E+00  0.24944044728E+02  0.25467786502E+01  0.25073976348E+02  0.51100000000E-03 0.  1.
        -12    1    3    3    0    0 -0.14669597844E+02  0.29634176411E+01  0.79709106176E+01  0.16956248438E+02  0.00000000000E+00 0.  1.
</event>
<event>
 7    1  0.3054835E-011  0.5052887E+02  0.7816164E-02  0.1300439E+00
        -11   -1    0    0    0    0  0.00000000000E+00  0.00000000000E+00  0.45593999997E+02  0.45594000000E+02  0.51100000000E-03 0. -1.
         11   -1    0    0    0    0 -0.00000000000E+00 -0.00000000000E+00 -0.45593999997E+02  0.45594000000E+02  0.51100000000E-03 0.  1.
    9900012    2    1    2    0    0  0.11565374133E+02  0.26825882928E+02 -0.28280368924E+02  0.50528866461E+02  0.30000020095E+02 0.  0.
         12    1    1    2    0    0 -0.11565374133E+02 -0.26825882928E+02  0.28280368924E+02  0.40659133539E+02  0.00000000000E+00 0. -1.
         11    1    3    3    0    0  0.17094573436E+02  0.59608682708E+01 -0.18646907157E+02  0.25989681380E+02  0.51100000000E-03 0. -1.
        -11    1    3    3    0    0 -0.25404529851E+01  0.16821372838E+02 -0.95518002032E+01  0.19510237644E+02  0.51100000000E-03 0.  1.
         12    1    3    3    0    0 -0.29887463177E+01  0.40436418188E+01 -0.81661564020E-01  0.50289474368E+01  0.00000000000E+00 0. -1.
</event>
<event>
 7    1  0.3054835E-011  0.5052887E+02  0.7816164E-02  0.1300439E+00
        -11   -1    0    0    0    0  0.00000000000E+00  0.00000000000E+00  0.45593999997E+02  0.45594000000E+02  0.51100000000E-03 0.  1.
         11   -1    0    0    0    0 -0.00000000000E+00 -0.00000000000E+00 -0.45593999997E+02  0.45594000000E+02  0.51100000000E-03 0. -1.
    9900012    2    1    2    0    0 -0.27767313529E+02 -0.13325788214E+02  0.26543636309E+02  0.50528868669E+02  0.30000026805E+02 0.  0.
         12    1    1    2    0    0  0.27767313529E+02  0.13325788214E+02 -0.26543636309E+02  0.40659131331E+02  0.00000000000E+00 0. -1.
         11    1    3    3    0    0 -0.21457958034E+02 -0.15568238005E+02  0.92350836253E+01  0.28073132483E+02  0.51100000000E-03 0. -1.
        -11    1    3    3    0    0  0.50711295181E-01  0.65669374166E+01  0.70578069401E+01  0.96405330628E+01  0.51100000000E-03 0.  1.
        -12    1    3    3    0    0 -0.63600667901E+01 -0.43244876257E+01  0.10250745743E+02  0.12815203123E+02  0.00000000000E+00 0.  1.
</event>
<event>
 7    1  0.3054835E-011  0.5052884E+02  0.7816164E-02  0.1300439E+00
        -11   -1    0    0    0    0  0.00000000000E+00  0.00000000000E+00  0.45593999997E+02  0.45594000000E+02  0.51100000000E-03 0. -1.
         11   -1    0    0    0    0 -0.00000000000E+00 -0.00000000000E+00 -0.45593999997E+02  0.45594000000E+02  0.51100000000E-03 0.  1.
    9900012    2    1    2    0    0  0.61916754113E+01 -0.21617785742E+02 -0.33874795378E+02  0.50528840310E+02  0.29999940606E+02 0.  0.
         12    1    1    2    0    0 -0.61916754113E+01  0.21617785742E+02  0.33874795378E+02  0.40659159690E+02  0.00000000000E+00 0. -1.
         11    1    3    3    0    0 -0.33459803623E+01  0.35149427753E+01 -0.32255468569E+01  0.58270541516E+01  0.51100000000E-03 0. -1.
        -11    1    3    3    0    0  0.11187083950E+01 -0.20640218152E+02 -0.12390269646E+02  0.24099562154E+02  0.51100000000E-03 0.  1.
        -12    1    3    3    0    0  0.84189473786E+01 -0.44925103645E+01 -0.18258978876E+02  0.20602224004E+02  0.00000000000E+00 0.  1.
</event>
<event>
 7    1  0.3054835E-011  0.5052886E+02  0.7816164E-02  0.1300439E+00
        -11   -1    0    0    0    0  0.00000000000E+00  0.00000000000E+00  0.45593999997E+02  0.45594000000E+02  0.51100000000E-03 0.  1.
         11   -1    0    0    0    0 -0.00000000000E+00 -0.00000000000E+00 -0.45593999997E+02  0.45594000000E+02  0.51100000000E-03 0. -1.
    9900012    2    1    2    0    0  0.11492200992E+02 -0.16886806999E+02  0.35155807163E+02  0.50528859435E+02  0.29999998737E+02 0.  0.
         12    1    1    2    0    0 -0.11492200992E+02  0.16886806999E+02 -0.35155807163E+02  0.40659140565E+02  0.00000000000E+00 0. -1.
         11    1    3    3    0    0  0.53105346104E+01  0.18310458597E+01 -0.15241231222E+00  0.56194071362E+01  0.51100000000E-03 0. -1.
        -11    1    3    3    0    0  0.39384339667E+01 -0.10187589892E+02  0.34341192970E+02  0.36036312031E+02  0.51100000000E-03 0.  1.
        -12    1    3    3    0    0  0.22432324148E+01 -0.85302629665E+01  0.96702650508E+00  0.88731402674E+01  0.00000000000E+00 0.  1.
</event>
<event>
 7    1  0.3054835E-011  0.5052886E+02  0.7816164E-02  0.1300439E+00
        -11   -1    0    0    0    0  0.00000000000E+00  0.00000000000E+00  0.45593999997E+02  0.45594000000E+02  0.51100000000E-03 0.  1.
         11   -1    0    0    0    0 -0.00000000000E+00 -0.00000000000E+00 -0.45593999997E+02  0.45594000000E+02  0.51100000000E-03 0. -1.
    9900012    2    1    2    0    0 -0.50698310810E+01 -0.32355916115E+02  0.24094759758E+02  0.50528856593E+02  0.29999990099E+02 0.  0.
         12    1    1    2    0    0  0.50698310810E+01  0.32355916115E+02 -0.24094759758E+02  0.40659143407E+02  0.00000000000E+00 0. -1.
         11    1    3    3    0    0 -0.63782811853E+00  0.49047368832E+01  0.45184971258E+00  0.49666323627E+01  0.51100000000E-03 0. -1.
        -11    1    3    3    0    0 -0.13384418221E+01 -0.32900781798E+02  0.23027390989E+02  0.40181010508E+02  0.51100000000E-03 0.  1.
        -12    1    3    3    0    0 -0.30935611404E+01 -0.43598711998E+01  0.61551905641E+00  0.53812137215E+01  0.00000000000E+00 0.  1.
</event>
<event>
 7    1  0.3054835E-011  0.5052886E+02  0.7816164E-02  0.1300439E+00
        -11   -1    0    0    0    0  0.00000000000E+00  0.00000000000E+00  0.45593999997E+02  0.45594000000E+02  0.51100000000E-03 0.  1.
         11   -1    0    0    0    0 -0.00000000000E+00 -0.00000000000E+00 -0.45593999997E+02  0.45594000000E+02  0.51100000000E-03 0. -1.
    9900012    2    1    2    0    0 -0.30901181343E+02 -0.22966587625E+01  0.26325051054E+02  0.50528856344E+02  0.29999989342E+02 0.  0.
         12    1    1    2    0    0  0.30901181343E+02  0.22966587625E+01 -0.26325051054E+02  0.40659143656E+02  0.00000000000E+00 0. -1.
         11    1    3    3    0    0 -0.35563220406E+01 -0.12523168551E+02  0.49701165532E+01  0.13934820983E+02  0.51100000000E-03 0. -1.
        -11    1    3    3    0    0 -0.22742076956E+02  0.67836090932E+01  0.15253423093E+02  0.28211457475E+02  0.51100000000E-03 0.  1.
         12    1    3    3    0    0 -0.46027823467E+01  0.34429006958E+01  0.61015114082E+01  0.83825778849E+01  0.00000000000E+00 0. -1.
</event>
<event>
 7    1  0.3054835E-011  0.5052887E+02  0.7816164E-02  0.1300439E+00
        -11   -1    0    0    0    0  0.00000000000E+00  0.00000000000E+00  0.45593999997E+02  0.45594000000E+02  0.51100000000E-03 0.  1.
         11   -1    0    0    0    0 -0.00000000000E+00 -0.00000000000E+00 -0.45593999997E+02  0.45594000000E+02  0.51100000000E-03 0. -1.
    9900012    2    1    2    0    0  0.28792584252E+02 -0.24961576562E+02  0.14179977686E+02  0.50528868436E+02  0.30000026098E+02 0.  0.
         12    1    1    2    0    0 -0.28792584252E+02  0.24961576562E+02 -0.14179977686E+02  0.40659131564E+02  0.00000000000E+00 0. -1.
         11    1    3    3    0    0  0.13287257116E+02 -0.13762396283E+02 -0.51343372354E+01  0.19806972818E+02  0.51100000000E-03 0. -1.
        -11    1    3    3    0    0  0.14144751384E+02 -0.19445211624E+01  0.13834458088E+02  0.19880829588E+02  0.51100000000E-03 0.  1.
        -12    1    3    3    0    0  0.13605757523E+01 -0.92546591165E+01  0.54798568340E+01  0.10841066030E+02  0.00000000000E+00 0.  1.
</event>
<event>
 7    1  0.3054835E-011  0.5052890E+02  0.7816164E-02  0.1300439E+00
        -11   -1    0    0    0    0  0.00000000000E+00  0.00000000000E+00  0.45593999997E+02  0.45594000000E+02  0.51100000000E-03 0.  1.
         11   -1    0    0    0    0 -0.00000000000E+00 -0.00000000000E+00 -0.45593999997E+02  0.45594000000E+02  0.51100000000E-03 0. -1.
    9900012    2    1    2    0    0  0.11414184737E+02  0.27097857540E+02  0.28081752670E+02  0.50528901025E+02  0.30000125156E+02 0.  0.
         12    1    1    2    0    0 -0.11414184737E+02 -0.27097857540E+02 -0.28081752670E+02  0.40659098975E+02  0.00000000000E+00 0. -1.
         11    1    3    3    0    0  0.70483581908E+00  0.13917733395E+02 -0.29331186563E+01  0.14240901717E+02  0.51100000000E-03 0. -1.
        -11    1    3    3    0    0  0.11580504127E+02  0.10599899191E+02  0.23203386514E+02  0.28015407987E+02  0.51100000000E-03 0.  1.
        -12    1    3    3    0    0 -0.87115520882E+00  0.25802249539E+01  0.78114848117E+01  0.82725913216E+01  0.00000000000E+00 0.  1.
</event>
<event>
 7    1  0.3054835E-011  0.5052885E+02  0.7816164E-02  0.1300439E+00
        -11   -1    0    0    0    0  0.00000000000E+00  0.00000000000E+00  0.45593999997E+02  0.45594000000E+02  0.51100000000E-03 0.  1.
         11   -1    0    0    0    0 -0.00000000000E+00 -0.00000000000E+00 -0.45593999997E+02  0.45594000000E+02  0.51100000000E-03 0. -1.
    9900012    2    1    2    0    0  0.12239344102E+02  0.14774019538E+02  0.35848200270E+02  0.50528847771E+02  0.29999963285E+02 0.  0.
         12    1    1    2    0    0 -0.12239344102E+02 -0.14774019538E+02 -0.35848200270E+02  0.40659152229E+02  0.00000000000E+00 0. -1.
         11    1    3    3    0    0  0.52495281154E+01  0.19548070599E+01 -0.27374363420E+01  0.62347713722E+01  0.51100000000E-03 0. -1.
        -11    1    3    3    0    0  0.11615863851E+02  0.11036649472E+02  0.33790085481E+02  0.37396601472E+02  0.51100000000E-03 0.  1.
        -12    1    3    3    0    0 -0.46260478642E+01  0.17825630056E+01  0.47955511315E+01  0.68974749268E+01  0.00000000000E+00 0.  1.
</event>
<event>
 7    1  0.3054835E-011  0.5052886E+02  0.7816164E-02  0.1300439E+00
        -11   -1    0    0    0    0  0.00000000000E+00  0.00000000000E+00  0.45593999997E+02  0.45594000000E+02  0.51100000000E-03 0.  1.
         11   -1    0    0    0    0 -0.00000000000E+00 -0.00000000000E+00 -0.45593999997E+02  0.45594000000E+02  0.51100000000E-03 0. -1.
    9900012    2    1    2    0    0  0.39044399177E+02  0.10809961452E+02  0.34416968869E+01  0.50528860177E+02  0.30000000994E+02 0.  0.
         12    1    1    2    0    0 -0.39044399177E+02 -0.10809961452E+02 -0.34416968869E+01  0.40659139823E+02  0.00000000000E+00 0. -1.
         11    1    3    3    0    0  0.14810630712E+00 -0.33943624512E+01  0.72802705429E+01  0.80340507446E+01  0.51100000000E-03 0. -1.
        -11    1    3    3    0    0  0.10019690607E+02  0.97627037953E+00  0.18260231095E+01  0.10231405787E+02  0.51100000000E-03 0.  1.
         12    1    3    3    0    0  0.28876602263E+02  0.13228053523E+02 -0.56645967654E+01  0.32263403645E+02  0.00000000000E+00 0. -1.
</event>
<event>
 7    1  0.3054835E-011  0.5052886E+02  0.7816164E-02  0.1300439E+00
        -11   -1    0    0    0    0  0.00000000000E+00  0.00000000000E+00  0.45593999997E+02  0.45594000000E+02  0.51100000000E-03 0. -1.
         11   -1    0    0    0    0 -0.00000000000E+00 -0.00000000000E+00 -0.45593999997E+02  0.45594000000E+02  0.51100000000E-03 0.  1.
    9900012    2    1    2    0    0  0.40526086124E+02  0.30466180506E+01 -0.12328776553E+01  0.50528861723E+02  0.30000005694E+02 0.  0.
         12    1    1    2    0    0 -0.40526086124E+02 -0.30466180506E+01  0.12328776553E+01  0.40659138277E+02  0.00000000000E+00 0. -1.
         11    1    3    3    0    0  0.14343295955E+02 -0.12599405912E+01  0.12341397542E+02  0.18963852001E+02  0.51100000000E-03 0. -1.
        -11    1    3    3    0    0  0.19294353216E+02  0.74133185148E+01 -0.79525708058E+01  0.22146619157E+02  0.51100000000E-03 0.  1.
         12    1    3    3    0    0  0.68884369536E+01 -0.31067598730E+01 -0.56217043918E+01  0.94183905653E+01  0.00000000000E+00 0. -1.
</event>
<event>
 7    1  0.3054835E-011  0.5052886E+02  0.7816164E-02  0.1300439E+00
        -11   -1    0    0    0    0  0.00000000000E+00  0.00000000000E+00  0.45593999997E+02  0.45594000000E+02  0.51100000000E-03 0.  1.
         11   -1    0    0    0    0 -0.00000000000E+00 -0.00000000000E+00 -0.45593999997E+02  0.45594000000E+02  0.51100000000E-03 0. -1.
    9900012    2    1    2    0    0  0.10873153959E+02  0.25236560210E+02  0.29967581720E+02  0.50528863236E+02  0.30000010292E+02 0.  0.
         12    1    1    2    0    0 -0.10873153959E+02 -0.25236560210E+02 -0.29967581720E+02  0.40659136764E+02  0.00000000000E+00 0. -1.
         11    1    3    3    0    0 -0.23570321917E+00  0.80631372172E+01  0.24047893444E+01  0.84174075488E+01  0.51100000000E-03 0. -1.
        -11    1    3    3    0    0  0.20829164416E+00  0.13300507901E+01  0.22070407157E+02  0.22111429010E+02  0.51100000000E-03 0.  1.
        -12    1    3    3    0    0  0.10900565534E+02  0.15843372202E+02  0.54923852186E+01  0.20000026677E+02  0.00000000000E+00 0.  1.
</event>
<event>
 7    1  0.3054835E-011  0.5052886E+02  0.7816164E-02  0.1300439E+00
        -11   -1    0    0    0    0  0.00000000000E+00  0.00000000000E+00  0.45593999997E+02  0.45594000000E+02  0.51100000000E-03 0.  1.
         11   -1    0    0    0    0 -0.00000000000E+00 -0.00000000000E+00 -0.45593999997E+02  0.45594000000E+02  0.51100000000E-03 0. -1.
    9900012    2    1    2    0    0 -0.17998404987E+02 -0.31609806170E+02  0.18167099687E+02  0.50528856635E+02  0.29999990227E+02 0.  0.
         12    1    1    2    0    0  0.17998404987E+02  0.31609806170E+02 -0.18167099687E+02  0.40659143365E+02  0.00000000000E+00 0. -1.
         11    1    3    3    0    0 -0.28377179563E+01 -0.20667650721E+02 -0.25123985371E+01  0.21012295834E+02  0.51100000000E-03 0. -1.
        -11    1    3    3    0    0 -0.15999800281E+02 -0.10898840119E+02  0.17068660024E+02  0.25809251834E+02  0.51100000000E-03 0.  1.
        -12    1    3    3    0    0  0.83911325030E+00 -0.43315329132E-01  0.36108382003E+01  0.37073089665E+01  0.00000000000E+00 0.  1.
</event>
<event>
 7    1  0.3054835E-011  0.5052886E+02  0.7816164E-02  0.1300439E+00
        -11   -1    0    0    0    0  0.00000000000E+00  0.00000000000E+00  0.45593999997E+02  0.45594000000E+02  0.51100000000E-03 0. -1.
         11   -1    0    0    0    0 -0.00000000000E+00 -0.00000000000E+00 -0.45593999997E+02  0.45594000000E+02  0.51100000000E-03 0.  1.
    9900012    2    1    2    0    0 -0.33333495487E+02  0.15340521672E+02  0.17513198624E+02  0.50528860159E+02  0.30000000940E+02 0.  0.
         12    1    1    2    0    0  0.33333495487E+02 -0.15340521672E+02 -0.17513198624E+02  0.40659139841E+02  0.00000000000E+00 0. -1.
         11    1    3    3    0    0 -0.44020737546E+01 -0.55535112363E+01  0.70329746832E+01  0.99841110545E+01  0.51100000000E-03 0. -1.
        -11    1    3    3    0    0 -0.69594862691E+01  0.14782670133E+02  0.50432001691E+01  0.17099580510E+02  0.51100000000E-03 0.  1.
        -12    1    3    3    0    0 -0.21971935463E+02  0.61113627747E+01  0.54370237721E+01  0.23445168595E+02  0.00000000000E+00 0.  1.
</event>
<event>
 7    1  0.3054835E-011  0.5052884E+02  0.7816164E-02  0.1300439E+00
        -11   -1    0    0    0    0  0.00000000000E+00  0.00000000000E+00  0.45593999997E+02  0.45594000000E+02  0.51100000000E-03 0.  1.
         11   -1    0    0    0    0 -0.00000000000E+00 -0.00000000000E+00 -0.45593999997E+02  0.45594000000E+02  0.51100000000E-03 0. -1.
    9900012    2    1    2    0    0  0.15457686097E+01  0.17972637238E+02  0.36438470325E+02  0.50528841014E+02  0.29999942745E+02 0.  0.
         12    1    1    2    0    0 -0.15457686097E+01 -0.17972637238E+02 -0.36438470325E+02  0.40659158986E+02  0.00000000000E+00 0. -1.
         11    1    3    3    0    0 -0.46613915101E+01 -0.34699327295E+01 -0.14397844003E+01  0.59868174633E+01  0.51100000000E-03 0. -1.
        -11    1    3    3    0    0  0.63014537474E+01  0.12509450845E+02  0.27398008297E+02  0.30770855345E+02  0.51100000000E-03 0.  1.
        -12    1    3    3    0    0 -0.94293627620E-01  0.89331191224E+01  0.10480246428E+02  0.13771168205E+02  0.00000000000E+00 0.  1.
</event>
<event>
 7    1  0.3054835E-011  0.5052886E+02  0.7816164E-02  0.1300439E+00
        -11   -1    0    0    0    0  0.00000000000E+00  0.00000000000E+00  0.45593999997E+02  0.45594000000E+02  0.51100000000E-03 0.  1.
         11   -1    0    0    0    0 -0.00000000000E+00 -0.00000000000E+00 -0.45593999997E+02  0.45594000000E+02  0.51100000000E-03 0. -1.
    9900012    2    1    2    0    0 -0.25799067528E+02 -0.13299503799E+02  0.28472735799E+02  0.50528863628E+02  0.30000011485E+02 0.  0.
         12    1    1    2    0    0  0.25799067528E+02  0.13299503799E+02 -0.28472735799E+02  0.40659136372E+02  0.00000000000E+00 0. -1.
         11    1    3    3    0    0 -0.59232614823E+00 -0.59405507598E+01 -0.41141015055E+01  0.72502982734E+01  0.51100000000E-03 0. -1.
        -11    1    3    3    0    0 -0.21373165491E+02 -0.78314579029E+01  0.32148422130E+02  0.39391178983E+02  0.51100000000E-03 0.  1.
        -12    1    3    3    0    0 -0.38335758882E+01  0.47250486397E+00  0.43841517489E+00  0.38873863717E+01  0.00000000000E+00 0.  1.
</event>
<event>
 7    1  0.3054835E-011  0.5052886E+02  0.7816164E-02  0.1300439E+00
        -11   -1    0    0    0    0  0.00000000000E+00  0.00000000000E+00  0.45593999997E+02  0.45594000000E+02  0.51100000000E-03 0.  1.
         11   -1    0    0    0    0 -0.00000000000E+00 -0.00000000000E+00 -0.45593999997E+02  0.45594000000E+02  0.51100000000E-03 0. -1.
    9900012    2    1    2    0    0 -0.33134520866E+02  0.16729801929E+02  0.16594661728E+02  0.50528861501E+02  0.30000005019E+02 0.  0.
         12    1    1    2    0    0  0.33134520866E+02 -0.16729801929E+02 -0.16594661728E+02  0.40659138499E+02  0.00000000000E+00 0. -1.
         11    1    3    3    0    0 -0.33579264991E+02  0.64066006216E+01  0.14070651059E+02  0.36967482879E+02  0.51100000000E-03 0. -1.
        -11    1    3    3    0    0 -0.27936731022E+01  0.42360906555E+00 -0.73489407554E-01  0.28265623992E+01  0.51100000000E-03 0.  1.
         12    1    3    3    0    0  0.32384172278E+01  0.98995922421E+01  0.25975000767E+01  0.10734816223E+02  0.00000000000E+00 0. -1.
</event>
<event>
 7    1  0.3054835E-011  0.5052885E+02  0.7816164E-02  0.1300439E+00
        -11   -1    0    0    0    0  0.00000000000E+00  0.00000000000E+00  0.45593999997E+02  0.45594000000E+02  0.51100000000E-03 0.  1.
         11   -1    0    0    0    0 -0.00000000000E+00 -0.00000000000E+00 -0.45593999997E+02  0.45594000000E+02  0.51100000000E-03 0. -1.
    9900012    2    1    2    0    0 -0.12903948003E+02 -0.33344334682E+02  0.19360008662E+02  0.50528850170E+02  0.29999970578E+02 0.  0.
         12    1    1    2    0    0  0.12903948003E+02  0.33344334682E+02 -0.19360008662E+02  0.40659149830E+02  0.00000000000E+00 0. -1.
         11    1    3    3    0    0  0.12180707386E+01 -0.18216106880E+02  0.21390692485E+00  0.18258039397E+02  0.51100000000E-03 0. -1.
        -11    1    3    3    0    0 -0.26374261959E+01 -0.56197185488E+01  0.15819914593E+02  0.16994321154E+02  0.51100000000E-03 0.  1.
        -12    1    3    3    0    0 -0.11484592546E+02 -0.95085092530E+01  0.33261871445E+01  0.15276489619E+02  0.00000000000E+00 0.  1.
</event>
<event>
 7    1  0.3054835E-011  0.5052886E+02  0.7816164E-02  0.1300439E+00
        -11   -1    0    0    0    0  0.00000000000E+00  0.00000000000E+00  0.45593999997E+02  0.45594000000E+02  0.51100000000E-03 0. -1.
         11   -1    0    0    0    0 -0.00000000000E+00 -0.00000000000E+00 -0.45593999997E+02  0.45594000000E+02  0.51100000000E-03 0.  1.
    9900012    2    1    2    0    0  0.26931509670E+02  0.77079241948E+01 -0.29469432227E+02  0.50528859032E+02  0.29999997515E+02 0.  0.
         12    1    1    2    0    0 -0.26931509670E+02 -0.77079241948E+01  0.29469432227E+02  0.40659140968E+02  0.00000000000E+00 0. -1.
         11    1    3    3    0    0  0.12701349016E+01  0.85707170257E+01  0.26000562845E+01  0.90460337136E+01  0.51100000000E-03 0. -1.
        -11    1    3    3    0    0  0.18994032501E+02 -0.89616721408E+00 -0.27364157364E+02  0.33322267253E+02  0.51100000000E-03 0.  1.
         12    1    3    3    0    0  0.66673422667E+01  0.33374383121E-01 -0.47053311468E+01  0.81605580662E+01  0.00000000000E+00 0. -1.
</event>
<event>
 7    1  0.3054835E-011  0.5052885E+02  0.7816164E-02  0.1300439E+00
        -11   -1    0    0    0    0  0.00000000000E+00  0.00000000000E+00  0.45593999997E+02  0.45594000000E+02  0.51100000000E-03 0.  1.
         11   -1    0    0    0    0 -0.00000000000E+00 -0.00000000000E+00 -0.45593999997E+02  0.45594000000E+02  0.51100000000E-03 0. -1.
    9900012    2    1    2    0    0  0.25484542186E+02 -0.30155432069E+02  0.97136192835E+01  0.50528851297E+02  0.29999974002E+02 0.  0.
         12    1    1    2    0    0 -0.25484542186E+02  0.30155432069E+02 -0.97136192835E+01  0.40659148703E+02  0.00000000000E+00 0. -1.
         11    1    3    3    0    0  0.41397106733E+01 -0.82190625989E+01 -0.10178843371E+02  0.13722209993E+02  0.51100000000E-03 0. -1.
        -11    1    3    3    0    0  0.18914807256E+02 -0.20120040828E+02  0.19362871273E+02  0.33726944134E+02  0.51100000000E-03 0.  1.
        -12    1    3    3    0    0  0.24300242562E+01 -0.18163286425E+01  0.52959138162E+00  0.30796971693E+01  0.00000000000E+00 0.  1.
</event>
<event>
 7    1  0.3054835E-011  0.5052885E+02  0.7816164E-02  0.1300439E+00
        -11   -1    0    0    0    0  0.00000000000E+00  0.00000000000E+00  0.45593999997E+02  0.45594000000E+02  0.51100000000E-03 0.  1.
         11   -1    0    0    0    0 -0.00000000000E+00 -0.00000000000E+00 -0.45593999997E+02  0.45594000000E+02  0.51100000000E-03 0. -1.
    9900012    2    1    2    0    0 -0.23467566795E+02 -0.87651316224E+01  0.32025186697E+02  0.50528845968E+02  0.29999957804E+02 0.  0.
         12    1    1    2    0    0  0.23467566795E+02  0.87651316224E+01 -0.32025186697E+02  0.40659154032E+02  0.00000000000E+00 0. -1.
         11    1    3    3    0    0 -0.16497334435E+02 -0.89492782099E+01  0.32561247865E+02  0.37583061168E+02  0.51100000000E-03 0.  1.
        -11    1    3    3    0    0 -0.73426971283E+01 -0.33191958022E+01 -0.30518971165E+01  0.86166314858E+01  0.51100000000E-03 0. -1.
         12    1    3    3    0    0  0.37246476820E+00  0.35033423897E+01  0.25158359481E+01  0.43291533146E+01  0.00000000000E+00 0. -1.
</event>
<event>
 7    1  0.3054835E-011  0.5052885E+02  0.7816164E-02  0.1300439E+00
        -11   -1    0    0    0    0  0.00000000000E+00  0.00000000000E+00  0.45593999997E+02  0.45594000000E+02  0.51100000000E-03 0.  1.
         11   -1    0    0    0    0 -0.00000000000E+00 -0.00000000000E+00 -0.45593999997E+02  0.45594000000E+02  0.51100000000E-03 0. -1.
    9900012    2    1    2    0    0  0.29825641773E+02  0.12972340209E+02  0.24399102824E+02  0.50528846832E+02  0.29999960432E+02 0.  0.
         12    1    1    2    0    0 -0.29825641773E+02 -0.12972340209E+02 -0.24399102824E+02  0.40659153168E+02  0.00000000000E+00 0. -1.
         11    1    3    3    0    0 -0.49754546048E+01 -0.12828261898E+01  0.25482930003E+01  0.57353804612E+01  0.51100000000E-03 0. -1.
        -11    1    3    3    0    0  0.20981152602E+02  0.48793963603E+01  0.76096651204E+01  0.22845662102E+02  0.51100000000E-03 0.  1.
         12    1    3    3    0    0  0.13819943776E+02  0.93757700384E+01  0.14241144704E+02  0.21947804269E+02  0.00000000000E+00 0. -1.
</event>
<event>
 7    1  0.3054835E-011  0.5052875E+02  0.7816164E-02  0.1300439E+00
        -11   -1    0    0    0    0  0.00000000000E+00  0.00000000000E+00  0.45593999997E+02  0.45594000000E+02  0.51100000000E-03 0. -1.
         11   -1    0    0    0    0 -0.00000000000E+00 -0.00000000000E+00 -0.45593999997E+02  0.45594000000E+02  0.51100000000E-03 0.  1.
    9900012    2    1    2    0    0 -0.24536146666E+02 -0.32411813654E+02  0.79157848753E+00  0.50528748235E+02  0.29999660735E+02 0.  0.
         12    1    1    2    0    0  0.24536146666E+02  0.32411813654E+02 -0.79157848753E+00  0.40659251765E+02  0.00000000000E+00 0. -1.
         11    1    3    3    0    0 -0.13279972980E+02 -0.14421501686E+01 -0.69030736670E+01  0.15036286302E+02  0.51100000000E-03 0. -1.
        -11    1    3    3    0    0 -0.11954546720E+02 -0.19067690375E+02  0.69187805831E+01  0.23544798333E+02  0.51100000000E-03 0.  1.
         12    1    3    3    0    0  0.69837303380E+00 -0.11901973110E+02  0.77587157146E+00  0.11947663600E+02  0.00000000000E+00 0. -1.
</event>
<event>
 7    1  0.3054835E-011  0.5052886E+02  0.7816164E-02  0.1300439E+00
        -11   -1    0    0    0    0  0.00000000000E+00  0.00000000000E+00  0.45593999997E+02  0.45594000000E+02  0.51100000000E-03 0.  1.
         11   -1    0    0    0    0 -0.00000000000E+00 -0.00000000000E+00 -0.45593999997E+02  0.45594000000E+02  0.51100000000E-03 0. -1.
    9900012    2    1    2    0    0  0.16400604475E+02  0.83383326906E+00  0.37195297890E+02  0.50528864616E+02  0.30000014487E+02 0.  0.
         12    1    1    2    0    0 -0.16400604475E+02 -0.83383326906E+00 -0.37195297890E+02  0.40659135384E+02  0.00000000000E+00 0. -1.
         11    1    3    3    0    0  0.47839503650E+01 -0.11372879212E+02  0.78395426072E+01  0.14618036504E+02  0.51100000000E-03 0. -1.
        -11    1    3    3    0    0  0.12587081517E+02  0.12167595771E+02  0.30007660949E+02  0.34741109998E+02  0.51100000000E-03 0.  1.
        -12    1    3    3    0    0 -0.97042740685E+00  0.39116710621E-01 -0.65190566683E+00  0.11697181145E+01  0.00000000000E+00 0.  1.
</event>
<event>
 7    1  0.3054835E-011  0.5052885E+02  0.7816164E-02  0.1300439E+00
        -11   -1    0    0    0    0  0.00000000000E+00  0.00000000000E+00  0.45593999997E+02  0.45594000000E+02  0.51100000000E-03 0.  1.
         11   -1    0    0    0    0 -0.00000000000E+00 -0.00000000000E+00 -0.45593999997E+02  0.45594000000E+02  0.51100000000E-03 0. -1.
    9900012    2    1    2    0    0  0.44392353279E+01  0.36504231719E+02  0.17346481631E+02  0.50528853812E+02  0.29999981648E+02 0.  0.
         12    1    1    2    0    0 -0.44392353279E+01 -0.36504231719E+02 -0.17346481631E+02  0.40659146188E+02  0.00000000000E+00 0. -1.
         11    1    3    3    0    0 -0.81906323734E+01  0.56302474828E+01  0.15059344869E+01  0.10052561083E+02  0.51100000000E-03 0. -1.
        -11    1    3    3    0    0  0.13752357231E+02  0.22299324494E+02  0.51063867546E+01  0.26691991089E+02  0.51100000000E-03 0.  1.
         12    1    3    3    0    0 -0.11224895300E+01  0.85746597422E+01  0.10734160390E+02  0.13784301641E+02  0.00000000000E+00 0. -1.
</event>
<event>
 7    1  0.3054835E-011  0.5052886E+02  0.7816164E-02  0.1300439E+00
        -11   -1    0    0    0    0  0.00000000000E+00  0.00000000000E+00  0.45593999997E+02  0.45594000000E+02  0.51100000000E-03 0.  1.
         11   -1    0    0    0    0 -0.00000000000E+00 -0.00000000000E+00 -0.45593999997E+02  0.45594000000E+02  0.51100000000E-03 0. -1.
    9900012    2    1    2    0    0  0.14560741383E+02  0.95199949505E+01  0.36749427479E+02  0.50528856951E+02  0.29999991187E+02 0.  0.
         12    1    1    2    0    0 -0.14560741383E+02 -0.95199949505E+01 -0.36749427479E+02  0.40659143049E+02  0.00000000000E+00 0. -1.
         11    1    3    3    0    0 -0.13699893975E+01  0.95793743936E+01  0.13796365545E+01  0.97746960058E+01  0.51100000000E-03 0. -1.
        -11    1    3    3    0    0  0.15043948041E+02  0.39089127578E+01  0.31569586309E+02  0.35188616790E+02  0.51100000000E-03 0.  1.
         12    1    3    3    0    0  0.88678274004E+00 -0.39682922009E+01  0.38002046151E+01  0.55655441545E+01  0.00000000000E+00 0. -1.
</event>
<event>
 7    1  0.3054835E-011  0.5052886E+02  0.7816164E-02  0.1300439E+00
        -11   -1    0    0    0    0  0.00000000000E+00  0.00000000000E+00  0.45593999997E+02  0.45594000000E+02  0.51100000000E-03 0.  1.
         11   -1    0    0    0    0 -0.00000000000E+00 -0.00000000000E+00 -0.45593999997E+02  0.45594000000E+02  0.51100000000E-03 0. -1.
    9900012    2    1    2    0    0  0.11489093846E+02  0.11349311967E+02  0.37314330371E+02  0.50528863136E+02  0.30000009988E+02 0.  0.
         12    1    1    2    0    0 -0.11489093846E+02 -0.11349311967E+02 -0.37314330371E+02  0.40659136864E+02  0.00000000000E+00 0. -1.
         11    1    3    3    0    0 -0.19526552342E+01 -0.41791264488E+00  0.83078964671E+00  0.21628049243E+01  0.51100000000E-03 0. -1.
        -11    1    3    3    0    0  0.17816344213E+02  0.32380922648E+01  0.11116010863E+02  0.21247895434E+02  0.51100000000E-03 0.  1.
        -12    1    3    3    0    0 -0.43745951328E+01  0.85291323470E+01  0.25367529861E+02  0.27118162777E+02  0.00000000000E+00 0.  1.
</event>
<event>
 7    1  0.3054835E-011  0.5052887E+02  0.7816164E-02  0.1300439E+00
        -11   -1    0    0    0    0  0.00000000000E+00  0.00000000000E+00  0.45593999997E+02  0.45594000000E+02  0.51100000000E-03 0. -1.
         11   -1    0    0    0    0 -0.00000000000E+00 -0.00000000000E+00 -0.45593999997E+02  0.45594000000E+02  0.51100000000E-03 0.  1.
    9900012    2    1    2    0    0  0.16702087932E+02  0.36922091733E+02 -0.33112876789E+01  0.50528865413E+02  0.30000016909E+02 0.  0.
         12    1    1    2    0    0 -0.16702087932E+02 -0.36922091733E+02  0.33112876789E+01  0.40659134587E+02  0.00000000000E+00 0. -1.
         11    1    3    3    0    0 -0.10145797382E+01  0.12319568032E+02  0.10641678916E+02  0.16310930659E+02  0.51100000000E-03 0. -1.
        -11    1    3    3    0    0  0.17773823418E+02  0.22672137652E+02 -0.11320414095E+02  0.30952970781E+02  0.51100000000E-03 0.  1.
        -12    1    3    3    0    0 -0.57155747511E-01  0.19303860493E+01 -0.26325525003E+01  0.32649639731E+01  0.00000000000E+00 0.  1.
</event>
<event>
 7    1  0.3054835E-011  0.5052885E+02  0.7816164E-02  0.1300439E+00
        -11   -1    0    0    0    0  0.00000000000E+00  0.00000000000E+00  0.45593999997E+02  0.45594000000E+02  0.51100000000E-03 0. -1.
         11   -1    0    0    0    0 -0.00000000000E+00 -0.00000000000E+00 -0.45593999997E+02  0.45594000000E+02  0.51100000000E-03 0.  1.
    9900012    2    1    2    0    0  0.36269918340E+02  0.99306246567E+01 -0.15460985675E+02  0.50528851454E+02  0.29999974479E+02 0.  0.
         12    1    1    2    0    0 -0.36269918340E+02 -0.99306246567E+01  0.15460985675E+02  0.40659148546E+02  0.00000000000E+00 0. -1.
         11    1    3    3    0    0  0.47426461249E+01  0.11577532552E+02 -0.13385496847E+01  0.12582673316E+02  0.51100000000E-03 0. -1.
        -11    1    3    3    0    0  0.20245578142E+02 -0.84919088428E+01 -0.76553874572E+01  0.23250825952E+02  0.51100000000E-03 0.  1.
        -12    1    3    3    0    0  0.11281694073E+02  0.68450009476E+01 -0.64670485329E+01  0.14695352186E+02  0.00000000000E+00 0.  1.
</event>
<event>
 7    1  0.3054835E-011  0.5052886E+02  0.7816164E-02  0.1300439E+00
        -11   -1    0    0    0    0  0.00000000000E+00  0.00000000000E+00  0.45593999997E+02  0.45594000000E+02  0.51100000000E-03 0.  1.
         11   -1    0    0    0    0 -0.00000000000E+00 -0.00000000000E+00 -0.45593999997E+02  0.45594000000E+02  0.51100000000E-03 0. -1.
    9900012    2    1    2    0    0 -0.37278869834E+02  0.10401961842E+01  0.16197819416E+02  0.50528862060E+02  0.30000006718E+02 0.  0.
         12    1    1    2    0    0  0.37278869834E+02 -0.10401961842E+01 -0.16197819416E+02  0.40659137940E+02  0.00000000000E+00 0. -1.
         11    1    3    3    0    0 -0.19889411979E+01 -0.61403807003E+00 -0.38607946059E+01  0.43861902707E+01  0.51100000000E-03 0. -1.
        -11    1    3    3    0    0 -0.16112089467E+02 -0.93886092353E+01  0.13629387423E+02  0.23097740412E+02  0.51100000000E-03 0.  1.
        -12    1    3    3    0    0 -0.19177839169E+02  0.11042843489E+02  0.64292265994E+01  0.23044931377E+02  0.00000000000E+00 0.  1.
</event>
<event>
 7    1  0.3054835E-011  0.5052886E+02  0.7816164E-02  0.1300439E+00
        -11   -1    0    0    0    0  0.00000000000E+00  0.00000000000E+00  0.45593999997E+02  0.45594000000E+02  0.51100000000E-03 0.  1.
         11   -1    0    0    0    0 -0.00000000000E+00 -0.00000000000E+00 -0.45593999997E+02  0.45594000000E+02  0.51100000000E-03 0. -1.
    9900012    2    1    2    0    0 -0.28668159327E+01  0.22151294096E+02  0.33974503900E+02  0.50528863524E+02  0.30000011168E+02 0.  0.
         12    1    1    2    0    0  0.28668159327E+01 -0.22151294096E+02 -0.33974503900E+02  0.40659136476E+02  0.00000000000E+00 0. -1.
         11    1    3    3    0    0 -0.56476568614E+01  0.38124974661E+01  0.14696791302E+02  0.16199593815E+02  0.51100000000E-03 0. -1.
        -11    1    3    3    0    0  0.51321294732E+01  0.13889063845E+02  0.42142923889E+00  0.14812914983E+02  0.51100000000E-03 0.  1.
        -12    1    3    3    0    0 -0.23512885445E+01  0.44497327848E+01  0.18856283359E+02  0.19516354726E+02  0.00000000000E+00 0.  1.
</event>
<event>
 7    1  0.3558290E-011  0.5052886E+02  0.7816164E-02  0.1300439E+00
        -11   -1    0    0    0    0  0.00000000000E+00  0.00000000000E+00  0.45593999997E+02  0.45594000000E+02  0.51100000000E-03 0. -1.
         11   -1    0    0    0    0 -0.00000000000E+00 -0.00000000000E+00 -0.45593999997E+02  0.45594000000E+02  0.51100000000E-03 0.  1.
    9900012    2    1    2    0    0 -0.20292917278E+02 -0.49939478952E+01 -0.34877265031E+02  0.50528860520E+02  0.30000002037E+02 0.  0.
         12    1    1    2    0    0  0.20292917278E+02  0.49939478952E+01  0.34877265031E+02  0.40659139480E+02  0.00000000000E+00 0. -1.
         11    1    3    3    0    0 -0.49507109127E+01  0.45176448097E+01  0.19103081106E+01  0.69690695581E+01  0.51100000000E-03 0. -1.
        -11    1    3    3    0    0 -0.12818300989E+02  0.34721177673E+00 -0.24060952870E+02  0.27264608002E+02  0.51100000000E-03 0.  1.
         12    1    3    3    0    0 -0.25239053763E+01 -0.98588044816E+01 -0.12726620272E+02  0.16295182960E+02  0.00000000000E+00 0. -1.
</event>
<event>
 7    1  0.3054835E-011  0.5052887E+02  0.7816164E-02  0.1300439E+00
        -11   -1    0    0    0    0  0.00000000000E+00  0.00000000000E+00  0.45593999997E+02  0.45594000000E+02  0.51100000000E-03 0.  1.
         11   -1    0    0    0    0 -0.00000000000E+00 -0.00000000000E+00 -0.45593999997E+02  0.45594000000E+02  0.51100000000E-03 0. -1.
    9900012    2    1    2    0    0  0.12251900926E+02 -0.88616183613E+01  0.37742911007E+02  0.50528872026E+02  0.30000037012E+02 0.  0.
         12    1    1    2    0    0 -0.12251900926E+02  0.88616183613E+01 -0.37742911007E+02  0.40659127974E+02  0.00000000000E+00 0. -1.
         11    1    3    3    0    0  0.61484356358E+01 -0.16430255889E+02  0.20137676258E+02  0.26707350575E+02  0.51100000000E-03 0. -1.
        -11    1    3    3    0    0  0.33339536956E+01  0.61171919773E+01  0.11367868622E+01  0.70588646087E+01  0.51100000000E-03 0.  1.
        -12    1    3    3    0    0  0.27695115946E+01  0.14514455508E+01  0.16468447886E+02  0.16762656843E+02  0.00000000000E+00 0.  1.
</event>
<event>
 7    1  0.3054835E-011  0.5052886E+02  0.7816164E-02  0.1300439E+00
        -11   -1    0    0    0    0  0.00000000000E+00  0.00000000000E+00  0.45593999997E+02  0.45594000000E+02  0.51100000000E-03 0. -1.
         11   -1    0    0    0    0 -0.00000000000E+00 -0.00000000000E+00 -0.45593999997E+02  0.45594000000E+02  0.51100000000E-03 0.  1.
    9900012    2    1    2    0    0 -0.39322773280E+02  0.51136490008E+01 -0.89853159149E+01  0.50528858265E+02  0.29999995183E+02 0.  0.
         12    1    1    2    0    0  0.39322773280E+02 -0.51136490008E+01  0.89853159149E+01  0.40659141735E+02  0.00000000000E+00 0. -1.
         11    1    3    3    0    0 -0.14559331838E+02 -0.13808423006E+01 -0.16935448717E+02  0.22376109862E+02  0.51100000000E-03 0. -1.
        -11    1    3    3    0    0 -0.20345011314E+02  0.73267507734E+01  0.36474373083E+01  0.21929536280E+02  0.51100000000E-03 0.  1.
         12    1    3    3    0    0 -0.44184301277E+01 -0.83225947210E+00  0.43026954940E+01  0.62232121237E+01  0.00000000000E+00 0. -1.
</event>
<event>
 7    1  0.3054835E-011  0.5052889E+02  0.7816164E-02  0.1300439E+00
        -11   -1    0    0    0    0  0.00000000000E+00  0.00000000000E+00  0.45593999997E+02  0.45594000000E+02  0.51100000000E-03 0.  1.
         11   -1    0    0    0    0 -0.00000000000E+00 -0.00000000000E+00 -0.45593999997E+02  0.45594000000E+02  0.51100000000E-03 0. -1.
    9900012    2    1    2    0    0 -0.75927811619E+01 -0.11966887756E+02  0.38109139907E+02  0.50528889425E+02  0.30000089896E+02 0.  0.
         12    1    1    2    0    0  0.75927811619E+01  0.11966887756E+02 -0.38109139907E+02  0.40659110575E+02  0.00000000000E+00 0. -1.
         11    1    3    3    0    0  0.63825941488E+01 -0.18805944929E+01  0.36323320322E+01  0.75807638117E+01  0.51100000000E-03 0. -1.
        -11    1    3    3    0    0 -0.99250006644E+01 -0.80360919472E+01  0.59964313085E+01  0.14108210399E+02  0.51100000000E-03 0.  1.
        -12    1    3    3    0    0 -0.40503746463E+01 -0.20502013160E+01  0.28480376566E+02  0.28839915214E+02  0.00000000000E+00 0.  1.
</event>
<event>
 7    1  0.3054835E-011  0.5052887E+02  0.7816164E-02  0.1300439E+00
        -11   -1    0    0    0    0  0.00000000000E+00  0.00000000000E+00  0.45593999997E+02  0.45594000000E+02  0.51100000000E-03 0.  1.
         11   -1    0    0    0    0 -0.00000000000E+00 -0.00000000000E+00 -0.45593999997E+02  0.45594000000E+02  0.51100000000E-03 0. -1.
    9900012    2    1    2    0    0  0.27122687974E+02  0.43975067887E+01  0.29969767450E+02  0.50528865357E+02  0.30000016739E+02 0.  0.
         12    1    1    2    0    0 -0.27122687974E+02 -0.43975067887E+01 -0.29969767450E+02  0.40659134643E+02  0.00000000000E+00 0. -1.
         11    1    3    3    0    0  0.16775407079E+02  0.13331566318E+02  0.14811120679E+02  0.26048305879E+02  0.51100000000E-03 0. -1.
        -11    1    3    3    0    0  0.19593457913E+01 -0.34368586316E+01  0.13805177829E+02  0.14360848455E+02  0.51100000000E-03 0.  1.
         12    1    3    3    0    0  0.83879351038E+01 -0.54972008975E+01  0.13534689425E+01  0.10119711023E+02  0.00000000000E+00 0. -1.
</event>
<event>
 7    1  0.3054835E-011  0.5052885E+02  0.7816164E-02  0.1300439E+00
        -11   -1    0    0    0    0  0.00000000000E+00  0.00000000000E+00  0.45593999997E+02  0.45594000000E+02  0.51100000000E-03 0.  1.
         11   -1    0    0    0    0 -0.00000000000E+00 -0.00000000000E+00 -0.45593999997E+02  0.45594000000E+02  0.51100000000E-03 0. -1.
    9900012    2    1    2    0    0 -0.16029211798E+02 -0.11052502223E+02  0.35694154995E+02  0.50528854202E+02  0.29999982831E+02 0.  0.
         12    1    1    2    0    0  0.16029211798E+02  0.11052502223E+02 -0.35694154995E+02  0.40659145798E+02  0.00000000000E+00 0. -1.
         11    1    3    3    0    0  0.52908552830E+01  0.79959885192E+00  0.16112443492E+01  0.55882570238E+01  0.51100000000E-03 0. -1.
        -11    1    3    3    0    0 -0.16140016641E+02 -0.15055320215E+02  0.31159737926E+02  0.38184971805E+02  0.51100000000E-03 0.  1.
        -12    1    3    3    0    0 -0.51800504399E+01  0.32032191397E+01  0.29231727204E+01  0.67556253723E+01  0.00000000000E+00 0.  1.
</event>
<event>
 7    1  0.3054835E-011  0.5052886E+02  0.7816164E-02  0.1300439E+00
        -11   -1    0    0    0    0  0.00000000000E+00  0.00000000000E+00  0.45593999997E+02  0.45594000000E+02  0.51100000000E-03 0.  1.
         11   -1    0    0    0    0 -0.00000000000E+00 -0.00000000000E+00 -0.45593999997E+02  0.45594000000E+02  0.51100000000E-03 0. -1.
    9900012    2    1    2    0    0  0.26574740178E+02 -0.88007648494E+01  0.29487204279E+02  0.50528862114E+02  0.30000006882E+02 0.  0.
         12    1    1    2    0    0 -0.26574740178E+02  0.88007648494E+01 -0.29487204279E+02  0.40659137886E+02  0.00000000000E+00 0. -1.
         11    1    3    3    0    0  0.27237068136E+02 -0.96581054488E+01  0.25795874503E+02  0.38737114285E+02  0.51100000000E-03 0. -1.
        -11    1    3    3    0    0 -0.10122991289E+01 -0.48139960836E+01  0.36225829154E+01  0.61092074002E+01  0.51100000000E-03 0.  1.
         12    1    3    3    0    0  0.34997117068E+00  0.56713366829E+01  0.68746860230E-01  0.56825404286E+01  0.00000000000E+00 0. -1.
</event>
<event>
 7    1  0.3054835E-011  0.5052886E+02  0.7816164E-02  0.1300439E+00
        -11   -1    0    0    0    0  0.00000000000E+00  0.00000000000E+00  0.45593999997E+02  0.45594000000E+02  0.51100000000E-03 0.  1.
         11   -1    0    0    0    0 -0.00000000000E+00 -0.00000000000E+00 -0.45593999997E+02  0.45594000000E+02  0.51100000000E-03 0. -1.
    9900012    2    1    2    0    0 -0.11493729721E+02  0.29843078899E+02  0.25108780684E+02  0.50528855291E+02  0.29999986141E+02 0.  0.
         12    1    1    2    0    0  0.11493729721E+02 -0.29843078899E+02 -0.25108780684E+02  0.40659144709E+02  0.00000000000E+00 0. -1.
         11    1    3    3    0    0 -0.11907424457E+02  0.17232094652E+02  0.54471362647E+00  0.20953008292E+02  0.51100000000E-03 0. -1.
        -11    1    3    3    0    0  0.43432714210E+01  0.15126758392E+01  0.55026004092E+01  0.71715274772E+01  0.51100000000E-03 0.  1.
         12    1    3    3    0    0 -0.39295766850E+01  0.11098308408E+02  0.19061466648E+02  0.22404319522E+02  0.00000000000E+00 0. -1.
</event>
<event>
 7    1  0.3054835E-011  0.5052885E+02  0.7816164E-02  0.1300439E+00
        -11   -1    0    0    0    0  0.00000000000E+00  0.00000000000E+00  0.45593999997E+02  0.45594000000E+02  0.51100000000E-03 0. -1.
         11   -1    0    0    0    0 -0.00000000000E+00 -0.00000000000E+00 -0.45593999997E+02  0.45594000000E+02  0.51100000000E-03 0.  1.
    9900012    2    1    2    0    0  0.38526432550E+02 -0.32614959220E+01 -0.12579473800E+02  0.50528849471E+02  0.29999968451E+02 0.  0.
         12    1    1    2    0    0 -0.38526432550E+02  0.32614959220E+01  0.12579473800E+02  0.40659150529E+02  0.00000000000E+00 0. -1.
         11    1    3    3    0    0 -0.28909509128E+01  0.15481586746E+01  0.17969354826E+01  0.37394344295E+01  0.51100000000E-03 0. -1.
        -11    1    3    3    0    0  0.23145279264E+02 -0.10295895927E+02 -0.65236601848E+01  0.26158508512E+02  0.51100000000E-03 0.  1.
        -12    1    3    3    0    0  0.18272104199E+02  0.54862413299E+01 -0.78527490977E+01  0.20630906529E+02  0.00000000000E+00 0.  1.
</event>
<event>
 7    1  0.3054835E-011  0.5052881E+02  0.7816164E-02  0.1300439E+00
        -11   -1    0    0    0    0  0.00000000000E+00  0.00000000000E+00  0.45593999997E+02  0.45594000000E+02  0.51100000000E-03 0.  1.
         11   -1    0    0    0    0 -0.00000000000E+00 -0.00000000000E+00 -0.45593999997E+02  0.45594000000E+02  0.51100000000E-03 0. -1.
    9900012    2    1    2    0    0  0.14785588548E+02 -0.26706630074E+02  0.26857248273E+02  0.50528812804E+02  0.29999857000E+02 0.  0.
         12    1    1    2    0    0 -0.14785588548E+02  0.26706630074E+02 -0.26857248273E+02  0.40659187196E+02  0.00000000000E+00 0. -1.
         11    1    3    3    0    0  0.10974521112E+02  0.10046901908E+01  0.16675617189E+02  0.19988139606E+02  0.51100000000E-03 0. -1.
        -11    1    3    3    0    0  0.34378376883E+01 -0.19966629622E+02  0.10420843320E+02  0.22783305339E+02  0.51100000000E-03 0.  1.
         12    1    3    3    0    0  0.37322974793E+00 -0.77446906430E+01 -0.23921223663E+00  0.77573678587E+01  0.00000000000E+00 0. -1.
</event>
<event>
 7    1  0.3054835E-011  0.5052887E+02  0.7816164E-02  0.1300439E+00
        -11   -1    0    0    0    0  0.00000000000E+00  0.00000000000E+00  0.45593999997E+02  0.45594000000E+02  0.51100000000E-03 0.  1.
         11   -1    0    0    0    0 -0.00000000000E+00 -0.00000000000E+00 -0.45593999997E+02  0.45594000000E+02  0.51100000000E-03 0. -1.
    9900012    2    1    2    0    0 -0.17342984201E+02 -0.36335650479E+02 -0.56662410085E+01  0.50528869612E+02  0.30000029673E+02 0.  0.
         12    1    1    2    0    0  0.17342984201E+02  0.36335650479E+02  0.56662410085E+01  0.40659130388E+02  0.00000000000E+00 0. -1.
         11    1    3    3    0    0  0.73264891916E+01 -0.84261850236E+01 -0.18093574967E+01  0.11311578702E+02  0.51100000000E-03 0. -1.
        -11    1    3    3    0    0 -0.21915967079E+02 -0.22821628644E+02  0.10105638378E+01  0.31656872658E+02  0.51100000000E-03 0.  1.
        -12    1    3    3    0    0 -0.27535063139E+01 -0.50878368115E+01 -0.48674473496E+01  0.75604182518E+01  0.00000000000E+00 0.  1.
</event>
<event>
 7    1  0.3054835E-011  0.5052885E+02  0.7816164E-02  0.1300439E+00
        -11   -1    0    0    0    0  0.00000000000E+00  0.00000000000E+00  0.45593999997E+02  0.45594000000E+02  0.51100000000E-03 0.  1.
         11   -1    0    0    0    0 -0.00000000000E+00 -0.00000000000E+00 -0.45593999997E+02  0.45594000000E+02  0.51100000000E-03 0. -1.
    9900012    2    1    2    0    0 -0.18549136246E+02  0.36151839862E+02 -0.14630418097E+01  0.50528850080E+02  0.29999970302E+02 0.  0.
         12    1    1    2    0    0  0.18549136246E+02 -0.36151839862E+02  0.14630418097E+01  0.40659149920E+02  0.00000000000E+00 0. -1.
         11    1    3    3    0    0 -0.10470419943E+02  0.11828912313E+01 -0.57092579113E+01  0.11984346107E+02  0.51100000000E-03 0. -1.
        -11    1    3    3    0    0 -0.73949091633E+01  0.18949771576E+02 -0.36587662081E+01  0.20667972681E+02  0.51100000000E-03 0.  1.
         12    1    3    3    0    0 -0.68380713996E+00  0.16019177055E+02  0.79049823096E+01  0.17876531292E+02  0.00000000000E+00 0. -1.
</event>
<event>
 7    1  0.3054835E-011  0.5052886E+02  0.7816164E-02  0.1300439E+00
        -11   -1    0    0    0    0  0.00000000000E+00  0.00000000000E+00  0.45593999997E+02  0.45594000000E+02  0.51100000000E-03 0.  1.
         11   -1    0    0    0    0 -0.00000000000E+00 -0.00000000000E+00 -0.45593999997E+02  0.45594000000E+02  0.51100000000E-03 0. -1.
    9900012    2    1    2    0    0  0.17563754004E+01  0.99078127017E+01  0.39394365922E+02  0.50528859902E+02  0.30000000159E+02 0.  0.
         12    1    1    2    0    0 -0.17563754004E+01 -0.99078127017E+01 -0.39394365922E+02  0.40659140098E+02  0.00000000000E+00 0. -1.
         11    1    3    3    0    0  0.46945501469E+01 -0.60647423749E+01  0.11401541485E+01  0.77536993041E+01  0.51100000000E-03 0. -1.
        -11    1    3    3    0    0  0.51692072999E+00  0.12260468348E+02  0.17263360286E+02  0.21180413117E+02  0.51100000000E-03 0.  1.
         12    1    3    3    0    0 -0.34550954765E+01  0.37120867281E+01  0.20990851487E+02  0.21594747482E+02  0.00000000000E+00 0. -1.
</event>
<event>
 7    1  0.3054835E-011  0.5052885E+02  0.7816164E-02  0.1300439E+00
        -11   -1    0    0    0    0  0.00000000000E+00  0.00000000000E+00  0.45593999997E+02  0.45594000000E+02  0.51100000000E-03 0. -1.
         11   -1    0    0    0    0 -0.00000000000E+00 -0.00000000000E+00 -0.45593999997E+02  0.45594000000E+02  0.51100000000E-03 0.  1.
    9900012    2    1    2    0    0  0.53544119519E+01  0.23477693052E+02 -0.32761172813E+02  0.50528852905E+02  0.29999978890E+02 0.  0.
         12    1    1    2    0    0 -0.53544119519E+01 -0.23477693052E+02  0.32761172813E+02  0.40659147095E+02  0.00000000000E+00 0. -1.
         11    1    3    3    0    0  0.23304614340E+01  0.48193637521E+00 -0.17913586923E+02  0.18070968703E+02  0.51100000000E-03 0. -1.
        -11    1    3    3    0    0 -0.37232367599E+01  0.21626883581E+02 -0.11956429592E+02  0.24990814197E+02  0.51100000000E-03 0.  1.
        -12    1    3    3    0    0  0.67471872778E+01  0.13688730963E+01 -0.28911562979E+01  0.74670700046E+01  0.00000000000E+00 0.  1.
</event>
<event>
 7    1  0.3054835E-011  0.5052886E+02  0.7816164E-02  0.1300439E+00
        -11   -1    0    0    0    0  0.00000000000E+00  0.00000000000E+00  0.45593999997E+02  0.45594000000E+02  0.51100000000E-03 0.  1.
         11   -1    0    0    0    0 -0.00000000000E+00 -0.00000000000E+00 -0.45593999997E+02  0.45594000000E+02  0.51100000000E-03 0. -1.
    9900012    2    1    2    0    0 -0.37981470023E+02  0.10486311752E+02  0.10030492390E+02  0.50528861090E+02  0.30000003771E+02 0.  0.
         12    1    1    2    0    0  0.37981470023E+02 -0.10486311752E+02 -0.10030492390E+02  0.40659138910E+02  0.00000000000E+00 0. -1.
         11    1    3    3    0    0 -0.13154487784E+02  0.15937103733E+02 -0.32311771011E+01  0.20915839213E+02  0.51100000000E-03 0. -1.
        -11    1    3    3    0    0 -0.17294941849E+02 -0.80180559031E+00  0.65750003509E+01  0.18519949666E+02  0.51100000000E-03 0.  1.
         12    1    3    3    0    0 -0.75320403902E+01 -0.46489863905E+01  0.66866691405E+01  0.11093072212E+02  0.00000000000E+00 0. -1.
</event>
<event>
 7    1  0.3054835E-011  0.5052887E+02  0.7816164E-02  0.1300439E+00
        -11   -1    0    0    0    0  0.00000000000E+00  0.00000000000E+00  0.45593999997E+02  0.45594000000E+02  0.51100000000E-03 0. -1.
         11   -1    0    0    0    0 -0.00000000000E+00 -0.00000000000E+00 -0.45593999997E+02  0.45594000000E+02  0.51100000000E-03 0.  1.
    9900012    2    1    2    0    0 -0.29075919535E+02  0.28384852802E+01 -0.28278950452E+02  0.50528866535E+02  0.30000020320E+02 0.  0.
         12    1    1    2    0    0  0.29075919535E+02 -0.28384852802E+01  0.28278950452E+02  0.40659133465E+02  0.00000000000E+00 0. -1.
         11    1    3    3    0    0  0.30005983098E+01  0.30413885224E+01 -0.41587647891E+01  0.59622947925E+01  0.51100000000E-03 0. -1.
        -11    1    3    3    0    0 -0.20285346666E+02 -0.12043633554E+01 -0.32561752614E+01  0.20580292953E+02  0.51100000000E-03 0.  1.
         12    1    3    3    0    0 -0.11791171179E+02  0.10014601132E+01 -0.20864010402E+02  0.23986278789E+02  0.00000000000E+00 0. -1.
</event>
<event>
 7    1  0.3054835E-011  0.5052886E+02  0.7816164E-02  0.1300439E+00
        -11   -1    0    0    0    0  0.00000000000E+00  0.00000000000E+00  0.45593999997E+02  0.45594000000E+02  0.51100000000E-03 0. -1.
         11   -1    0    0    0    0 -0.00000000000E+00 -0.00000000000E+00 -0.45593999997E+02  0.45594000000E+02  0.51100000000E-03 0.  1.
    9900012    2    1    2    0    0  0.39471439839E+02 -0.66668077274E+01  0.71221397288E+01  0.50528858807E+02  0.29999996829E+02 0.  0.
         12    1    1    2    0    0 -0.39471439839E+02  0.66668077274E+01 -0.71221397288E+01  0.40659141193E+02  0.00000000000E+00 0. -1.
         11    1    3    3    0    0  0.10285525156E+02 -0.97651414938E+01 -0.39668791714E+01  0.14727054925E+02  0.51100000000E-03 0. -1.
        -11    1    3    3    0    0  0.27347067171E+02  0.23104137659E+01  0.15096606063E+02  0.31322637334E+02  0.51100000000E-03 0.  1.
         12    1    3    3    0    0  0.18388475118E+01  0.78792000053E+00 -0.40075871631E+01  0.44791665484E+01  0.00000000000E+00 0. -1.
</event>
<event>
 7    1  0.3054835E-011  0.5052885E+02  0.7816164E-02  0.1300439E+00
        -11   -1    0    0    0    0  0.00000000000E+00  0.00000000000E+00  0.45593999997E+02  0.45594000000E+02  0.51100000000E-03 0.  1.
         11   -1    0    0    0    0 -0.00000000000E+00 -0.00000000000E+00 -0.45593999997E+02  0.45594000000E+02  0.51100000000E-03 0. -1.
    9900012    2    1    2    0    0 -0.25786514976E+02  0.12316588758E+02  0.28922714891E+02  0.50528854044E+02  0.29999982352E+02 0.  0.
         12    1    1    2    0    0  0.25786514976E+02 -0.12316588758E+02 -0.28922714891E+02  0.40659145956E+02  0.00000000000E+00 0. -1.
         11    1    3    3    0    0 -0.13402135538E+02  0.40789483511E+01 -0.33467957865E+01  0.14403336382E+02  0.51100000000E-03 0. -1.
        -11    1    3    3    0    0 -0.44916029355E+01  0.66371983406E+01  0.18719954643E+02  0.20363290521E+02  0.51100000000E-03 0.  1.
         12    1    3    3    0    0 -0.78927765026E+01  0.16004420658E+01  0.13549556034E+02  0.15762227141E+02  0.00000000000E+00 0. -1.
</event>
<event>
 7    1  0.3054835E-011  0.5052887E+02  0.7816164E-02  0.1300439E+00
        -11   -1    0    0    0    0  0.00000000000E+00  0.00000000000E+00  0.45593999997E+02  0.45594000000E+02  0.51100000000E-03 0. -1.
         11   -1    0    0    0    0 -0.00000000000E+00 -0.00000000000E+00 -0.45593999997E+02  0.45594000000E+02  0.51100000000E-03 0.  1.
    9900012    2    1    2    0    0  0.32320393404E+02  0.17524704471E+02  0.17362074589E+02  0.50528871498E+02  0.30000035404E+02 0.  0.
         12    1    1    2    0    0 -0.32320393404E+02 -0.17524704471E+02 -0.17362074589E+02  0.40659128502E+02  0.00000000000E+00 0. -1.
         11    1    3    3    0    0 -0.35869428408E+01 -0.69693633316E+00  0.82327620770E+01  0.90072332530E+01  0.51100000000E-03 0. -1.
        -11    1    3    3    0    0  0.25045195223E+02  0.14911332119E+02  0.67620254837E+01  0.29922142608E+02  0.51100000000E-03 0.  1.
         12    1    3    3    0    0  0.10862141022E+02  0.33103086847E+01  0.23672870279E+01  0.11599495637E+02  0.00000000000E+00 0. -1.
</event>
<event>
 7    1  0.3054835E-011  0.5052886E+02  0.7816164E-02  0.1300439E+00
        -11   -1    0    0    0    0  0.00000000000E+00  0.00000000000E+00  0.45593999997E+02  0.45594000000E+02  0.51100000000E-03 0.  1.
         11   -1    0    0    0    0 -0.00000000000E+00 -0.00000000000E+00 -0.45593999997E+02  0.45594000000E+02  0.51100000000E-03 0. -1.
    9900012    2    1    2    0    0  0.38500145622E+02 -0.76734981158E+01 -0.10584050607E+02  0.50528856951E+02  0.29999991188E+02 0.  0.
         12    1    1    2    0    0 -0.38500145622E+02  0.76734981158E+01  0.10584050607E+02  0.40659143049E+02  0.00000000000E+00 0. -1.
         11    1    3    3    0    0  0.82707264903E+01  0.10591321133E+02 -0.33022265441E+00  0.13442099809E+02  0.51100000000E-03 0. -1.
        -11    1    3    3    0    0  0.85150266521E+01 -0.77530857164E+01 -0.33800116836E+01  0.12001687225E+02  0.51100000000E-03 0.  1.
         12    1    3    3    0    0  0.21714392480E+02 -0.10511733532E+02 -0.68738162685E+01  0.25085069916E+02  0.00000000000E+00 0. -1.
</event>
<event>
 7    1  0.3054835E-011  0.5052886E+02  0.7816164E-02  0.1300439E+00
        -11   -1    0    0    0    0  0.00000000000E+00  0.00000000000E+00  0.45593999997E+02  0.45594000000E+02  0.51100000000E-03 0. -1.
         11   -1    0    0    0    0 -0.00000000000E+00 -0.00000000000E+00 -0.45593999997E+02  0.45594000000E+02  0.51100000000E-03 0.  1.
    9900012    2    1    2    0    0 -0.11111574986E+02  0.10556444734E+02 -0.37659788076E+02  0.50528864962E+02  0.30000015540E+02 0.  0.
         12    1    1    2    0    0  0.11111574986E+02 -0.10556444734E+02  0.37659788076E+02  0.40659135038E+02  0.00000000000E+00 0. -1.
         11    1    3    3    0    0  0.29046851534E+01  0.11134159635E+02 -0.39950670738E+01  0.12180610321E+02  0.51100000000E-03 0. -1.
        -11    1    3    3    0    0 -0.15331458573E+02  0.18508516277E+01 -0.30182812769E+02  0.33904003608E+02  0.51100000000E-03 0.  1.
        -12    1    3    3    0    0  0.13151984334E+01 -0.24285665288E+01 -0.34819082328E+01  0.44442510331E+01  0.00000000000E+00 0.  1.
</event>
<event>
 7    1  0.3054835E-011  0.5052886E+02  0.7816164E-02  0.1300439E+00
        -11   -1    0    0    0    0  0.00000000000E+00  0.00000000000E+00  0.45593999997E+02  0.45594000000E+02  0.51100000000E-03 0. -1.
         11   -1    0    0    0    0 -0.00000000000E+00 -0.00000000000E+00 -0.45593999997E+02  0.45594000000E+02  0.51100000000E-03 0.  1.
    9900012    2    1    2    0    0  0.88201333730E+01  0.31989827248E+02 -0.23495153912E+02  0.50528855181E+02  0.29999985807E+02 0.  0.
         12    1    1    2    0    0 -0.88201333730E+01 -0.31989827248E+02  0.23495153912E+02  0.40659144819E+02  0.00000000000E+00 0. -1.
         11    1    3    3    0    0 -0.17699047344E+01 -0.27257520923E+01 -0.50949736878E+01  0.60432643810E+01  0.51100000000E-03 0. -1.
        -11    1    3    3    0    0  0.97492220486E+01  0.16726629174E+02 -0.91052673070E+00  0.19381860418E+02  0.51100000000E-03 0.  1.
        -12    1    3    3    0    0  0.84081605880E+00  0.17988950166E+02 -0.17489653494E+02  0.25103730382E+02  0.00000000000E+00 0.  1.
</event>
<event>
 7    1  0.3054835E-011  0.5052887E+02  0.7816164E-02  0.1300439E+00
        -11   -1    0    0    0    0  0.00000000000E+00  0.00000000000E+00  0.45593999997E+02  0.45594000000E+02  0.51100000000E-03 0. -1.
         11   -1    0    0    0    0 -0.00000000000E+00 -0.00000000000E+00 -0.45593999997E+02  0.45594000000E+02  0.51100000000E-03 0.  1.
    9900012    2    1    2    0    0 -0.31444444783E+02  0.24299582170E+02 -0.85989677828E+01  0.50528867591E+02  0.30000023530E+02 0.  0.
         12    1    1    2    0    0  0.31444444783E+02 -0.24299582170E+02  0.85989677828E+01  0.40659132409E+02  0.00000000000E+00 0. -1.
         11    1    3    3    0    0  0.17295238512E+01 -0.55650852724E+00 -0.80783984439E+01  0.82801857571E+01  0.51100000000E-03 0. -1.
        -11    1    3    3    0    0 -0.24819918219E+02  0.20757559005E+02 -0.33344296946E+01  0.32527265761E+02  0.51100000000E-03 0.  1.
         12    1    3    3    0    0 -0.83540504150E+01  0.40985316925E+01  0.28138603557E+01  0.97214160734E+01  0.00000000000E+00 0. -1.
</event>
<event>
 7    1  0.3054835E-011  0.5052886E+02  0.7816164E-02  0.1300439E+00
        -11   -1    0    0    0    0  0.00000000000E+00  0.00000000000E+00  0.45593999997E+02  0.45594000000E+02  0.51100000000E-03 0. -1.
         11   -1    0    0    0    0 -0.00000000000E+00 -0.00000000000E+00 -0.45593999997E+02  0.45594000000E+02  0.51100000000E-03 0.  1.
    9900012    2    1    2    0    0 -0.12499627755E+01  0.21517437469E+02 -0.34476122122E+02  0.50528861805E+02  0.30000005942E+02 0.  0.
         12    1    1    2    0    0  0.12499627755E+01 -0.21517437469E+02  0.34476122122E+02  0.40659138195E+02  0.00000000000E+00 0. -1.
         11    1    3    3    0    0 -0.43611346570E+01 -0.62738614542E+01 -0.12659399616E+02  0.14786521969E+02  0.51100000000E-03 0. -1.
        -11    1    3    3    0    0 -0.11296350961E+01  0.70014048343E+01 -0.56313491721E+01  0.90558179566E+01  0.51100000000E-03 0.  1.
         12    1    3    3    0    0  0.42408069777E+01  0.20789894089E+02 -0.16185373334E+02  0.26686521879E+02  0.00000000000E+00 0. -1.
</event>
<event>
 7    1  0.3054835E-011  0.5052886E+02  0.7816164E-02  0.1300439E+00
        -11   -1    0    0    0    0  0.00000000000E+00  0.00000000000E+00  0.45593999997E+02  0.45594000000E+02  0.51100000000E-03 0.  1.
         11   -1    0    0    0    0 -0.00000000000E+00 -0.00000000000E+00 -0.45593999997E+02  0.45594000000E+02  0.51100000000E-03 0. -1.
    9900012    2    1    2    0    0 -0.17521934455E+01 -0.19265504285E+02  0.35762212320E+02  0.50528859979E+02  0.30000000392E+02 0.  0.
         12    1    1    2    0    0  0.17521934455E+01  0.19265504285E+02 -0.35762212320E+02  0.40659140021E+02  0.00000000000E+00 0. -1.
         11    1    3    3    0    0 -0.44113176449E+01 -0.87264231631E+01  0.85940340961E+00  0.98157403729E+01  0.51100000000E-03 0. -1.
        -11    1    3    3    0    0  0.70484346319E+01 -0.13741975367E+02  0.27342102233E+02  0.31402434182E+02  0.51100000000E-03 0.  1.
        -12    1    3    3    0    0 -0.43893104325E+01  0.32028942443E+01  0.75607066770E+01  0.93106854242E+01  0.00000000000E+00 0.  1.
</event>
<event>
 7    1  0.3054835E-011  0.5052886E+02  0.7816164E-02  0.1300439E+00
        -11   -1    0    0    0    0  0.00000000000E+00  0.00000000000E+00  0.45593999997E+02  0.45594000000E+02  0.51100000000E-03 0.  1.
         11   -1    0    0    0    0 -0.00000000000E+00 -0.00000000000E+00 -0.45593999997E+02  0.45594000000E+02  0.51100000000E-03 0. -1.
    9900012    2    1    2    0    0  0.22286828459E+02  0.31588098569E+02 -0.12595837121E+02  0.50528858264E+02  0.29999995178E+02 0.  0.
         12    1    1    2    0    0 -0.22286828459E+02 -0.31588098569E+02  0.12595837121E+02  0.40659141736E+02  0.00000000000E+00 0. -1.
         11    1    3    3    0    0 -0.28378290478E+01  0.22832111759E+01 -0.13423950595E+01  0.38817974877E+01  0.51100000000E-03 0. -1.
        -11    1    3    3    0    0  0.29182360917E+02  0.29004948429E+02 -0.95658575379E+01  0.42242192802E+02  0.51100000000E-03 0.  1.
        -12    1    3    3    0    0 -0.40577034097E+01  0.29993896405E+00 -0.16875845232E+01  0.44048679738E+01  0.00000000000E+00 0.  1.
</event>
<event>
 7    1  0.3054835E-011  0.5052887E+02  0.7816164E-02  0.1300439E+00
        -11   -1    0    0    0    0  0.00000000000E+00  0.00000000000E+00  0.45593999997E+02  0.45594000000E+02  0.51100000000E-03 0.  1.
         11   -1    0    0    0    0 -0.00000000000E+00 -0.00000000000E+00 -0.45593999997E+02  0.45594000000E+02  0.51100000000E-03 0. -1.
    9900012    2    1    2    0    0 -0.27546821917E+02 -0.25859554488E+02  0.15020685532E+02  0.50528868801E+02  0.30000027206E+02 0.  0.
         12    1    1    2    0    0  0.27546821917E+02  0.25859554488E+02 -0.15020685532E+02  0.40659131199E+02  0.00000000000E+00 0. -1.
         11    1    3    3    0    0 -0.11966178104E+02 -0.13448323736E+02 -0.34855309401E+01  0.18335641683E+02  0.51100000000E-03 0. -1.
        -11    1    3    3    0    0  0.11510258820E+01 -0.49462974509E+01  0.11511605486E+02  0.12582041972E+02  0.51100000000E-03 0.  1.
        -12    1    3    3    0    0 -0.16731669695E+02 -0.74649333005E+01  0.69946109856E+01  0.19611185146E+02  0.00000000000E+00 0.  1.
</event>
<event>
 7    1  0.3054835E-011  0.5052886E+02  0.7816164E-02  0.1300439E+00
        -11   -1    0    0    0    0  0.00000000000E+00  0.00000000000E+00  0.45593999997E+02  0.45594000000E+02  0.51100000000E-03 0.  1.
         11   -1    0    0    0    0 -0.00000000000E+00 -0.00000000000E+00 -0.45593999997E+02  0.45594000000E+02  0.51100000000E-03 0. -1.
    9900012    2    1    2    0    0 -0.38855081927E+02  0.11822414671E+02  0.19180518509E+01  0.50528858308E+02  0.29999995314E+02 0.  0.
         12    1    1    2    0    0  0.38855081927E+02 -0.11822414671E+02 -0.19180518509E+01  0.40659141692E+02  0.00000000000E+00 0. -1.
         11    1    3    3    0    0  0.16710946884E+01  0.10044476059E+01 -0.82567394421E+00  0.21173592453E+01  0.51100000000E-03 0. -1.
        -11    1    3    3    0    0 -0.34894056762E+02  0.15816364196E+02 -0.37148153170E+01  0.38490939542E+02  0.51100000000E-03 0.  1.
        -12    1    3    3    0    0 -0.56321198534E+01 -0.49983971308E+01  0.64585411121E+01  0.99205595214E+01  0.00000000000E+00 0.  1.
</event>
<event>
 7    1  0.3054835E-011  0.5052893E+02  0.7816164E-02  0.1300439E+00
        -11   -1    0    0    0    0  0.00000000000E+00  0.00000000000E+00  0.45593999997E+02  0.45594000000E+02  0.51100000000E-03 0.  1.
         11   -1    0    0    0    0 -0.00000000000E+00 -0.00000000000E+00 -0.45593999997E+02  0.45594000000E+02  0.51100000000E-03 0. -1.
    9900012    2    1    2    0    0  0.34311531559E+02  0.15419139212E+02  0.15431435206E+02  0.50528926665E+02  0.30000203089E+02 0.  0.
         12    1    1    2    0    0 -0.34311531559E+02 -0.15419139212E+02 -0.15431435206E+02  0.40659073335E+02  0.00000000000E+00 0. -1.
         11    1    3    3    0    0  0.63256205336E+01  0.15656949477E+02 -0.95824086554E+00  0.16913656254E+02  0.51100000000E-03 0. -1.
        -11    1    3    3    0    0  0.17763961284E+02 -0.32371824805E+01  0.13593944687E+02  0.22601615061E+02  0.51100000000E-03 0.  1.
         12    1    3    3    0    0  0.10221949741E+02  0.29993722158E+01  0.27957313837E+01  0.11013655350E+02  0.00000000000E+00 0. -1.
</event>
<event>
 7    1  0.3054835E-011  0.5052886E+02  0.7816164E-02  0.1300439E+00
        -11   -1    0    0    0    0  0.00000000000E+00  0.00000000000E+00  0.45593999997E+02  0.45594000000E+02  0.51100000000E-03 0.  1.
         11   -1    0    0    0    0 -0.00000000000E+00 -0.00000000000E+00 -0.45593999997E+02  0.45594000000E+02  0.51100000000E-03 0. -1.
    9900012    2    1    2    0    0 -0.71551058381E+01  0.36139671705E+02  0.17201569722E+02  0.50528863125E+02  0.30000009956E+02 0.  0.
         12    1    1    2    0    0  0.71551058381E+01 -0.36139671705E+02 -0.17201569722E+02  0.40659136875E+02  0.00000000000E+00 0. -1.
         11    1    3    3    0    0 -0.16096767239E+02  0.87929959740E+01  0.63019864466E+01  0.19394270473E+02  0.51100000000E-03 0. -1.
        -11    1    3    3    0    0  0.94948457672E+01  0.24965653469E+02  0.10205795450E+02  0.28593604360E+02  0.51100000000E-03 0.  1.
         12    1    3    3    0    0 -0.55318436652E+00  0.23810222625E+01  0.69378782445E+00  0.25409882926E+01  0.00000000000E+00 0. -1.
</event>
<event>
 7    1  0.3054835E-011  0.5052887E+02  0.7816164E-02  0.1300439E+00
        -11   -1    0    0    0    0  0.00000000000E+00  0.00000000000E+00  0.45593999997E+02  0.45594000000E+02  0.51100000000E-03 0.  1.
         11   -1    0    0    0    0 -0.00000000000E+00 -0.00000000000E+00 -0.45593999997E+02  0.45594000000E+02  0.51100000000E-03 0. -1.
    9900012    2    1    2    0    0 -0.97981556571E+01 -0.21357693629E+02  0.33181466867E+02  0.50528872183E+02  0.30000037486E+02 0.  0.
         12    1    1    2    0    0  0.97981556571E+01  0.21357693629E+02 -0.33181466867E+02  0.40659127817E+02  0.00000000000E+00 0. -1.
         11    1    3    3    0    0  0.56813774161E+01 -0.16073767410E+02  0.16633235746E+02  0.23818240484E+02  0.51100000000E-03 0. -1.
        -11    1    3    3    0    0 -0.71742824920E+01 -0.89494373828E+01  0.11837572112E+02  0.16483048035E+02  0.51100000000E-03 0.  1.
         12    1    3    3    0    0 -0.83052505812E+01  0.36655111638E+01  0.47106590088E+01  0.10227583664E+02  0.00000000000E+00 0. -1.
</event>
<event>
 7    1  0.3054835E-011  0.5052886E+02  0.7816164E-02  0.1300439E+00
        -11   -1    0    0    0    0  0.00000000000E+00  0.00000000000E+00  0.45593999997E+02  0.45594000000E+02  0.51100000000E-03 0.  1.
         11   -1    0    0    0    0 -0.00000000000E+00 -0.00000000000E+00 -0.45593999997E+02  0.45594000000E+02  0.51100000000E-03 0. -1.
    9900012    2    1    2    0    0 -0.19662055819E+02 -0.26930134370E+02  0.23266644712E+02  0.50528864097E+02  0.30000012908E+02 0.  0.
         12    1    1    2    0    0  0.19662055819E+02  0.26930134370E+02 -0.23266644712E+02  0.40659135903E+02  0.00000000000E+00 0. -1.
         11    1    3    3    0    0 -0.35817915339E+01 -0.22133094228E+02  0.16911801798E+02  0.28084019140E+02  0.51100000000E-03 0. -1.
        -11    1    3    3    0    0 -0.15567740177E+02 -0.83846929448E+01  0.40186765548E+01  0.18133046393E+02  0.51100000000E-03 0.  1.
         12    1    3    3    0    0 -0.51252410804E+00  0.35876528026E+01  0.23361663595E+01  0.43117985636E+01  0.00000000000E+00 0. -1.
</event>
<event>
 7    1  0.3054835E-011  0.5052878E+02  0.7816164E-02  0.1300439E+00
        -11   -1    0    0    0    0  0.00000000000E+00  0.00000000000E+00  0.45593999997E+02  0.45594000000E+02  0.51100000000E-03 0.  1.
         11   -1    0    0    0    0 -0.00000000000E+00 -0.00000000000E+00 -0.45593999997E+02  0.45594000000E+02  0.51100000000E-03 0. -1.
    9900012    2    1    2    0    0  0.42571113600E+01 -0.12786865647E+02  0.38360721690E+02  0.50528783348E+02  0.29999767463E+02 0.  0.
         12    1    1    2    0    0 -0.42571113600E+01  0.12786865647E+02 -0.38360721690E+02  0.40659216652E+02  0.00000000000E+00 0. -1.
         11    1    3    3    0    0 -0.10669334452E+02 -0.17372823874E+01  0.18507903807E+02  0.21433510009E+02  0.51100000000E-03 0. -1.
        -11    1    3    3    0    0  0.96367662593E+01 -0.40498704704E+01  0.44333211759E+01  0.11354428725E+02  0.51100000000E-03 0.  1.
         12    1    3    3    0    0  0.52896795526E+01 -0.69997127890E+01  0.15419496707E+02  0.17740844614E+02  0.00000000000E+00 0. -1.
</event>
<event>
 7    1  0.3054835E-011  0.5052886E+02  0.7816164E-02  0.1300439E+00
        -11   -1    0    0    0    0  0.00000000000E+00  0.00000000000E+00  0.45593999997E+02  0.45594000000E+02  0.51100000000E-03 0.  1.
         11   -1    0    0    0    0 -0.00000000000E+00 -0.00000000000E+00 -0.45593999997E+02  0.45594000000E+02  0.51100000000E-03 0. -1.
    9900012    2    1    2    0    0  0.22063662681E+02 -0.10256249047E+02  0.32575605281E+02  0.50528856935E+02  0.29999991139E+02 0.  0.
         12    1    1    2    0    0 -0.22063662681E+02  0.10256249047E+02 -0.32575605281E+02  0.40659143065E+02  0.00000000000E+00 0. -1.
         11    1    3    3    0    0  0.66782778249E+01 -0.13529689948E+02  0.10529132840E+02  0.18398764725E+02  0.51100000000E-03 0. -1.
        -11    1    3    3    0    0  0.15407846635E+02 -0.85838167013E+00  0.23178746085E+02  0.27845876308E+02  0.51100000000E-03 0.  1.
         12    1    3    3    0    0 -0.22461778349E-01  0.41318225711E+01 -0.11322736442E+01  0.42842159021E+01  0.00000000000E+00 0. -1.
</event>
<event>
 7    1  0.3054835E-011  0.5052892E+02  0.7816164E-02  0.1300439E+00
        -11   -1    0    0    0    0  0.00000000000E+00  0.00000000000E+00  0.45593999997E+02  0.45594000000E+02  0.51100000000E-03 0. -1.
         11   -1    0    0    0    0 -0.00000000000E+00 -0.00000000000E+00 -0.45593999997E+02  0.45594000000E+02  0.51100000000E-03 0.  1.
    9900012    2    1    2    0    0  0.97993786052E+01  0.12237213806E+02 -0.37515108186E+02  0.50528922724E+02  0.30000191110E+02 0.  0.
         12    1    1    2    0    0 -0.97993786052E+01 -0.12237213806E+02  0.37515108186E+02  0.40659077276E+02  0.00000000000E+00 0. -1.
         11    1    3    3    0    0 -0.41133552221E+01 -0.11936270912E+01  0.14894836566E+01  0.45346442683E+01  0.51100000000E-03 0. -1.
        -11    1    3    3    0    0  0.77183668575E+01  0.56404794917E-01 -0.22886726671E+02  0.24153232215E+02  0.51100000000E-03 0.  1.
         12    1    3    3    0    0  0.61943669698E+01  0.13374436102E+02 -0.16117865171E+02  0.21841046241E+02  0.00000000000E+00 0. -1.
</event>
<event>
 7    1  0.3054835E-011  0.5052886E+02  0.7816164E-02  0.1300439E+00
        -11   -1    0    0    0    0  0.00000000000E+00  0.00000000000E+00  0.45593999997E+02  0.45594000000E+02  0.51100000000E-03 0.  1.
         11   -1    0    0    0    0 -0.00000000000E+00 -0.00000000000E+00 -0.45593999997E+02  0.45594000000E+02  0.51100000000E-03 0. -1.
    9900012    2    1    2    0    0  0.34424658994E+02 -0.17001758634E+02  0.13380898990E+02  0.50528863250E+02  0.30000010335E+02 0.  0.
         12    1    1    2    0    0 -0.34424658994E+02  0.17001758634E+02 -0.13380898990E+02  0.40659136750E+02  0.00000000000E+00 0. -1.
         11    1    3    3    0    0  0.16561023853E+02  0.22594165716E+01 -0.89091002889E+00  0.16738165827E+02  0.51100000000E-03 0. -1.
        -11    1    3    3    0    0  0.28596541928E+01 -0.92551749343E+01  0.12288660312E+02  0.15647589517E+02  0.51100000000E-03 0.  1.
        -12    1    3    3    0    0  0.15003980948E+02 -0.10006000271E+02  0.19831487069E+01  0.18143107907E+02  0.00000000000E+00 0.  1.
</event>
<event>
 7    1  0.3054835E-011  0.5052886E+02  0.7816164E-02  0.1300439E+00
        -11   -1    0    0    0    0  0.00000000000E+00  0.00000000000E+00  0.45593999997E+02  0.45594000000E+02  0.51100000000E-03 0.  1.
         11   -1    0    0    0    0 -0.00000000000E+00 -0.00000000000E+00 -0.45593999997E+02  0.45594000000E+02  0.51100000000E-03 0. -1.
    9900012    2    1    2    0    0 -0.15121719469E+01  0.31590371953E+02  0.25552445119E+02  0.50528859383E+02  0.29999998581E+02 0.  0.
         12    1    1    2    0    0  0.15121719469E+01 -0.31590371953E+02 -0.25552445119E+02  0.40659140617E+02  0.00000000000E+00 0. -1.
         11    1    3    3    0    0  0.66161560526E+01  0.30581130090E+01 -0.12868222922E+01  0.74014517469E+01  0.51100000000E-03 0. -1.
        -11    1    3    3    0    0 -0.23719236660E+01  0.26757748091E+02  0.25320497415E+02  0.36915182437E+02  0.51100000000E-03 0.  1.
         12    1    3    3    0    0 -0.57564043336E+01  0.17745108537E+01  0.15187699960E+01  0.62122251989E+01  0.00000000000E+00 0. -1.
</event>
<event>
 7    1  0.3054835E-011  0.5052887E+02  0.7816164E-02  0.1300439E+00
        -11   -1    0    0    0    0  0.00000000000E+00  0.00000000000E+00  0.45593999997E+02  0.45594000000E+02  0.51100000000E-03 0. -1.
         11   -1    0    0    0    0 -0.00000000000E+00 -0.00000000000E+00 -0.45593999997E+02  0.45594000000E+02  0.51100000000E-03 0.  1.
    9900012    2    1    2    0    0 -0.14550471234E+02  0.99632596849E+01 -0.36635801234E+02  0.50528872012E+02  0.30000036967E+02 0.  0.
         12    1    1    2    0    0  0.14550471234E+02 -0.99632596849E+01  0.36635801234E+02  0.40659127988E+02  0.00000000000E+00 0. -1.
         11    1    3    3    0    0  0.39004485778E+01  0.41521183820E+01 -0.19454761478E+02  0.20271687907E+02  0.51100000000E-03 0. -1.
        -11    1    3    3    0    0 -0.18028821815E+02  0.74700824808E+01 -0.82901399127E+01  0.21202994325E+02  0.51100000000E-03 0.  1.
        -12    1    3    3    0    0 -0.42209799731E+00 -0.16589411779E+01 -0.88908998435E+01  0.90541897803E+01  0.00000000000E+00 0.  1.
</event>
<event>
 7    1  0.3054835E-011  0.5052887E+02  0.7816164E-02  0.1300439E+00
        -11   -1    0    0    0    0  0.00000000000E+00  0.00000000000E+00  0.45593999997E+02  0.45594000000E+02  0.51100000000E-03 0.  1.
         11   -1    0    0    0    0 -0.00000000000E+00 -0.00000000000E+00 -0.45593999997E+02  0.45594000000E+02  0.51100000000E-03 0. -1.
    9900012    2    1    2    0    0  0.20067730783E+02  0.28175329950E+02  0.21368247622E+02  0.50528867655E+02  0.30000023725E+02 0.  0.
         12    1    1    2    0    0 -0.20067730783E+02 -0.28175329950E+02 -0.21368247622E+02  0.40659132345E+02  0.00000000000E+00 0. -1.
         11    1    3    3    0    0  0.68581058718E+01 -0.80923644616E-01  0.41394698960E+01  0.80109535054E+01  0.51100000000E-03 0. -1.
        -11    1    3    3    0    0  0.19267436185E+02  0.24010929240E+02  0.16886168531E+02  0.35112697248E+02  0.51100000000E-03 0.  1.
        -12    1    3    3    0    0 -0.60578112733E+01  0.42453243547E+01  0.34260919490E+00  0.74052169016E+01  0.00000000000E+00 0.  1.
</event>
<event>
 7    1  0.3054835E-011  0.5052888E+02  0.7816164E-02  0.1300439E+00
        -11   -1    0    0    0    0  0.00000000000E+00  0.00000000000E+00  0.45593999997E+02  0.45594000000E+02  0.51100000000E-03 0.  1.
         11   -1    0    0    0    0 -0.00000000000E+00 -0.00000000000E+00 -0.45593999997E+02  0.45594000000E+02  0.51100000000E-03 0. -1.
    9900012    2    1    2    0    0  0.34943747899E+02  0.10975744797E+02  0.17653095828E+02  0.50528876997E+02  0.30000052120E+02 0.  0.
         12    1    1    2    0    0 -0.34943747899E+02 -0.10975744797E+02 -0.17653095828E+02  0.40659123003E+02  0.00000000000E+00 0. -1.
         11    1    3    3    0    0  0.23684725152E+02  0.10589483459E+02  0.59357449295E+01  0.26614590614E+02  0.51100000000E-03 0. -1.
        -11    1    3    3    0    0  0.10807040490E+02 -0.39916277198E+01  0.14641262602E+02  0.18630399536E+02  0.51100000000E-03 0.  1.
        -12    1    3    3    0    0  0.45198225705E+00  0.43778890573E+01 -0.29239117038E+01  0.52838868468E+01  0.00000000000E+00 0.  1.
</event>
<event>
 7    1  0.3054835E-011  0.5052887E+02  0.7816164E-02  0.1300439E+00
        -11   -1    0    0    0    0  0.00000000000E+00  0.00000000000E+00  0.45593999997E+02  0.45594000000E+02  0.51100000000E-03 0.  1.
         11   -1    0    0    0    0 -0.00000000000E+00 -0.00000000000E+00 -0.45593999997E+02  0.45594000000E+02  0.51100000000E-03 0. -1.
    9900012    2    1    2    0    0 -0.35116792734E+02  0.31785751996E+01  0.20245308282E+02  0.50528868435E+02  0.30000026094E+02 0.  0.
         12    1    1    2    0    0  0.35116792734E+02 -0.31785751996E+01 -0.20245308282E+02  0.40659131565E+02  0.00000000000E+00 0. -1.
         11    1    3    3    0    0 -0.64378136974E+01  0.78690249408E+00  0.53517969607E+00  0.65077706095E+01  0.51100000000E-03 0. -1.
        -11    1    3    3    0    0  0.78545659303E+00 -0.10156533352E-01  0.13864225783E+02  0.13886461105E+02  0.51100000000E-03 0.  1.
        -12    1    3    3    0    0 -0.29464435629E+02  0.24018292388E+01  0.58459028037E+01  0.30134636720E+02  0.00000000000E+00 0.  1.
</event>
<event>
 7    1  0.3054835E-011  0.5052886E+02  0.7816164E-02  0.1300439E+00
        -11   -1    0    0    0    0  0.00000000000E+00  0.00000000000E+00  0.45593999997E+02  0.45594000000E+02  0.51100000000E-03 0.  1.
         11   -1    0    0    0    0 -0.00000000000E+00 -0.00000000000E+00 -0.45593999997E+02  0.45594000000E+02  0.51100000000E-03 0. -1.
    9900012    2    1    2    0    0 -0.15807826486E+02 -0.99134001236E-01  0.37460222917E+02  0.50528861953E+02  0.30000006391E+02 0.  0.
         12    1    1    2    0    0  0.15807826486E+02  0.99134001236E-01 -0.37460222917E+02  0.40659138047E+02  0.00000000000E+00 0. -1.
         11    1    3    3    0    0 -0.59414010833E+01  0.84366848728E+01 -0.49797279590E+00  0.10330821634E+02  0.51100000000E-03 0. -1.
        -11    1    3    3    0    0 -0.64726219822E+01 -0.43413005957E+01  0.20840192921E+02  0.22249839717E+02  0.51100000000E-03 0.  1.
         12    1    3    3    0    0 -0.33938034207E+01 -0.41945182784E+01  0.17118002792E+02  0.17948200601E+02  0.00000000000E+00 0. -1.
</event>
<event>
 7    1  0.3054835E-011  0.5052885E+02  0.7816164E-02  0.1300439E+00
        -11   -1    0    0    0    0  0.00000000000E+00  0.00000000000E+00  0.45593999997E+02  0.45594000000E+02  0.51100000000E-03 0.  1.
         11   -1    0    0    0    0 -0.00000000000E+00 -0.00000000000E+00 -0.45593999997E+02  0.45594000000E+02  0.51100000000E-03 0. -1.
    9900012    2    1    2    0    0  0.45927208002E+01  0.38970836269E+02 -0.10646455847E+02  0.50528853600E+02  0.29999981003E+02 0.  0.
         12    1    1    2    0    0 -0.45927208002E+01 -0.38970836269E+02  0.10646455847E+02  0.40659146400E+02  0.00000000000E+00 0. -1.
         11    1    3    3    0    0  0.12169668140E+02  0.86108467418E+01 -0.84217406550E+01  0.17122301836E+02  0.51100000000E-03 0. -1.
        -11    1    3    3    0    0 -0.34074064829E+01  0.28214449326E+02 -0.32558094785E+01  0.28605346796E+02  0.51100000000E-03 0.  1.
        -12    1    3    3    0    0 -0.41695408570E+01  0.21455402017E+01  0.10310942869E+01  0.48012049679E+01  0.00000000000E+00 0.  1.
</event>
<event>
 7    1  0.3054835E-011  0.5052887E+02  0.7816164E-02  0.1300439E+00
        -11   -1    0    0    0    0  0.00000000000E+00  0.00000000000E+00  0.45593999997E+02  0.45594000000E+02  0.51100000000E-03 0. -1.
         11   -1    0    0    0    0 -0.00000000000E+00 -0.00000000000E+00 -0.45593999997E+02  0.45594000000E+02  0.51100000000E-03 0.  1.
    9900012    2    1    2    0    0 -0.38190410621E+02  0.13766764540E+02 -0.22657473326E+01  0.50528869657E+02  0.30000029809E+02 0.  0.
         12    1    1    2    0    0  0.38190410621E+02 -0.13766764540E+02  0.22657473326E+01  0.40659130343E+02  0.00000000000E+00 0. -1.
         11    1    3    3    0    0 -0.29521539862E+02  0.83627872536E+01 -0.42001108060E+01  0.30969314773E+02  0.51100000000E-03 0. -1.
        -11    1    3    3    0    0 -0.10684349351E-01  0.78759092577E+01  0.57792889264E+01  0.97688403378E+01  0.51100000000E-03 0.  1.
        -12    1    3    3    0    0 -0.86581864098E+01 -0.24719319716E+01 -0.38449254530E+01  0.97907145459E+01  0.00000000000E+00 0.  1.
</event>
<event>
 7    1  0.3054835E-011  0.5052887E+02  0.7816164E-02  0.1300439E+00
        -11   -1    0    0    0    0  0.00000000000E+00  0.00000000000E+00  0.45593999997E+02  0.45594000000E+02  0.51100000000E-03 0. -1.
         11   -1    0    0    0    0 -0.00000000000E+00 -0.00000000000E+00 -0.45593999997E+02  0.45594000000E+02  0.51100000000E-03 0.  1.
    9900012    2    1    2    0    0 -0.27770244236E+02  0.29644638850E+02  0.17815280619E+01  0.50528869171E+02  0.30000028333E+02 0.  0.
         12    1    1    2    0    0  0.27770244236E+02 -0.29644638850E+02 -0.17815280619E+01  0.40659130829E+02  0.00000000000E+00 0. -1.
         11    1    3    3    0    0 -0.12973006314E+02  0.22580132063E+02  0.43137215835E+01  0.26396390870E+02  0.51100000000E-03 0. -1.
        -11    1    3    3    0    0 -0.11375254095E+02 -0.33210058992E+01 -0.50988512590E+01  0.12900533723E+02  0.51100000000E-03 0.  1.
        -12    1    3    3    0    0 -0.34219838269E+01  0.10385512687E+02  0.25666577374E+01  0.11231944579E+02  0.00000000000E+00 0.  1.
</event>
<event>
 7    1  0.3054835E-011  0.5052887E+02  0.7816164E-02  0.1300439E+00
        -11   -1    0    0    0    0  0.00000000000E+00  0.00000000000E+00  0.45593999997E+02  0.45594000000E+02  0.51100000000E-03 0.  1.
         11   -1    0    0    0    0 -0.00000000000E+00 -0.00000000000E+00 -0.45593999997E+02  0.45594000000E+02  0.51100000000E-03 0. -1.
    9900012    2    1    2    0    0 -0.20580768762E+02 -0.28722222678E+02  0.20115426775E+02  0.50528874177E+02  0.30000043547E+02 0.  0.
         12    1    1    2    0    0  0.20580768762E+02  0.28722222678E+02 -0.20115426775E+02  0.40659125823E+02  0.00000000000E+00 0. -1.
         11    1    3    3    0    0  0.11252082392E+01  0.19408688171E+01 -0.10125074855E+01  0.24613486174E+01  0.51100000000E-03 0. -1.
        -11    1    3    3    0    0 -0.18069012712E+02 -0.24594809958E+02  0.56334843235E+01  0.31034336518E+02  0.51100000000E-03 0.  1.
        -12    1    3    3    0    0 -0.36369642890E+01 -0.60682815369E+01  0.15494449937E+02  0.17033189041E+02  0.00000000000E+00 0.  1.
</event>
<event>
 7    1  0.3054835E-011  0.5052887E+02  0.7816164E-02  0.1300439E+00
        -11   -1    0    0    0    0  0.00000000000E+00  0.00000000000E+00  0.45593999997E+02  0.45594000000E+02  0.51100000000E-03 0.  1.
         11   -1    0    0    0    0 -0.00000000000E+00 -0.00000000000E+00 -0.45593999997E+02  0.45594000000E+02  0.51100000000E-03 0. -1.
    9900012    2    1    2    0    0 -0.28194600939E+02  0.38503384371E+01  0.29041416188E+02  0.50528874549E+02  0.30000044680E+02 0.  0.
         12    1    1    2    0    0  0.28194600939E+02 -0.38503384371E+01 -0.29041416188E+02  0.40659125451E+02  0.00000000000E+00 0. -1.
         11    1    3    3    0    0 -0.86227454436E+01  0.10675322721E+02  0.22120227103E+01  0.13899902838E+02  0.51100000000E-03 0. -1.
        -11    1    3    3    0    0 -0.10648661809E+02 -0.37817255999E+01  0.24405214716E+02  0.26894422330E+02  0.51100000000E-03 0.  1.
        -12    1    3    3    0    0 -0.89231936870E+01 -0.30432586841E+01  0.24241787612E+01  0.97345493814E+01  0.00000000000E+00 0.  1.
</event>
<event>
 7    1  0.3054835E-011  0.5052884E+02  0.7816164E-02  0.1300439E+00
        -11   -1    0    0    0    0  0.00000000000E+00  0.00000000000E+00  0.45593999997E+02  0.45594000000E+02  0.51100000000E-03 0. -1.
         11   -1    0    0    0    0 -0.00000000000E+00 -0.00000000000E+00 -0.45593999997E+02  0.45594000000E+02  0.51100000000E-03 0.  1.
    9900012    2    1    2    0    0 -0.30310739111E+02 -0.25634055229E+02  0.87932513606E+01  0.50528844052E+02  0.29999951980E+02 0.  0.
         12    1    1    2    0    0  0.30310739111E+02  0.25634055229E+02 -0.87932513606E+01  0.40659155948E+02  0.00000000000E+00 0. -1.
         11    1    3    3    0    0 -0.10608039358E+02 -0.18010303517E+02  0.56179692967E+01  0.21644008665E+02  0.51100000000E-03 0. -1.
        -11    1    3    3    0    0 -0.17547069554E+02  0.21673801384E+01  0.56445983507E+01  0.18559597986E+02  0.51100000000E-03 0.  1.
        -12    1    3    3    0    0 -0.21556301981E+01 -0.97911318501E+01 -0.24693162868E+01  0.10325237401E+02  0.00000000000E+00 0.  1.
</event>
<event>
 7    1  0.3054835E-011  0.5052886E+02  0.7816164E-02  0.1300439E+00
        -11   -1    0    0    0    0  0.00000000000E+00  0.00000000000E+00  0.45593999997E+02  0.45594000000E+02  0.51100000000E-03 0.  1.
         11   -1    0    0    0    0 -0.00000000000E+00 -0.00000000000E+00 -0.45593999997E+02  0.45594000000E+02  0.51100000000E-03 0. -1.
    9900012    2    1    2    0    0  0.24296776800E+02  0.30718679571E+02  0.10917641066E+02  0.50528861742E+02  0.30000005751E+02 0.  0.
         12    1    1    2    0    0 -0.24296776800E+02 -0.30718679571E+02 -0.10917641066E+02  0.40659138258E+02  0.00000000000E+00 0. -1.
         11    1    3    3    0    0  0.15040325398E+02  0.30442697080E+02  0.78716859362E+00  0.33964523083E+02  0.51100000000E-03 0. -1.
        -11    1    3    3    0    0  0.93741492028E+01  0.31697966006E+01  0.92283630400E+01  0.13530889417E+02  0.51100000000E-03 0.  1.
         12    1    3    3    0    0 -0.11769780003E+00 -0.28938141100E+01  0.90210943201E+00  0.30334492418E+01  0.00000000000E+00 0. -1.
</event>
<event>
 7    1  0.3054835E-011  0.5052886E+02  0.7816164E-02  0.1300439E+00
        -11   -1    0    0    0    0  0.00000000000E+00  0.00000000000E+00  0.45593999997E+02  0.45594000000E+02  0.51100000000E-03 0.  1.
         11   -1    0    0    0    0 -0.00000000000E+00 -0.00000000000E+00 -0.45593999997E+02  0.45594000000E+02  0.51100000000E-03 0. -1.
    9900012    2    1    2    0    0 -0.47122446772E+01 -0.23013491898E+02  0.33186440714E+02  0.50528857037E+02  0.29999991450E+02 0.  0.
         12    1    1    2    0    0  0.47122446772E+01  0.23013491898E+02 -0.33186440714E+02  0.40659142963E+02  0.00000000000E+00 0. -1.
         11    1    3    3    0    0 -0.12851796703E+02 -0.18592179884E+02  0.22036263446E+02  0.31566354529E+02  0.51100000000E-03 0. -1.
        -11    1    3    3    0    0  0.71486869446E+01 -0.75491706544E+01  0.11682134869E+02  0.15638605372E+02  0.51100000000E-03 0.  1.
         12    1    3    3    0    0  0.99086508096E+00  0.31278586409E+01 -0.53195760110E+00  0.33238971367E+01  0.00000000000E+00 0. -1.
</event>
<event>
 7    1  0.3054835E-011  0.5052886E+02  0.7816164E-02  0.1300439E+00
        -11   -1    0    0    0    0  0.00000000000E+00  0.00000000000E+00  0.45593999997E+02  0.45594000000E+02  0.51100000000E-03 0. -1.
         11   -1    0    0    0    0 -0.00000000000E+00 -0.00000000000E+00 -0.45593999997E+02  0.45594000000E+02  0.51100000000E-03 0.  1.
    9900012    2    1    2    0    0 -0.16703634103E+02 -0.46314037157E+00 -0.37066694431E+02  0.50528859241E+02  0.29999998149E+02 0.  0.
         12    1    1    2    0    0  0.16703634103E+02  0.46314037157E+00  0.37066694431E+02  0.40659140759E+02  0.00000000000E+00 0. -1.
         11    1    3    3    0    0  0.94181014027E+00  0.46348269245E+00  0.26029040891E+01  0.28065873414E+01  0.51100000000E-03 0. -1.
        -11    1    3    3    0    0 -0.10642130631E+02  0.78703008401E+01 -0.30375826231E+02  0.33134383942E+02  0.51100000000E-03 0.  1.
        -12    1    3    3    0    0 -0.70033136123E+01 -0.87969239042E+01 -0.92937722883E+01  0.14587887958E+02  0.00000000000E+00 0.  1.
</event>
<event>
 7    1  0.3054835E-011  0.5052886E+02  0.7816164E-02  0.1300439E+00
        -11   -1    0    0    0    0  0.00000000000E+00  0.00000000000E+00  0.45593999997E+02  0.45594000000E+02  0.51100000000E-03 0. -1.
         11   -1    0    0    0    0 -0.00000000000E+00 -0.00000000000E+00 -0.45593999997E+02  0.45594000000E+02  0.51100000000E-03 0.  1.
    9900012    2    1    2    0    0 -0.32948294153E+02  0.20815110697E+02 -0.11589067352E+02  0.50528863228E+02  0.30000010269E+02 0.  0.
         12    1    1    2    0    0  0.32948294153E+02 -0.20815110697E+02  0.11589067352E+02  0.40659136772E+02  0.00000000000E+00 0. -1.
         11    1    3    3    0    0 -0.13424789683E+02  0.17315538131E+02  0.72200814200E+00  0.21922001159E+02  0.51100000000E-03 0. -1.
        -11    1    3    3    0    0 -0.28581323212E+01 -0.50336743181E+01  0.66537974428E+00  0.58266223467E+01  0.51100000000E-03 0.  1.
        -12    1    3    3    0    0 -0.16665372149E+02  0.85332468834E+01 -0.12976455238E+02  0.22780239722E+02  0.00000000000E+00 0.  1.
</event>
<event>
 7    1  0.3054835E-011  0.5052889E+02  0.7816164E-02  0.1300439E+00
        -11   -1    0    0    0    0  0.00000000000E+00  0.00000000000E+00  0.45593999997E+02  0.45594000000E+02  0.51100000000E-03 0.  1.
         11   -1    0    0    0    0 -0.00000000000E+00 -0.00000000000E+00 -0.45593999997E+02  0.45594000000E+02  0.51100000000E-03 0. -1.
    9900012    2    1    2    0    0  0.28532728965E+02  0.11375093198E+02  0.26639332829E+02  0.50528887601E+02  0.30000084353E+02 0.  0.
         12    1    1    2    0    0 -0.28532728965E+02 -0.11375093198E+02 -0.26639332829E+02  0.40659112399E+02  0.00000000000E+00 0. -1.
         11    1    3    3    0    0  0.13259884219E+02  0.13529148407E+02 -0.63450109218E+00  0.18954286534E+02  0.51100000000E-03 0. -1.
        -11    1    3    3    0    0  0.78611861355E+01 -0.29915741187E+01  0.13349709296E+02  0.15778545614E+02  0.51100000000E-03 0.  1.
         12    1    3    3    0    0  0.74116586102E+01  0.83751891021E+00  0.13924124626E+02  0.15796055453E+02  0.00000000000E+00 0. -1.
</event>
<event>
 7    1  0.3054835E-011  0.5052888E+02  0.7816164E-02  0.1300439E+00
        -11   -1    0    0    0    0  0.00000000000E+00  0.00000000000E+00  0.45593999997E+02  0.45594000000E+02  0.51100000000E-03 0. -1.
         11   -1    0    0    0    0 -0.00000000000E+00 -0.00000000000E+00 -0.45593999997E+02  0.45594000000E+02  0.51100000000E-03 0.  1.
    9900012    2    1    2    0    0 -0.18997688186E+01  0.17430440617E+02 -0.36684254009E+02  0.50528882033E+02  0.30000067427E+02 0.  0.
         12    1    1    2    0    0  0.18997688186E+01 -0.17430440617E+02  0.36684254009E+02  0.40659117967E+02  0.00000000000E+00 0. -1.
         11    1    3    3    0    0  0.11572330214E+02  0.68057512144E+01 -0.13259663230E+02  0.18869439457E+02  0.51100000000E-03 0. -1.
        -11    1    3    3    0    0 -0.11966588054E+02  0.30901716009E+01 -0.89079902184E+01  0.15234850841E+02  0.51100000000E-03 0.  1.
        -12    1    3    3    0    0 -0.15055109789E+01  0.75345178019E+01 -0.14516600561E+02  0.16424591735E+02  0.00000000000E+00 0.  1.
</event>
<event>
 7    1  0.3054835E-011  0.5052885E+02  0.7816164E-02  0.1300439E+00
        -11   -1    0    0    0    0  0.00000000000E+00  0.00000000000E+00  0.45593999997E+02  0.45594000000E+02  0.51100000000E-03 0.  1.
         11   -1    0    0    0    0 -0.00000000000E+00 -0.00000000000E+00 -0.45593999997E+02  0.45594000000E+02  0.51100000000E-03 0. -1.
    9900012    2    1    2    0    0 -0.14320875783E+02  0.37441418058E+02 -0.67984581199E+01  0.50528852171E+02  0.29999976660E+02 0.  0.
         12    1    1    2    0    0  0.14320875783E+02 -0.37441418058E+02  0.67984581199E+01  0.40659147829E+02  0.00000000000E+00 0. -1.
         11    1    3    3    0    0 -0.39204890464E+01  0.12548576889E+01 -0.50769106161E+01  0.65360480298E+01  0.51100000000E-03 0. -1.
        -11    1    3    3    0    0 -0.12612001318E+02  0.38624056440E+02 -0.20660960305E+01  0.40683523277E+02  0.51100000000E-03 0.  1.
        -12    1    3    3    0    0  0.22116145818E+01 -0.24374960714E+01  0.34454852676E+00  0.33092808651E+01  0.00000000000E+00 0.  1.
</event>
<event>
 7    1  0.3054835E-011  0.5052886E+02  0.7816164E-02  0.1300439E+00
        -11   -1    0    0    0    0  0.00000000000E+00  0.00000000000E+00  0.45593999997E+02  0.45594000000E+02  0.51100000000E-03 0. -1.
         11   -1    0    0    0    0 -0.00000000000E+00 -0.00000000000E+00 -0.45593999997E+02  0.45594000000E+02  0.51100000000E-03 0.  1.
    9900012    2    1    2    0    0 -0.66574569246E+01  0.38288777178E+02  0.11950443930E+02  0.50528864488E+02  0.30000014098E+02 0.  0.
         12    1    1    2    0    0  0.66574569246E+01 -0.38288777178E+02 -0.11950443930E+02  0.40659135512E+02  0.00000000000E+00 0. -1.
         11    1    3    3    0    0 -0.44011294919E+01  0.15381388802E+02  0.17679066986E+02  0.23843373755E+02  0.51100000000E-03 0. -1.
        -11    1    3    3    0    0 -0.50613997704E+00  0.23963213938E+02 -0.57192975663E+01  0.24641472457E+02  0.51100000000E-03 0.  1.
         12    1    3    3    0    0 -0.17501874557E+01 -0.10558255626E+01 -0.93254894343E-02  0.20440182762E+01  0.00000000000E+00 0. -1.
</event>
<event>
 7    1  0.3054835E-011  0.5052886E+02  0.7816164E-02  0.1300439E+00
        -11   -1    0    0    0    0  0.00000000000E+00  0.00000000000E+00  0.45593999997E+02  0.45594000000E+02  0.51100000000E-03 0. -1.
         11   -1    0    0    0    0 -0.00000000000E+00 -0.00000000000E+00 -0.45593999997E+02  0.45594000000E+02  0.51100000000E-03 0.  1.
    9900012    2    1    2    0    0  0.82840712349E+01 -0.35458576938E+02 -0.18089467009E+02  0.50528864109E+02  0.30000012947E+02 0.  0.
         12    1    1    2    0    0 -0.82840712349E+01  0.35458576938E+02  0.18089467009E+02  0.40659135891E+02  0.00000000000E+00 0. -1.
         11    1    3    3    0    0 -0.11553598454E+01 -0.17545967182E+02 -0.72334618338E+01  0.19013647496E+02  0.51100000000E-03 0. -1.
        -11    1    3    3    0    0  0.15896301530E+02 -0.88910341560E+01 -0.88153659348E+01  0.20234959044E+02  0.51100000000E-03 0.  1.
         12    1    3    3    0    0 -0.64568704500E+01 -0.90215755998E+01 -0.20406392404E+01  0.11280257569E+02  0.00000000000E+00 0. -1.
</event>
<event>
 7    1  0.3054835E-011  0.5052884E+02  0.7816164E-02  0.1300439E+00
        -11   -1    0    0    0    0  0.00000000000E+00  0.00000000000E+00  0.45593999997E+02  0.45594000000E+02  0.51100000000E-03 0.  1.
         11   -1    0    0    0    0 -0.00000000000E+00 -0.00000000000E+00 -0.45593999997E+02  0.45594000000E+02  0.51100000000E-03 0. -1.
    9900012    2    1    2    0    0 -0.22840221607E+02  0.16029332512E+02  0.29572826869E+02  0.50528839743E+02  0.29999938882E+02 0.  0.
         12    1    1    2    0    0  0.22840221607E+02 -0.16029332512E+02 -0.29572826869E+02  0.40659160257E+02  0.00000000000E+00 0. -1.
         11    1    3    3    0    0 -0.46458111706E+01 -0.36284338763E+01  0.15322203470E+02  0.16417034241E+02  0.51100000000E-03 0. -1.
        -11    1    3    3    0    0 -0.42736636560E+01  0.16045384055E+02  0.73039891965E+01  0.18140198702E+02  0.51100000000E-03 0.  1.
        -12    1    3    3    0    0 -0.13920746780E+02  0.36123823336E+01  0.69466342027E+01  0.15971606800E+02  0.00000000000E+00 0.  1.
</event>
<event>
 7    1  0.3054835E-011  0.5052882E+02  0.7816164E-02  0.1300439E+00
        -11   -1    0    0    0    0  0.00000000000E+00  0.00000000000E+00  0.45593999997E+02  0.45594000000E+02  0.51100000000E-03 0.  1.
         11   -1    0    0    0    0 -0.00000000000E+00 -0.00000000000E+00 -0.45593999997E+02  0.45594000000E+02  0.51100000000E-03 0. -1.
    9900012    2    1    2    0    0  0.10510518041E+02  0.38508838139E+02  0.77309209614E+01  0.50528822152E+02  0.29999885414E+02 0.  0.
         12    1    1    2    0    0 -0.10510518041E+02 -0.38508838139E+02 -0.77309209614E+01  0.40659177848E+02  0.00000000000E+00 0. -1.
         11    1    3    3    0    0 -0.12231829468E+01 -0.23452055437E+01 -0.18232392498E+01  0.32125328304E+01  0.51100000000E-03 0. -1.
        -11    1    3    3    0    0  0.16706482137E+02  0.30979879303E+02  0.60130868757E+01  0.35707375724E+02  0.51100000000E-03 0.  1.
        -12    1    3    3    0    0 -0.49727811495E+01  0.98741643802E+01  0.35410733356E+01  0.11608913598E+02  0.00000000000E+00 0.  1.
</event>
<event>
 7    1  0.3054835E-011  0.5052886E+02  0.7816164E-02  0.1300439E+00
        -11   -1    0    0    0    0  0.00000000000E+00  0.00000000000E+00  0.45593999997E+02  0.45594000000E+02  0.51100000000E-03 0.  1.
         11   -1    0    0    0    0 -0.00000000000E+00 -0.00000000000E+00 -0.45593999997E+02  0.45594000000E+02  0.51100000000E-03 0. -1.
    9900012    2    1    2    0    0  0.34934953851E+02  0.47155959036E+01  0.20260243120E+02  0.50528864537E+02  0.30000014247E+02 0.  0.
         12    1    1    2    0    0 -0.34934953851E+02 -0.47155959036E+01 -0.20260243120E+02  0.40659135463E+02  0.00000000000E+00 0. -1.
         11    1    3    3    0    0  0.28476021026E+02 -0.61146360021E+01  0.17842902313E+02  0.34156137225E+02  0.51100000000E-03 0. -1.
        -11    1    3    3    0    0  0.78050663549E+01  0.11995417619E+02  0.15576923084E+01  0.14395676790E+02  0.51100000000E-03 0.  1.
         12    1    3    3    0    0 -0.13461335296E+01 -0.11651857134E+01  0.85964849820E+00  0.19770505221E+01  0.00000000000E+00 0. -1.
</event>
<event>
 7    1  0.3054835E-011  0.5052886E+02  0.7816164E-02  0.1300439E+00
        -11   -1    0    0    0    0  0.00000000000E+00  0.00000000000E+00  0.45593999997E+02  0.45594000000E+02  0.51100000000E-03 0. -1.
         11   -1    0    0    0    0 -0.00000000000E+00 -0.00000000000E+00 -0.45593999997E+02  0.45594000000E+02  0.51100000000E-03 0.  1.
    9900012    2    1    2    0    0 -0.24871287051E+02 -0.25388750185E+02 -0.19748322490E+02  0.50528858387E+02  0.29999995554E+02 0.  0.
         12    1    1    2    0    0  0.24871287051E+02  0.25388750185E+02  0.19748322490E+02  0.40659141613E+02  0.00000000000E+00 0. -1.
         11    1    3    3    0    0 -0.17633501966E+02 -0.25265831799E+01 -0.19050186792E+02  0.26081288910E+02  0.51100000000E-03 0. -1.
        -11    1    3    3    0    0 -0.52909373530E+01 -0.92651272103E+01  0.31958484922E+00  0.10674208872E+02  0.51100000000E-03 0.  1.
         12    1    3    3    0    0 -0.19468477326E+01 -0.13597039795E+02 -0.10177205475E+01  0.13773360606E+02  0.00000000000E+00 0. -1.
</event>
<event>
 7    1  0.3054835E-011  0.5052887E+02  0.7816164E-02  0.1300439E+00
        -11   -1    0    0    0    0  0.00000000000E+00  0.00000000000E+00  0.45593999997E+02  0.45594000000E+02  0.51100000000E-03 0.  1.
         11   -1    0    0    0    0 -0.00000000000E+00 -0.00000000000E+00 -0.45593999997E+02  0.45594000000E+02  0.51100000000E-03 0. -1.
    9900012    2    1    2    0    0 -0.42783119109E+01 -0.40042731093E+02 -0.56071805184E+01  0.50528871387E+02  0.30000035069E+02 0.  0.
         12    1    1    2    0    0  0.42783119109E+01  0.40042731093E+02  0.56071805184E+01  0.40659128613E+02  0.00000000000E+00 0. -1.
         11    1    3    3    0    0  0.30224611003E+01  0.10742201342E+01  0.21236686370E+01  0.38469713725E+01  0.51100000000E-03 0. -1.
        -11    1    3    3    0    0  0.20102147878E+01 -0.29909096553E+02  0.43326756495E+00  0.29979705488E+02  0.51100000000E-03 0.  1.
        -12    1    3    3    0    0 -0.93109877989E+01 -0.11207854674E+02 -0.81641167204E+01  0.16702194527E+02  0.00000000000E+00 0.  1.
</event>
<event>
 7    1  0.3054835E-011  0.5052886E+02  0.7816164E-02  0.1300439E+00
        -11   -1    0    0    0    0  0.00000000000E+00  0.00000000000E+00  0.45593999997E+02  0.45594000000E+02  0.51100000000E-03 0.  1.
         11   -1    0    0    0    0 -0.00000000000E+00 -0.00000000000E+00 -0.45593999997E+02  0.45594000000E+02  0.51100000000E-03 0. -1.
    9900012    2    1    2    0    0  0.25427146262E+02  0.27294688826E+01  0.31609741403E+02  0.50528861803E+02  0.30000005936E+02 0.  0.
         12    1    1    2    0    0 -0.25427146262E+02 -0.27294688826E+01 -0.31609741403E+02  0.40659138197E+02  0.00000000000E+00 0. -1.
         11    1    3    3    0    0 -0.29589174701E+01 -0.25888242176E+01 -0.33424575834E+00  0.39457475733E+01  0.51100000000E-03 0. -1.
        -11    1    3    3    0    0  0.18134111355E+02  0.35974335484E+01  0.31065840019E+02  0.36150711460E+02  0.51100000000E-03 0.  1.
        -12    1    3    3    0    0  0.10251952377E+02  0.17208595519E+01  0.87814714232E+00  0.10432402769E+02  0.00000000000E+00 0.  1.
</event>
<event>
 7    1  0.3054835E-011  0.5052886E+02  0.7816164E-02  0.1300439E+00
        -11   -1    0    0    0    0  0.00000000000E+00  0.00000000000E+00  0.45593999997E+02  0.45594000000E+02  0.51100000000E-03 0.  1.
         11   -1    0    0    0    0 -0.00000000000E+00 -0.00000000000E+00 -0.45593999997E+02  0.45594000000E+02  0.51100000000E-03 0. -1.
    9900012    2    1    2    0    0  0.97927585936E+01  0.31699868523E+02  0.23502894292E+02  0.50528858034E+02  0.29999994481E+02 0.  0.
         12    1    1    2    0    0 -0.97927585936E+01 -0.31699868523E+02 -0.23502894292E+02  0.40659141966E+02  0.00000000000E+00 0. -1.
         11    1    3    3    0    0  0.85225473346E+01  0.14133928372E+02 -0.15103232935E+01  0.16573557886E+02  0.51100000000E-03 0. -1.
        -11    1    3    3    0    0 -0.13721662081E+01  0.14629274293E+02  0.26016850409E+02  0.29879340889E+02  0.51100000000E-03 0.  1.
        -12    1    3    3    0    0  0.26423774671E+01  0.29366658582E+01 -0.10036328236E+01  0.40759592596E+01  0.00000000000E+00 0.  1.
</event>
<event>
 7    1  0.3054835E-011  0.5052887E+02  0.7816164E-02  0.1300439E+00
        -11   -1    0    0    0    0  0.00000000000E+00  0.00000000000E+00  0.45593999997E+02  0.45594000000E+02  0.51100000000E-03 0.  1.
         11   -1    0    0    0    0 -0.00000000000E+00 -0.00000000000E+00 -0.45593999997E+02  0.45594000000E+02  0.51100000000E-03 0. -1.
    9900012    2    1    2    0    0  0.21731471778E+02 -0.22153053389E+01  0.34292867142E+02  0.50528865968E+02  0.30000018597E+02 0.  0.
         12    1    1    2    0    0 -0.21731471778E+02  0.22153053389E+01 -0.34292867142E+02  0.40659134032E+02  0.00000000000E+00 0. -1.
         11    1    3    3    0    0  0.38266486267E+01  0.10509908877E+02  0.14116161343E+02  0.18010203653E+02  0.51100000000E-03 0. -1.
        -11    1    3    3    0    0  0.75686854079E+01 -0.13118780084E+02  0.12498051972E+02  0.19636412428E+02  0.51100000000E-03 0.  1.
        -12    1    3    3    0    0  0.10336137743E+02  0.39356586836E+00  0.76786538274E+01  0.12882249887E+02  0.00000000000E+00 0.  1.
</event>
<event>
 7    1  0.3054835E-011  0.5052887E+02  0.7816164E-02  0.1300439E+00
        -11   -1    0    0    0    0  0.00000000000E+00  0.00000000000E+00  0.45593999997E+02  0.45594000000E+02  0.51100000000E-03 0.  1.
         11   -1    0    0    0    0 -0.00000000000E+00 -0.00000000000E+00 -0.45593999997E+02  0.45594000000E+02  0.51100000000E-03 0. -1.
    9900012    2    1    2    0    0 -0.76037684882E+01  0.37435164035E+02 -0.13926824441E+02  0.50528865226E+02  0.30000016340E+02 0.  0.
         12    1    1    2    0    0  0.76037684882E+01 -0.37435164035E+02  0.13926824441E+02  0.40659134774E+02  0.00000000000E+00 0. -1.
         11    1    3    3    0    0 -0.12182929704E+01  0.23388920262E+02 -0.17342073326E+02  0.29142294629E+02  0.51100000000E-03 0. -1.
        -11    1    3    3    0    0 -0.66298075810E+00  0.15249963717E+02  0.24549707696E+01  0.15460524525E+02  0.51100000000E-03 0.  1.
         12    1    3    3    0    0 -0.57224947597E+01 -0.12037199432E+01  0.96027811514E+00  0.59260460710E+01  0.00000000000E+00 0. -1.
</event>
<event>
 7    1  0.3054835E-011  0.5052886E+02  0.7816164E-02  0.1300439E+00
        -11   -1    0    0    0    0  0.00000000000E+00  0.00000000000E+00  0.45593999997E+02  0.45594000000E+02  0.51100000000E-03 0.  1.
         11   -1    0    0    0    0 -0.00000000000E+00 -0.00000000000E+00 -0.45593999997E+02  0.45594000000E+02  0.51100000000E-03 0. -1.
    9900012    2    1    2    0    0  0.28312673269E+02 -0.22838789064E+02  0.18164466867E+02  0.50528860682E+02  0.30000002528E+02 0.  0.
         12    1    1    2    0    0 -0.28312673269E+02  0.22838789064E+02 -0.18164466867E+02  0.40659139318E+02  0.00000000000E+00 0. -1.
         11    1    3    3    0    0  0.22903053712E+01  0.43354168579E+01 -0.96235276785E-01  0.49041410578E+01  0.51100000000E-03 0. -1.
        -11    1    3    3    0    0  0.25382818938E+02 -0.29728721961E+02  0.17794950115E+02  0.42950490759E+02  0.51100000000E-03 0.  1.
        -12    1    3    3    0    0  0.63954896052E+00  0.25545160390E+01  0.46575202900E+00  0.26742288644E+01  0.00000000000E+00 0.  1.
</event>
<event>
 7    1  0.3054835E-011  0.5052874E+02  0.7816164E-02  0.1300439E+00
        -11   -1    0    0    0    0  0.00000000000E+00  0.00000000000E+00  0.45593999997E+02  0.45594000000E+02  0.51100000000E-03 0. -1.
         11   -1    0    0    0    0 -0.00000000000E+00 -0.00000000000E+00 -0.45593999997E+02  0.45594000000E+02  0.51100000000E-03 0.  1.
    9900012    2    1    2    0    0 -0.25297175644E+02 -0.30606982392E+02 -0.87430430092E+01  0.50528741918E+02  0.29999641532E+02 0.  0.
         12    1    1    2    0    0  0.25297175644E+02  0.30606982392E+02  0.87430430092E+01  0.40659258082E+02  0.00000000000E+00 0. -1.
         11    1    3    3    0    0 -0.14176072323E+02 -0.81466424474E+00 -0.26664657810E+01  0.14447655324E+02  0.51100000000E-03 0. -1.
        -11    1    3    3    0    0 -0.83712289948E+01 -0.30660524895E+02 -0.77943305738E+01  0.32724560365E+02  0.51100000000E-03 0.  1.
        -12    1    3    3    0    0 -0.27498743260E+01  0.86820674795E+00  0.17177533456E+01  0.33565262284E+01  0.00000000000E+00 0.  1.
</event>
<event>
 7    1  0.3054835E-011  0.5052886E+02  0.7816164E-02  0.1300439E+00
        -11   -1    0    0    0    0  0.00000000000E+00  0.00000000000E+00  0.45593999997E+02  0.45594000000E+02  0.51100000000E-03 0. -1.
         11   -1    0    0    0    0 -0.00000000000E+00 -0.00000000000E+00 -0.45593999997E+02  0.45594000000E+02  0.51100000000E-03 0.  1.
    9900012    2    1    2    0    0  0.22067300977E+01 -0.19074535221E+02 -0.35839332064E+02  0.50528864810E+02  0.30000015076E+02 0.  0.
         12    1    1    2    0    0 -0.22067300977E+01  0.19074535221E+02  0.35839332064E+02  0.40659135190E+02  0.00000000000E+00 0. -1.
         11    1    3    3    0    0  0.14129049143E+02 -0.17287380295E+01 -0.13431165791E+02  0.19570763389E+02  0.51100000000E-03 0. -1.
        -11    1    3    3    0    0 -0.75426653676E+01 -0.12611740041E+02 -0.17512214658E+02  0.22861002826E+02  0.51100000000E-03 0.  1.
         12    1    3    3    0    0 -0.43796536777E+01 -0.47340571504E+01 -0.48959516149E+01  0.80970985949E+01  0.00000000000E+00 0. -1.
</event>
<event>
 7    1  0.3054835E-011  0.5052887E+02  0.7816164E-02  0.1300439E+00
        -11   -1    0    0    0    0  0.00000000000E+00  0.00000000000E+00  0.45593999997E+02  0.45594000000E+02  0.51100000000E-03 0.  1.
         11   -1    0    0    0    0 -0.00000000000E+00 -0.00000000000E+00 -0.45593999997E+02  0.45594000000E+02  0.51100000000E-03 0. -1.
    9900012    2    1    2    0    0 -0.12514569920E+02 -0.23834691057E+02  0.30470610281E+02  0.50528867582E+02  0.30000023503E+02 0.  0.
         12    1    1    2    0    0  0.12514569920E+02  0.23834691057E+02 -0.30470610281E+02  0.40659132418E+02  0.00000000000E+00 0. -1.
         11    1    3    3    0    0  0.38665547689E+01 -0.13606710377E+02  0.19287960519E+02  0.23918993171E+02  0.51100000000E-03 0. -1.
        -11    1    3    3    0    0 -0.13453796466E+02  0.41589179549E-01  0.57901821898E+01  0.14646930704E+02  0.51100000000E-03 0.  1.
        -12    1    3    3    0    0 -0.29273282238E+01 -0.10269569859E+02  0.53924675716E+01  0.11962943707E+02  0.00000000000E+00 0.  1.
</event>
<event>
 7    1  0.3054835E-011  0.5052889E+02  0.7816164E-02  0.1300439E+00
        -11   -1    0    0    0    0  0.00000000000E+00  0.00000000000E+00  0.45593999997E+02  0.45594000000E+02  0.51100000000E-03 0.  1.
         11   -1    0    0    0    0 -0.00000000000E+00 -0.00000000000E+00 -0.45593999997E+02  0.45594000000E+02  0.51100000000E-03 0. -1.
    9900012    2    1    2    0    0  0.38213773436E+02  0.13685253855E+02 -0.23632386569E+01  0.50528886013E+02  0.30000079524E+02 0.  0.
         12    1    1    2    0    0 -0.38213773436E+02 -0.13685253855E+02  0.23632386569E+01  0.40659113987E+02  0.00000000000E+00 0. -1.
         11    1    3    3    0    0  0.76840685078E+01 -0.35690256668E+01 -0.18057873147E+01  0.86627779106E+01  0.51100000000E-03 0. -1.
        -11    1    3    3    0    0  0.29414168756E+02  0.20265103405E+02  0.43691948374E+01  0.35985519357E+02  0.51100000000E-03 0.  1.
        -12    1    3    3    0    0  0.11155361719E+01 -0.30108238830E+01 -0.49266461796E+01  0.58805887447E+01  0.00000000000E+00 0.  1.
</event>
<event>
 7    1  0.3054835E-011  0.5052884E+02  0.7816164E-02  0.1300439E+00
        -11   -1    0    0    0    0  0.00000000000E+00  0.00000000000E+00  0.45593999997E+02  0.45594000000E+02  0.51100000000E-03 0.  1.
         11   -1    0    0    0    0 -0.00000000000E+00 -0.00000000000E+00 -0.45593999997E+02  0.45594000000E+02  0.51100000000E-03 0. -1.
    9900012    2    1    2    0    0  0.52859764198E+01  0.12515659182E+02  0.38322109219E+02  0.50528839575E+02  0.29999938373E+02 0.  0.
         12    1    1    2    0    0 -0.52859764198E+01 -0.12515659182E+02 -0.38322109219E+02  0.40659160425E+02  0.00000000000E+00 0. -1.
         11    1    3    3    0    0  0.39801231841E+00 -0.82529678737E+01  0.54000577978E+01  0.98706897941E+01  0.51100000000E-03 0. -1.
        -11    1    3    3    0    0 -0.73261925968E+00  0.13653638343E+02  0.13455809508E+02  0.19183779105E+02  0.51100000000E-03 0.  1.
         12    1    3    3    0    0  0.56205833611E+01  0.71149887123E+01  0.19466241913E+02  0.21474370676E+02  0.00000000000E+00 0. -1.
</event>
<event>
 7    1  0.3054835E-011  0.5052886E+02  0.7816164E-02  0.1300439E+00
        -11   -1    0    0    0    0  0.00000000000E+00  0.00000000000E+00  0.45593999997E+02  0.45594000000E+02  0.51100000000E-03 0.  1.
         11   -1    0    0    0    0 -0.00000000000E+00 -0.00000000000E+00 -0.45593999997E+02  0.45594000000E+02  0.51100000000E-03 0. -1.
    9900012    2    1    2    0    0 -0.81648818600E+01 -0.10751892611E+02  0.38352276446E+02  0.50528860817E+02  0.30000002939E+02 0.  0.
         12    1    1    2    0    0  0.81648818600E+01  0.10751892611E+02 -0.38352276446E+02  0.40659139183E+02  0.00000000000E+00 0. -1.
         11    1    3    3    0    0 -0.15286067186E+02  0.21537946437E+01  0.11758136862E+02  0.19405062848E+02  0.51100000000E-03 0. -1.
        -11    1    3    3    0    0  0.70134106463E+01 -0.81235040102E+01  0.13918689573E+02  0.17575811958E+02  0.51100000000E-03 0.  1.
         12    1    3    3    0    0  0.10777468015E+00 -0.47821832448E+01  0.12675450011E+02  0.13547986011E+02  0.00000000000E+00 0. -1.
</event>
<event>
 7    1  0.3054835E-011  0.5052886E+02  0.7816164E-02  0.1300439E+00
        -11   -1    0    0    0    0  0.00000000000E+00  0.00000000000E+00  0.45593999997E+02  0.45594000000E+02  0.51100000000E-03 0. -1.
         11   -1    0    0    0    0 -0.00000000000E+00 -0.00000000000E+00 -0.45593999997E+02  0.45594000000E+02  0.51100000000E-03 0.  1.
    9900012    2    1    2    0    0 -0.18744009544E+02  0.72122666402E+01 -0.35352664480E+02  0.50528861179E+02  0.30000004040E+02 0.  0.
         12    1    1    2    0    0  0.18744009544E+02 -0.72122666402E+01  0.35352664480E+02  0.40659138821E+02  0.00000000000E+00 0. -1.
         11    1    3    3    0    0 -0.30619021953E+01  0.21942356328E+01 -0.20918173731E+02  0.21254644376E+02  0.51100000000E-03 0. -1.
        -11    1    3    3    0    0 -0.74172011390E+01 -0.64402748177E+01 -0.11652616660E+01  0.98919081817E+01  0.51100000000E-03 0.  1.
        -12    1    3    3    0    0 -0.82649062093E+01  0.11458305825E+02 -0.13269229083E+02  0.19382308621E+02  0.00000000000E+00 0.  1.
</event>
<event>
 7    1  0.3054835E-011  0.5052887E+02  0.7816164E-02  0.1300439E+00
        -11   -1    0    0    0    0  0.00000000000E+00  0.00000000000E+00  0.45593999997E+02  0.45594000000E+02  0.51100000000E-03 0. -1.
         11   -1    0    0    0    0 -0.00000000000E+00 -0.00000000000E+00 -0.45593999997E+02  0.45594000000E+02  0.51100000000E-03 0.  1.
    9900012    2    1    2    0    0  0.39840549060E+02  0.80070350367E+01 -0.13353692935E+01  0.50528866086E+02  0.30000018955E+02 0.  0.
         12    1    1    2    0    0 -0.39840549060E+02 -0.80070350367E+01  0.13353692935E+01  0.40659133914E+02  0.00000000000E+00 0. -1.
         11    1    3    3    0    0  0.26553775745E+01  0.54324159119E+01 -0.10564383556E+01  0.61382599296E+01  0.51100000000E-03 0. -1.
        -11    1    3    3    0    0  0.10679312530E+02 -0.10238048833E+02  0.16582672522E+01  0.14886746137E+02  0.51100000000E-03 0.  1.
        -12    1    3    3    0    0  0.26505858956E+02  0.12812667958E+02 -0.19371981901E+01  0.29503860019E+02  0.00000000000E+00 0.  1.
</event>
<event>
 7    1  0.3054835E-011  0.5052885E+02  0.7816164E-02  0.1300439E+00
        -11   -1    0    0    0    0  0.00000000000E+00  0.00000000000E+00  0.45593999997E+02  0.45594000000E+02  0.51100000000E-03 0. -1.
         11   -1    0    0    0    0 -0.00000000000E+00 -0.00000000000E+00 -0.45593999997E+02  0.45594000000E+02  0.51100000000E-03 0.  1.
    9900012    2    1    2    0    0  0.17085984222E+01 -0.27766492467E+02 -0.29652468229E+02  0.50528852387E+02  0.29999977316E+02 0.  0.
         12    1    1    2    0    0 -0.17085984222E+01  0.27766492467E+02  0.29652468229E+02  0.40659147613E+02  0.00000000000E+00 0. -1.
         11    1    3    3    0    0  0.59496386744E+01 -0.40394423280E+01 -0.56690380408E+01  0.91571440551E+01  0.51100000000E-03 0. -1.
        -11    1    3    3    0    0 -0.70400590552E+01 -0.14806862596E+02 -0.84629030156E+00  0.16417119692E+02  0.51100000000E-03 0.  1.
        -12    1    3    3    0    0  0.27990188030E+01 -0.89201875433E+01 -0.23137139887E+02  0.24954588640E+02  0.00000000000E+00 0.  1.
</event>
<event>
 7    1  0.3054835E-011  0.5052886E+02  0.7816164E-02  0.1300439E+00
        -11   -1    0    0    0    0  0.00000000000E+00  0.00000000000E+00  0.45593999997E+02  0.45594000000E+02  0.51100000000E-03 0.  1.
         11   -1    0    0    0    0 -0.00000000000E+00 -0.00000000000E+00 -0.45593999997E+02  0.45594000000E+02  0.51100000000E-03 0. -1.
    9900012    2    1    2    0    0 -0.26034007799E+02 -0.14996488522E+02  0.27395278795E+02  0.50528861663E+02  0.30000005511E+02 0.  0.
         12    1    1    2    0    0  0.26034007799E+02  0.14996488522E+02 -0.27395278795E+02  0.40659138337E+02  0.00000000000E+00 0. -1.
         11    1    3    3    0    0 -0.23306237865E+02 -0.16030912370E+01  0.94428325906E+01  0.25197573545E+02  0.51100000000E-03 0. -1.
        -11    1    3    3    0    0  0.30116085072E+01 -0.10005025464E+02  0.72293303816E+01  0.12705649860E+02  0.51100000000E-03 0.  1.
         12    1    3    3    0    0 -0.57393784409E+01 -0.33883718213E+01  0.10723115823E+02  0.12625638258E+02  0.00000000000E+00 0. -1.
</event>
<event>
 7    1  0.3054835E-011  0.5052888E+02  0.7816164E-02  0.1300439E+00
        -11   -1    0    0    0    0  0.00000000000E+00  0.00000000000E+00  0.45593999997E+02  0.45594000000E+02  0.51100000000E-03 0.  1.
         11   -1    0    0    0    0 -0.00000000000E+00 -0.00000000000E+00 -0.45593999997E+02  0.45594000000E+02  0.51100000000E-03 0. -1.
    9900012    2    1    2    0    0  0.29894804487E+02 -0.21744014162E+02  0.16931120627E+02  0.50528876388E+02  0.30000050270E+02 0.  0.
         12    1    1    2    0    0 -0.29894804487E+02  0.21744014162E+02 -0.16931120627E+02  0.40659123612E+02  0.00000000000E+00 0. -1.
         11    1    3    3    0    0  0.16844805671E+02 -0.55096626966E+01 -0.55443592647E+01  0.18569969871E+02  0.51100000000E-03 0. -1.
        -11    1    3    3    0    0  0.43310328737E+01 -0.75501122823E+01  0.15596147795E+02  0.17860623380E+02  0.51100000000E-03 0.  1.
         12    1    3    3    0    0  0.87189659422E+01 -0.86842391835E+01  0.68793320970E+01  0.14098283137E+02  0.00000000000E+00 0. -1.
</event>
<event>
 7    1  0.3054835E-011  0.5052886E+02  0.7816164E-02  0.1300439E+00
        -11   -1    0    0    0    0  0.00000000000E+00  0.00000000000E+00  0.45593999997E+02  0.45594000000E+02  0.51100000000E-03 0.  1.
         11   -1    0    0    0    0 -0.00000000000E+00 -0.00000000000E+00 -0.45593999997E+02  0.45594000000E+02  0.51100000000E-03 0. -1.
    9900012    2    1    2    0    0 -0.14504580994E+02  0.14037982920E+02  0.35294731495E+02  0.50528857048E+02  0.29999991483E+02 0.  0.
         12    1    1    2    0    0  0.14504580994E+02 -0.14037982920E+02 -0.35294731495E+02  0.40659142952E+02  0.00000000000E+00 0. -1.
         11    1    3    3    0    0 -0.27669797538E+01 -0.44332843088E+01 -0.23358795673E+01  0.57242047775E+01  0.51100000000E-03 0. -1.
        -11    1    3    3    0    0 -0.73918581276E+01  0.70704273098E+01  0.26035485029E+02  0.27972790169E+02  0.51100000000E-03 0.  1.
         12    1    3    3    0    0 -0.43457431125E+01  0.11400839919E+02  0.11595126034E+02  0.16831862101E+02  0.00000000000E+00 0. -1.
</event>
<event>
 7    1  0.3054835E-011  0.5052886E+02  0.7816164E-02  0.1300439E+00
        -11   -1    0    0    0    0  0.00000000000E+00  0.00000000000E+00  0.45593999997E+02  0.45594000000E+02  0.51100000000E-03 0. -1.
         11   -1    0    0    0    0 -0.00000000000E+00 -0.00000000000E+00 -0.45593999997E+02  0.45594000000E+02  0.51100000000E-03 0.  1.
    9900012    2    1    2    0    0  0.38740574643E+02 -0.11284205368E+02  0.50000158152E+01  0.50528861143E+02  0.30000003930E+02 0.  0.
         12    1    1    2    0    0 -0.38740574643E+02  0.11284205368E+02 -0.50000158152E+01  0.40659138857E+02  0.00000000000E+00 0. -1.
         11    1    3    3    0    0  0.16130862317E+02 -0.65666670355E+01  0.73766602188E+01  0.18914041115E+02  0.51100000000E-03 0. -1.
        -11    1    3    3    0    0  0.11927535820E+02  0.84066739788E+01 -0.15162558536E+01  0.14670968277E+02  0.51100000000E-03 0.  1.
        -12    1    3    3    0    0  0.10682176506E+02 -0.13124212311E+02 -0.86038854995E+00  0.16943851751E+02  0.00000000000E+00 0.  1.
</event>
<event>
 7    1  0.3054835E-011  0.5052885E+02  0.7816164E-02  0.1300439E+00
        -11   -1    0    0    0    0  0.00000000000E+00  0.00000000000E+00  0.45593999997E+02  0.45594000000E+02  0.51100000000E-03 0.  1.
         11   -1    0    0    0    0 -0.00000000000E+00 -0.00000000000E+00 -0.45593999997E+02  0.45594000000E+02  0.51100000000E-03 0. -1.
    9900012    2    1    2    0    0  0.32845052192E+02 -0.50337296003E+01  0.23431405967E+02  0.50528847614E+02  0.29999962807E+02 0.  0.
         12    1    1    2    0    0 -0.32845052192E+02  0.50337296003E+01 -0.23431405967E+02  0.40659152386E+02  0.00000000000E+00 0. -1.
         11    1    3    3    0    0  0.11627694690E+02  0.35961831790E+00 -0.38376251727E+01  0.12249896994E+02  0.51100000000E-03 0. -1.
        -11    1    3    3    0    0  0.47151218741E+01  0.31182877765E+01  0.14983717542E+02  0.16014614719E+02  0.51100000000E-03 0.  1.
        -12    1    3    3    0    0  0.16502235627E+02 -0.85116356947E+01  0.12285313598E+02  0.22264335901E+02  0.00000000000E+00 0.  1.
</event>
<event>
 7    1  0.3054835E-011  0.5052884E+02  0.7816164E-02  0.1300439E+00
        -11   -1    0    0    0    0  0.00000000000E+00  0.00000000000E+00  0.45593999997E+02  0.45594000000E+02  0.51100000000E-03 0. -1.
         11   -1    0    0    0    0 -0.00000000000E+00 -0.00000000000E+00 -0.45593999997E+02  0.45594000000E+02  0.51100000000E-03 0.  1.
    9900012    2    1    2    0    0  0.17632059429E+02 -0.23766281405E+02 -0.27882637075E+02  0.50528842338E+02  0.29999946770E+02 0.  0.
         12    1    1    2    0    0 -0.17632059429E+02  0.23766281405E+02  0.27882637075E+02  0.40659157662E+02  0.00000000000E+00 0. -1.
         11    1    3    3    0    0  0.14405865789E+02 -0.15709222185E+02 -0.13032625000E+02  0.24983153232E+02  0.51100000000E-03 0. -1.
        -11    1    3    3    0    0  0.74455307782E+01 -0.12254606424E+02 -0.78138695808E+01  0.16329968318E+02  0.51100000000E-03 0.  1.
         12    1    3    3    0    0 -0.42193371383E+01  0.41975472046E+01 -0.70361424952E+01  0.92157207875E+01  0.00000000000E+00 0. -1.
</event>
<event>
 7    1  0.3054835E-011  0.5052887E+02  0.7816164E-02  0.1300439E+00
        -11   -1    0    0    0    0  0.00000000000E+00  0.00000000000E+00  0.45593999997E+02  0.45594000000E+02  0.51100000000E-03 0.  1.
         11   -1    0    0    0    0 -0.00000000000E+00 -0.00000000000E+00 -0.45593999997E+02  0.45594000000E+02  0.51100000000E-03 0. -1.
    9900012    2    1    2    0    0  0.84826493143E+01  0.91687368909E+01  0.38692945601E+02  0.50528866772E+02  0.30000021041E+02 0.  0.
         12    1    1    2    0    0 -0.84826493143E+01 -0.91687368909E+01 -0.38692945601E+02  0.40659133228E+02  0.00000000000E+00 0. -1.
         11    1    3    3    0    0 -0.35993988008E+01  0.11762169232E+02  0.73683600608E+01  0.14338654993E+02  0.51100000000E-03 0. -1.
        -11    1    3    3    0    0  0.11623280528E+02 -0.63653148981E+01  0.18113968355E+02  0.22444013318E+02  0.51100000000E-03 0.  1.
        -12    1    3    3    0    0  0.45876758709E+00  0.37718825574E+01  0.13210617185E+02  0.13746198461E+02  0.00000000000E+00 0.  1.
</event>
<event>
 7    1  0.3054835E-011  0.5052886E+02  0.7816164E-02  0.1300439E+00
        -11   -1    0    0    0    0  0.00000000000E+00  0.00000000000E+00  0.45593999997E+02  0.45594000000E+02  0.51100000000E-03 0.  1.
         11   -1    0    0    0    0 -0.00000000000E+00 -0.00000000000E+00 -0.45593999997E+02  0.45594000000E+02  0.51100000000E-03 0. -1.
    9900012    2    1    2    0    0  0.87279605476E+01 -0.28830573972E+02  0.27309096462E+02  0.50528855390E+02  0.29999986443E+02 0.  0.
         12    1    1    2    0    0 -0.87279605476E+01  0.28830573972E+02 -0.27309096462E+02  0.40659144610E+02  0.00000000000E+00 0. -1.
         11    1    3    3    0    0  0.70017084791E+01  0.48971779677E+01  0.69274073041E+01  0.10999783902E+02  0.51100000000E-03 0. -1.
        -11    1    3    3    0    0 -0.66610332746E+00 -0.73677074351E+01  0.46788702089E+01  0.87532070228E+01  0.51100000000E-03 0.  1.
         12    1    3    3    0    0  0.23923553959E+01 -0.26360044504E+02  0.15702818949E+02  0.30775864465E+02  0.00000000000E+00 0. -1.
</event>
<event>
 7    1  0.3054835E-011  0.5052886E+02  0.7816164E-02  0.1300439E+00
        -11   -1    0    0    0    0  0.00000000000E+00  0.00000000000E+00  0.45593999997E+02  0.45594000000E+02  0.51100000000E-03 0. -1.
         11   -1    0    0    0    0 -0.00000000000E+00 -0.00000000000E+00 -0.45593999997E+02  0.45594000000E+02  0.51100000000E-03 0.  1.
    9900012    2    1    2    0    0 -0.27920765822E+02 -0.84002020201E+01 -0.28337835982E+02  0.50528861960E+02  0.30000006412E+02 0.  0.
         12    1    1    2    0    0  0.27920765822E+02  0.84002020201E+01  0.28337835982E+02  0.40659138040E+02  0.00000000000E+00 0. -1.
         11    1    3    3    0    0 -0.23667819959E+02 -0.11539756902E+02 -0.16111281095E+02  0.30869160497E+02  0.51100000000E-03 0. -1.
        -11    1    3    3    0    0 -0.10333170347E+01 -0.56217237471E+01 -0.67208846007E+01  0.88228006925E+01  0.51100000000E-03 0.  1.
         12    1    3    3    0    0 -0.32196288277E+01  0.87612786292E+01 -0.55056702857E+01  0.10836900770E+02  0.00000000000E+00 0. -1.
</event>
<event>
 7    1  0.3054835E-011  0.5052885E+02  0.7816164E-02  0.1300439E+00
        -11   -1    0    0    0    0  0.00000000000E+00  0.00000000000E+00  0.45593999997E+02  0.45594000000E+02  0.51100000000E-03 0.  1.
         11   -1    0    0    0    0 -0.00000000000E+00 -0.00000000000E+00 -0.45593999997E+02  0.45594000000E+02  0.51100000000E-03 0. -1.
    9900012    2    1    2    0    0  0.58309409001E+01 -0.25568638833E+02 -0.31071067775E+02  0.50528850769E+02  0.29999972396E+02 0.  0.
         12    1    1    2    0    0 -0.58309409001E+01  0.25568638833E+02  0.31071067775E+02  0.40659149231E+02  0.00000000000E+00 0. -1.
         11    1    3    3    0    0 -0.16546270645E+01  0.21924540806E+01 -0.27009073804E+01  0.38522132024E+01  0.51100000000E-03 0. -1.
        -11    1    3    3    0    0 -0.67947623234E+01 -0.18713771949E+02 -0.12623613504E+02  0.23573919355E+02  0.51100000000E-03 0.  1.
        -12    1    3    3    0    0  0.14280330288E+02 -0.90473209644E+01 -0.15746546891E+02  0.23102718211E+02  0.00000000000E+00 0.  1.
</event>
<event>
 7    1  0.3054835E-011  0.5052886E+02  0.7816164E-02  0.1300439E+00
        -11   -1    0    0    0    0  0.00000000000E+00  0.00000000000E+00  0.45593999997E+02  0.45594000000E+02  0.51100000000E-03 0.  1.
         11   -1    0    0    0    0 -0.00000000000E+00 -0.00000000000E+00 -0.45593999997E+02  0.45594000000E+02  0.51100000000E-03 0. -1.
    9900012    2    1    2    0    0 -0.12060979896E+02 -0.26092199473E+02  0.28755797869E+02  0.50528855635E+02  0.29999987189E+02 0.  0.
         12    1    1    2    0    0  0.12060979896E+02  0.26092199473E+02 -0.28755797869E+02  0.40659144365E+02  0.00000000000E+00 0. -1.
         11    1    3    3    0    0  0.63004427254E+01  0.20084535318E+01  0.60229633287E+01  0.89445822510E+01  0.51100000000E-03 0. -1.
        -11    1    3    3    0    0 -0.31813723061E+01 -0.61229741771E+01  0.65619016627E+00  0.69312717678E+01  0.51100000000E-03 0.  1.
         12    1    3    3    0    0 -0.15180050315E+02 -0.21977678828E+02  0.22076644374E+02  0.34653001617E+02  0.00000000000E+00 0. -1.
</event>
<event>
 7    1  0.3054835E-011  0.5052887E+02  0.7816164E-02  0.1300439E+00
        -11   -1    0    0    0    0  0.00000000000E+00  0.00000000000E+00  0.45593999997E+02  0.45594000000E+02  0.51100000000E-03 0.  1.
         11   -1    0    0    0    0 -0.00000000000E+00 -0.00000000000E+00 -0.45593999997E+02  0.45594000000E+02  0.51100000000E-03 0. -1.
    9900012    2    1    2    0    0  0.16592853077E+02 -0.15563225176E+02  0.33699080347E+02  0.50528871045E+02  0.30000034029E+02 0.  0.
         12    1    1    2    0    0 -0.16592853077E+02  0.15563225176E+02 -0.33699080347E+02  0.40659128955E+02  0.00000000000E+00 0. -1.
         11    1    3    3    0    0  0.17855190346E+02 -0.77180407842E+01  0.12468945194E+02  0.23105206564E+02  0.51100000000E-03 0. -1.
        -11    1    3    3    0    0  0.33978684479E+01 -0.64784651825E+01  0.21347085509E+02  0.22565772335E+02  0.51100000000E-03 0.  1.
         12    1    3    3    0    0 -0.46602057169E+01 -0.13667192090E+01 -0.11695035525E+00  0.48578921463E+01  0.00000000000E+00 0. -1.
</event>
<event>
 7    1  0.3054835E-011  0.5052883E+02  0.7816164E-02  0.1300439E+00
        -11   -1    0    0    0    0  0.00000000000E+00  0.00000000000E+00  0.45593999997E+02  0.45594000000E+02  0.51100000000E-03 0. -1.
         11   -1    0    0    0    0 -0.00000000000E+00 -0.00000000000E+00 -0.45593999997E+02  0.45594000000E+02  0.51100000000E-03 0.  1.
    9900012    2    1    2    0    0  0.39273872281E+02  0.97672868095E+01 -0.39155038748E+01  0.50528829987E+02  0.29999909227E+02 0.  0.
         12    1    1    2    0    0 -0.39273872281E+02 -0.97672868095E+01  0.39155038748E+01  0.40659170013E+02  0.00000000000E+00 0. -1.
         11    1    3    3    0    0  0.23688536572E+01  0.67218105692E+01 -0.37557279571E+01  0.80560348638E+01  0.51100000000E-03 0. -1.
        -11    1    3    3    0    0  0.20505856570E+02 -0.80983585807E+01  0.34628700181E+01  0.22317370687E+02  0.51100000000E-03 0.  1.
        -12    1    3    3    0    0  0.16399162054E+02  0.11143834821E+02 -0.36226459358E+01  0.20155424436E+02  0.00000000000E+00 0.  1.
</event>
<event>
 7    1  0.3054835E-011  0.5052885E+02  0.7816164E-02  0.1300439E+00
        -11   -1    0    0    0    0  0.00000000000E+00  0.00000000000E+00  0.45593999997E+02  0.45594000000E+02  0.51100000000E-03 0.  1.
         11   -1    0    0    0    0 -0.00000000000E+00 -0.00000000000E+00 -0.45593999997E+02  0.45594000000E+02  0.51100000000E-03 0. -1.
    9900012    2    1    2    0    0  0.35394653934E+01  0.36151429117E+01  0.40343144644E+02  0.50528851050E+02  0.29999973251E+02 0.  0.
         12    1    1    2    0    0 -0.35394653934E+01 -0.36151429117E+01 -0.40343144644E+02  0.40659148950E+02  0.00000000000E+00 0. -1.
         11    1    3    3    0    0  0.10026110239E+02 -0.50749216324E+01  0.30619424768E+01  0.11647025719E+02  0.51100000000E-03 0. -1.
        -11    1    3    3    0    0 -0.58875441922E+01  0.65481857432E+01  0.29033867330E+02  0.30339864297E+02  0.51100000000E-03 0.  1.
         12    1    3    3    0    0 -0.59910065330E+00  0.21418788010E+01  0.82473348372E+01  0.85419610341E+01  0.00000000000E+00 0. -1.
</event>
<event>
 7    1  0.3054835E-011  0.5052886E+02  0.7816164E-02  0.1300439E+00
        -11   -1    0    0    0    0  0.00000000000E+00  0.00000000000E+00  0.45593999997E+02  0.45594000000E+02  0.51100000000E-03 0.  1.
         11   -1    0    0    0    0 -0.00000000000E+00 -0.00000000000E+00 -0.45593999997E+02  0.45594000000E+02  0.51100000000E-03 0. -1.
    9900012    2    1    2    0    0  0.61391700983E+01  0.30437146224E+02  0.26249883039E+02  0.50528860323E+02  0.30000001437E+02 0.  0.
         12    1    1    2    0    0 -0.61391700983E+01 -0.30437146224E+02 -0.26249883039E+02  0.40659139677E+02  0.00000000000E+00 0. -1.
         11    1    3    3    0    0 -0.72690245347E+00  0.26432756809E+02  0.81482942661E+01  0.27669725683E+02  0.51100000000E-03 0. -1.
        -11    1    3    3    0    0  0.77181471281E+00 -0.27654069355E+01  0.10829184105E+02  0.11203321030E+02  0.51100000000E-03 0.  1.
        -12    1    3    3    0    0  0.60942578390E+01  0.67697963504E+01  0.72724046678E+01  0.11655813609E+02  0.00000000000E+00 0.  1.
</event>
<event>
 7    1  0.3054835E-011  0.5052886E+02  0.7816164E-02  0.1300439E+00
        -11   -1    0    0    0    0  0.00000000000E+00  0.00000000000E+00  0.45593999997E+02  0.45594000000E+02  0.51100000000E-03 0.  1.
         11   -1    0    0    0    0 -0.00000000000E+00 -0.00000000000E+00 -0.45593999997E+02  0.45594000000E+02  0.51100000000E-03 0. -1.
    9900012    2    1    2    0    0 -0.24420328388E+02  0.28028541549E+02  0.16468577855E+02  0.50528860357E+02  0.30000001542E+02 0.  0.
         12    1    1    2    0    0  0.24420328388E+02 -0.28028541549E+02 -0.16468577855E+02  0.40659139643E+02  0.00000000000E+00 0. -1.
         11    1    3    3    0    0 -0.94578184940E+01  0.66027535679E+01 -0.44100525421E+01  0.12348896673E+02  0.51100000000E-03 0. -1.
        -11    1    3    3    0    0 -0.16278126637E+02  0.21555514244E+02  0.23135110608E+02  0.35564742994E+02  0.51100000000E-03 0.  1.
        -12    1    3    3    0    0  0.13156167433E+01 -0.12972626200E+00 -0.22564802112E+01  0.26152206908E+01  0.00000000000E+00 0.  1.
</event>
<event>
 7    1  0.3054835E-011  0.5052887E+02  0.7816164E-02  0.1300439E+00
        -11   -1    0    0    0    0  0.00000000000E+00  0.00000000000E+00  0.45593999997E+02  0.45594000000E+02  0.51100000000E-03 0. -1.
         11   -1    0    0    0    0 -0.00000000000E+00 -0.00000000000E+00 -0.45593999997E+02  0.45594000000E+02  0.51100000000E-03 0.  1.
    9900012    2    1    2    0    0  0.30878644605E+02 -0.77852717117E+01 -0.25279713475E+02  0.50528867426E+02  0.30000023029E+02 0.  0.
         12    1    1    2    0    0 -0.30878644605E+02  0.77852717117E+01  0.25279713475E+02  0.40659132574E+02  0.00000000000E+00 0. -1.
         11    1    3    3    0    0 -0.30702761257E+01  0.10834800623E+01  0.35646800527E+01  0.48277809264E+01  0.51100000000E-03 0. -1.
        -11    1    3    3    0    0  0.18981352159E+02 -0.25064055505E+01 -0.14530929893E+02  0.24035842452E+02  0.51100000000E-03 0.  1.
         12    1    3    3    0    0  0.14967568572E+02 -0.63623462235E+01 -0.14313463635E+02  0.21665244048E+02  0.00000000000E+00 0. -1.
</event>
<event>
 7    1  0.3054835E-011  0.5052886E+02  0.7816164E-02  0.1300439E+00
        -11   -1    0    0    0    0  0.00000000000E+00  0.00000000000E+00  0.45593999997E+02  0.45594000000E+02  0.51100000000E-03 0.  1.
         11   -1    0    0    0    0 -0.00000000000E+00 -0.00000000000E+00 -0.45593999997E+02  0.45594000000E+02  0.51100000000E-03 0. -1.
    9900012    2    1    2    0    0 -0.25857754729E+02 -0.30841234913E+02 -0.57758677816E+01  0.50528857127E+02  0.29999991723E+02 0.  0.
         12    1    1    2    0    0  0.25857754729E+02  0.30841234913E+02  0.57758677816E+01  0.40659142873E+02  0.00000000000E+00 0. -1.
         11    1    3    3    0    0 -0.57764238428E+01  0.17108016524E+01 -0.78583545610E+01  0.99019014020E+01  0.51100000000E-03 0. -1.
        -11    1    3    3    0    0 -0.20844243641E+02 -0.23433720742E+02  0.68149969036E+00  0.31370148276E+02  0.51100000000E-03 0.  1.
         12    1    3    3    0    0  0.76291275490E+00 -0.91183158232E+01  0.14009870890E+01  0.92568074489E+01  0.00000000000E+00 0. -1.
</event>
<event>
 7    1  0.3054835E-011  0.5052886E+02  0.7816164E-02  0.1300439E+00
        -11   -1    0    0    0    0  0.00000000000E+00  0.00000000000E+00  0.45593999997E+02  0.45594000000E+02  0.51100000000E-03 0.  1.
         11   -1    0    0    0    0 -0.00000000000E+00 -0.00000000000E+00 -0.45593999997E+02  0.45594000000E+02  0.51100000000E-03 0. -1.
    9900012    2    1    2    0    0 -0.19009751502E+02  0.35931365110E+02  0.85578214709E+00  0.50528855716E+02  0.29999987433E+02 0.  0.
         12    1    1    2    0    0  0.19009751502E+02 -0.35931365110E+02 -0.85578214709E+00  0.40659144284E+02  0.00000000000E+00 0. -1.
         11    1    3    3    0    0 -0.53245912838E+01  0.19412895475E+02 -0.66695041872E+01  0.21205991357E+02  0.51100000000E-03 0. -1.
        -11    1    3    3    0    0 -0.28745432863E+01 -0.25439316936E+01  0.62960541415E+01  0.73739328435E+01  0.51100000000E-03 0.  1.
        -12    1    3    3    0    0 -0.10810616932E+02  0.19062401328E+02  0.12292321928E+01  0.21948931515E+02  0.00000000000E+00 0.  1.
</event>
<event>
 7    1  0.3054835E-011  0.5052886E+02  0.7816164E-02  0.1300439E+00
        -11   -1    0    0    0    0  0.00000000000E+00  0.00000000000E+00  0.45593999997E+02  0.45594000000E+02  0.51100000000E-03 0.  1.
         11   -1    0    0    0    0 -0.00000000000E+00 -0.00000000000E+00 -0.45593999997E+02  0.45594000000E+02  0.51100000000E-03 0. -1.
    9900012    2    1    2    0    0  0.95765308359E+01 -0.38035291366E+02  0.10713179573E+02  0.50528861437E+02  0.30000004823E+02 0.  0.
         12    1    1    2    0    0 -0.95765308359E+01  0.38035291366E+02 -0.10713179573E+02  0.40659138563E+02  0.00000000000E+00 0. -1.
         11    1    3    3    0    0  0.22488473407E+01 -0.19530494165E+02 -0.13799071688E+01  0.19707908583E+02  0.51100000000E-03 0.  1.
        -11    1    3    3    0    0  0.13714083363E+02 -0.98106474061E+01  0.10633915221E+02  0.19935020396E+02  0.51100000000E-03 0. -1.
        -12    1    3    3    0    0 -0.63863998678E+01 -0.86941497953E+01  0.14591715211E+01  0.10885932457E+02  0.00000000000E+00 0.  1.
</event>
<event>
 7    1  0.3054835E-011  0.5052887E+02  0.7816164E-02  0.1300439E+00
        -11   -1    0    0    0    0  0.00000000000E+00  0.00000000000E+00  0.45593999997E+02  0.45594000000E+02  0.51100000000E-03 0. -1.
         11   -1    0    0    0    0 -0.00000000000E+00 -0.00000000000E+00 -0.45593999997E+02  0.45594000000E+02  0.51100000000E-03 0.  1.
    9900012    2    1    2    0    0  0.37100403808E+02  0.16135197907E+02 -0.40472886747E+01  0.50528866711E+02  0.30000020856E+02 0.  0.
         12    1    1    2    0    0 -0.37100403808E+02 -0.16135197907E+02  0.40472886747E+01  0.40659133289E+02  0.00000000000E+00 0. -1.
         11    1    3    3    0    0  0.48836295036E+01 -0.82860785755E+01  0.12830415124E+01  0.97033566910E+01  0.51100000000E-03 0. -1.
        -11    1    3    3    0    0  0.24680784575E+02  0.19739468367E+02 -0.40742700040E+01  0.31865144202E+02  0.51100000000E-03 0.  1.
         12    1    3    3    0    0  0.75359897293E+01  0.46818081147E+01 -0.12560601831E+01  0.89603658188E+01  0.00000000000E+00 0. -1.
</event>
<event>
 7    1  0.3054835E-011  0.5052884E+02  0.7816164E-02  0.1300439E+00
        -11   -1    0    0    0    0  0.00000000000E+00  0.00000000000E+00  0.45593999997E+02  0.45594000000E+02  0.51100000000E-03 0.  1.
         11   -1    0    0    0    0 -0.00000000000E+00 -0.00000000000E+00 -0.45593999997E+02  0.45594000000E+02  0.51100000000E-03 0. -1.
    9900012    2    1    2    0    0  0.37579688571E+01  0.21977545098E+02  0.34000482090E+02  0.50528836201E+02  0.29999928117E+02 0.  0.
         12    1    1    2    0    0 -0.37579688571E+01 -0.21977545098E+02 -0.34000482090E+02  0.40659163799E+02  0.00000000000E+00 0. -1.
         11    1    3    3    0    0  0.19995137934E+01 -0.53813465985E+01  0.18226299519E+01  0.60231990525E+01  0.51100000000E-03 0. -1.
        -11    1    3    3    0    0 -0.20070637490E+01  0.22037421642E+02  0.16737867626E+02  0.27745855013E+02  0.51100000000E-03 0.  1.
         12    1    3    3    0    0  0.37655188127E+01  0.53214700553E+01  0.15439984512E+02  0.16759782135E+02  0.00000000000E+00 0. -1.
</event>
<event>
 7    1  0.3054835E-011  0.5052886E+02  0.7816164E-02  0.1300439E+00
        -11   -1    0    0    0    0  0.00000000000E+00  0.00000000000E+00  0.45593999997E+02  0.45594000000E+02  0.51100000000E-03 0.  1.
         11   -1    0    0    0    0 -0.00000000000E+00 -0.00000000000E+00 -0.45593999997E+02  0.45594000000E+02  0.51100000000E-03 0. -1.
    9900012    2    1    2    0    0 -0.26073200126E+02  0.23455861258E+02 -0.20571256843E+02  0.50528858343E+02  0.29999995420E+02 0.  0.
         12    1    1    2    0    0  0.26073200126E+02 -0.23455861258E+02  0.20571256843E+02  0.40659141657E+02  0.00000000000E+00 0. -1.
         11    1    3    3    0    0 -0.50249444509E+01  0.21093115649E+02 -0.55917984982E+01  0.22392806997E+02  0.51100000000E-03 0.  1.
        -11    1    3    3    0    0 -0.22877697423E+01 -0.34826435397E+01 -0.25800710934E+01  0.49009655708E+01  0.51100000000E-03 0. -1.
        -12    1    3    3    0    0 -0.18760485933E+02  0.58453891481E+01 -0.12399387252E+02  0.23235085775E+02  0.00000000000E+00 0.  1.
</event>
<event>
 7    1  0.3054835E-011  0.5052883E+02  0.7816164E-02  0.1300439E+00
        -11   -1    0    0    0    0  0.00000000000E+00  0.00000000000E+00  0.45593999997E+02  0.45594000000E+02  0.51100000000E-03 0. -1.
         11   -1    0    0    0    0 -0.00000000000E+00 -0.00000000000E+00 -0.45593999997E+02  0.45594000000E+02  0.51100000000E-03 0.  1.
    9900012    2    1    2    0    0 -0.76192409190E+01  0.20103349518E+02 -0.34510438301E+02  0.50528833189E+02  0.29999918961E+02 0.  0.
         12    1    1    2    0    0  0.76192409190E+01 -0.20103349518E+02  0.34510438301E+02  0.40659166811E+02  0.00000000000E+00 0. -1.
         11    1    3    3    0    0  0.45660800491E+01  0.65834367269E+01 -0.16245550236E+02  0.18113769042E+02  0.51100000000E-03 0. -1.
        -11    1    3    3    0    0 -0.15882205564E+02  0.45580634009E+01 -0.14604974077E+02  0.22052792649E+02  0.51100000000E-03 0.  1.
        -12    1    3    3    0    0  0.36968845963E+01  0.89618493902E+01 -0.36599139878E+01  0.10362271499E+02  0.00000000000E+00 0.  1.
</event>
<event>
 7    1  0.3054835E-011  0.5052888E+02  0.7816164E-02  0.1300439E+00
        -11   -1    0    0    0    0  0.00000000000E+00  0.00000000000E+00  0.45593999997E+02  0.45594000000E+02  0.51100000000E-03 0.  1.
         11   -1    0    0    0    0 -0.00000000000E+00 -0.00000000000E+00 -0.45593999997E+02  0.45594000000E+02  0.51100000000E-03 0. -1.
    9900012    2    1    2    0    0  0.36504146164E+02 -0.65209657071E+01  0.16675979470E+02  0.50528880823E+02  0.30000063751E+02 0.  0.
         12    1    1    2    0    0 -0.36504146164E+02  0.65209657071E+01 -0.16675979470E+02  0.40659119177E+02  0.00000000000E+00 0. -1.
         11    1    3    3    0    0  0.23546455387E+01 -0.29234543367E-01 -0.14147216978E+01  0.27471163089E+01  0.51100000000E-03 0. -1.
        -11    1    3    3    0    0  0.35855684146E+02 -0.84847425545E+01  0.84661538053E+01  0.37806040553E+02  0.51100000000E-03 0.  1.
        -12    1    3    3    0    0 -0.17061835207E+01  0.19930113909E+01  0.96245473629E+01  0.99757239613E+01  0.00000000000E+00 0.  1.
</event>
<event>
 7    1  0.3054835E-011  0.5052885E+02  0.7816164E-02  0.1300439E+00
        -11   -1    0    0    0    0  0.00000000000E+00  0.00000000000E+00  0.45593999997E+02  0.45594000000E+02  0.51100000000E-03 0.  1.
         11   -1    0    0    0    0 -0.00000000000E+00 -0.00000000000E+00 -0.45593999997E+02  0.45594000000E+02  0.51100000000E-03 0. -1.
    9900012    2    1    2    0    0 -0.23591394088E+02 -0.15030711029E+02  0.29507458151E+02  0.50528852990E+02  0.29999979148E+02 0.  0.
         12    1    1    2    0    0  0.23591394088E+02  0.15030711029E+02 -0.29507458151E+02  0.40659147010E+02  0.00000000000E+00 0. -1.
         11    1    3    3    0    0 -0.24686841786E+01  0.27380685478E+01  0.19290101989E+02  0.19639232571E+02  0.51100000000E-03 0. -1.
        -11    1    3    3    0    0 -0.24662639536E+01 -0.74098825062E+01  0.25790662519E+01  0.82243783739E+01  0.51100000000E-03 0.  1.
         12    1    3    3    0    0 -0.18656445956E+02 -0.10358897071E+02  0.76382899094E+01  0.22665242045E+02  0.00000000000E+00 0. -1.
</event>
<event>
 7    1  0.3054835E-011  0.5052885E+02  0.7816164E-02  0.1300439E+00
        -11   -1    0    0    0    0  0.00000000000E+00  0.00000000000E+00  0.45593999997E+02  0.45594000000E+02  0.51100000000E-03 0.  1.
         11   -1    0    0    0    0 -0.00000000000E+00 -0.00000000000E+00 -0.45593999997E+02  0.45594000000E+02  0.51100000000E-03 0. -1.
    9900012    2    1    2    0    0 -0.47112412143E+01 -0.12662425335E+02  0.38348836537E+02  0.50528854991E+02  0.29999985231E+02 0.  0.
         12    1    1    2    0    0  0.47112412143E+01  0.12662425335E+02 -0.38348836537E+02  0.40659145009E+02  0.00000000000E+00 0. -1.
         11    1    3    3    0    0  0.84401744819E+01  0.29718176144E+01  0.48169282927E+01  0.10162236154E+02  0.51100000000E-03 0. -1.
        -11    1    3    3    0    0 -0.13967261972E+02 -0.14604759040E+02  0.27118418670E+02  0.33819994456E+02  0.51100000000E-03 0.  1.
        -12    1    3    3    0    0  0.81584627532E+00 -0.10294839094E+01  0.64134895738E+01  0.65466243804E+01  0.00000000000E+00 0.  1.
</event>
<event>
 7    1  0.3054835E-011  0.5052886E+02  0.7816164E-02  0.1300439E+00
        -11   -1    0    0    0    0  0.00000000000E+00  0.00000000000E+00  0.45593999997E+02  0.45594000000E+02  0.51100000000E-03 0.  1.
         11   -1    0    0    0    0 -0.00000000000E+00 -0.00000000000E+00 -0.45593999997E+02  0.45594000000E+02  0.51100000000E-03 0. -1.
    9900012    2    1    2    0    0  0.23495619381E+02  0.27998804827E+02  0.17809790461E+02  0.50528857878E+02  0.29999994006E+02 0.  0.
         12    1    1    2    0    0 -0.23495619381E+02 -0.27998804827E+02 -0.17809790461E+02  0.40659142122E+02  0.00000000000E+00 0. -1.
         11    1    3    3    0    0 -0.31428213173E+01  0.15363593322E+02  0.46563101493E+01  0.16358439720E+02  0.51100000000E-03 0. -1.
        -11    1    3    3    0    0  0.22369946710E+02  0.14165739741E+02  0.13305918232E+02  0.29633261016E+02  0.51100000000E-03 0.  1.
         12    1    3    3    0    0  0.42684939882E+01 -0.15305282362E+01 -0.15243792076E+00  0.45371571418E+01  0.00000000000E+00 0. -1.
</event>
<event>
 7    1  0.3054835E-011  0.5052886E+02  0.7816164E-02  0.1300439E+00
        -11   -1    0    0    0    0  0.00000000000E+00  0.00000000000E+00  0.45593999997E+02  0.45594000000E+02  0.51100000000E-03 0. -1.
         11   -1    0    0    0    0 -0.00000000000E+00 -0.00000000000E+00 -0.45593999997E+02  0.45594000000E+02  0.51100000000E-03 0.  1.
    9900012    2    1    2    0    0 -0.24843823236E+02  0.12878096770E+02 -0.29497533165E+02  0.50528863361E+02  0.30000010672E+02 0.  0.
         12    1    1    2    0    0  0.24843823236E+02 -0.12878096770E+02  0.29497533165E+02  0.40659136639E+02  0.00000000000E+00 0. -1.
         11    1    3    3    0    0  0.95164614549E+00 -0.39389940930E+01 -0.48661582490E+01  0.63325193420E+01  0.51100000000E-03 0. -1.
        -11    1    3    3    0    0 -0.14504151062E+02  0.10662899696E+02 -0.19291110733E+01  0.18104952299E+02  0.51100000000E-03 0.  1.
        -12    1    3    3    0    0 -0.11291318319E+02  0.61541911669E+01 -0.22702263843E+02  0.26091391720E+02  0.00000000000E+00 0.  1.
</event>
<event>
 7    1  0.3054835E-011  0.5052891E+02  0.7816164E-02  0.1300439E+00
        -11   -1    0    0    0    0  0.00000000000E+00  0.00000000000E+00  0.45593999997E+02  0.45594000000E+02  0.51100000000E-03 0.  1.
         11   -1    0    0    0    0 -0.00000000000E+00 -0.00000000000E+00 -0.45593999997E+02  0.45594000000E+02  0.51100000000E-03 0. -1.
    9900012    2    1    2    0    0 -0.64631962669E+01  0.32199705877E+02  0.23970140588E+02  0.50528909942E+02  0.30000152260E+02 0.  0.
         12    1    1    2    0    0  0.64631962669E+01 -0.32199705877E+02 -0.23970140588E+02  0.40659090058E+02  0.00000000000E+00 0. -1.
         11    1    3    3    0    0  0.37227972068E+01  0.18957396041E+02  0.54186705541E+01  0.20064996250E+02  0.51100000000E-03 0. -1.
        -11    1    3    3    0    0 -0.68417560769E+01  0.14486268736E+02  0.20793861034E+02  0.26249690761E+02  0.51100000000E-03 0.  1.
        -12    1    3    3    0    0 -0.33442373968E+01 -0.12439588998E+01 -0.22423910003E+01  0.42142229306E+01  0.00000000000E+00 0.  1.
</event>
<event>
 7    1  0.3054835E-011  0.5052886E+02  0.7816164E-02  0.1300439E+00
        -11   -1    0    0    0    0  0.00000000000E+00  0.00000000000E+00  0.45593999997E+02  0.45594000000E+02  0.51100000000E-03 0.  1.
         11   -1    0    0    0    0 -0.00000000000E+00 -0.00000000000E+00 -0.45593999997E+02  0.45594000000E+02  0.51100000000E-03 0. -1.
    9900012    2    1    2    0    0  0.41868706877E+01 -0.24339055591E+02  0.32299316236E+02  0.50528863972E+02  0.30000012530E+02 0.  0.
         12    1    1    2    0    0 -0.41868706877E+01  0.24339055591E+02 -0.32299316236E+02  0.40659136028E+02  0.00000000000E+00 0. -1.
         11    1    3    3    0    0  0.93754201143E+01 -0.23028821497E+02  0.33544988918E+02  0.41755136255E+02  0.51100000000E-03 0. -1.
        -11    1    3    3    0    0 -0.32897559382E+01 -0.10833234417E+01  0.26983334098E+01  0.43905679888E+01  0.51100000000E-03 0.  1.
         12    1    3    3    0    0 -0.18987934883E+01 -0.22691065235E+00 -0.39440060921E+01  0.43831597290E+01  0.00000000000E+00 0. -1.
</event>
<event>
 7    1  0.3054835E-011  0.5052884E+02  0.7816164E-02  0.1300439E+00
        -11   -1    0    0    0    0  0.00000000000E+00  0.00000000000E+00  0.45593999997E+02  0.45594000000E+02  0.51100000000E-03 0.  1.
         11   -1    0    0    0    0 -0.00000000000E+00 -0.00000000000E+00 -0.45593999997E+02  0.45594000000E+02  0.51100000000E-03 0. -1.
    9900012    2    1    2    0    0 -0.77703309148E+01 -0.28290776526E+02  0.28149977527E+02  0.50528839732E+02  0.29999938848E+02 0.  0.
         12    1    1    2    0    0  0.77703309148E+01  0.28290776526E+02 -0.28149977527E+02  0.40659160268E+02  0.00000000000E+00 0. -1.
         11    1    3    3    0    0 -0.44685827100E+01 -0.11353240847E+02  0.41431564763E+01  0.12885265035E+02  0.51100000000E-03 0.  1.
        -11    1    3    3    0    0  0.78221436893E+01 -0.14975066634E+02  0.18576950398E+02  0.25110588184E+02  0.51100000000E-03 0. -1.
        -12    1    3    3    0    0 -0.11123891894E+02 -0.19624690442E+01  0.54298706523E+01  0.12532986512E+02  0.00000000000E+00 0.  1.
</event>
<event>
 7    1  0.3054835E-011  0.5052886E+02  0.7816164E-02  0.1300439E+00
        -11   -1    0    0    0    0  0.00000000000E+00  0.00000000000E+00  0.45593999997E+02  0.45594000000E+02  0.51100000000E-03 0.  1.
         11   -1    0    0    0    0 -0.00000000000E+00 -0.00000000000E+00 -0.45593999997E+02  0.45594000000E+02  0.51100000000E-03 0. -1.
    9900012    2    1    2    0    0  0.20767455594E+00 -0.23638092254E+02  0.33081162242E+02  0.50528857985E+02  0.29999994330E+02 0.  0.
         12    1    1    2    0    0 -0.20767455594E+00  0.23638092254E+02 -0.33081162242E+02  0.40659142015E+02  0.00000000000E+00 0. -1.
         11    1    3    3    0    0 -0.67979095244E+01 -0.51230641028E+01 -0.94694110429E+00  0.85646983262E+01  0.51100000000E-03 0. -1.
        -11    1    3    3    0    0  0.52637827516E+01 -0.19750869376E+02  0.34177303448E+02  0.39823263568E+02  0.51100000000E-03 0.  1.
        -12    1    3    3    0    0  0.17418013287E+01  0.12358412241E+01 -0.14920010189E+00  0.21408960905E+01  0.00000000000E+00 0.  1.
</event>
<event>
 7    1  0.3054835E-011  0.5052886E+02  0.7816164E-02  0.1300439E+00
        -11   -1    0    0    0    0  0.00000000000E+00  0.00000000000E+00  0.45593999997E+02  0.45594000000E+02  0.51100000000E-03 0. -1.
         11   -1    0    0    0    0 -0.00000000000E+00 -0.00000000000E+00 -0.45593999997E+02  0.45594000000E+02  0.51100000000E-03 0.  1.
    9900012    2    1    2    0    0  0.66523317151E+01  0.38621362956E+02 -0.10830611959E+02  0.50528863889E+02  0.30000012278E+02 0.  0.
         12    1    1    2    0    0 -0.66523317151E+01 -0.38621362956E+02  0.10830611959E+02  0.40659136111E+02  0.00000000000E+00 0. -1.
         11    1    3    3    0    0  0.91418354355E+01  0.31628414091E+02  0.25645022247E+00  0.32924086927E+02  0.51100000000E-03 0. -1.
        -11    1    3    3    0    0 -0.54238282469E+01 -0.47278585125E+00 -0.30094725449E+01  0.62208009591E+01  0.51100000000E-03 0.  1.
        -12    1    3    3    0    0  0.29343245265E+01  0.74657347168E+01 -0.80775896370E+01  0.11383976003E+02  0.00000000000E+00 0.  1.
</event>
<event>
 7    1  0.3054835E-011  0.5052887E+02  0.7816164E-02  0.1300439E+00
        -11   -1    0    0    0    0  0.00000000000E+00  0.00000000000E+00  0.45593999997E+02  0.45594000000E+02  0.51100000000E-03 0.  1.
         11   -1    0    0    0    0 -0.00000000000E+00 -0.00000000000E+00 -0.45593999997E+02  0.45594000000E+02  0.51100000000E-03 0. -1.
    9900012    2    1    2    0    0 -0.12697606479E+02  0.15239273170E+02  0.35492260821E+02  0.50528865292E+02  0.30000016542E+02 0.  0.
         12    1    1    2    0    0  0.12697606479E+02 -0.15239273170E+02 -0.35492260821E+02  0.40659134708E+02  0.00000000000E+00 0. -1.
         11    1    3    3    0    0  0.53686289754E+01  0.51489503975E+01 -0.96913904207E+00  0.75015397097E+01  0.51100000000E-03 0. -1.
        -11    1    3    3    0    0 -0.15410009662E+02  0.41512287708E+01  0.29206835867E+02  0.33282733657E+02  0.51100000000E-03 0.  1.
         12    1    3    3    0    0 -0.26562257924E+01  0.59390940014E+01  0.72545639964E+01  0.97445919256E+01  0.00000000000E+00 0. -1.
</event>
<event>
 7    1  0.3054835E-011  0.5052886E+02  0.7816164E-02  0.1300439E+00
        -11   -1    0    0    0    0  0.00000000000E+00  0.00000000000E+00  0.45593999997E+02  0.45594000000E+02  0.51100000000E-03 0. -1.
         11   -1    0    0    0    0 -0.00000000000E+00 -0.00000000000E+00 -0.45593999997E+02  0.45594000000E+02  0.51100000000E-03 0.  1.
    9900012    2    1    2    0    0  0.27718731609E+02  0.16214833684E+02 -0.24938261978E+02  0.50528858052E+02  0.29999994536E+02 0.  0.
         12    1    1    2    0    0 -0.27718731609E+02 -0.16214833684E+02  0.24938261978E+02  0.40659141948E+02  0.00000000000E+00 0. -1.
         11    1    3    3    0    0  0.15689159707E+02  0.20111278612E+02 -0.20344900725E+02  0.32627109058E+02  0.51100000000E-03 0. -1.
        -11    1    3    3    0    0  0.30209758688E+01 -0.50076700635E+01 -0.63754854809E+01  0.86515819388E+01  0.51100000000E-03 0.  1.
         12    1    3    3    0    0  0.90085960331E+01  0.11112251356E+01  0.17821242278E+01  0.92501670554E+01  0.00000000000E+00 0. -1.
</event>
<event>
 7    1  0.3054835E-011  0.5052885E+02  0.7816164E-02  0.1300439E+00
        -11   -1    0    0    0    0  0.00000000000E+00  0.00000000000E+00  0.45593999997E+02  0.45594000000E+02  0.51100000000E-03 0.  1.
         11   -1    0    0    0    0 -0.00000000000E+00 -0.00000000000E+00 -0.45593999997E+02  0.45594000000E+02  0.51100000000E-03 0. -1.
    9900012    2    1    2    0    0 -0.28308042694E+02  0.29014074291E+02  0.31629992741E+01  0.50528851552E+02  0.29999974778E+02 0.  0.
         12    1    1    2    0    0  0.28308042694E+02 -0.29014074291E+02 -0.31629992741E+01  0.40659148448E+02  0.00000000000E+00 0. -1.
         11    1    3    3    0    0 -0.18125466443E+02  0.28987163448E+02 -0.42386254350E+01  0.34449297879E+02  0.51100000000E-03 0. -1.
        -11    1    3    3    0    0 -0.19758575344E+01  0.24100837275E+00  0.76113931163E+01  0.78673631837E+01  0.51100000000E-03 0.  1.
         12    1    3    3    0    0 -0.82067187164E+01 -0.21409753032E+00 -0.20976840721E+00  0.82121904890E+01  0.00000000000E+00 0. -1.
</event>
<event>
 7    1  0.3054835E-011  0.5052886E+02  0.7816164E-02  0.1300439E+00
        -11   -1    0    0    0    0  0.00000000000E+00  0.00000000000E+00  0.45593999997E+02  0.45594000000E+02  0.51100000000E-03 0. -1.
         11   -1    0    0    0    0 -0.00000000000E+00 -0.00000000000E+00 -0.45593999997E+02  0.45594000000E+02  0.51100000000E-03 0.  1.
    9900012    2    1    2    0    0  0.18081757568E+02  0.35761208261E+02 -0.68812440620E+01  0.50528862123E+02  0.30000006911E+02 0.  0.
         12    1    1    2    0    0 -0.18081757568E+02 -0.35761208261E+02  0.68812440620E+01  0.40659137877E+02  0.00000000000E+00 0. -1.
         11    1    3    3    0    0 -0.22971672742E+01  0.16668206923E+01  0.55389549220E+01  0.62237681990E+01  0.51100000000E-03 0. -1.
        -11    1    3    3    0    0  0.20731962037E+02  0.27214031859E+02 -0.57038510402E+01  0.34683594060E+02  0.51100000000E-03 0.  1.
        -12    1    3    3    0    0 -0.35303719497E+00  0.68803557095E+01 -0.67163479437E+01  0.96214998650E+01  0.00000000000E+00 0.  1.
</event>
<event>
 7    1  0.3054835E-011  0.5052885E+02  0.7816164E-02  0.1300439E+00
        -11   -1    0    0    0    0  0.00000000000E+00  0.00000000000E+00  0.45593999997E+02  0.45594000000E+02  0.51100000000E-03 0.  1.
         11   -1    0    0    0    0 -0.00000000000E+00 -0.00000000000E+00 -0.45593999997E+02  0.45594000000E+02  0.51100000000E-03 0. -1.
    9900012    2    1    2    0    0  0.77781923698E+01 -0.16990103499E+02  0.36110977694E+02  0.50528848466E+02  0.29999965397E+02 0.  0.
         12    1    1    2    0    0 -0.77781923698E+01  0.16990103499E+02 -0.36110977694E+02  0.40659151534E+02  0.00000000000E+00 0. -1.
         11    1    3    3    0    0  0.52290277085E+01  0.18500299488E+01 -0.41361096820E+00  0.55620514095E+01  0.51100000000E-03 0. -1.
        -11    1    3    3    0    0 -0.21222663652E+01 -0.20697203046E+02  0.25971765178E+02  0.33277782607E+02  0.51100000000E-03 0.  1.
        -12    1    3    3    0    0  0.46714310265E+01  0.18570695984E+01  0.10552823484E+02  0.11689014450E+02  0.00000000000E+00 0.  1.
</event>
<event>
 7    1  0.3054835E-011  0.5052887E+02  0.7816164E-02  0.1300439E+00
        -11   -1    0    0    0    0  0.00000000000E+00  0.00000000000E+00  0.45593999997E+02  0.45594000000E+02  0.51100000000E-03 0. -1.
         11   -1    0    0    0    0 -0.00000000000E+00 -0.00000000000E+00 -0.45593999997E+02  0.45594000000E+02  0.51100000000E-03 0.  1.
    9900012    2    1    2    0    0  0.32964369065E+02 -0.23237611757E+02  0.51506086649E+01  0.50528868213E+02  0.30000025422E+02 0.  0.
         12    1    1    2    0    0 -0.32964369065E+02  0.23237611757E+02 -0.51506086649E+01  0.40659131787E+02  0.00000000000E+00 0. -1.
         11    1    3    3    0    0  0.10638628936E+02  0.43114697794E+01  0.73849683960E+01  0.13649430603E+02  0.51100000000E-03 0. -1.
        -11    1    3    3    0    0  0.19778133203E+02 -0.17549378567E+02 -0.73331691539E+00  0.26451710626E+02  0.51100000000E-03 0.  1.
         12    1    3    3    0    0  0.25476069248E+01 -0.99997029698E+01 -0.15010428157E+01  0.10427726984E+02  0.00000000000E+00 0. -1.
</event>
<event>
 7    1  0.3054835E-011  0.5052890E+02  0.7816164E-02  0.1300439E+00
        -11   -1    0    0    0    0  0.00000000000E+00  0.00000000000E+00  0.45593999997E+02  0.45594000000E+02  0.51100000000E-03 0.  1.
         11   -1    0    0    0    0 -0.00000000000E+00 -0.00000000000E+00 -0.45593999997E+02  0.45594000000E+02  0.51100000000E-03 0. -1.
    9900012    2    1    2    0    0  0.14175616893E+02 -0.30444919923E+02  0.22919881382E+02  0.50528902298E+02  0.30000129024E+02 0.  0.
         12    1    1    2    0    0 -0.14175616893E+02  0.30444919923E+02 -0.22919881382E+02  0.40659097702E+02  0.00000000000E+00 0. -1.
         11    1    3    3    0    0  0.55171334809E+01 -0.51939725564E+00  0.13880647136E+02  0.14945932575E+02  0.51100000000E-03 0. -1.
        -11    1    3    3    0    0  0.55387283295E+01 -0.27736825041E+02  0.30016686513E+01  0.28443259128E+02  0.51100000000E-03 0.  1.
        -12    1    3    3    0    0  0.31197550823E+01 -0.21886976265E+01  0.60375655939E+01  0.71397105946E+01  0.00000000000E+00 0.  1.
</event>
<event>
 7    1  0.3054835E-011  0.5052886E+02  0.7816164E-02  0.1300439E+00
        -11   -1    0    0    0    0  0.00000000000E+00  0.00000000000E+00  0.45593999997E+02  0.45594000000E+02  0.51100000000E-03 0. -1.
         11   -1    0    0    0    0 -0.00000000000E+00 -0.00000000000E+00 -0.45593999997E+02  0.45594000000E+02  0.51100000000E-03 0.  1.
    9900012    2    1    2    0    0 -0.38027733754E+02 -0.11400504192E+02  0.87798384921E+01  0.50528860877E+02  0.30000003122E+02 0.  0.
         12    1    1    2    0    0  0.38027733754E+02  0.11400504192E+02 -0.87798384921E+01  0.40659139123E+02  0.00000000000E+00 0. -1.
         11    1    3    3    0    0 -0.43757094131E+01 -0.12441491355E+02  0.57300431314E+01  0.14379531792E+02  0.51100000000E-03 0. -1.
        -11    1    3    3    0    0 -0.28101612769E+02  0.33462691723E+01  0.67467014582E+01  0.29093231832E+02  0.51100000000E-03 0.  1.
        -12    1    3    3    0    0 -0.55504115719E+01 -0.23052820086E+01 -0.36969060975E+01  0.70560972535E+01  0.00000000000E+00 0.  1.
</event>
<event>
 7    1  0.3054835E-011  0.5052886E+02  0.7816164E-02  0.1300439E+00
        -11   -1    0    0    0    0  0.00000000000E+00  0.00000000000E+00  0.45593999997E+02  0.45594000000E+02  0.51100000000E-03 0.  1.
         11   -1    0    0    0    0 -0.00000000000E+00 -0.00000000000E+00 -0.45593999997E+02  0.45594000000E+02  0.51100000000E-03 0. -1.
    9900012    2    1    2    0    0 -0.12950521577E+02  0.37279130956E+02  0.97834598591E+01  0.50528859567E+02  0.29999999140E+02 0.  0.
         12    1    1    2    0    0  0.12950521577E+02 -0.37279130956E+02 -0.97834598591E+01  0.40659140433E+02  0.00000000000E+00 0. -1.
         11    1    3    3    0    0  0.17294696077E+01  0.22612675709E+02  0.35402154106E+01  0.22953372154E+02  0.51100000000E-03 0.  1.
        -11    1    3    3    0    0 -0.10318327965E+02  0.27565433904E+01 -0.38637038328E+01  0.11357580333E+02  0.51100000000E-03 0. -1.
        -12    1    3    3    0    0 -0.43616632193E+01  0.11909911857E+02  0.10106948281E+02  0.16217907079E+02  0.00000000000E+00 0.  1.
</event>
<event>
 7    1  0.3054835E-011  0.5052886E+02  0.7816164E-02  0.1300439E+00
        -11   -1    0    0    0    0  0.00000000000E+00  0.00000000000E+00  0.45593999997E+02  0.45594000000E+02  0.51100000000E-03 0.  1.
         11   -1    0    0    0    0 -0.00000000000E+00 -0.00000000000E+00 -0.45593999997E+02  0.45594000000E+02  0.51100000000E-03 0. -1.
    9900012    2    1    2    0    0 -0.18303043739E+02 -0.33414404683E+02  0.14200071195E+02  0.50528857457E+02  0.29999992725E+02 0.  0.
         12    1    1    2    0    0  0.18303043739E+02  0.33414404683E+02 -0.14200071195E+02  0.40659142543E+02  0.00000000000E+00 0. -1.
         11    1    3    3    0    0 -0.59072078459E+00 -0.15963924640E+02 -0.21728770395E+01  0.16121948885E+02  0.51100000000E-03 0. -1.
        -11    1    3    3    0    0 -0.92278876045E+01 -0.13300872553E+02  0.18645472821E+02  0.24692524725E+02  0.51100000000E-03 0.  1.
        -12    1    3    3    0    0 -0.84844353499E+01 -0.41496074899E+01 -0.22725245867E+01  0.97143838468E+01  0.00000000000E+00 0.  1.
</event>
<event>
 7    1  0.3054835E-011  0.5052895E+02  0.7816164E-02  0.1300438E+00
        -11   -1    0    0    0    0  0.00000000000E+00  0.00000000000E+00  0.45593999997E+02  0.45594000000E+02  0.51100000000E-03 0. -1.
         11   -1    0    0    0    0 -0.00000000000E+00 -0.00000000000E+00 -0.45593999997E+02  0.45594000000E+02  0.51100000000E-03 0.  1.
    9900012    2    1    2    0    0  0.33076991905E+02 -0.17925777133E+02  0.15418738675E+02  0.50528949573E+02  0.30000272720E+02 0.  0.
         12    1    1    2    0    0 -0.33076991905E+02  0.17925777133E+02 -0.15418738675E+02  0.40659050427E+02  0.00000000000E+00 0. -1.
         11    1    3    3    0    0 -0.33160295642E+01 -0.38436129541E+01  0.24644901616E-01  0.50764180525E+01  0.51100000000E-03 0. -1.
        -11    1    3    3    0    0  0.29359793616E+02 -0.84851646993E+01  0.38215825919E+01  0.30799350560E+02  0.51100000000E-03 0.  1.
        -12    1    3    3    0    0  0.70332278533E+01 -0.55969994800E+01  0.11572511181E+02  0.14653180960E+02  0.00000000000E+00 0.  1.
</event>
<event>
 7    1  0.3054835E-011  0.5052886E+02  0.7816164E-02  0.1300439E+00
        -11   -1    0    0    0    0  0.00000000000E+00  0.00000000000E+00  0.45593999997E+02  0.45594000000E+02  0.51100000000E-03 0. -1.
         11   -1    0    0    0    0 -0.00000000000E+00 -0.00000000000E+00 -0.45593999997E+02  0.45594000000E+02  0.51100000000E-03 0.  1.
    9900012    2    1    2    0    0 -0.26499818139E+02  0.23886897546E+00 -0.30836146939E+02  0.50528863538E+02  0.30000011209E+02 0.  0.
         12    1    1    2    0    0  0.26499818139E+02 -0.23886897546E+00  0.30836146939E+02  0.40659136462E+02  0.00000000000E+00 0. -1.
         11    1    3    3    0    0 -0.13372015324E+02  0.13516987569E+01 -0.17674981328E+01  0.13555881869E+02  0.51100000000E-03 0. -1.
        -11    1    3    3    0    0 -0.17120236108E+02 -0.28738347353E+01 -0.27105768038E+02  0.32188259842E+02  0.51100000000E-03 0.  1.
        -12    1    3    3    0    0  0.39924332925E+01  0.17610049538E+01 -0.19628807691E+01  0.47847218264E+01  0.00000000000E+00 0.  1.
</event>
<event>
 7    1  0.3054835E-011  0.5052882E+02  0.7816164E-02  0.1300439E+00
        -11   -1    0    0    0    0  0.00000000000E+00  0.00000000000E+00  0.45593999997E+02  0.45594000000E+02  0.51100000000E-03 0. -1.
         11   -1    0    0    0    0 -0.00000000000E+00 -0.00000000000E+00 -0.45593999997E+02  0.45594000000E+02  0.51100000000E-03 0.  1.
    9900012    2    1    2    0    0 -0.25187922286E+02 -0.78348177572E+01 -0.30941122974E+02  0.50528820357E+02  0.29999879957E+02 0.  0.
         12    1    1    2    0    0  0.25187922286E+02  0.78348177572E+01  0.30941122974E+02  0.40659179643E+02  0.00000000000E+00 0. -1.
         11    1    3    3    0    0 -0.12993522898E+02  0.58629265367E+01 -0.12179228762E+02  0.18749377546E+02  0.51100000000E-03 0. -1.
        -11    1    3    3    0    0 -0.91952892704E+01 -0.15002297085E+02 -0.21308282653E+02  0.27634492441E+02  0.51100000000E-03 0.  1.
         12    1    3    3    0    0 -0.29991101177E+01  0.13045527908E+01  0.25463884406E+01  0.41449503703E+01  0.00000000000E+00 0. -1.
</event>
<event>
 7    1  0.3054835E-011  0.5052887E+02  0.7816164E-02  0.1300439E+00
        -11   -1    0    0    0    0  0.00000000000E+00  0.00000000000E+00  0.45593999997E+02  0.45594000000E+02  0.51100000000E-03 0.  1.
         11   -1    0    0    0    0 -0.00000000000E+00 -0.00000000000E+00 -0.45593999997E+02  0.45594000000E+02  0.51100000000E-03 0. -1.
    9900012    2    1    2    0    0  0.34779420303E+02 -0.17879050831E+02  0.11130867692E+02  0.50528871249E+02  0.30000034648E+02 0.  0.
         12    1    1    2    0    0 -0.34779420303E+02  0.17879050831E+02 -0.11130867692E+02  0.40659128751E+02  0.00000000000E+00 0. -1.
         11    1    3    3    0    0  0.19892923080E+02 -0.17242871960E+02 -0.48382043293E+01  0.26766644233E+02  0.51100000000E-03 0. -1.
        -11    1    3    3    0    0  0.15460406720E+02  0.11741091265E+01  0.12979841855E+02  0.20220756737E+02  0.51100000000E-03 0.  1.
         12    1    3    3    0    0 -0.57390949750E+00 -0.18102879977E+01  0.29892301665E+01  0.35414702786E+01  0.00000000000E+00 0. -1.
</event>
<event>
 7    1  0.3054835E-011  0.5052886E+02  0.7816164E-02  0.1300439E+00
        -11   -1    0    0    0    0  0.00000000000E+00  0.00000000000E+00  0.45593999997E+02  0.45594000000E+02  0.51100000000E-03 0. -1.
         11   -1    0    0    0    0 -0.00000000000E+00 -0.00000000000E+00 -0.45593999997E+02  0.45594000000E+02  0.51100000000E-03 0.  1.
    9900012    2    1    2    0    0 -0.15092852141E+02 -0.73932669899E+01 -0.37023111259E+02  0.50528863882E+02  0.30000012257E+02 0.  0.
         12    1    1    2    0    0  0.15092852141E+02  0.73932669899E+01  0.37023111259E+02  0.40659136118E+02  0.00000000000E+00 0. -1.
         11    1    3    3    0    0  0.51049013457E+01 -0.55893127600E+01 -0.17584908817E+02  0.19144958951E+02  0.51100000000E-03 0. -1.
        -11    1    3    3    0    0 -0.15909216755E+02 -0.73428985876E+01 -0.12494742935E+02  0.21520686297E+02  0.51100000000E-03 0.  1.
         12    1    3    3    0    0 -0.42885367316E+01  0.55389443577E+01 -0.69434595068E+01  0.98632186338E+01  0.00000000000E+00 0. -1.
</event>
<event>
 7    1  0.3054835E-011  0.5052887E+02  0.7816164E-02  0.1300439E+00
        -11   -1    0    0    0    0  0.00000000000E+00  0.00000000000E+00  0.45593999997E+02  0.45594000000E+02  0.51100000000E-03 0.  1.
         11   -1    0    0    0    0 -0.00000000000E+00 -0.00000000000E+00 -0.45593999997E+02  0.45594000000E+02  0.51100000000E-03 0. -1.
    9900012    2    1    2    0    0  0.31991453598E+02 -0.15547531372E+02  0.19697363002E+02  0.50528868869E+02  0.30000027414E+02 0.  0.
         12    1    1    2    0    0 -0.31991453598E+02  0.15547531372E+02 -0.19697363002E+02  0.40659131131E+02  0.00000000000E+00 0. -1.
         11    1    3    3    0    0 -0.38365320299E+01  0.11312212844E+01  0.23753937346E+01  0.46520033605E+01  0.51100000000E-03 0. -1.
        -11    1    3    3    0    0  0.30037706484E+02 -0.18164425572E+02  0.18655333469E+02  0.39752127418E+02  0.51100000000E-03 0.  1.
         12    1    3    3    0    0  0.57902791444E+01  0.14856729153E+01 -0.13333642017E+01  0.61247380904E+01  0.00000000000E+00 0. -1.
</event>
<event>
 7    1  0.3054835E-011  0.5052890E+02  0.7816164E-02  0.1300439E+00
        -11   -1    0    0    0    0  0.00000000000E+00  0.00000000000E+00  0.45593999997E+02  0.45594000000E+02  0.51100000000E-03 0.  1.
         11   -1    0    0    0    0 -0.00000000000E+00 -0.00000000000E+00 -0.45593999997E+02  0.45594000000E+02  0.51100000000E-03 0. -1.
    9900012    2    1    2    0    0 -0.70224000280E+01  0.43713284953E+01  0.39808788249E+02  0.50528902165E+02  0.30000128619E+02 0.  0.
         12    1    1    2    0    0  0.70224000280E+01 -0.43713284953E+01 -0.39808788249E+02  0.40659097835E+02  0.00000000000E+00 0. -1.
         11    1    3    3    0    0  0.27909382169E+01  0.72995873233E+01  0.83452958324E+00  0.78593734552E+01  0.51100000000E-03 0. -1.
        -11    1    3    3    0    0 -0.78847261649E+00 -0.37879916290E+01  0.28732205388E+02  0.28991553880E+02  0.51100000000E-03 0.  1.
         12    1    3    3    0    0 -0.90248656285E+01  0.85973280097E+00  0.10242053277E+02  0.13677974830E+02  0.00000000000E+00 0. -1.
</event>
<event>
 7    1  0.3054835E-011  0.5052886E+02  0.7816164E-02  0.1300439E+00
        -11   -1    0    0    0    0  0.00000000000E+00  0.00000000000E+00  0.45593999997E+02  0.45594000000E+02  0.51100000000E-03 0. -1.
         11   -1    0    0    0    0 -0.00000000000E+00 -0.00000000000E+00 -0.45593999997E+02  0.45594000000E+02  0.51100000000E-03 0.  1.
    9900012    2    1    2    0    0 -0.16501121918E+02  0.35933360871E+02 -0.94695299833E+01  0.50528862698E+02  0.30000008658E+02 0.  0.
         12    1    1    2    0    0  0.16501121918E+02 -0.35933360871E+02  0.94695299833E+01  0.40659137302E+02  0.00000000000E+00 0. -1.
         11    1    3    3    0    0  0.53526142111E+00 -0.16058437597E+01  0.84971095324E+00  0.18940031507E+01  0.51100000000E-03 0. -1.
        -11    1    3    3    0    0 -0.18401320924E+02  0.20300987707E+02 -0.14276142310E+02  0.30895743285E+02  0.51100000000E-03 0.  1.
        -12    1    3    3    0    0  0.13649375848E+01  0.17238216923E+02  0.39569013736E+01  0.17739116262E+02  0.00000000000E+00 0.  1.
</event>
<event>
 7    1  0.3054835E-011  0.5052886E+02  0.7816164E-02  0.1300439E+00
        -11   -1    0    0    0    0  0.00000000000E+00  0.00000000000E+00  0.45593999997E+02  0.45594000000E+02  0.51100000000E-03 0.  1.
         11   -1    0    0    0    0 -0.00000000000E+00 -0.00000000000E+00 -0.45593999997E+02  0.45594000000E+02  0.51100000000E-03 0. -1.
    9900012    2    1    2    0    0 -0.29111570402E+02 -0.37320380002E+01  0.28138125267E+02  0.50528859177E+02  0.29999997955E+02 0.  0.
         12    1    1    2    0    0  0.29111570402E+02  0.37320380002E+01 -0.28138125267E+02  0.40659140823E+02  0.00000000000E+00 0. -1.
         11    1    3    3    0    0 -0.11574247278E+02 -0.51176932779E+00 -0.26799305189E+01  0.11891473237E+02  0.51100000000E-03 0. -1.
        -11    1    3    3    0    0 -0.19156004797E+02  0.16106725336E+00  0.28092661956E+02  0.34002589879E+02  0.51100000000E-03 0.  1.
         12    1    3    3    0    0  0.16186816731E+01 -0.33813359258E+01  0.27253938299E+01  0.46347960613E+01  0.00000000000E+00 0. -1.
</event>
<event>
 7    1  0.3054835E-011  0.5052886E+02  0.7816164E-02  0.1300439E+00
        -11   -1    0    0    0    0  0.00000000000E+00  0.00000000000E+00  0.45593999997E+02  0.45594000000E+02  0.51100000000E-03 0. -1.
         11   -1    0    0    0    0 -0.00000000000E+00 -0.00000000000E+00 -0.45593999997E+02  0.45594000000E+02  0.51100000000E-03 0.  1.
    9900012    2    1    2    0    0 -0.37122776214E+02 -0.27496762495E+01 -0.16355556633E+02  0.50528862452E+02  0.30000007910E+02 0.  0.
         12    1    1    2    0    0  0.37122776214E+02  0.27496762495E+01  0.16355556633E+02  0.40659137548E+02  0.00000000000E+00 0. -1.
         11    1    3    3    0    0  0.29827144777E+01 -0.52257802847E+01 -0.36854586338E+01  0.70560591581E+01  0.51100000000E-03 0. -1.
        -11    1    3    3    0    0 -0.31265555394E+02 -0.22032612071E+01 -0.75644065399E+01  0.32242976919E+02  0.51100000000E-03 0.  1.
         12    1    3    3    0    0 -0.88399352984E+01  0.46793652423E+01 -0.51056914591E+01  0.11229826376E+02  0.00000000000E+00 0. -1.
</event>
<event>
 7    1  0.3054835E-011  0.5052886E+02  0.7816164E-02  0.1300439E+00
        -11   -1    0    0    0    0  0.00000000000E+00  0.00000000000E+00  0.45593999997E+02  0.45594000000E+02  0.51100000000E-03 0. -1.
         11   -1    0    0    0    0 -0.00000000000E+00 -0.00000000000E+00 -0.45593999997E+02  0.45594000000E+02  0.51100000000E-03 0.  1.
    9900012    2    1    2    0    0  0.38538907662E+02  0.10821318967E+02  0.71286308839E+01  0.50528859254E+02  0.29999998187E+02 0.  0.
         12    1    1    2    0    0 -0.38538907662E+02 -0.10821318967E+02 -0.71286308839E+01  0.40659140746E+02  0.00000000000E+00 0. -1.
         11    1    3    3    0    0  0.82692529172E+01 -0.98544185454E+00  0.10338288855E+02  0.13275234693E+02  0.51100000000E-03 0. -1.
        -11    1    3    3    0    0  0.29661057586E+02  0.86844898325E+01 -0.76047508108E+01  0.31828146913E+02  0.51100000000E-03 0.  1.
        -12    1    3    3    0    0  0.60859715890E+00  0.31222709889E+01  0.43950928399E+01  0.54254776473E+01  0.00000000000E+00 0.  1.
</event>
<event>
 7    1  0.3054835E-011  0.5052883E+02  0.7816164E-02  0.1300439E+00
        -11   -1    0    0    0    0  0.00000000000E+00  0.00000000000E+00  0.45593999997E+02  0.45594000000E+02  0.51100000000E-03 0. -1.
         11   -1    0    0    0    0 -0.00000000000E+00 -0.00000000000E+00 -0.45593999997E+02  0.45594000000E+02  0.51100000000E-03 0.  1.
    9900012    2    1    2    0    0 -0.28053821008E+02  0.29203205772E+02  0.36502196788E+01  0.50528828781E+02  0.29999905562E+02 0.  0.
         12    1    1    2    0    0  0.28053821008E+02 -0.29203205772E+02 -0.36502196788E+01  0.40659171219E+02  0.00000000000E+00 0. -1.
         11    1    3    3    0    0 -0.11402903310E+02  0.54771192301E+01  0.13056588542E+02  0.18179646410E+02  0.51100000000E-03 0. -1.
        -11    1    3    3    0    0  0.66576488865E+00  0.59290275825E+01 -0.57474023520E+00  0.59939083710E+01  0.51100000000E-03 0.  1.
         12    1    3    3    0    0 -0.17316682586E+02  0.17797058959E+02 -0.88316286277E+01  0.26355274000E+02  0.00000000000E+00 0. -1.
</event>
<event>
 7    1  0.3054835E-011  0.5052885E+02  0.7816164E-02  0.1300439E+00
        -11   -1    0    0    0    0  0.00000000000E+00  0.00000000000E+00  0.45593999997E+02  0.45594000000E+02  0.51100000000E-03 0.  1.
         11   -1    0    0    0    0 -0.00000000000E+00 -0.00000000000E+00 -0.45593999997E+02  0.45594000000E+02  0.51100000000E-03 0. -1.
    9900012    2    1    2    0    0  0.16223860549E+02 -0.20484306081E+02  0.31150381107E+02  0.50528847404E+02  0.29999962168E+02 0.  0.
         12    1    1    2    0    0 -0.16223860549E+02  0.20484306081E+02 -0.31150381107E+02  0.40659152596E+02  0.00000000000E+00 0. -1.
         11    1    3    3    0    0 -0.61004041326E+01 -0.46791078766E+01  0.85436626088E+01  0.11493613537E+02  0.51100000000E-03 0. -1.
        -11    1    3    3    0    0  0.21828068198E+02 -0.69084163624E+01  0.15696674221E+02  0.27759257190E+02  0.51100000000E-03 0.  1.
         12    1    3    3    0    0  0.49619648328E+00 -0.88967818421E+01  0.69100442778E+01  0.11275976677E+02  0.00000000000E+00 0. -1.
</event>
<event>
 7    1  0.3054835E-011  0.5052886E+02  0.7816164E-02  0.1300439E+00
        -11   -1    0    0    0    0  0.00000000000E+00  0.00000000000E+00  0.45593999997E+02  0.45594000000E+02  0.51100000000E-03 0. -1.
         11   -1    0    0    0    0 -0.00000000000E+00 -0.00000000000E+00 -0.45593999997E+02  0.45594000000E+02  0.51100000000E-03 0.  1.
    9900012    2    1    2    0    0 -0.39741484858E+02  0.31968601354E+01 -0.79724701437E+01  0.50528858178E+02  0.29999994919E+02 0.  0.
         12    1    1    2    0    0  0.39741484858E+02 -0.31968601354E+01  0.79724701437E+01  0.40659141822E+02  0.00000000000E+00 0. -1.
         11    1    3    3    0    0 -0.38026882236E+00  0.41669686918E+01  0.13704707019E+01  0.44030015515E+01  0.51100000000E-03 0. -1.
        -11    1    3    3    0    0 -0.35942048202E+02 -0.78705049822E+01 -0.45967440063E+01  0.37079721322E+02  0.51100000000E-03 0.  1.
        -12    1    3    3    0    0 -0.34191678342E+01  0.69003964258E+01 -0.47461968393E+01  0.90461353046E+01  0.00000000000E+00 0.  1.
</event>
<event>
 7    1  0.3054835E-011  0.5052886E+02  0.7816164E-02  0.1300439E+00
        -11   -1    0    0    0    0  0.00000000000E+00  0.00000000000E+00  0.45593999997E+02  0.45594000000E+02  0.51100000000E-03 0.  1.
         11   -1    0    0    0    0 -0.00000000000E+00 -0.00000000000E+00 -0.45593999997E+02  0.45594000000E+02  0.51100000000E-03 0. -1.
    9900012    2    1    2    0    0  0.18871712719E+02 -0.62312868005E+01  0.35471047836E+02  0.50528859445E+02  0.29999998768E+02 0.  0.
         12    1    1    2    0    0 -0.18871712719E+02  0.62312868005E+01 -0.35471047836E+02  0.40659140555E+02  0.00000000000E+00 0. -1.
         11    1    3    3    0    0 -0.81195396650E+00 -0.11563046421E+00  0.55514892705E+01  0.56117442057E+01  0.51100000000E-03 0. -1.
        -11    1    3    3    0    0  0.17378033434E+02 -0.13571639103E+02  0.11404260938E+02  0.24824234163E+02  0.51100000000E-03 0.  1.
        -12    1    3    3    0    0  0.23056332514E+01  0.74559827668E+01  0.18515297627E+02  0.20092881076E+02  0.00000000000E+00 0.  1.
</event>
<event>
 7    1  0.3054835E-011  0.5052886E+02  0.7816164E-02  0.1300439E+00
        -11   -1    0    0    0    0  0.00000000000E+00  0.00000000000E+00  0.45593999997E+02  0.45594000000E+02  0.51100000000E-03 0.  1.
         11   -1    0    0    0    0 -0.00000000000E+00 -0.00000000000E+00 -0.45593999997E+02  0.45594000000E+02  0.51100000000E-03 0. -1.
    9900012    2    1    2    0    0 -0.36435973076E+02  0.25927925592E+01  0.17856735841E+02  0.50528859304E+02  0.29999998339E+02 0.  0.
         12    1    1    2    0    0  0.36435973076E+02 -0.25927925592E+01 -0.17856735841E+02  0.40659140696E+02  0.00000000000E+00 0. -1.
         11    1    3    3    0    0 -0.78019191319E+01 -0.11827403692E+02  0.80585807725E+01  0.16300249831E+02  0.51100000000E-03 0. -1.
        -11    1    3    3    0    0 -0.89458488560E+01  0.17424081894E+01  0.82453579979E+00  0.91511779351E+01  0.51100000000E-03 0.  1.
         12    1    3    3    0    0 -0.19688205088E+02  0.12677788062E+02  0.89736192684E+01  0.25077431537E+02  0.00000000000E+00 0. -1.
</event>
<event>
 7    1  0.3054835E-011  0.5052886E+02  0.7816164E-02  0.1300439E+00
        -11   -1    0    0    0    0  0.00000000000E+00  0.00000000000E+00  0.45593999997E+02  0.45594000000E+02  0.51100000000E-03 0. -1.
         11   -1    0    0    0    0 -0.00000000000E+00 -0.00000000000E+00 -0.45593999997E+02  0.45594000000E+02  0.51100000000E-03 0.  1.
    9900012    2    1    2    0    0 -0.14357161425E+02  0.24798798200E+02 -0.28845405335E+02  0.50528857298E+02  0.29999992243E+02 0.  0.
         12    1    1    2    0    0  0.14357161425E+02 -0.24798798200E+02  0.28845405335E+02  0.40659142702E+02  0.00000000000E+00 0. -1.
         11    1    3    3    0    0 -0.21051152032E+01  0.35806937121E+01 -0.11863820279E+02  0.12569928773E+02  0.51100000000E-03 0. -1.
        -11    1    3    3    0    0 -0.47447462769E+01 -0.16217626471E+01  0.37110880529E+01  0.62381813145E+01  0.51100000000E-03 0.  1.
        -12    1    3    3    0    0 -0.75072999446E+01  0.22839867135E+02 -0.20692673108E+02  0.31720747210E+02  0.00000000000E+00 0.  1.
</event>
<event>
 7    1  0.3054835E-011  0.5052888E+02  0.7816164E-02  0.1300439E+00
        -11   -1    0    0    0    0  0.00000000000E+00  0.00000000000E+00  0.45593999997E+02  0.45594000000E+02  0.51100000000E-03 0. -1.
         11   -1    0    0    0    0 -0.00000000000E+00 -0.00000000000E+00 -0.45593999997E+02  0.45594000000E+02  0.51100000000E-03 0.  1.
    9900012    2    1    2    0    0 -0.83113117085E+01  0.13440977498E+02 -0.37462331029E+02  0.50528880180E+02  0.30000061795E+02 0.  0.
         12    1    1    2    0    0  0.83113117085E+01 -0.13440977498E+02  0.37462331029E+02  0.40659119820E+02  0.00000000000E+00 0. -1.
         11    1    3    3    0    0 -0.71281612960E+01 -0.40183575746E+01 -0.48457757662E+00  0.81971151479E+01  0.51100000000E-03 0. -1.
        -11    1    3    3    0    0  0.33104817402E+01  0.10573790699E+02 -0.28229895897E+02  0.30326413597E+02  0.51100000000E-03 0.  1.
        -12    1    3    3    0    0 -0.44936321527E+01  0.68855443745E+01 -0.87478575556E+01  0.12005351435E+02  0.00000000000E+00 0.  1.
</event>
<event>
 7    1  0.3054835E-011  0.5052889E+02  0.7816164E-02  0.1300439E+00
        -11   -1    0    0    0    0  0.00000000000E+00  0.00000000000E+00  0.45593999997E+02  0.45594000000E+02  0.51100000000E-03 0.  1.
         11   -1    0    0    0    0 -0.00000000000E+00 -0.00000000000E+00 -0.45593999997E+02  0.45594000000E+02  0.51100000000E-03 0. -1.
    9900012    2    1    2    0    0  0.14899292903E+02  0.23783487834E+02  0.29419722220E+02  0.50528889359E+02  0.30000089696E+02 0.  0.
         12    1    1    2    0    0 -0.14899292903E+02 -0.23783487834E+02 -0.29419722220E+02  0.40659110641E+02  0.00000000000E+00 0. -1.
         11    1    3    3    0    0  0.65645475563E+00  0.13411939110E+02  0.26662518659E+02  0.29852988880E+02  0.51100000000E-03 0. -1.
        -11    1    3    3    0    0  0.92640335348E+01  0.53307659408E+01  0.66536500927E+01  0.12590093036E+02  0.51100000000E-03 0.  1.
         12    1    3    3    0    0  0.49788046130E+01  0.50407827826E+01 -0.38964465312E+01  0.80858074431E+01  0.00000000000E+00 0. -1.
</event>
<event>
 7    1  0.3054835E-011  0.5052886E+02  0.7816164E-02  0.1300439E+00
        -11   -1    0    0    0    0  0.00000000000E+00  0.00000000000E+00  0.45593999997E+02  0.45594000000E+02  0.51100000000E-03 0.  1.
         11   -1    0    0    0    0 -0.00000000000E+00 -0.00000000000E+00 -0.45593999997E+02  0.45594000000E+02  0.51100000000E-03 0. -1.
    9900012    2    1    2    0    0 -0.21395154655E+02  0.11276161601E+01  0.34556357168E+02  0.50528856113E+02  0.29999988641E+02 0.  0.
         12    1    1    2    0    0  0.21395154655E+02 -0.11276161601E+01 -0.34556357168E+02  0.40659143887E+02  0.00000000000E+00 0. -1.
         11    1    3    3    0    0 -0.29814813523E+01  0.10956760828E+02  0.13647127805E+02  0.17753420416E+02  0.51100000000E-03 0. -1.
        -11    1    3    3    0    0 -0.96000480588E+01 -0.69280016053E+01  0.20270712755E+02  0.23474665596E+02  0.51100000000E-03 0.  1.
         12    1    3    3    0    0 -0.88136252441E+01 -0.29011430622E+01  0.63851660730E+00  0.93007701009E+01  0.00000000000E+00 0. -1.
</event>
<event>
 7    1  0.3054835E-011  0.5052886E+02  0.7816164E-02  0.1300439E+00
        -11   -1    0    0    0    0  0.00000000000E+00  0.00000000000E+00  0.45593999997E+02  0.45594000000E+02  0.51100000000E-03 0.  1.
         11   -1    0    0    0    0 -0.00000000000E+00 -0.00000000000E+00 -0.45593999997E+02  0.45594000000E+02  0.51100000000E-03 0. -1.
    9900012    2    1    2    0    0  0.19086087398E+02 -0.32731718402E+02  0.14748621879E+02  0.50528856268E+02  0.29999989111E+02 0.  0.
         12    1    1    2    0    0 -0.19086087398E+02  0.32731718402E+02 -0.14748621879E+02  0.40659143732E+02  0.00000000000E+00 0. -1.
         11    1    3    3    0    0  0.14215132510E+01  0.23193439410E+01  0.39326488702E+01  0.47818180263E+01  0.51100000000E-03 0. -1.
        -11    1    3    3    0    0  0.17012402892E+02 -0.13780885575E+02  0.39438619538E-01  0.21893748310E+02  0.51100000000E-03 0.  1.
        -12    1    3    3    0    0  0.65217125478E+00 -0.21270176769E+02  0.10776534390E+02  0.23853289932E+02  0.00000000000E+00 0.  1.
</event>
<event>
 7    1  0.3054835E-011  0.5052886E+02  0.7816164E-02  0.1300439E+00
        -11   -1    0    0    0    0  0.00000000000E+00  0.00000000000E+00  0.45593999997E+02  0.45594000000E+02  0.51100000000E-03 0.  1.
         11   -1    0    0    0    0 -0.00000000000E+00 -0.00000000000E+00 -0.45593999997E+02  0.45594000000E+02  0.51100000000E-03 0. -1.
    9900012    2    1    2    0    0  0.10342299670E+02 -0.21710863768E+02  0.32784770724E+02  0.50528856386E+02  0.29999989471E+02 0.  0.
         12    1    1    2    0    0 -0.10342299670E+02  0.21710863768E+02 -0.32784770724E+02  0.40659143614E+02  0.00000000000E+00 0. -1.
         11    1    3    3    0    0 -0.16790484659E+01  0.58912921891E-01  0.19711841353E+01  0.25900273434E+01  0.51100000000E-03 0. -1.
        -11    1    3    3    0    0  0.19137256489E+02 -0.22504313591E+02  0.25548697328E+02  0.39056557088E+02  0.51100000000E-03 0.  1.
        -12    1    3    3    0    0 -0.71159083530E+01  0.73453690167E+00  0.52648892605E+01  0.88822719545E+01  0.00000000000E+00 0.  1.
</event>
<event>
 7    1  0.3054835E-011  0.5052885E+02  0.7816164E-02  0.1300439E+00
        -11   -1    0    0    0    0  0.00000000000E+00  0.00000000000E+00  0.45593999997E+02  0.45594000000E+02  0.51100000000E-03 0.  1.
         11   -1    0    0    0    0 -0.00000000000E+00 -0.00000000000E+00 -0.45593999997E+02  0.45594000000E+02  0.51100000000E-03 0. -1.
    9900012    2    1    2    0    0  0.31204173174E+02 -0.15277030049E+02  0.21120558772E+02  0.50528854984E+02  0.29999985209E+02 0.  0.
         12    1    1    2    0    0 -0.31204173174E+02  0.15277030049E+02 -0.21120558772E+02  0.40659145016E+02  0.00000000000E+00 0. -1.
         11    1    3    3    0    0  0.93213656674E+01  0.27702162064E+01 -0.31260817004E+01  0.10214418378E+02  0.51100000000E-03 0. -1.
        -11    1    3    3    0    0  0.11217822268E+02 -0.18383071758E+02  0.16436243307E+02  0.27091086320E+02  0.51100000000E-03 0.  1.
        -12    1    3    3    0    0  0.10664985238E+02  0.33582550260E+00  0.78103971653E+01  0.13223350286E+02  0.00000000000E+00 0.  1.
</event>
<event>
 7    1  0.3054835E-011  0.5052886E+02  0.7816164E-02  0.1300439E+00
        -11   -1    0    0    0    0  0.00000000000E+00  0.00000000000E+00  0.45593999997E+02  0.45594000000E+02  0.51100000000E-03 0. -1.
         11   -1    0    0    0    0 -0.00000000000E+00 -0.00000000000E+00 -0.45593999997E+02  0.45594000000E+02  0.51100000000E-03 0.  1.
    9900012    2    1    2    0    0  0.23809868369E+02 -0.32919934597E+02  0.15917824458E+01  0.50528859614E+02  0.29999999283E+02 0.  0.
         12    1    1    2    0    0 -0.23809868369E+02  0.32919934597E+02 -0.15917824458E+01  0.40659140386E+02  0.00000000000E+00 0. -1.
         11    1    3    3    0    0  0.16189041446E+02 -0.63861039831E+01 -0.49316576365E+00  0.17410071791E+02  0.51100000000E-03 0.  1.
        -11    1    3    3    0    0 -0.56323269061E+01 -0.12709638113E+02  0.78382671909E+00  0.13923806661E+02  0.51100000000E-03 0. -1.
         12    1    3    3    0    0  0.13253153829E+02 -0.13824192500E+02  0.13011214904E+01  0.19194981162E+02  0.00000000000E+00 0. -1.
</event>
<event>
 7    1  0.3054835E-011  0.5052888E+02  0.7816164E-02  0.1300439E+00
        -11   -1    0    0    0    0  0.00000000000E+00  0.00000000000E+00  0.45593999997E+02  0.45594000000E+02  0.51100000000E-03 0.  1.
         11   -1    0    0    0    0 -0.00000000000E+00 -0.00000000000E+00 -0.45593999997E+02  0.45594000000E+02  0.51100000000E-03 0. -1.
    9900012    2    1    2    0    0 -0.14328322402E+02  0.35626202342E+02 -0.13365505288E+02  0.50528882353E+02  0.30000068402E+02 0.  0.
         12    1    1    2    0    0  0.14328322402E+02 -0.35626202342E+02  0.13365505288E+02  0.40659117647E+02  0.00000000000E+00 0. -1.
         11    1    3    3    0    0  0.27303550918E+01 -0.21076944489E+01 -0.12098013973E+01  0.36552475291E+01  0.51100000000E-03 0. -1.
        -11    1    3    3    0    0 -0.88087854743E+01  0.35312967647E+02 -0.77430061329E+01  0.37209602655E+02  0.51100000000E-03 0.  1.
         12    1    3    3    0    0 -0.82498920199E+01  0.24209291446E+01 -0.44126977575E+01  0.96640321690E+01  0.00000000000E+00 0. -1.
</event>
<event>
 7    1  0.3054835E-011  0.5052884E+02  0.7816164E-02  0.1300439E+00
        -11   -1    0    0    0    0  0.00000000000E+00  0.00000000000E+00  0.45593999997E+02  0.45594000000E+02  0.51100000000E-03 0. -1.
         11   -1    0    0    0    0 -0.00000000000E+00 -0.00000000000E+00 -0.45593999997E+02  0.45594000000E+02  0.51100000000E-03 0.  1.
    9900012    2    1    2    0    0 -0.32792423919E+02  0.21730119258E+02 -0.10277438700E+02  0.50528844872E+02  0.29999954474E+02 0.  0.
         12    1    1    2    0    0  0.32792423919E+02 -0.21730119258E+02  0.10277438700E+02  0.40659155128E+02  0.00000000000E+00 0. -1.
         11    1    3    3    0    0 -0.31492024062E+01 -0.14361819043E+01  0.66163020489E+01  0.74669637284E+01  0.51100000000E-03 0. -1.
        -11    1    3    3    0    0 -0.22018018825E+02  0.20394546639E+02 -0.80767049615E+01  0.31079958959E+02  0.51100000000E-03 0.  1.
         12    1    3    3    0    0 -0.76252026876E+01  0.27717545239E+01 -0.88170357878E+01  0.11981922185E+02  0.00000000000E+00 0. -1.
</event>
<event>
 7    1  0.3054835E-011  0.5052886E+02  0.7816164E-02  0.1300439E+00
        -11   -1    0    0    0    0  0.00000000000E+00  0.00000000000E+00  0.45593999997E+02  0.45594000000E+02  0.51100000000E-03 0.  1.
         11   -1    0    0    0    0 -0.00000000000E+00 -0.00000000000E+00 -0.45593999997E+02  0.45594000000E+02  0.51100000000E-03 0. -1.
    9900012    2    1    2    0    0  0.25474990465E+02  0.97930838656E+01  0.30137779092E+02  0.50528863765E+02  0.30000011901E+02 0.  0.
         12    1    1    2    0    0 -0.25474990465E+02 -0.97930838656E+01 -0.30137779092E+02  0.40659136235E+02  0.00000000000E+00 0. -1.
         11    1    3    3    0    0  0.79356606125E+01 -0.39545695492E+01  0.47171293494E+01  0.10043138913E+02  0.51100000000E-03 0. -1.
        -11    1    3    3    0    0  0.21435814139E+01  0.15140728930E+02  0.82264125838E+01  0.17364057074E+02  0.51100000000E-03 0.  1.
        -12    1    3    3    0    0  0.15395748438E+02 -0.13930755153E+01  0.17194237158E+02  0.23121667778E+02  0.00000000000E+00 0.  1.
</event>
<event>
 7    1  0.3054835E-011  0.5052886E+02  0.7816164E-02  0.1300439E+00
        -11   -1    0    0    0    0  0.00000000000E+00  0.00000000000E+00  0.45593999997E+02  0.45594000000E+02  0.51100000000E-03 0.  1.
         11   -1    0    0    0    0 -0.00000000000E+00 -0.00000000000E+00 -0.45593999997E+02  0.45594000000E+02  0.51100000000E-03 0. -1.
    9900012    2    1    2    0    0 -0.39619519631E+02 -0.90867237090E+01  0.94370824762E+00  0.50528862420E+02  0.30000007811E+02 0.  0.
         12    1    1    2    0    0  0.39619519631E+02  0.90867237090E+01 -0.94370824762E+00  0.40659137580E+02  0.00000000000E+00 0. -1.
         11    1    3    3    0    0 -0.12055849081E+02  0.78635995952E+01  0.84879242222E+01  0.16710013571E+02  0.51100000000E-03 0. -1.
        -11    1    3    3    0    0 -0.14352131090E+02 -0.51715315005E+01 -0.39349793432E+01  0.15754760157E+02  0.51100000000E-03 0.  1.
         12    1    3    3    0    0 -0.13211539459E+02 -0.11778791804E+02 -0.36092366313E+01  0.18064088692E+02  0.00000000000E+00 0. -1.
</event>
<event>
 7    1  0.3054835E-011  0.5052886E+02  0.7816164E-02  0.1300439E+00
        -11   -1    0    0    0    0  0.00000000000E+00  0.00000000000E+00  0.45593999997E+02  0.45594000000E+02  0.51100000000E-03 0.  1.
         11   -1    0    0    0    0 -0.00000000000E+00 -0.00000000000E+00 -0.45593999997E+02  0.45594000000E+02  0.51100000000E-03 0. -1.
    9900012    2    1    2    0    0  0.13284819682E+02 -0.22414937852E+02  0.31212970897E+02  0.50528862957E+02  0.30000009443E+02 0.  0.
         12    1    1    2    0    0 -0.13284819682E+02  0.22414937852E+02 -0.31212970897E+02  0.40659137043E+02  0.00000000000E+00 0. -1.
         11    1    3    3    0    0  0.22455535059E+02 -0.18853427476E+02  0.21524409464E+02  0.36373107997E+02  0.51100000000E-03 0. -1.
        -11    1    3    3    0    0 -0.56945450990E+01 -0.90261471367E+00  0.41858861746E+01  0.71249000367E+01  0.51100000000E-03 0.  1.
         12    1    3    3    0    0 -0.34761702778E+01 -0.26588956627E+01  0.55026752585E+01  0.70308549228E+01  0.00000000000E+00 0. -1.
</event>
<event>
 7    1  0.3054835E-011  0.5052885E+02  0.7816164E-02  0.1300439E+00
        -11   -1    0    0    0    0  0.00000000000E+00  0.00000000000E+00  0.45593999997E+02  0.45594000000E+02  0.51100000000E-03 0.  1.
         11   -1    0    0    0    0 -0.00000000000E+00 -0.00000000000E+00 -0.45593999997E+02  0.45594000000E+02  0.51100000000E-03 0. -1.
    9900012    2    1    2    0    0 -0.28578012364E+02  0.54999703861E+01  0.28393904355E+02  0.50528852574E+02  0.29999977883E+02 0.  0.
         12    1    1    2    0    0  0.28578012364E+02 -0.54999703861E+01 -0.28393904355E+02  0.40659147426E+02  0.00000000000E+00 0. -1.
         11    1    3    3    0    0 -0.14594424917E+02  0.55247879101E+00  0.86321447042E+01  0.16965152340E+02  0.51100000000E-03 0. -1.
        -11    1    3    3    0    0  0.22736391477E+01  0.96938001495E+00 -0.38781078773E+01  0.45987882705E+01  0.51100000000E-03 0.  1.
        -12    1    3    3    0    0 -0.16257226595E+02  0.39781115801E+01  0.23639867528E+02  0.28964911963E+02  0.00000000000E+00 0.  1.
</event>
<event>
 7    1  0.3054835E-011  0.5052887E+02  0.7816164E-02  0.1300439E+00
        -11   -1    0    0    0    0  0.00000000000E+00  0.00000000000E+00  0.45593999997E+02  0.45594000000E+02  0.51100000000E-03 0.  1.
         11   -1    0    0    0    0 -0.00000000000E+00 -0.00000000000E+00 -0.45593999997E+02  0.45594000000E+02  0.51100000000E-03 0. -1.
    9900012    2    1    2    0    0 -0.30802318543E+02 -0.52932517072E+01  0.26006994814E+02  0.50528866703E+02  0.30000020830E+02 0.  0.
         12    1    1    2    0    0  0.30802318543E+02  0.52932517072E+01 -0.26006994814E+02  0.40659133297E+02  0.00000000000E+00 0. -1.
         11    1    3    3    0    0 -0.17060033086E+02 -0.34891171563E+01 -0.12899035818E+01  0.17460885399E+02  0.51100000000E-03 0. -1.
        -11    1    3    3    0    0  0.14225579847E+01 -0.75691111136E+00  0.96198787419E+01  0.97539044962E+01  0.51100000000E-03 0.  1.
         12    1    3    3    0    0 -0.15164843442E+02 -0.10472234395E+01  0.17677019653E+02  0.23314076807E+02  0.00000000000E+00 0. -1.
</event>
<event>
 7    1  0.3054835E-011  0.5052887E+02  0.7816164E-02  0.1300439E+00
        -11   -1    0    0    0    0  0.00000000000E+00  0.00000000000E+00  0.45593999997E+02  0.45594000000E+02  0.51100000000E-03 0. -1.
         11   -1    0    0    0    0 -0.00000000000E+00 -0.00000000000E+00 -0.45593999997E+02  0.45594000000E+02  0.51100000000E-03 0.  1.
    9900012    2    1    2    0    0 -0.25311276260E+02  0.11777855258E+02 -0.29559882191E+02  0.50528865534E+02  0.30000017277E+02 0.  0.
         12    1    1    2    0    0  0.25311276260E+02 -0.11777855258E+02  0.29559882191E+02  0.40659134466E+02  0.00000000000E+00 0. -1.
         11    1    3    3    0    0 -0.13828042492E+02  0.31804754557E+01 -0.66482257541E+01  0.15669367863E+02  0.51100000000E-03 0. -1.
        -11    1    3    3    0    0 -0.58561128159E+01  0.93579081902E+01 -0.26106203550E+02  0.28344282793E+02  0.51100000000E-03 0.  1.
        -12    1    3    3    0    0 -0.56271209520E+01 -0.76052838820E+00  0.31945471136E+01  0.65152148774E+01  0.00000000000E+00 0.  1.
</event>
<event>
 7    1  0.3054835E-011  0.5052886E+02  0.7816164E-02  0.1300439E+00
        -11   -1    0    0    0    0  0.00000000000E+00  0.00000000000E+00  0.45593999997E+02  0.45594000000E+02  0.51100000000E-03 0. -1.
         11   -1    0    0    0    0 -0.00000000000E+00 -0.00000000000E+00 -0.45593999997E+02  0.45594000000E+02  0.51100000000E-03 0.  1.
    9900012    2    1    2    0    0  0.77483472077E+01 -0.32051034736E+02 -0.23787809676E+02  0.50528860790E+02  0.30000002858E+02 0.  0.
         12    1    1    2    0    0 -0.77483472077E+01  0.32051034736E+02  0.23787809676E+02  0.40659139210E+02  0.00000000000E+00 0. -1.
         11    1    3    3    0    0  0.13546424114E+00  0.15502067487E+01 -0.55440607109E+01  0.57583071255E+01  0.51100000000E-03 0. -1.
        -11    1    3    3    0    0  0.13112119842E+02 -0.32273976992E+02 -0.13403973622E+02  0.37325645162E+02  0.51100000000E-03 0.  1.
        -12    1    3    3    0    0 -0.54992368752E+01 -0.13272644926E+01 -0.48397753437E+01  0.74449085032E+01  0.00000000000E+00 0.  1.
</event>
<event>
 7    1  0.3054835E-011  0.5052885E+02  0.7816164E-02  0.1300439E+00
        -11   -1    0    0    0    0  0.00000000000E+00  0.00000000000E+00  0.45593999997E+02  0.45594000000E+02  0.51100000000E-03 0. -1.
         11   -1    0    0    0    0 -0.00000000000E+00 -0.00000000000E+00 -0.45593999997E+02  0.45594000000E+02  0.51100000000E-03 0.  1.
    9900012    2    1    2    0    0  0.25321802152E+02 -0.28516631828E+02  0.14098728972E+02  0.50528854489E+02  0.29999983706E+02 0.  0.
         12    1    1    2    0    0 -0.25321802152E+02  0.28516631828E+02 -0.14098728972E+02  0.40659145511E+02  0.00000000000E+00 0. -1.
         11    1    3    3    0    0  0.17266576006E+02 -0.11302969561E+02  0.18247987160E+02  0.27547791265E+02  0.51100000000E-03 0. -1.
        -11    1    3    3    0    0  0.86286604309E+01 -0.15879538623E+02  0.53145885998E+00  0.18080264835E+02  0.51100000000E-03 0.  1.
         12    1    3    3    0    0 -0.57343428584E+00 -0.13341236438E+01 -0.46807170479E+01  0.49007983900E+01  0.00000000000E+00 0. -1.
</event>
<event>
 7    1  0.3054835E-011  0.5052885E+02  0.7816164E-02  0.1300439E+00
        -11   -1    0    0    0    0  0.00000000000E+00  0.00000000000E+00  0.45593999997E+02  0.45594000000E+02  0.51100000000E-03 0. -1.
         11   -1    0    0    0    0 -0.00000000000E+00 -0.00000000000E+00 -0.45593999997E+02  0.45594000000E+02  0.51100000000E-03 0.  1.
    9900012    2    1    2    0    0 -0.10676987221E+02  0.26707031862E+02 -0.28738525153E+02  0.50528850538E+02  0.29999971696E+02 0.  0.
         12    1    1    2    0    0  0.10676987221E+02 -0.26707031862E+02  0.28738525153E+02  0.40659149462E+02  0.00000000000E+00 0. -1.
         11    1    3    3    0    0 -0.82211083482E+01  0.19808039744E+02 -0.22961051387E+01  0.21568893343E+02  0.51100000000E-03 0. -1.
        -11    1    3    3    0    0  0.83642969807E-01  0.57895853280E+01 -0.25313977505E+02  0.25967744450E+02  0.51100000000E-03 0.  1.
         12    1    3    3    0    0 -0.25395218430E+01  0.11094067894E+01 -0.11284425094E+01  0.29922127452E+01  0.00000000000E+00 0. -1.
</event>
<event>
 7    1  0.3054835E-011  0.5052886E+02  0.7816164E-02  0.1300439E+00
        -11   -1    0    0    0    0  0.00000000000E+00  0.00000000000E+00  0.45593999997E+02  0.45594000000E+02  0.51100000000E-03 0. -1.
         11   -1    0    0    0    0 -0.00000000000E+00 -0.00000000000E+00 -0.45593999997E+02  0.45594000000E+02  0.51100000000E-03 0.  1.
    9900012    2    1    2    0    0 -0.86591969068E+01 -0.35333856645E+02 -0.18157711180E+02  0.50528860907E+02  0.30000003212E+02 0.  0.
         12    1    1    2    0    0  0.86591969068E+01  0.35333856645E+02  0.18157711180E+02  0.40659139093E+02  0.00000000000E+00 0. -1.
         11    1    3    3    0    0  0.93133618934E+01 -0.10924655107E+02 -0.37805099746E+01  0.14845169413E+02  0.51100000000E-03 0. -1.
        -11    1    3    3    0    0 -0.32161255255E+01 -0.12369226111E+02 -0.19138265128E+01  0.12923000819E+02  0.51100000000E-03 0.  1.
         12    1    3    3    0    0 -0.14756433275E+02 -0.12039975427E+02 -0.12463374693E+02  0.22760690675E+02  0.00000000000E+00 0. -1.
</event>
<event>
 7    1  0.3054835E-011  0.5052886E+02  0.7816164E-02  0.1300439E+00
        -11   -1    0    0    0    0  0.00000000000E+00  0.00000000000E+00  0.45593999997E+02  0.45594000000E+02  0.51100000000E-03 0.  1.
         11   -1    0    0    0    0 -0.00000000000E+00 -0.00000000000E+00 -0.45593999997E+02  0.45594000000E+02  0.51100000000E-03 0. -1.
    9900012    2    1    2    0    0  0.23710949581E+02 -0.25168024473E+02  0.21389885917E+02  0.50528858280E+02  0.29999995228E+02 0.  0.
         12    1    1    2    0    0 -0.23710949581E+02  0.25168024473E+02 -0.21389885917E+02  0.40659141720E+02  0.00000000000E+00 0. -1.
         11    1    3    3    0    0  0.14357251605E+01 -0.84983734729E+01  0.68170911551E+00  0.86457148924E+01  0.51100000000E-03 0. -1.
        -11    1    3    3    0    0  0.10126961442E+02  0.30591821412E+01  0.14404423018E+02  0.17871803103E+02  0.51100000000E-03 0.  1.
        -12    1    3    3    0    0  0.12148262978E+02 -0.19728833141E+02  0.63037537828E+01  0.24011340284E+02  0.00000000000E+00 0.  1.
</event>
<event>
 7    1  0.3054835E-011  0.5052896E+02  0.7816164E-02  0.1300438E+00
        -11   -1    0    0    0    0  0.00000000000E+00  0.00000000000E+00  0.45593999997E+02  0.45594000000E+02  0.51100000000E-03 0. -1.
         11   -1    0    0    0    0 -0.00000000000E+00 -0.00000000000E+00 -0.45593999997E+02  0.45594000000E+02  0.51100000000E-03 0.  1.
    9900012    2    1    2    0    0  0.15082306731E+02  0.37642366188E+02  0.29552396511E+01  0.50528964719E+02  0.30000318759E+02 0.  0.
         12    1    1    2    0    0 -0.15082306731E+02 -0.37642366188E+02 -0.29552396511E+01  0.40659035281E+02  0.00000000000E+00 0. -1.
         11    1    3    3    0    0 -0.57043334546E+01  0.30619626542E+01 -0.11514562150E+01  0.65757803440E+01  0.51100000000E-03 0. -1.
        -11    1    3    3    0    0  0.20500739716E+02  0.19627044874E+02  0.55800435898E+01  0.28924697166E+02  0.51100000000E-03 0.  1.
        -12    1    3    3    0    0  0.28590046950E+00  0.14953358660E+02 -0.14733477237E+01  0.15028487209E+02  0.00000000000E+00 0.  1.
</event>
<event>
 7    1  0.3054835E-011  0.5052886E+02  0.7816164E-02  0.1300439E+00
        -11   -1    0    0    0    0  0.00000000000E+00  0.00000000000E+00  0.45593999997E+02  0.45594000000E+02  0.51100000000E-03 0. -1.
         11   -1    0    0    0    0 -0.00000000000E+00 -0.00000000000E+00 -0.45593999997E+02  0.45594000000E+02  0.51100000000E-03 0.  1.
    9900012    2    1    2    0    0  0.96205926900E+01  0.39503450625E+02  0.29580542475E+00  0.50528856922E+02  0.29999991102E+02 0.  0.
         12    1    1    2    0    0 -0.96205926900E+01 -0.39503450625E+02 -0.29580542475E+00  0.40659143078E+02  0.00000000000E+00 0. -1.
         11    1    3    3    0    0 -0.95964822205E+01  0.18052081006E+02  0.50658312500E+01  0.21062591156E+02  0.51100000000E-03 0. -1.
        -11    1    3    3    0    0  0.14026277514E+02  0.16033073951E+02 -0.17377611523E+01  0.21373248123E+02  0.51100000000E-03 0.  1.
         12    1    3    3    0    0  0.51907973963E+01  0.54182956668E+01 -0.30322646729E+01  0.80930176442E+01  0.00000000000E+00 0. -1.
</event>
<event>
 7    1  0.3054835E-011  0.5052886E+02  0.7816164E-02  0.1300439E+00
        -11   -1    0    0    0    0  0.00000000000E+00  0.00000000000E+00  0.45593999997E+02  0.45594000000E+02  0.51100000000E-03 0.  1.
         11   -1    0    0    0    0 -0.00000000000E+00 -0.00000000000E+00 -0.45593999997E+02  0.45594000000E+02  0.51100000000E-03 0. -1.
    9900012    2    1    2    0    0 -0.38333718741E+02  0.87433457910E+01  0.10355957624E+02  0.50528856546E+02  0.29999989957E+02 0.  0.
         12    1    1    2    0    0  0.38333718741E+02 -0.87433457910E+01 -0.10355957624E+02  0.40659143454E+02  0.00000000000E+00 0. -1.
         11    1    3    3    0    0 -0.19905541138E+02  0.18522338931E+02  0.11607255605E+02  0.29564099689E+02  0.51100000000E-03 0.  1.
        -11    1    3    3    0    0 -0.11191067716E+02 -0.50539323229E+01 -0.96020484354E+00  0.12316826789E+02  0.51100000000E-03 0. -1.
        -12    1    3    3    0    0 -0.72371098872E+01 -0.47250608173E+01 -0.29109313783E+00  0.86479300681E+01  0.00000000000E+00 0.  1.
</event>
<event>
 7    1  0.3054835E-011  0.5052886E+02  0.7816164E-02  0.1300439E+00
        -11   -1    0    0    0    0  0.00000000000E+00  0.00000000000E+00  0.45593999997E+02  0.45594000000E+02  0.51100000000E-03 0. -1.
         11   -1    0    0    0    0 -0.00000000000E+00 -0.00000000000E+00 -0.45593999997E+02  0.45594000000E+02  0.51100000000E-03 0.  1.
    9900012    2    1    2    0    0 -0.27358006795E+02 -0.16929019286E+02  0.24861892895E+02  0.50528856525E+02  0.29999989893E+02 0.  0.
         12    1    1    2    0    0  0.27358006795E+02  0.16929019286E+02 -0.24861892895E+02  0.40659143475E+02  0.00000000000E+00 0. -1.
         11    1    3    3    0    0  0.24325595013E+01  0.72126968467E+00  0.12017849118E+02  0.12282763263E+02  0.51100000000E-03 0. -1.
        -11    1    3    3    0    0 -0.68327759111E+01 -0.91607606798E+01  0.55536902275E+01  0.12706291288E+02  0.51100000000E-03 0.  1.
         12    1    3    3    0    0 -0.22957790385E+02 -0.84895282913E+01  0.72903535492E+01  0.25539801974E+02  0.00000000000E+00 0. -1.
</event>
<event>
 7    1  0.3054835E-011  0.5052887E+02  0.7816164E-02  0.1300439E+00
        -11   -1    0    0    0    0  0.00000000000E+00  0.00000000000E+00  0.45593999997E+02  0.45594000000E+02  0.51100000000E-03 0.  1.
         11   -1    0    0    0    0 -0.00000000000E+00 -0.00000000000E+00 -0.45593999997E+02  0.45594000000E+02  0.51100000000E-03 0. -1.
    9900012    2    1    2    0    0 -0.29040307697E+02  0.20741277138E+02  0.19483952378E+02  0.50528874964E+02  0.30000045940E+02 0.  0.
         12    1    1    2    0    0  0.29040307697E+02 -0.20741277138E+02 -0.19483952378E+02  0.40659125036E+02  0.00000000000E+00 0. -1.
         11    1    3    3    0    0 -0.93130231084E+01 -0.58336629919E+01  0.80514626018E+01  0.13623144777E+02  0.51100000000E-03 0. -1.
        -11    1    3    3    0    0 -0.23189970356E+01  0.97697316790E+01 -0.23346330227E+00  0.10043899129E+02  0.51100000000E-03 0.  1.
         12    1    3    3    0    0 -0.17408287553E+02  0.16805208451E+02  0.11665953078E+02  0.26861831059E+02  0.00000000000E+00 0. -1.
</event>
<event>
 7    1  0.3054835E-011  0.5052886E+02  0.7816164E-02  0.1300439E+00
        -11   -1    0    0    0    0  0.00000000000E+00  0.00000000000E+00  0.45593999997E+02  0.45594000000E+02  0.51100000000E-03 0. -1.
         11   -1    0    0    0    0 -0.00000000000E+00 -0.00000000000E+00 -0.45593999997E+02  0.45594000000E+02  0.51100000000E-03 0.  1.
    9900012    2    1    2    0    0 -0.35521003166E+02  0.15449231612E+02 -0.12359010510E+02  0.50528861247E+02  0.30000004247E+02 0.  0.
         12    1    1    2    0    0  0.35521003166E+02 -0.15449231612E+02  0.12359010510E+02  0.40659138753E+02  0.00000000000E+00 0. -1.
         11    1    3    3    0    0 -0.19927379256E+02  0.12254773767E+02  0.66651222252E+00  0.23403507491E+02  0.51100000000E-03 0. -1.
        -11    1    3    3    0    0 -0.17472768328E+02  0.44930307036E+01 -0.15480216398E+02  0.23772296017E+02  0.51100000000E-03 0.  1.
        -12    1    3    3    0    0  0.18791444177E+01 -0.12985728581E+01  0.24546936654E+01  0.33530577390E+01  0.00000000000E+00 0.  1.
</event>
<event>
 7    1  0.3054835E-011  0.5052886E+02  0.7816164E-02  0.1300439E+00
        -11   -1    0    0    0    0  0.00000000000E+00  0.00000000000E+00  0.45593999997E+02  0.45594000000E+02  0.51100000000E-03 0.  1.
         11   -1    0    0    0    0 -0.00000000000E+00 -0.00000000000E+00 -0.45593999997E+02  0.45594000000E+02  0.51100000000E-03 0. -1.
    9900012    2    1    2    0    0  0.29675968575E+01  0.31443892910E+02  0.25605476753E+02  0.50528862378E+02  0.30000007683E+02 0.  0.
         12    1    1    2    0    0 -0.29675968575E+01 -0.31443892910E+02 -0.25605476753E+02  0.40659137622E+02  0.00000000000E+00 0. -1.
         11    1    3    3    0    0  0.25926697403E+01  0.39925596359E+01  0.55617385693E+01  0.73208882659E+01  0.51100000000E-03 0. -1.
        -11    1    3    3    0    0  0.22446590093E+01 -0.35934067681E+01 -0.23861117175E+01  0.48625708898E+01  0.51100000000E-03 0.  1.
        -12    1    3    3    0    0 -0.18697318920E+01  0.31044740043E+02  0.22429849901E+02  0.38345403222E+02  0.00000000000E+00 0.  1.
</event>
<event>
 7    1  0.3054835E-011  0.5052889E+02  0.7816164E-02  0.1300439E+00
        -11   -1    0    0    0    0  0.00000000000E+00  0.00000000000E+00  0.45593999997E+02  0.45594000000E+02  0.51100000000E-03 0.  1.
         11   -1    0    0    0    0 -0.00000000000E+00 -0.00000000000E+00 -0.45593999997E+02  0.45594000000E+02  0.51100000000E-03 0. -1.
    9900012    2    1    2    0    0  0.62968993457E+01  0.28474563881E+02  0.28332161809E+02  0.50528891275E+02  0.30000095518E+02 0.  0.
         12    1    1    2    0    0 -0.62968993457E+01 -0.28474563881E+02 -0.28332161809E+02  0.40659108725E+02  0.00000000000E+00 0. -1.
         11    1    3    3    0    0 -0.13098858852E+00  0.39725743357E+01 -0.52149561993E+01  0.65570018518E+01  0.51100000000E-03 0. -1.
        -11    1    3    3    0    0  0.74584494082E+01  0.21233574926E+02  0.20365442997E+02  0.30352008836E+02  0.51100000000E-03 0.  1.
         12    1    3    3    0    0 -0.10305614740E+01  0.32684146196E+01  0.13181675011E+02  0.13619880586E+02  0.00000000000E+00 0. -1.
</event>
<event>
 7    1  0.3054835E-011  0.5052886E+02  0.7816164E-02  0.1300439E+00
        -11   -1    0    0    0    0  0.00000000000E+00  0.00000000000E+00  0.45593999997E+02  0.45594000000E+02  0.51100000000E-03 0. -1.
         11   -1    0    0    0    0 -0.00000000000E+00 -0.00000000000E+00 -0.45593999997E+02  0.45594000000E+02  0.51100000000E-03 0.  1.
    9900012    2    1    2    0    0  0.27500414235E+01 -0.31714777719E+02  0.25293794925E+02  0.50528856929E+02  0.29999991121E+02 0.  0.
         12    1    1    2    0    0 -0.27500414235E+01  0.31714777719E+02 -0.25293794925E+02  0.40659143071E+02  0.00000000000E+00 0. -1.
         11    1    3    3    0    0 -0.83825871170E+01 -0.34235076646E+01  0.52670795314E+00  0.90700382046E+01  0.51100000000E-03 0. -1.
        -11    1    3    3    0    0  0.11681368704E+02 -0.11674330261E+02  0.14003750695E+02  0.21652930416E+02  0.51100000000E-03 0.  1.
        -12    1    3    3    0    0 -0.54874016302E+00 -0.16616939794E+02  0.10763336277E+02  0.19805888308E+02  0.00000000000E+00 0.  1.
</event>
<event>
 7    1  0.3054835E-011  0.5052885E+02  0.7816164E-02  0.1300439E+00
        -11   -1    0    0    0    0  0.00000000000E+00  0.00000000000E+00  0.45593999997E+02  0.45594000000E+02  0.51100000000E-03 0.  1.
         11   -1    0    0    0    0 -0.00000000000E+00 -0.00000000000E+00 -0.45593999997E+02  0.45594000000E+02  0.51100000000E-03 0. -1.
    9900012    2    1    2    0    0  0.24459599804E+02 -0.19610552574E+02  0.25890544260E+02  0.50528854942E+02  0.29999985081E+02 0.  0.
         12    1    1    2    0    0 -0.24459599804E+02  0.19610552574E+02 -0.25890544260E+02  0.40659145058E+02  0.00000000000E+00 0. -1.
         11    1    3    3    0    0  0.24676007783E+01  0.17515011538E+01 -0.33721490607E+01  0.45308056063E+01  0.51100000000E-03 0. -1.
        -11    1    3    3    0    0  0.16378666689E+02 -0.17461567913E+02  0.30781660249E+02  0.38995867530E+02  0.51100000000E-03 0.  1.
        -12    1    3    3    0    0  0.56133323362E+01 -0.39004858143E+01 -0.15189669281E+01  0.70021818052E+01  0.00000000000E+00 0.  1.
</event>
<event>
 7    1  0.3054835E-011  0.5052887E+02  0.7816164E-02  0.1300439E+00
        -11   -1    0    0    0    0  0.00000000000E+00  0.00000000000E+00  0.45593999997E+02  0.45594000000E+02  0.51100000000E-03 0.  1.
         11   -1    0    0    0    0 -0.00000000000E+00 -0.00000000000E+00 -0.45593999997E+02  0.45594000000E+02  0.51100000000E-03 0. -1.
    9900012    2    1    2    0    0  0.24298024301E+02 -0.30658108860E+02 -0.11083834335E+02  0.50528868094E+02  0.30000025057E+02 0.  0.
         12    1    1    2    0    0 -0.24298024301E+02  0.30658108860E+02  0.11083834335E+02  0.40659131906E+02  0.00000000000E+00 0. -1.
         11    1    3    3    0    0  0.15257922777E+02 -0.10036703307E+02 -0.15742444192E+02  0.24111494564E+02  0.51100000000E-03 0. -1.
        -11    1    3    3    0    0  0.90610656144E+01 -0.21073697928E+02  0.12439580382E+01  0.22972833658E+02  0.51100000000E-03 0.  1.
         12    1    3    3    0    0 -0.20964090292E-01  0.45229237430E+00  0.34146518183E+01  0.34445398713E+01  0.00000000000E+00 0. -1.
</event>
<event>
 7    1  0.3054835E-011  0.5052887E+02  0.7816164E-02  0.1300439E+00
        -11   -1    0    0    0    0  0.00000000000E+00  0.00000000000E+00  0.45593999997E+02  0.45594000000E+02  0.51100000000E-03 0. -1.
         11   -1    0    0    0    0 -0.00000000000E+00 -0.00000000000E+00 -0.45593999997E+02  0.45594000000E+02  0.51100000000E-03 0.  1.
    9900012    2    1    2    0    0  0.28053436171E+02  0.20971698255E+02 -0.20648427554E+02  0.50528868564E+02  0.30000026487E+02 0.  0.
         12    1    1    2    0    0 -0.28053436171E+02 -0.20971698255E+02  0.20648427554E+02  0.40659131436E+02  0.00000000000E+00 0. -1.
         11    1    3    3    0    0  0.15911538233E+02  0.17389502803E+02 -0.24924282219E+02  0.34304397693E+02  0.51100000000E-03 0.  1.
        -11    1    3    3    0    0  0.11794469332E+02 -0.15967631650E+00  0.40043160487E+01  0.12456707054E+02  0.51100000000E-03 0. -1.
        -12    1    3    3    0    0  0.34742860596E+00  0.37418717679E+01  0.27153861633E+00  0.37677638174E+01  0.00000000000E+00 0.  1.
</event>
<event>
 7    1  0.3054835E-011  0.5052886E+02  0.7816164E-02  0.1300439E+00
        -11   -1    0    0    0    0  0.00000000000E+00  0.00000000000E+00  0.45593999997E+02  0.45594000000E+02  0.51100000000E-03 0.  1.
         11   -1    0    0    0    0 -0.00000000000E+00 -0.00000000000E+00 -0.45593999997E+02  0.45594000000E+02  0.51100000000E-03 0. -1.
    9900012    2    1    2    0    0 -0.33873610514E+02 -0.18249034995E+02  0.13142172064E+02  0.50528862601E+02  0.30000008361E+02 0.  0.
         12    1    1    2    0    0  0.33873610514E+02  0.18249034995E+02 -0.13142172064E+02  0.40659137399E+02  0.00000000000E+00 0. -1.
         11    1    3    3    0    0 -0.24114066425E+01 -0.66603102347E+01  0.34248266805E+01  0.78679128408E+01  0.51100000000E-03 0. -1.
        -11    1    3    3    0    0 -0.71489267747E+01  0.30687056934E+01 -0.63478856567E+01  0.10040904403E+02  0.51100000000E-03 0.  1.
        -12    1    3    3    0    0 -0.24313277096E+02 -0.14657430454E+02  0.16065231041E+02  0.32620045357E+02  0.00000000000E+00 0.  1.
</event>
<event>
 7    1  0.3054835E-011  0.5052877E+02  0.7816164E-02  0.1300439E+00
        -11   -1    0    0    0    0  0.00000000000E+00  0.00000000000E+00  0.45593999997E+02  0.45594000000E+02  0.51100000000E-03 0.  1.
         11   -1    0    0    0    0 -0.00000000000E+00 -0.00000000000E+00 -0.45593999997E+02  0.45594000000E+02  0.51100000000E-03 0. -1.
    9900012    2    1    2    0    0  0.31381618541E+02  0.25827503978E+02 -0.11430843298E+01  0.50528774900E+02  0.29999741784E+02 0.  0.
         12    1    1    2    0    0 -0.31381618541E+02 -0.25827503978E+02  0.11430843298E+01  0.40659225100E+02  0.00000000000E+00 0. -1.
         11    1    3    3    0    0  0.26789603825E+02  0.15270681483E+02 -0.11672722333E+01  0.30858371810E+02  0.51100000000E-03 0. -1.
        -11    1    3    3    0    0  0.39843478895E+01  0.14527044147E+02 -0.19600991228E+01  0.15190524303E+02  0.51100000000E-03 0.  1.
         12    1    3    3    0    0  0.60766682603E+00 -0.39702216519E+01  0.19842870263E+01  0.44798787863E+01  0.00000000000E+00 0. -1.
</event>
<event>
 7    1  0.3054835E-011  0.5052883E+02  0.7816164E-02  0.1300439E+00
        -11   -1    0    0    0    0  0.00000000000E+00  0.00000000000E+00  0.45593999997E+02  0.45594000000E+02  0.51100000000E-03 0.  1.
         11   -1    0    0    0    0 -0.00000000000E+00 -0.00000000000E+00 -0.45593999997E+02  0.45594000000E+02  0.51100000000E-03 0. -1.
    9900012    2    1    2    0    0 -0.34041414246E+02 -0.22164365054E+02 -0.17580723131E+01  0.50528833993E+02  0.29999921406E+02 0.  0.
         12    1    1    2    0    0  0.34041414246E+02  0.22164365054E+02  0.17580723131E+01  0.40659166007E+02  0.00000000000E+00 0. -1.
         11    1    3    3    0    0 -0.10133757794E+02 -0.11748972017E+02  0.11607307501E+02  0.19376815480E+02  0.51100000000E-03 0. -1.
        -11    1    3    3    0    0 -0.15715658019E+02 -0.11681070923E+02 -0.73720855370E+01  0.20923120472E+02  0.51100000000E-03 0.  1.
         12    1    3    3    0    0 -0.81919984324E+01  0.12656778857E+01 -0.59932942771E+01  0.10228898040E+02  0.00000000000E+00 0. -1.
</event>
<event>
 7    1  0.3054835E-011  0.5052892E+02  0.7816164E-02  0.1300439E+00
        -11   -1    0    0    0    0  0.00000000000E+00  0.00000000000E+00  0.45593999997E+02  0.45594000000E+02  0.51100000000E-03 0. -1.
         11   -1    0    0    0    0 -0.00000000000E+00 -0.00000000000E+00 -0.45593999997E+02  0.45594000000E+02  0.51100000000E-03 0.  1.
    9900012    2    1    2    0    0  0.13880292754E+02  0.25808343811E+02  0.28185599273E+02  0.50528915608E+02  0.30000169481E+02 0.  0.
         12    1    1    2    0    0 -0.13880292754E+02 -0.25808343811E+02 -0.28185599273E+02  0.40659084392E+02  0.00000000000E+00 0. -1.
         11    1    3    3    0    0 -0.32198890158E+01  0.64637094370E+01 -0.41899407624E+01  0.83488220016E+01  0.51100000000E-03 0. -1.
        -11    1    3    3    0    0  0.19476138310E+01  0.59895328756E+00  0.30356917711E+00  0.20601211571E+01  0.51100000000E-03 0.  1.
         12    1    3    3    0    0  0.15152567939E+02  0.18745681087E+02  0.32071970859E+02  0.40119972449E+02  0.00000000000E+00 0. -1.
</event>
<event>
 7    1  0.3054835E-011  0.5052886E+02  0.7816164E-02  0.1300439E+00
        -11   -1    0    0    0    0  0.00000000000E+00  0.00000000000E+00  0.45593999997E+02  0.45594000000E+02  0.51100000000E-03 0. -1.
         11   -1    0    0    0    0 -0.00000000000E+00 -0.00000000000E+00 -0.45593999997E+02  0.45594000000E+02  0.51100000000E-03 0.  1.
    9900012    2    1    2    0    0 -0.15190537475E+02  0.35959881595E+02 -0.11371033281E+02  0.50528856982E+02  0.29999991282E+02 0.  0.
         12    1    1    2    0    0  0.15190537475E+02 -0.35959881595E+02  0.11371033281E+02  0.40659143018E+02  0.00000000000E+00 0. -1.
         11    1    3    3    0    0 -0.11262163517E+02  0.26215649351E+02 -0.16697783814E+02  0.33059228402E+02  0.51100000000E-03 0. -1.
        -11    1    3    3    0    0 -0.77404297551E+00  0.12454288762E+02  0.40677982534E+01  0.13124611765E+02  0.51100000000E-03 0.  1.
         12    1    3    3    0    0 -0.31543309819E+01 -0.27100565183E+01  0.12589522793E+01  0.43450168143E+01  0.00000000000E+00 0. -1.
</event>
<event>
 7    1  0.3054835E-011  0.5052886E+02  0.7816164E-02  0.1300439E+00
        -11   -1    0    0    0    0  0.00000000000E+00  0.00000000000E+00  0.45593999997E+02  0.45594000000E+02  0.51100000000E-03 0. -1.
         11   -1    0    0    0    0 -0.00000000000E+00 -0.00000000000E+00 -0.45593999997E+02  0.45594000000E+02  0.51100000000E-03 0.  1.
    9900012    2    1    2    0    0 -0.28035267988E+02  0.58699361739E+01  0.28857114280E+02  0.50528862695E+02  0.30000008647E+02 0.  0.
         12    1    1    2    0    0  0.28035267988E+02 -0.58699361739E+01 -0.28857114280E+02  0.40659137305E+02  0.00000000000E+00 0. -1.
         11    1    3    3    0    0 -0.28262055113E+01 -0.34550952305E+01  0.15798075313E+02  0.16416586262E+02  0.51100000000E-03 0. -1.
        -11    1    3    3    0    0 -0.23174915685E+02  0.13914040607E+01  0.83995270731E+01  0.24689365678E+02  0.51100000000E-03 0.  1.
        -12    1    3    3    0    0 -0.20341467917E+01  0.79336273437E+01  0.46595118937E+01  0.94229107544E+01  0.00000000000E+00 0.  1.
</event>
<event>
 7    1  0.3054835E-011  0.5052887E+02  0.7816164E-02  0.1300439E+00
        -11   -1    0    0    0    0  0.00000000000E+00  0.00000000000E+00  0.45593999997E+02  0.45594000000E+02  0.51100000000E-03 0.  1.
         11   -1    0    0    0    0 -0.00000000000E+00 -0.00000000000E+00 -0.45593999997E+02  0.45594000000E+02  0.51100000000E-03 0. -1.
    9900012    2    1    2    0    0 -0.24775207794E+02  0.27427782503E+02  0.16943171398E+02  0.50528865340E+02  0.30000016687E+02 0.  0.
         12    1    1    2    0    0  0.24775207794E+02 -0.27427782503E+02 -0.16943171398E+02  0.40659134660E+02  0.00000000000E+00 0. -1.
         11    1    3    3    0    0  0.38430909493E+00 -0.25135058659E+01 -0.24734573678E+01  0.35473083923E+01  0.51100000000E-03 0. -1.
        -11    1    3    3    0    0 -0.27713413250E+02  0.26194782587E+02  0.16254737729E+02  0.41453786409E+02  0.51100000000E-03 0.  1.
        -12    1    3    3    0    0  0.25538963608E+01  0.37465057825E+01  0.31618910366E+01  0.55277705386E+01  0.00000000000E+00 0.  1.
</event>
<event>
 7    1  0.3054835E-011  0.5052887E+02  0.7816164E-02  0.1300439E+00
        -11   -1    0    0    0    0  0.00000000000E+00  0.00000000000E+00  0.45593999997E+02  0.45594000000E+02  0.51100000000E-03 0.  1.
         11   -1    0    0    0    0 -0.00000000000E+00 -0.00000000000E+00 -0.45593999997E+02  0.45594000000E+02  0.51100000000E-03 0. -1.
    9900012    2    1    2    0    0  0.20862943891E+02 -0.15375572018E+02  0.31328804062E+02  0.50528873022E+02  0.30000040037E+02 0.  0.
         12    1    1    2    0    0 -0.20862943891E+02  0.15375572018E+02 -0.31328804062E+02  0.40659126978E+02  0.00000000000E+00 0. -1.
         11    1    3    3    0    0  0.91967431268E+01 -0.42039840335E+01 -0.36907863952E+01  0.10764546919E+02  0.51100000000E-03 0. -1.
        -11    1    3    3    0    0  0.41771597452E+01 -0.15383302221E+01  0.19609405022E+02  0.20108303981E+02  0.51100000000E-03 0.  1.
        -12    1    3    3    0    0  0.74890410195E+01 -0.96332577625E+01  0.15410185434E+02  0.19656022121E+02  0.00000000000E+00 0.  1.
</event>
<event>
 7    1  0.3054835E-011  0.5052886E+02  0.7816164E-02  0.1300439E+00
        -11   -1    0    0    0    0  0.00000000000E+00  0.00000000000E+00  0.45593999997E+02  0.45594000000E+02  0.51100000000E-03 0.  1.
         11   -1    0    0    0    0 -0.00000000000E+00 -0.00000000000E+00 -0.45593999997E+02  0.45594000000E+02  0.51100000000E-03 0. -1.
    9900012    2    1    2    0    0 -0.23936638817E+02  0.27771503491E+02  0.17576875107E+02  0.50528860529E+02  0.30000002063E+02 0.  0.
         12    1    1    2    0    0  0.23936638817E+02 -0.27771503491E+02 -0.17576875107E+02  0.40659139471E+02  0.00000000000E+00 0. -1.
         11    1    3    3    0    0 -0.86111680217E+00  0.92166818546E+01 -0.41813929405E+01  0.10157400934E+02  0.51100000000E-03 0. -1.
        -11    1    3    3    0    0 -0.81698926395E+01  0.95671700443E+01  0.18942204865E+02  0.22739503376E+02  0.51100000000E-03 0.  1.
         12    1    3    3    0    0 -0.14905629376E+02  0.89876515920E+01  0.28160631831E+01  0.17631956218E+02  0.00000000000E+00 0. -1.
</event>
<event>
 7    1  0.3054835E-011  0.5052886E+02  0.7816164E-02  0.1300439E+00
        -11   -1    0    0    0    0  0.00000000000E+00  0.00000000000E+00  0.45593999997E+02  0.45594000000E+02  0.51100000000E-03 0.  1.
         11   -1    0    0    0    0 -0.00000000000E+00 -0.00000000000E+00 -0.45593999997E+02  0.45594000000E+02  0.51100000000E-03 0. -1.
    9900012    2    1    2    0    0  0.16945224760E+01 -0.22465506785E+02  0.33846645796E+02  0.50528857939E+02  0.29999994192E+02 0.  0.
         12    1    1    2    0    0 -0.16945224760E+01  0.22465506785E+02 -0.33846645796E+02  0.40659142061E+02  0.00000000000E+00 0. -1.
         11    1    3    3    0    0 -0.70986767372E+01 -0.80167351442E+01  0.13556608660E+02  0.17275441888E+02  0.51100000000E-03 0. -1.
        -11    1    3    3    0    0  0.27776430005E+01 -0.67290300466E+01 -0.30894128168E+01  0.79081994044E+01  0.51100000000E-03 0.  1.
        -12    1    3    3    0    0  0.60155562127E+01 -0.77197415937E+01  0.23379449952E+02  0.25345216647E+02  0.00000000000E+00 0.  1.
</event>
<event>
 7    1  0.3054835E-011  0.5052886E+02  0.7816164E-02  0.1300439E+00
        -11   -1    0    0    0    0  0.00000000000E+00  0.00000000000E+00  0.45593999997E+02  0.45594000000E+02  0.51100000000E-03 0.  1.
         11   -1    0    0    0    0 -0.00000000000E+00 -0.00000000000E+00 -0.45593999997E+02  0.45594000000E+02  0.51100000000E-03 0. -1.
    9900012    2    1    2    0    0 -0.33098121515E+02 -0.26308745015E+01  0.23468241965E+02  0.50528861674E+02  0.30000005545E+02 0.  0.
         12    1    1    2    0    0  0.33098121515E+02  0.26308745015E+01 -0.23468241965E+02  0.40659138326E+02  0.00000000000E+00 0. -1.
         11    1    3    3    0    0  0.82056603019E+00  0.27680118278E+01  0.31691069938E+01  0.42870103205E+01  0.51100000000E-03 0. -1.
        -11    1    3    3    0    0 -0.37078252932E+02 -0.38353972463E+01  0.20791363536E+02  0.42682407506E+02  0.51100000000E-03 0.  1.
        -12    1    3    3    0    0  0.31595653868E+01 -0.15634890829E+01 -0.49222856538E+00  0.35594438479E+01  0.00000000000E+00 0.  1.
</event>
<event>
 7    1  0.3054835E-011  0.5052886E+02  0.7816164E-02  0.1300439E+00
        -11   -1    0    0    0    0  0.00000000000E+00  0.00000000000E+00  0.45593999997E+02  0.45594000000E+02  0.51100000000E-03 0.  1.
         11   -1    0    0    0    0 -0.00000000000E+00 -0.00000000000E+00 -0.45593999997E+02  0.45594000000E+02  0.51100000000E-03 0. -1.
    9900012    2    1    2    0    0  0.22574061565E+02  0.20221930706E+02  0.27104439798E+02  0.50528863342E+02  0.30000010614E+02 0.  0.
         12    1    1    2    0    0 -0.22574061565E+02 -0.20221930706E+02 -0.27104439798E+02  0.40659136658E+02  0.00000000000E+00 0. -1.
         11    1    3    3    0    0  0.19074382278E+02  0.32464214639E+01  0.27280302446E+01  0.19540047618E+02  0.51100000000E-03 0. -1.
        -11    1    3    3    0    0  0.54039614214E+01  0.10541156885E+02  0.19001068221E+02  0.22391055833E+02  0.51100000000E-03 0.  1.
         12    1    3    3    0    0 -0.19042821346E+01  0.64343523572E+01  0.53753413327E+01  0.85977598913E+01  0.00000000000E+00 0. -1.
</event>
<event>
 7    1  0.3054835E-011  0.5052885E+02  0.7816164E-02  0.1300439E+00
        -11   -1    0    0    0    0  0.00000000000E+00  0.00000000000E+00  0.45593999997E+02  0.45594000000E+02  0.51100000000E-03 0.  1.
         11   -1    0    0    0    0 -0.00000000000E+00 -0.00000000000E+00 -0.45593999997E+02  0.45594000000E+02  0.51100000000E-03 0. -1.
    9900012    2    1    2    0    0 -0.75720646469E+01  0.32324914583E+02  0.23471895555E+02  0.50528854082E+02  0.29999982467E+02 0.  0.
         12    1    1    2    0    0  0.75720646469E+01 -0.32324914583E+02 -0.23471895555E+02  0.40659145918E+02  0.00000000000E+00 0. -1.
         11    1    3    3    0    0 -0.64856563680E+01  0.44110066580E+01  0.12912378032E+02  0.15107952375E+02  0.51100000000E-03 0. -1.
        -11    1    3    3    0    0 -0.63382467929E+01  0.26187803749E+02  0.46741710708E+01  0.27346340030E+02  0.51100000000E-03 0.  1.
        -12    1    3    3    0    0  0.52518385140E+01  0.17261041769E+01  0.58853464523E+01  0.80745616767E+01  0.00000000000E+00 0.  1.
</event>
<event>
 7    1  0.3054835E-011  0.5052886E+02  0.7816164E-02  0.1300439E+00
        -11   -1    0    0    0    0  0.00000000000E+00  0.00000000000E+00  0.45593999997E+02  0.45594000000E+02  0.51100000000E-03 0.  1.
         11   -1    0    0    0    0 -0.00000000000E+00 -0.00000000000E+00 -0.45593999997E+02  0.45594000000E+02  0.51100000000E-03 0. -1.
    9900012    2    1    2    0    0  0.36197486861E+02 -0.17653843419E+02  0.55901044211E+01  0.50528861913E+02  0.30000006272E+02 0.  0.
         12    1    1    2    0    0 -0.36197486861E+02  0.17653843419E+02 -0.55901044211E+01  0.40659138087E+02  0.00000000000E+00 0. -1.
         11    1    3    3    0    0  0.40436571562E+01 -0.42289692845E+01 -0.55919228200E+01  0.80935125559E+01  0.51100000000E-03 0. -1.
        -11    1    3    3    0    0  0.40039411127E+01 -0.69919574918E+01  0.10904698061E+02  0.13558445857E+02  0.51100000000E-03 0.  1.
        -12    1    3    3    0    0  0.28149888592E+02 -0.64329166432E+01  0.27732917987E+00  0.28876903500E+02  0.00000000000E+00 0.  1.
</event>
<event>
 7    1  0.3054835E-011  0.5052888E+02  0.7816164E-02  0.1300439E+00
        -11   -1    0    0    0    0  0.00000000000E+00  0.00000000000E+00  0.45593999997E+02  0.45594000000E+02  0.51100000000E-03 0.  1.
         11   -1    0    0    0    0 -0.00000000000E+00 -0.00000000000E+00 -0.45593999997E+02  0.45594000000E+02  0.51100000000E-03 0. -1.
    9900012    2    1    2    0    0  0.22117872927E+02  0.19076748217E+02  0.28285003458E+02  0.50528879916E+02  0.30000060993E+02 0.  0.
         12    1    1    2    0    0 -0.22117872927E+02 -0.19076748217E+02 -0.28285003458E+02  0.40659120084E+02  0.00000000000E+00 0. -1.
         11    1    3    3    0    0  0.90060388155E+01  0.12456542235E+02  0.13603583537E+01  0.15431291415E+02  0.51100000000E-03 0. -1.
        -11    1    3    3    0    0  0.88680861755E+01  0.11484889185E+02  0.23920077126E+02  0.27977057065E+02  0.51100000000E-03 0.  1.
         12    1    3    3    0    0  0.42437479361E+01 -0.48646832028E+01  0.30045679780E+01  0.71205314369E+01  0.00000000000E+00 0. -1.
</event>
<event>
 7    1  0.3054835E-011  0.5052885E+02  0.7816164E-02  0.1300439E+00
        -11   -1    0    0    0    0  0.00000000000E+00  0.00000000000E+00  0.45593999997E+02  0.45594000000E+02  0.51100000000E-03 0. -1.
         11   -1    0    0    0    0 -0.00000000000E+00 -0.00000000000E+00 -0.45593999997E+02  0.45594000000E+02  0.51100000000E-03 0.  1.
    9900012    2    1    2    0    0  0.30546193546E+02  0.25859282584E+02 -0.71689435763E+01  0.50528853577E+02  0.29999980932E+02 0.  0.
         12    1    1    2    0    0 -0.30546193546E+02 -0.25859282584E+02  0.71689435763E+01  0.40659146423E+02  0.00000000000E+00 0. -1.
         11    1    3    3    0    0  0.62102446095E+01  0.17776139675E+01  0.99281941327E+01  0.11844664982E+02  0.51100000000E-03 0. -1.
        -11    1    3    3    0    0  0.86496694997E+01  0.55399005042E+01 -0.35093197829E+01  0.10854612183E+02  0.51100000000E-03 0.  1.
         12    1    3    3    0    0  0.15686279437E+02  0.18541768112E+02 -0.13587817926E+02  0.27829576412E+02  0.00000000000E+00 0. -1.
</event>
<event>
 7    1  0.3054835E-011  0.5052887E+02  0.7816164E-02  0.1300439E+00
        -11   -1    0    0    0    0  0.00000000000E+00  0.00000000000E+00  0.45593999997E+02  0.45594000000E+02  0.51100000000E-03 0.  1.
         11   -1    0    0    0    0 -0.00000000000E+00 -0.00000000000E+00 -0.45593999997E+02  0.45594000000E+02  0.51100000000E-03 0. -1.
    9900012    2    1    2    0    0  0.41317572338E+01 -0.24911999015E+02  0.31866689260E+02  0.50528868219E+02  0.30000025439E+02 0.  0.
         12    1    1    2    0    0 -0.41317572338E+01  0.24911999015E+02 -0.31866689260E+02  0.40659131781E+02  0.00000000000E+00 0. -1.
         11    1    3    3    0    0  0.15361177016E+02 -0.16769790354E+02  0.25319145020E+02  0.34033082915E+02  0.51100000000E-03 0. -1.
        -11    1    3    3    0    0 -0.78616228399E+01 -0.84509855016E+01  0.61836487544E+01  0.13094341595E+02  0.51100000000E-03 0.  1.
         12    1    3    3    0    0 -0.33677969428E+01  0.30877684056E+00  0.36389548521E+00  0.34014437095E+01  0.00000000000E+00 0. -1.
</event>
<event>
 7    1  0.3054835E-011  0.5052887E+02  0.7816164E-02  0.1300439E+00
        -11   -1    0    0    0    0  0.00000000000E+00  0.00000000000E+00  0.45593999997E+02  0.45594000000E+02  0.51100000000E-03 0.  1.
         11   -1    0    0    0    0 -0.00000000000E+00 -0.00000000000E+00 -0.45593999997E+02  0.45594000000E+02  0.51100000000E-03 0. -1.
    9900012    2    1    2    0    0 -0.64399872939E+01 -0.31141501945E+02  0.25335719289E+02  0.50528865090E+02  0.30000015928E+02 0.  0.
         12    1    1    2    0    0  0.64399872939E+01  0.31141501945E+02 -0.25335719289E+02  0.40659134910E+02  0.00000000000E+00 0. -1.
         11    1    3    3    0    0  0.39271612717E+01  0.19692682472E+01  0.62854600241E+01  0.76686127206E+01  0.51100000000E-03 0. -1.
        -11    1    3    3    0    0 -0.47921071114E+01 -0.31883085753E+02  0.13682506435E+02  0.35024369092E+02  0.51100000000E-03 0.  1.
        -12    1    3    3    0    0 -0.55750414541E+01 -0.12276844395E+01  0.53677528292E+01  0.78358832771E+01  0.00000000000E+00 0.  1.
</event>
<event>
 7    1  0.3054835E-011  0.5052886E+02  0.7816164E-02  0.1300439E+00
        -11   -1    0    0    0    0  0.00000000000E+00  0.00000000000E+00  0.45593999997E+02  0.45594000000E+02  0.51100000000E-03 0.  1.
         11   -1    0    0    0    0 -0.00000000000E+00 -0.00000000000E+00 -0.45593999997E+02  0.45594000000E+02  0.51100000000E-03 0. -1.
    9900012    2    1    2    0    0 -0.20931141909E+02  0.29008100385E+02  0.19328292654E+02  0.50528862202E+02  0.30000007150E+02 0.  0.
         12    1    1    2    0    0  0.20931141909E+02 -0.29008100385E+02 -0.19328292654E+02  0.40659137798E+02  0.00000000000E+00 0. -1.
         11    1    3    3    0    0 -0.14154497462E+01  0.10207350230E+00  0.14430078005E+02  0.14499692013E+02  0.51100000000E-03 0. -1.
        -11    1    3    3    0    0 -0.12323747530E+01  0.51070028678E+01 -0.12369976962E+01  0.53972575800E+01  0.51100000000E-03 0.  1.
         12    1    3    3    0    0 -0.18283317410E+02  0.23799024015E+02  0.61352123448E+01  0.30631912609E+02  0.00000000000E+00 0. -1.
</event>
<event>
 7    1  0.3054835E-011  0.5052886E+02  0.7816164E-02  0.1300439E+00
        -11   -1    0    0    0    0  0.00000000000E+00  0.00000000000E+00  0.45593999997E+02  0.45594000000E+02  0.51100000000E-03 0.  1.
         11   -1    0    0    0    0 -0.00000000000E+00 -0.00000000000E+00 -0.45593999997E+02  0.45594000000E+02  0.51100000000E-03 0. -1.
    9900012    2    1    2    0    0  0.17837902079E+02  0.27993130986E+02  0.23481051944E+02  0.50528856706E+02  0.29999990445E+02 0.  0.
         12    1    1    2    0    0 -0.17837902079E+02 -0.27993130986E+02 -0.23481051944E+02  0.40659143294E+02  0.00000000000E+00 0. -1.
         11    1    3    3    0    0 -0.16989933880E+01  0.81783234473E+01 -0.15054088239E+01  0.84875089944E+01  0.51100000000E-03 0. -1.
        -11    1    3    3    0    0  0.16791312321E+02  0.19412340337E+02  0.27973334427E+02  0.37964385495E+02  0.51100000000E-03 0.  1.
        -12    1    3    3    0    0  0.27455831462E+01  0.40246720196E+00 -0.29868736591E+01  0.40769622167E+01  0.00000000000E+00 0.  1.
</event>
<event>
 7    1  0.3054835E-011  0.5052885E+02  0.7816164E-02  0.1300439E+00
        -11   -1    0    0    0    0  0.00000000000E+00  0.00000000000E+00  0.45593999997E+02  0.45594000000E+02  0.51100000000E-03 0.  1.
         11   -1    0    0    0    0 -0.00000000000E+00 -0.00000000000E+00 -0.45593999997E+02  0.45594000000E+02  0.51100000000E-03 0. -1.
    9900012    2    1    2    0    0  0.28664072752E+02  0.22686813706E+02  0.17800162020E+02  0.50528851573E+02  0.29999974840E+02 0.  0.
         12    1    1    2    0    0 -0.28664072752E+02 -0.22686813706E+02 -0.17800162020E+02  0.40659148427E+02  0.00000000000E+00 0. -1.
         11    1    3    3    0    0  0.83068370794E+01  0.10240433452E+02  0.19258348840E+02  0.23339966150E+02  0.51100000000E-03 0.  1.
        -11    1    3    3    0    0  0.19867919664E+02  0.14562430318E+02 -0.25374377772E+01  0.24763626538E+02  0.51100000000E-03 0. -1.
        -12    1    3    3    0    0  0.48931600875E+00 -0.21160500645E+01  0.10792509571E+01  0.24252588852E+01  0.00000000000E+00 0.  1.
</event>
<event>
 7    1  0.3054835E-011  0.5052886E+02  0.7816164E-02  0.1300439E+00
        -11   -1    0    0    0    0  0.00000000000E+00  0.00000000000E+00  0.45593999997E+02  0.45594000000E+02  0.51100000000E-03 0. -1.
         11   -1    0    0    0    0 -0.00000000000E+00 -0.00000000000E+00 -0.45593999997E+02  0.45594000000E+02  0.51100000000E-03 0.  1.
    9900012    2    1    2    0    0  0.27371656947E+02 -0.29760204390E+02  0.42764965728E+01  0.50528858441E+02  0.29999995719E+02 0.  0.
         12    1    1    2    0    0 -0.27371656947E+02  0.29760204390E+02 -0.42764965728E+01  0.40659141559E+02  0.00000000000E+00 0. -1.
         11    1    3    3    0    0  0.13473270284E+01  0.49157627264E+01  0.15188513717E+01  0.53185452009E+01  0.51100000000E-03 0. -1.
        -11    1    3    3    0    0  0.23195536583E+02 -0.21464441622E+02  0.24103793672E+01  0.31694874988E+02  0.51100000000E-03 0.  1.
         12    1    3    3    0    0  0.28287933359E+01 -0.13211525494E+02  0.34726583393E+00  0.13515438253E+02  0.00000000000E+00 0. -1.
</event>
<event>
 7    1  0.3054835E-011  0.5052886E+02  0.7816164E-02  0.1300439E+00
        -11   -1    0    0    0    0  0.00000000000E+00  0.00000000000E+00  0.45593999997E+02  0.45594000000E+02  0.51100000000E-03 0. -1.
         11   -1    0    0    0    0 -0.00000000000E+00 -0.00000000000E+00 -0.45593999997E+02  0.45594000000E+02  0.51100000000E-03 0.  1.
    9900012    2    1    2    0    0  0.28301303858E+02  0.27099549971E+01 -0.29066446828E+02  0.50528856043E+02  0.29999988427E+02 0.  0.
         12    1    1    2    0    0 -0.28301303858E+02 -0.27099549971E+01  0.29066446828E+02  0.40659143957E+02  0.00000000000E+00 0. -1.
         11    1    3    3    0    0  0.85994178659E+01 -0.86862536686E+01 -0.13275439662E+02  0.18045450643E+02  0.51100000000E-03 0. -1.
        -11    1    3    3    0    0  0.22811965563E+02  0.95017281270E+01 -0.13220147977E+02  0.28025718957E+02  0.51100000000E-03 0.  1.
         12    1    3    3    0    0 -0.31100795713E+01  0.18944805386E+01 -0.25708591888E+01  0.44576864425E+01  0.00000000000E+00 0. -1.
</event>
<event>
 7    1  0.3054835E-011  0.5052886E+02  0.7816164E-02  0.1300439E+00
        -11   -1    0    0    0    0  0.00000000000E+00  0.00000000000E+00  0.45593999997E+02  0.45594000000E+02  0.51100000000E-03 0.  1.
         11   -1    0    0    0    0 -0.00000000000E+00 -0.00000000000E+00 -0.45593999997E+02  0.45594000000E+02  0.51100000000E-03 0. -1.
    9900012    2    1    2    0    0 -0.29220604008E+02 -0.39450351437E+01  0.27995693781E+02  0.50528857472E+02  0.29999992771E+02 0.  0.
         12    1    1    2    0    0  0.29220604008E+02  0.39450351437E+01 -0.27995693781E+02  0.40659142528E+02  0.00000000000E+00 0. -1.
         11    1    3    3    0    0 -0.19167274814E+02 -0.33655621758E+01  0.22028544569E+01  0.19584790031E+02  0.51100000000E-03 0. -1.
        -11    1    3    3    0    0 -0.46114116959E+01  0.66202071672E+01  0.12455061895E+02  0.14839839212E+02  0.51100000000E-03 0.  1.
         12    1    3    3    0    0 -0.54419174979E+01 -0.71996801351E+01  0.13337777429E+02  0.16104228229E+02  0.00000000000E+00 0. -1.
</event>
<event>
 7    1  0.3054835E-011  0.5052888E+02  0.7816164E-02  0.1300439E+00
        -11   -1    0    0    0    0  0.00000000000E+00  0.00000000000E+00  0.45593999997E+02  0.45594000000E+02  0.51100000000E-03 0.  1.
         11   -1    0    0    0    0 -0.00000000000E+00 -0.00000000000E+00 -0.45593999997E+02  0.45594000000E+02  0.51100000000E-03 0. -1.
    9900012    2    1    2    0    0 -0.33290381255E+01  0.39799090284E+02  0.76232731712E+01  0.50528875857E+02  0.30000048654E+02 0.  0.
         12    1    1    2    0    0  0.33290381255E+01 -0.39799090284E+02 -0.76232731712E+01  0.40659124143E+02  0.00000000000E+00 0. -1.
         11    1    3    3    0    0  0.10073499361E+02  0.96311245993E+01  0.61248857337E+01  0.15223277438E+02  0.51100000000E-03 0. -1.
        -11    1    3    3    0    0 -0.13527104018E+02  0.15685413035E+02  0.20362864334E+01  0.20812524784E+02  0.51100000000E-03 0.  1.
         12    1    3    3    0    0  0.12456653081E+00  0.14482552650E+02 -0.53789899583E+00  0.14493073636E+02  0.00000000000E+00 0. -1.
</event>
<event>
 7    1  0.3054835E-011  0.5052885E+02  0.7816164E-02  0.1300439E+00
        -11   -1    0    0    0    0  0.00000000000E+00  0.00000000000E+00  0.45593999997E+02  0.45594000000E+02  0.51100000000E-03 0.  1.
         11   -1    0    0    0    0 -0.00000000000E+00 -0.00000000000E+00 -0.45593999997E+02  0.45594000000E+02  0.51100000000E-03 0. -1.
    9900012    2    1    2    0    0  0.32564929362E+02 -0.23476211011E+02 -0.64466383115E+01  0.50528852772E+02  0.29999978486E+02 0.  0.
         12    1    1    2    0    0 -0.32564929362E+02  0.23476211011E+02  0.64466383115E+01  0.40659147228E+02  0.00000000000E+00 0. -1.
         11    1    3    3    0    0  0.98543581626E+01  0.19190557065E+00 -0.49359628669E+01  0.11023109009E+02  0.51100000000E-03 0. -1.
        -11    1    3    3    0    0  0.19834429571E+02 -0.27213541510E+02 -0.46086270146E+01  0.33988540439E+02  0.51100000000E-03 0.  1.
        -12    1    3    3    0    0  0.28761416285E+01  0.35454249284E+01  0.30979515699E+01  0.55172033241E+01  0.00000000000E+00 0.  1.
</event>
<event>
 7    1  0.3054835E-011  0.5052885E+02  0.7816164E-02  0.1300439E+00
        -11   -1    0    0    0    0  0.00000000000E+00  0.00000000000E+00  0.45593999997E+02  0.45594000000E+02  0.51100000000E-03 0. -1.
         11   -1    0    0    0    0 -0.00000000000E+00 -0.00000000000E+00 -0.45593999997E+02  0.45594000000E+02  0.51100000000E-03 0.  1.
    9900012    2    1    2    0    0 -0.15731993454E+02 -0.26672261029E+02 -0.26348832211E+02  0.50528854838E+02  0.29999984765E+02 0.  0.
         12    1    1    2    0    0  0.15731993454E+02  0.26672261029E+02  0.26348832211E+02  0.40659145162E+02  0.00000000000E+00 0. -1.
         11    1    3    3    0    0 -0.10311111086E+02 -0.90937494851E+00 -0.13573618600E+02  0.17070122928E+02  0.51100000000E-03 0. -1.
        -11    1    3    3    0    0  0.10164617117E+01 -0.18843658304E+02 -0.14567461952E+02  0.23839622494E+02  0.51100000000E-03 0.  1.
         12    1    3    3    0    0 -0.64373440792E+01 -0.69192277771E+01  0.17922483416E+01  0.96191094153E+01  0.00000000000E+00 0. -1.
</event>
<event>
 7    1  0.3054835E-011  0.5052886E+02  0.7816164E-02  0.1300439E+00
        -11   -1    0    0    0    0  0.00000000000E+00  0.00000000000E+00  0.45593999997E+02  0.45594000000E+02  0.51100000000E-03 0.  1.
         11   -1    0    0    0    0 -0.00000000000E+00 -0.00000000000E+00 -0.45593999997E+02  0.45594000000E+02  0.51100000000E-03 0. -1.
    9900012    2    1    2    0    0 -0.52156195373E+01 -0.34352508457E+02 -0.21115594253E+02  0.50528857792E+02  0.29999993745E+02 0.  0.
         12    1    1    2    0    0  0.52156195373E+01  0.34352508457E+02  0.21115594253E+02  0.40659142208E+02  0.00000000000E+00 0. -1.
         11    1    3    3    0    0 -0.62913751470E+01 -0.21387875930E+02 -0.26640292522E+02  0.34737988197E+02  0.51100000000E-03 0. -1.
        -11    1    3    3    0    0 -0.25794412648E+01 -0.68608394347E+01  0.10977601506E+01  0.74114581963E+01  0.51100000000E-03 0.  1.
         12    1    3    3    0    0  0.36551968746E+01 -0.61037930915E+01  0.44269381181E+01  0.83794113992E+01  0.00000000000E+00 0. -1.
</event>
<event>
 7    1  0.3054835E-011  0.5052885E+02  0.7816164E-02  0.1300439E+00
        -11   -1    0    0    0    0  0.00000000000E+00  0.00000000000E+00  0.45593999997E+02  0.45594000000E+02  0.51100000000E-03 0.  1.
         11   -1    0    0    0    0 -0.00000000000E+00 -0.00000000000E+00 -0.45593999997E+02  0.45594000000E+02  0.51100000000E-03 0. -1.
    9900012    2    1    2    0    0  0.33602422205E+02 -0.22465304904E+02  0.43992838992E+01  0.50528850952E+02  0.29999972955E+02 0.  0.
         12    1    1    2    0    0 -0.33602422205E+02  0.22465304904E+02 -0.43992838992E+01  0.40659149048E+02  0.00000000000E+00 0. -1.
         11    1    3    3    0    0 -0.23144877662E+01 -0.10448216512E+02  0.50410059299E+01  0.11829362745E+02  0.51100000000E-03 0. -1.
        -11    1    3    3    0    0  0.21406715505E+02 -0.10313004065E+02 -0.28196080506E+01  0.23928136396E+02  0.51100000000E-03 0.  1.
        -12    1    3    3    0    0  0.14510194466E+02 -0.17040843269E+01  0.21778860199E+01  0.14771351812E+02  0.00000000000E+00 0.  1.
</event>
<event>
 7    1  0.3054835E-011  0.5052885E+02  0.7816164E-02  0.1300439E+00
        -11   -1    0    0    0    0  0.00000000000E+00  0.00000000000E+00  0.45593999997E+02  0.45594000000E+02  0.51100000000E-03 0.  1.
         11   -1    0    0    0    0 -0.00000000000E+00 -0.00000000000E+00 -0.45593999997E+02  0.45594000000E+02  0.51100000000E-03 0. -1.
    9900012    2    1    2    0    0  0.23362422440E+02  0.12421960934E+02  0.30871642677E+02  0.50528853215E+02  0.29999979832E+02 0.  0.
         12    1    1    2    0    0 -0.23362422440E+02 -0.12421960934E+02 -0.30871642677E+02  0.40659146785E+02  0.00000000000E+00 0. -1.
         11    1    3    3    0    0 -0.36033696164E+01 -0.60339604276E+01  0.52140678823E+01  0.87509688136E+01  0.51100000000E-03 0. -1.
        -11    1    3    3    0    0  0.63133660311E+01  0.58825578360E+01  0.86375085603E+01  0.12209407509E+02  0.51100000000E-03 0.  1.
         12    1    3    3    0    0  0.20652426025E+02  0.12573363526E+02  0.17020066235E+02  0.29568476892E+02  0.00000000000E+00 0. -1.
</event>
<event>
 7    1  0.3054835E-011  0.5052886E+02  0.7816164E-02  0.1300439E+00
        -11   -1    0    0    0    0  0.00000000000E+00  0.00000000000E+00  0.45593999997E+02  0.45594000000E+02  0.51100000000E-03 0.  1.
         11   -1    0    0    0    0 -0.00000000000E+00 -0.00000000000E+00 -0.45593999997E+02  0.45594000000E+02  0.51100000000E-03 0. -1.
    9900012    2    1    2    0    0 -0.31593800419E+02  0.33399263146E+01  0.25374049880E+02  0.50528859084E+02  0.29999997672E+02 0.  0.
         12    1    1    2    0    0  0.31593800419E+02 -0.33399263146E+01 -0.25374049880E+02  0.40659140916E+02  0.00000000000E+00 0. -1.
         11    1    3    3    0    0  0.47191823689E+01  0.14691784800E+01  0.88548928706E+01  0.10140921834E+02  0.51100000000E-03 0. -1.
        -11    1    3    3    0    0 -0.25049818449E+02 -0.10740651791E+00  0.13930917431E+02  0.28663136626E+02  0.51100000000E-03 0.  1.
         12    1    3    3    0    0 -0.11263164338E+02  0.19781543526E+01  0.25882395785E+01  0.11724800624E+02  0.00000000000E+00 0. -1.
</event>
<event>
 7    1  0.3054835E-011  0.5052885E+02  0.7816164E-02  0.1300439E+00
        -11   -1    0    0    0    0  0.00000000000E+00  0.00000000000E+00  0.45593999997E+02  0.45594000000E+02  0.51100000000E-03 0.  1.
         11   -1    0    0    0    0 -0.00000000000E+00 -0.00000000000E+00 -0.45593999997E+02  0.45594000000E+02  0.51100000000E-03 0. -1.
    9900012    2    1    2    0    0  0.74351944253E+01  0.39967706110E+02  0.68354111269E+00  0.50528845111E+02  0.29999955198E+02 0.  0.
         12    1    1    2    0    0 -0.74351944253E+01 -0.39967706110E+02 -0.68354111269E+00  0.40659154889E+02  0.00000000000E+00 0. -1.
         11    1    3    3    0    0 -0.23906802926E+01  0.10335066505E+01  0.58334764628E+01  0.63885003061E+01  0.51100000000E-03 0. -1.
        -11    1    3    3    0    0  0.26120454301E+01  0.35896820302E+02 -0.37181477006E+01  0.36183271158E+02  0.51100000000E-03 0.  1.
        -12    1    3    3    0    0  0.72138292877E+01  0.30373791580E+01 -0.14317876495E+01  0.79570736465E+01  0.00000000000E+00 0.  1.
</event>
<event>
 7    1  0.3054835E-011  0.5052888E+02  0.7816164E-02  0.1300439E+00
        -11   -1    0    0    0    0  0.00000000000E+00  0.00000000000E+00  0.45593999997E+02  0.45594000000E+02  0.51100000000E-03 0. -1.
         11   -1    0    0    0    0 -0.00000000000E+00 -0.00000000000E+00 -0.45593999997E+02  0.45594000000E+02  0.51100000000E-03 0.  1.
    9900012    2    1    2    0    0  0.23431796064E+02 -0.28757885029E+02 -0.16646303182E+02  0.50528875222E+02  0.30000046724E+02 0.  0.
         12    1    1    2    0    0 -0.23431796064E+02  0.28757885029E+02  0.16646303182E+02  0.40659124778E+02  0.00000000000E+00 0. -1.
         11    1    3    3    0    0 -0.51715906298E+01 -0.67665408908E+01 -0.27500362137E+01  0.89495320943E+01  0.51100000000E-03 0. -1.
        -11    1    3    3    0    0  0.22030864563E+02 -0.17450538572E+02 -0.17182647056E+02  0.32941215065E+02  0.51100000000E-03 0.  1.
        -12    1    3    3    0    0  0.65725221307E+01 -0.45408055658E+01  0.32863800873E+01  0.86381280624E+01  0.00000000000E+00 0.  1.
</event>
<event>
 7    1  0.3054835E-011  0.5052888E+02  0.7816164E-02  0.1300439E+00
        -11   -1    0    0    0    0  0.00000000000E+00  0.00000000000E+00  0.45593999997E+02  0.45594000000E+02  0.51100000000E-03 0.  1.
         11   -1    0    0    0    0 -0.00000000000E+00 -0.00000000000E+00 -0.45593999997E+02  0.45594000000E+02  0.51100000000E-03 0. -1.
    9900012    2    1    2    0    0  0.25424380917E+02  0.11570465789E+02  0.29544697527E+02  0.50528880782E+02  0.30000063625E+02 0.  0.
         12    1    1    2    0    0 -0.25424380917E+02 -0.11570465789E+02 -0.29544697527E+02  0.40659119218E+02  0.00000000000E+00 0. -1.
         11    1    3    3    0    0 -0.29909148991E+01  0.31406204653E+01  0.34696125085E+01  0.55540327745E+01  0.51100000000E-03 0. -1.
        -11    1    3    3    0    0  0.28094594745E+02  0.12883490982E+02  0.26184613866E+02  0.40508327506E+02  0.51100000000E-03 0.  1.
        -12    1    3    3    0    0  0.32070107175E+00 -0.44536456575E+01 -0.10952884785E+00  0.44665205013E+01  0.00000000000E+00 0.  1.
</event>
<event>
 7    1  0.3054835E-011  0.5052886E+02  0.7816164E-02  0.1300439E+00
        -11   -1    0    0    0    0  0.00000000000E+00  0.00000000000E+00  0.45593999997E+02  0.45594000000E+02  0.51100000000E-03 0.  1.
         11   -1    0    0    0    0 -0.00000000000E+00 -0.00000000000E+00 -0.45593999997E+02  0.45594000000E+02  0.51100000000E-03 0. -1.
    9900012    2    1    2    0    0  0.31956199218E+02 -0.25044215432E+02  0.21803770792E+01  0.50528862782E+02  0.30000008913E+02 0.  0.
         12    1    1    2    0    0 -0.31956199218E+02  0.25044215432E+02 -0.21803770792E+01  0.40659137218E+02  0.00000000000E+00 0. -1.
         11    1    3    3    0    0  0.26090130195E+02 -0.10365886901E+02 -0.47295378853E+01  0.28469545724E+02  0.51100000000E-03 0. -1.
        -11    1    3    3    0    0 -0.39606161408E+01 -0.83270975524E+01  0.36088250719E+01  0.99020529448E+01  0.51100000000E-03 0.  1.
         12    1    3    3    0    0  0.98266851636E+01 -0.63512309785E+01  0.33010898926E+01  0.12157264114E+02  0.00000000000E+00 0. -1.
</event>
<event>
 7    1  0.3054835E-011  0.5052886E+02  0.7816164E-02  0.1300439E+00
        -11   -1    0    0    0    0  0.00000000000E+00  0.00000000000E+00  0.45593999997E+02  0.45594000000E+02  0.51100000000E-03 0.  1.
         11   -1    0    0    0    0 -0.00000000000E+00 -0.00000000000E+00 -0.45593999997E+02  0.45594000000E+02  0.51100000000E-03 0. -1.
    9900012    2    1    2    0    0  0.12331121830E+01 -0.23073748450E+02  0.33455148646E+02  0.50528863215E+02  0.30000010229E+02 0.  0.
         12    1    1    2    0    0 -0.12331121830E+01  0.23073748450E+02 -0.33455148646E+02  0.40659136785E+02  0.00000000000E+00 0. -1.
         11    1    3    3    0    0 -0.88510326610E+01 -0.14895812497E+02  0.53451903938E+01  0.18132762330E+02  0.51100000000E-03 0. -1.
        -11    1    3    3    0    0  0.48463524796E+01 -0.94689847209E+01  0.17160735751E+02  0.20190088058E+02  0.51100000000E-03 0.  1.
         12    1    3    3    0    0  0.52377923644E+01  0.12910487683E+01  0.10949222501E+02  0.12206012827E+02  0.00000000000E+00 0. -1.
</event>
<event>
 7    1  0.3054835E-011  0.5052887E+02  0.7816164E-02  0.1300439E+00
        -11   -1    0    0    0    0  0.00000000000E+00  0.00000000000E+00  0.45593999997E+02  0.45594000000E+02  0.51100000000E-03 0.  1.
         11   -1    0    0    0    0 -0.00000000000E+00 -0.00000000000E+00 -0.45593999997E+02  0.45594000000E+02  0.51100000000E-03 0. -1.
    9900012    2    1    2    0    0 -0.24171194507E+02  0.22274851090E+02  0.23932186615E+02  0.50528865834E+02  0.30000018190E+02 0.  0.
         12    1    1    2    0    0  0.24171194507E+02 -0.22274851090E+02 -0.23932186615E+02  0.40659134166E+02  0.00000000000E+00 0. -1.
         11    1    3    3    0    0 -0.24341776289E+01  0.10404589720E+02  0.14314145894E+02  0.17862684034E+02  0.51100000000E-03 0. -1.
        -11    1    3    3    0    0 -0.22377884177E+02  0.33796999185E+01  0.59914086868E+01  0.23411301760E+02  0.51100000000E-03 0.  1.
        -12    1    3    3    0    0  0.64086729871E+00  0.84905614515E+01  0.36266320340E+01  0.92548800406E+01  0.00000000000E+00 0.  1.
</event>
<event>
 7    1  0.3054835E-011  0.5052886E+02  0.7816164E-02  0.1300439E+00
        -11   -1    0    0    0    0  0.00000000000E+00  0.00000000000E+00  0.45593999997E+02  0.45594000000E+02  0.51100000000E-03 0.  1.
         11   -1    0    0    0    0 -0.00000000000E+00 -0.00000000000E+00 -0.45593999997E+02  0.45594000000E+02  0.51100000000E-03 0. -1.
    9900012    2    1    2    0    0  0.11537872177E+02  0.38825175218E+02 -0.35565526160E+01  0.50528858450E+02  0.29999995744E+02 0.  0.
         12    1    1    2    0    0 -0.11537872177E+02 -0.38825175218E+02  0.35565526160E+01  0.40659141550E+02  0.00000000000E+00 0. -1.
         11    1    3    3    0    0 -0.38332667759E+01  0.22141322212E+01 -0.14577185701E+01  0.46606071878E+01  0.51100000000E-03 0. -1.
        -11    1    3    3    0    0  0.21041394091E+02  0.32806899008E+02 -0.22345466087E+01  0.39038776705E+02  0.51100000000E-03 0.  1.
        -12    1    3    3    0    0 -0.56702551386E+01  0.38041439892E+01  0.13571256273E+00  0.68294745572E+01  0.00000000000E+00 0.  1.
</event>
<event>
 7    1  0.3054835E-011  0.5052886E+02  0.7816164E-02  0.1300439E+00
        -11   -1    0    0    0    0  0.00000000000E+00  0.00000000000E+00  0.45593999997E+02  0.45594000000E+02  0.51100000000E-03 0.  1.
         11   -1    0    0    0    0 -0.00000000000E+00 -0.00000000000E+00 -0.45593999997E+02  0.45594000000E+02  0.51100000000E-03 0. -1.
    9900012    2    1    2    0    0  0.18319869083E+02  0.34772126440E+02  0.10413794554E+02  0.50528862068E+02  0.30000006741E+02 0.  0.
         12    1    1    2    0    0 -0.18319869083E+02 -0.34772126440E+02 -0.10413794554E+02  0.40659137932E+02  0.00000000000E+00 0. -1.
         11    1    3    3    0    0  0.42084860098E+01  0.28944226311E+01  0.29108463907E+01  0.58789509126E+01  0.51100000000E-03 0. -1.
        -11    1    3    3    0    0  0.17360852639E+02  0.98621133390E+01 -0.27365142569E+01  0.20153138575E+02  0.51100000000E-03 0.  1.
        -12    1    3    3    0    0 -0.32494695658E+01  0.22015590470E+02  0.10239462420E+02  0.24496772580E+02  0.00000000000E+00 0.  1.
</event>
<event>
 7    1  0.3054835E-011  0.5052885E+02  0.7816164E-02  0.1300439E+00
        -11   -1    0    0    0    0  0.00000000000E+00  0.00000000000E+00  0.45593999997E+02  0.45594000000E+02  0.51100000000E-03 0. -1.
         11   -1    0    0    0    0 -0.00000000000E+00 -0.00000000000E+00 -0.45593999997E+02  0.45594000000E+02  0.51100000000E-03 0.  1.
    9900012    2    1    2    0    0 -0.24373439864E+02  0.32508897871E+02  0.15077413259E+01  0.50528852253E+02  0.29999976907E+02 0.  0.
         12    1    1    2    0    0  0.24373439864E+02 -0.32508897871E+02 -0.15077413259E+01  0.40659147747E+02  0.00000000000E+00 0. -1.
         11    1    3    3    0    0 -0.46439043532E+01 -0.24279886550E+00  0.40084442838E+01  0.61394156699E+01  0.51100000000E-03 0. -1.
        -11    1    3    3    0    0 -0.14422731916E+02  0.27568554404E+02 -0.11098755573E+02  0.33033661066E+02  0.51100000000E-03 0.  1.
        -12    1    3    3    0    0 -0.53068035950E+01  0.51831423325E+01  0.85980526146E+01  0.11355775517E+02  0.00000000000E+00 0.  1.
</event>
<event>
 7    1  0.3054835E-011  0.5052887E+02  0.7816164E-02  0.1300439E+00
        -11   -1    0    0    0    0  0.00000000000E+00  0.00000000000E+00  0.45593999997E+02  0.45594000000E+02  0.51100000000E-03 0.  1.
         11   -1    0    0    0    0 -0.00000000000E+00 -0.00000000000E+00 -0.45593999997E+02  0.45594000000E+02  0.51100000000E-03 0. -1.
    9900012    2    1    2    0    0  0.28397776394E+01 -0.33358934437E+02  0.23071231516E+02  0.50528873503E+02  0.30000041501E+02 0.  0.
         12    1    1    2    0    0 -0.28397776394E+01  0.33358934437E+02 -0.23071231516E+02  0.40659126497E+02  0.00000000000E+00 0. -1.
         11    1    3    3    0    0 -0.22597991607E+01 -0.42019162420E+01  0.13517715565E+01  0.49588384682E+01  0.51100000000E-03 0. -1.
        -11    1    3    3    0    0  0.12034353434E+02 -0.25489993488E+01  0.91789070651E+01  0.15348465573E+02  0.51100000000E-03 0.  1.
        -12    1    3    3    0    0 -0.69347766343E+01 -0.26608018846E+02  0.12540552894E+02  0.30221569463E+02  0.00000000000E+00 0.  1.
</event>
<event>
 7    1  0.3054835E-011  0.5052886E+02  0.7816164E-02  0.1300439E+00
        -11   -1    0    0    0    0  0.00000000000E+00  0.00000000000E+00  0.45593999997E+02  0.45594000000E+02  0.51100000000E-03 0. -1.
         11   -1    0    0    0    0 -0.00000000000E+00 -0.00000000000E+00 -0.45593999997E+02  0.45594000000E+02  0.51100000000E-03 0.  1.
    9900012    2    1    2    0    0  0.21301034424E+02  0.11572241288E+01 -0.34613470994E+02  0.50528860690E+02  0.30000002552E+02 0.  0.
         12    1    1    2    0    0 -0.21301034424E+02 -0.11572241288E+01  0.34613470994E+02  0.40659139310E+02  0.00000000000E+00 0. -1.
         11    1    3    3    0    0  0.60681139848E+01  0.76243930403E-01  0.16709363230E+00  0.60708929337E+01  0.51100000000E-03 0. -1.
        -11    1    3    3    0    0 -0.54564821692E+01  0.18776313906E+01 -0.13910541611E+02  0.15059942412E+02  0.51100000000E-03 0.  1.
         12    1    3    3    0    0  0.20689402608E+02 -0.79665119219E+00 -0.20870023016E+02  0.29398025343E+02  0.00000000000E+00 0. -1.
</event>
<event>
 7    1  0.3054835E-011  0.5052893E+02  0.7816164E-02  0.1300439E+00
        -11   -1    0    0    0    0  0.00000000000E+00  0.00000000000E+00  0.45593999997E+02  0.45594000000E+02  0.51100000000E-03 0. -1.
         11   -1    0    0    0    0 -0.00000000000E+00 -0.00000000000E+00 -0.45593999997E+02  0.45594000000E+02  0.51100000000E-03 0.  1.
    9900012    2    1    2    0    0  0.17451031497E+02 -0.31664749649E+02 -0.18600137667E+02  0.50528929771E+02  0.30000212530E+02 0.  0.
         12    1    1    2    0    0 -0.17451031497E+02  0.31664749649E+02  0.18600137667E+02  0.40659070229E+02  0.00000000000E+00 0. -1.
         11    1    3    3    0    0  0.78522888848E+01 -0.14549266440E+02  0.45032177356E+01  0.17135301716E+02  0.51100000000E-03 0. -1.
        -11    1    3    3    0    0  0.36309459459E+01  0.50067138420E+00 -0.99760913761E+01  0.10628115529E+02  0.51100000000E-03 0.  1.
         12    1    3    3    0    0  0.59677966666E+01 -0.17616154594E+02 -0.13127264027E+02  0.22765512525E+02  0.00000000000E+00 0. -1.
</event>
<event>
 7    1  0.3054835E-011  0.5052886E+02  0.7816164E-02  0.1300439E+00
        -11   -1    0    0    0    0  0.00000000000E+00  0.00000000000E+00  0.45593999997E+02  0.45594000000E+02  0.51100000000E-03 0. -1.
         11   -1    0    0    0    0 -0.00000000000E+00 -0.00000000000E+00 -0.45593999997E+02  0.45594000000E+02  0.51100000000E-03 0.  1.
    9900012    2    1    2    0    0 -0.25992343918E+02  0.35796263519E+01 -0.31060418487E+02  0.50528864941E+02  0.30000015475E+02 0.  0.
         12    1    1    2    0    0  0.25992343918E+02 -0.35796263519E+01  0.31060418487E+02  0.40659135059E+02  0.00000000000E+00 0. -1.
         11    1    3    3    0    0  0.19435597942E+01  0.27499788088E+01 -0.33941137074E+00  0.33845248502E+01  0.51100000000E-03 0. -1.
        -11    1    3    3    0    0 -0.31074765132E+02 -0.24951494051E+01 -0.26353971349E+02  0.40821545839E+02  0.51100000000E-03 0.  1.
        -12    1    3    3    0    0  0.31388614197E+01  0.33247969482E+01 -0.43670357670E+01  0.63227942517E+01  0.00000000000E+00 0.  1.
</event>
<event>
 7    1  0.3054835E-011  0.5052886E+02  0.7816164E-02  0.1300439E+00
        -11   -1    0    0    0    0  0.00000000000E+00  0.00000000000E+00  0.45593999997E+02  0.45594000000E+02  0.51100000000E-03 0. -1.
         11   -1    0    0    0    0 -0.00000000000E+00 -0.00000000000E+00 -0.45593999997E+02  0.45594000000E+02  0.51100000000E-03 0.  1.
    9900012    2    1    2    0    0 -0.25880345743E+02  0.25983169058E+02  0.17557000213E+02  0.50528860480E+02  0.30000001914E+02 0.  0.
         12    1    1    2    0    0  0.25880345743E+02 -0.25983169058E+02 -0.17557000213E+02  0.40659139520E+02  0.00000000000E+00 0. -1.
         11    1    3    3    0    0 -0.10510468526E+02  0.92971423999E+01  0.19393980594E+02  0.23938113730E+02  0.51100000000E-03 0. -1.
        -11    1    3    3    0    0 -0.19316959595E+01  0.72261496118E+01 -0.60557336112E+01  0.96239595449E+01  0.51100000000E-03 0.  1.
        -12    1    3    3    0    0 -0.13438181257E+02  0.94598770463E+01  0.42187532303E+01  0.16966787205E+02  0.00000000000E+00 0.  1.
</event>
<event>
 7    1  0.3054835E-011  0.5052885E+02  0.7816164E-02  0.1300439E+00
        -11   -1    0    0    0    0  0.00000000000E+00  0.00000000000E+00  0.45593999997E+02  0.45594000000E+02  0.51100000000E-03 0. -1.
         11   -1    0    0    0    0 -0.00000000000E+00 -0.00000000000E+00 -0.45593999997E+02  0.45594000000E+02  0.51100000000E-03 0.  1.
    9900012    2    1    2    0    0  0.25580464546E+02  0.27871219124E+02 -0.14899718313E+02  0.50528848168E+02  0.29999964492E+02 0.  0.
         12    1    1    2    0    0 -0.25580464546E+02 -0.27871219124E+02  0.14899718313E+02  0.40659151832E+02  0.00000000000E+00 0. -1.
         11    1    3    3    0    0 -0.48913419046E+00  0.45224196247E+01  0.51808339026E+01  0.68943869710E+01  0.51100000000E-03 0. -1.
        -11    1    3    3    0    0  0.18378568716E+02  0.24234690727E+02 -0.18883611818E+02  0.35800598015E+02  0.51100000000E-03 0.  1.
        -12    1    3    3    0    0  0.76910300203E+01 -0.88589122775E+00 -0.11969403977E+01  0.78338631821E+01  0.00000000000E+00 0.  1.
</event>
<event>
 7    1  0.3054835E-011  0.5052886E+02  0.7816164E-02  0.1300439E+00
        -11   -1    0    0    0    0  0.00000000000E+00  0.00000000000E+00  0.45593999997E+02  0.45594000000E+02  0.51100000000E-03 0. -1.
         11   -1    0    0    0    0 -0.00000000000E+00 -0.00000000000E+00 -0.45593999997E+02  0.45594000000E+02  0.51100000000E-03 0.  1.
    9900012    2    1    2    0    0 -0.74683270155E+01  0.56918952177E+01 -0.39559984271E+02  0.50528856685E+02  0.29999990379E+02 0.  0.
         12    1    1    2    0    0  0.74683270155E+01 -0.56918952177E+01  0.39559984271E+02  0.40659143315E+02  0.00000000000E+00 0. -1.
         11    1    3    3    0    0  0.30455335802E+01  0.65650625250E+01 -0.11228560734E+02  0.13358738607E+02  0.51100000000E-03 0. -1.
        -11    1    3    3    0    0 -0.90999767205E+01 -0.80290895241E+01 -0.27205440953E+02  0.29789459085E+02  0.51100000000E-03 0.  1.
        -12    1    3    3    0    0 -0.14138838752E+01  0.71559222168E+01 -0.11259825843E+01  0.73806589926E+01  0.00000000000E+00 0.  1.
</event>
<event>
 7    1  0.3054835E-011  0.5052887E+02  0.7816164E-02  0.1300439E+00
        -11   -1    0    0    0    0  0.00000000000E+00  0.00000000000E+00  0.45593999997E+02  0.45594000000E+02  0.51100000000E-03 0.  1.
         11   -1    0    0    0    0 -0.00000000000E+00 -0.00000000000E+00 -0.45593999997E+02  0.45594000000E+02  0.51100000000E-03 0. -1.
    9900012    2    1    2    0    0  0.13659547069E+02 -0.36005077974E+02 -0.13046680918E+02  0.50528871270E+02  0.30000034714E+02 0.  0.
         12    1    1    2    0    0 -0.13659547069E+02  0.36005077974E+02  0.13046680918E+02  0.40659128730E+02  0.00000000000E+00 0. -1.
         11    1    3    3    0    0  0.12774258061E+02 -0.24797277323E+02 -0.15447958694E+02  0.31886142126E+02  0.51100000000E-03 0.  1.
        -11    1    3    3    0    0 -0.59002316000E+01 -0.74571140525E+00  0.18438889206E-01  0.59471975491E+01  0.51100000000E-03 0. -1.
         12    1    3    3    0    0  0.67855206080E+01 -0.10462089246E+02  0.23828388867E+01  0.12695531595E+02  0.00000000000E+00 0. -1.
</event>
<event>
 7    1  0.3054835E-011  0.5052887E+02  0.7816164E-02  0.1300439E+00
        -11   -1    0    0    0    0  0.00000000000E+00  0.00000000000E+00  0.45593999997E+02  0.45594000000E+02  0.51100000000E-03 0.  1.
         11   -1    0    0    0    0 -0.00000000000E+00 -0.00000000000E+00 -0.45593999997E+02  0.45594000000E+02  0.51100000000E-03 0. -1.
    9900012    2    1    2    0    0  0.18993994121E+02  0.35709307343E+02 -0.41519401576E+01  0.50528867562E+02  0.30000023440E+02 0.  0.
         12    1    1    2    0    0 -0.18993994121E+02 -0.35709307343E+02  0.41519401576E+01  0.40659132438E+02  0.00000000000E+00 0. -1.
         11    1    3    3    0    0 -0.13749772978E+00  0.49263457983E-01  0.10928619743E+00  0.18241778438E+00  0.51100000000E-03 0. -1.
        -11    1    3    3    0    0  0.52042332225E+01  0.29707686140E+02 -0.13019851286E+02  0.32850375751E+02  0.51100000000E-03 0.  1.
        -12    1    3    3    0    0  0.13927258629E+02  0.59523577446E+01  0.87586249312E+01  0.17496074026E+02  0.00000000000E+00 0.  1.
</event>
<event>
 7    1  0.3054835E-011  0.5052882E+02  0.7816164E-02  0.1300439E+00
        -11   -1    0    0    0    0  0.00000000000E+00  0.00000000000E+00  0.45593999997E+02  0.45594000000E+02  0.51100000000E-03 0. -1.
         11   -1    0    0    0    0 -0.00000000000E+00 -0.00000000000E+00 -0.45593999997E+02  0.45594000000E+02  0.51100000000E-03 0.  1.
    9900012    2    1    2    0    0 -0.18043660957E+02  0.19937418318E+02 -0.30497446484E+02  0.50528824012E+02  0.29999891068E+02 0.  0.
         12    1    1    2    0    0  0.18043660957E+02 -0.19937418318E+02  0.30497446484E+02  0.40659175988E+02  0.00000000000E+00 0. -1.
         11    1    3    3    0    0  0.45623728618E+01 -0.81626652818E+00 -0.73620592218E+01  0.86995088035E+01  0.51100000000E-03 0. -1.
        -11    1    3    3    0    0 -0.16438229891E+02  0.50535756600E+01 -0.16083555479E+02  0.23546438924E+02  0.51100000000E-03 0.  1.
        -12    1    3    3    0    0 -0.61678039282E+01  0.15700109186E+02 -0.70518317836E+01  0.18282876285E+02  0.00000000000E+00 0.  1.
</event>
<event>
 7    1  0.3054835E-011  0.5052887E+02  0.7816164E-02  0.1300439E+00
        -11   -1    0    0    0    0  0.00000000000E+00  0.00000000000E+00  0.45593999997E+02  0.45594000000E+02  0.51100000000E-03 0.  1.
         11   -1    0    0    0    0 -0.00000000000E+00 -0.00000000000E+00 -0.45593999997E+02  0.45594000000E+02  0.51100000000E-03 0. -1.
    9900012    2    1    2    0    0 -0.39484158351E+01 -0.34221687562E+02  0.21597477063E+02  0.50528869382E+02  0.30000028972E+02 0.  0.
         12    1    1    2    0    0  0.39484158351E+01  0.34221687562E+02 -0.21597477063E+02  0.40659130618E+02  0.00000000000E+00 0. -1.
         11    1    3    3    0    0  0.11970059914E+01 -0.48219071957E+01  0.89685464506E+01  0.10252728322E+02  0.51100000000E-03 0. -1.
        -11    1    3    3    0    0 -0.39650187690E+01 -0.32469120581E+02  0.15231166911E+02  0.36082594292E+02  0.51100000000E-03 0.  1.
        -12    1    3    3    0    0 -0.11804030575E+01  0.30693402150E+01 -0.26022362988E+01  0.41935467672E+01  0.00000000000E+00 0.  1.
</event>
<event>
 7    1  0.3054835E-011  0.5052885E+02  0.7816164E-02  0.1300439E+00
        -11   -1    0    0    0    0  0.00000000000E+00  0.00000000000E+00  0.45593999997E+02  0.45594000000E+02  0.51100000000E-03 0.  1.
         11   -1    0    0    0    0 -0.00000000000E+00 -0.00000000000E+00 -0.45593999997E+02  0.45594000000E+02  0.51100000000E-03 0. -1.
    9900012    2    1    2    0    0  0.26743728493E+02  0.52072761021E+01  0.30179855406E+02  0.50528850839E+02  0.29999972611E+02 0.  0.
         12    1    1    2    0    0 -0.26743728493E+02 -0.52072761021E+01 -0.30179855406E+02  0.40659149161E+02  0.00000000000E+00 0. -1.
         11    1    3    3    0    0  0.53335648970E+01 -0.43785500585E+01 -0.36712946940E+01  0.78164582847E+01  0.51100000000E-03 0. -1.
        -11    1    3    3    0    0  0.11951003074E+02  0.11278331685E+02  0.20948772405E+02  0.26624768649E+02  0.51100000000E-03 0.  1.
        -12    1    3    3    0    0  0.94591605221E+01 -0.16925055246E+01  0.12902377696E+02  0.16087623906E+02  0.00000000000E+00 0.  1.
</event>
<event>
 7    1  0.3054835E-011  0.5052886E+02  0.7816164E-02  0.1300439E+00
        -11   -1    0    0    0    0  0.00000000000E+00  0.00000000000E+00  0.45593999997E+02  0.45594000000E+02  0.51100000000E-03 0. -1.
         11   -1    0    0    0    0 -0.00000000000E+00 -0.00000000000E+00 -0.45593999997E+02  0.45594000000E+02  0.51100000000E-03 0.  1.
    9900012    2    1    2    0    0  0.34411851744E+02  0.97790112978E+01 -0.19322545218E+02  0.50528863805E+02  0.30000012022E+02 0.  0.
         12    1    1    2    0    0 -0.34411851744E+02 -0.97790112978E+01  0.19322545218E+02  0.40659136195E+02  0.00000000000E+00 0. -1.
         11    1    3    3    0    0  0.11060343344E+01 -0.33354748742E+01  0.53732469455E+01  0.64203183397E+01  0.51100000000E-03 0. -1.
        -11    1    3    3    0    0  0.52581065779E+01  0.52164304556E+01 -0.51810172856E+01  0.90389032442E+01  0.51100000000E-03 0.  1.
         12    1    3    3    0    0  0.28047710832E+02  0.78980557164E+01 -0.19514774878E+02  0.35069642221E+02  0.00000000000E+00 0. -1.
</event>
<event>
 7    1  0.3054835E-011  0.5052886E+02  0.7816164E-02  0.1300439E+00
        -11   -1    0    0    0    0  0.00000000000E+00  0.00000000000E+00  0.45593999997E+02  0.45594000000E+02  0.51100000000E-03 0.  1.
         11   -1    0    0    0    0 -0.00000000000E+00 -0.00000000000E+00 -0.45593999997E+02  0.45594000000E+02  0.51100000000E-03 0. -1.
    9900012    2    1    2    0    0 -0.14931732651E+02 -0.13153324239E+02  0.35457000421E+02  0.50528862560E+02  0.30000008238E+02 0.  0.
         12    1    1    2    0    0  0.14931732651E+02  0.13153324239E+02 -0.35457000421E+02  0.40659137440E+02  0.00000000000E+00 0. -1.
         11    1    3    3    0    0 -0.69722617278E+01  0.38451537239E+01 -0.14144676428E+01  0.80869252337E+01  0.51100000000E-03 0. -1.
        -11    1    3    3    0    0 -0.55049927864E+01 -0.52756599433E+01  0.22370935270E+02  0.23634641493E+02  0.51100000000E-03 0.  1.
         12    1    3    3    0    0 -0.24544781365E+01 -0.11722818019E+02  0.14500532795E+02  0.18807295833E+02  0.00000000000E+00 0. -1.
</event>
<event>
 7    1  0.3054835E-011  0.5052886E+02  0.7816164E-02  0.1300439E+00
        -11   -1    0    0    0    0  0.00000000000E+00  0.00000000000E+00  0.45593999997E+02  0.45594000000E+02  0.51100000000E-03 0.  1.
         11   -1    0    0    0    0 -0.00000000000E+00 -0.00000000000E+00 -0.45593999997E+02  0.45594000000E+02  0.51100000000E-03 0. -1.
    9900012    2    1    2    0    0  0.31274857421E+02  0.21762073958E+02  0.14193701509E+02  0.50528859181E+02  0.29999997965E+02 0.  0.
         12    1    1    2    0    0 -0.31274857421E+02 -0.21762073958E+02 -0.14193701509E+02  0.40659140819E+02  0.00000000000E+00 0. -1.
         11    1    3    3    0    0  0.19056542665E+02  0.13784425564E+02  0.78471559392E+01  0.24793952147E+02  0.51100000000E-03 0. -1.
        -11    1    3    3    0    0  0.11958485288E+02 -0.30912204196E+01 -0.10866226863E+01  0.12399264623E+02  0.51100000000E-03 0.  1.
         12    1    3    3    0    0  0.25982946708E+00  0.11068868814E+02  0.74331682561E+01  0.13335642410E+02  0.00000000000E+00 0. -1.
</event>
<event>
 7    1  0.3054835E-011  0.5052886E+02  0.7816164E-02  0.1300439E+00
        -11   -1    0    0    0    0  0.00000000000E+00  0.00000000000E+00  0.45593999997E+02  0.45594000000E+02  0.51100000000E-03 0.  1.
         11   -1    0    0    0    0 -0.00000000000E+00 -0.00000000000E+00 -0.45593999997E+02  0.45594000000E+02  0.51100000000E-03 0. -1.
    9900012    2    1    2    0    0  0.11328518014E+02 -0.10114952930E+02  0.37716280278E+02  0.50528863374E+02  0.30000010713E+02 0.  0.
         12    1    1    2    0    0 -0.11328518014E+02  0.10114952930E+02 -0.37716280278E+02  0.40659136626E+02  0.00000000000E+00 0. -1.
         11    1    3    3    0    0  0.88630436462E+01  0.16318726024E+01  0.30236531726E+02  0.31550980998E+02  0.51100000000E-03 0. -1.
        -11    1    3    3    0    0  0.23524293373E+01 -0.14456870546E+02  0.56154204857E+01  0.15686554028E+02  0.51100000000E-03 0.  1.
         12    1    3    3    0    0  0.11304503074E+00  0.27100450144E+01  0.18643280657E+01  0.32913283482E+01  0.00000000000E+00 0. -1.
</event>
<event>
 7    1  0.3054835E-011  0.5052887E+02  0.7816164E-02  0.1300439E+00
        -11   -1    0    0    0    0  0.00000000000E+00  0.00000000000E+00  0.45593999997E+02  0.45594000000E+02  0.51100000000E-03 0. -1.
         11   -1    0    0    0    0 -0.00000000000E+00 -0.00000000000E+00 -0.45593999997E+02  0.45594000000E+02  0.51100000000E-03 0.  1.
    9900012    2    1    2    0    0 -0.23107097727E+02 -0.24248340202E+02 -0.23048748341E+02  0.50528871037E+02  0.30000034005E+02 0.  0.
         12    1    1    2    0    0  0.23107097727E+02  0.24248340202E+02  0.23048748341E+02  0.40659128963E+02  0.00000000000E+00 0. -1.
         11    1    3    3    0    0 -0.24434805068E+02 -0.19373612755E+02 -0.11249796122E+02  0.33150482394E+02  0.51100000000E-03 0.  1.
        -11    1    3    3    0    0  0.13892626452E+01  0.38119353140E+01 -0.41532657645E+01  0.58060759819E+01  0.51100000000E-03 0. -1.
         12    1    3    3    0    0 -0.61555304381E-01 -0.86866627610E+01 -0.76456864542E+01  0.11572312661E+02  0.00000000000E+00 0. -1.
</event>
<event>
 7    1  0.3054835E-011  0.5052886E+02  0.7816164E-02  0.1300439E+00
        -11   -1    0    0    0    0  0.00000000000E+00  0.00000000000E+00  0.45593999997E+02  0.45594000000E+02  0.51100000000E-03 0.  1.
         11   -1    0    0    0    0 -0.00000000000E+00 -0.00000000000E+00 -0.45593999997E+02  0.45594000000E+02  0.51100000000E-03 0. -1.
    9900012    2    1    2    0    0 -0.19506703847E+02 -0.15144959762E+01  0.35642111852E+02  0.50528864122E+02  0.30000012987E+02 0.  0.
         12    1    1    2    0    0  0.19506703847E+02  0.15144959762E+01 -0.35642111852E+02  0.40659135878E+02  0.00000000000E+00 0. -1.
         11    1    3    3    0    0 -0.40226261760E+00  0.11102665125E+02  0.58616335007E+01  0.12561438439E+02  0.51100000000E-03 0. -1.
        -11    1    3    3    0    0 -0.65331277747E+01 -0.42100155866E+01  0.14596905982E+02  0.16537099331E+02  0.51100000000E-03 0.  1.
         12    1    3    3    0    0 -0.12571313455E+02 -0.84071455151E+01  0.15183572369E+02  0.21430326352E+02  0.00000000000E+00 0. -1.
</event>
<event>
 7    1  0.3054835E-011  0.5052888E+02  0.7816164E-02  0.1300439E+00
        -11   -1    0    0    0    0  0.00000000000E+00  0.00000000000E+00  0.45593999997E+02  0.45594000000E+02  0.51100000000E-03 0.  1.
         11   -1    0    0    0    0 -0.00000000000E+00 -0.00000000000E+00 -0.45593999997E+02  0.45594000000E+02  0.51100000000E-03 0. -1.
    9900012    2    1    2    0    0 -0.95766885047E+01 -0.10525870612E+02  0.38087487907E+02  0.50528884786E+02  0.30000075797E+02 0.  0.
         12    1    1    2    0    0  0.95766885047E+01  0.10525870612E+02 -0.38087487907E+02  0.40659115214E+02  0.00000000000E+00 0. -1.
         11    1    3    3    0    0 -0.11557774627E+01  0.10352927924E+01 -0.31863104377E+01  0.35440410799E+01  0.51100000000E-03 0. -1.
        -11    1    3    3    0    0 -0.95187371821E+00 -0.84014431503E+01  0.36726238755E+02  0.37686959600E+02  0.51100000000E-03 0.  1.
         12    1    3    3    0    0 -0.74690373238E+01 -0.31597202541E+01  0.45475595905E+01  0.92978841065E+01  0.00000000000E+00 0. -1.
</event>
<event>
 7    1  0.3054835E-011  0.5052885E+02  0.7816164E-02  0.1300439E+00
        -11   -1    0    0    0    0  0.00000000000E+00  0.00000000000E+00  0.45593999997E+02  0.45594000000E+02  0.51100000000E-03 0.  1.
         11   -1    0    0    0    0 -0.00000000000E+00 -0.00000000000E+00 -0.45593999997E+02  0.45594000000E+02  0.51100000000E-03 0. -1.
    9900012    2    1    2    0    0  0.21879364459E+02  0.31514592615E+02 -0.13464401079E+02  0.50528853019E+02  0.29999979235E+02 0.  0.
         12    1    1    2    0    0 -0.21879364459E+02 -0.31514592615E+02  0.13464401079E+02  0.40659146981E+02  0.00000000000E+00 0. -1.
         11    1    3    3    0    0  0.60630539985E+01  0.25919689624E+01  0.10249683427E+01  0.66730418293E+01  0.51100000000E-03 0. -1.
        -11    1    3    3    0    0  0.10288731750E+02  0.28457459044E+02 -0.19811232466E+02  0.36168631552E+02  0.51100000000E-03 0.  1.
        -12    1    3    3    0    0  0.55275787110E+01  0.46516460866E+00  0.53218630437E+01  0.76871796373E+01  0.00000000000E+00 0.  1.
</event>
<event>
 7    1  0.3054835E-011  0.5052885E+02  0.7816164E-02  0.1300439E+00
        -11   -1    0    0    0    0  0.00000000000E+00  0.00000000000E+00  0.45593999997E+02  0.45594000000E+02  0.51100000000E-03 0. -1.
         11   -1    0    0    0    0 -0.00000000000E+00 -0.00000000000E+00 -0.45593999997E+02  0.45594000000E+02  0.51100000000E-03 0.  1.
    9900012    2    1    2    0    0  0.44854245068E+01 -0.74135719138E+01 -0.39725131295E+02  0.50528854191E+02  0.29999982798E+02 0.  0.
         12    1    1    2    0    0 -0.44854245068E+01  0.74135719138E+01  0.39725131295E+02  0.40659145809E+02  0.00000000000E+00 0. -1.
         11    1    3    3    0    0 -0.80683458655E+01 -0.57195124398E+01 -0.44252605402E+01  0.10834849268E+02  0.51100000000E-03 0. -1.
        -11    1    3    3    0    0  0.51001462594E+01 -0.20317756870E+01 -0.30107232876E+02  0.30603677491E+02  0.51100000000E-03 0.  1.
        -12    1    3    3    0    0  0.74536241128E+01  0.33771621302E+00 -0.51926378793E+01  0.90903274310E+01  0.00000000000E+00 0.  1.
</event>
<event>
 7    1  0.3054835E-011  0.5052886E+02  0.7816164E-02  0.1300439E+00
        -11   -1    0    0    0    0  0.00000000000E+00  0.00000000000E+00  0.45593999997E+02  0.45594000000E+02  0.51100000000E-03 0. -1.
         11   -1    0    0    0    0 -0.00000000000E+00 -0.00000000000E+00 -0.45593999997E+02  0.45594000000E+02  0.51100000000E-03 0.  1.
    9900012    2    1    2    0    0 -0.25986801025E+02  0.25760502322E+02 -0.17727060007E+02  0.50528856331E+02  0.29999989305E+02 0.  0.
         12    1    1    2    0    0  0.25986801025E+02 -0.25760502322E+02  0.17727060007E+02  0.40659143669E+02  0.00000000000E+00 0. -1.
         11    1    3    3    0    0 -0.64214448286E+01  0.12773667832E+02  0.68575039410E+01  0.15856446768E+02  0.51100000000E-03 0. -1.
        -11    1    3    3    0    0 -0.12597798656E+02  0.11282195964E+02 -0.19852945000E+02  0.26079338607E+02  0.51100000000E-03 0.  1.
         12    1    3    3    0    0 -0.69675575408E+01  0.17046385264E+01 -0.47316189479E+01  0.85930709562E+01  0.00000000000E+00 0. -1.
</event>
<event>
 7    1  0.3054835E-011  0.5052886E+02  0.7816164E-02  0.1300439E+00
        -11   -1    0    0    0    0  0.00000000000E+00  0.00000000000E+00  0.45593999997E+02  0.45594000000E+02  0.51100000000E-03 0. -1.
         11   -1    0    0    0    0 -0.00000000000E+00 -0.00000000000E+00 -0.45593999997E+02  0.45594000000E+02  0.51100000000E-03 0.  1.
    9900012    2    1    2    0    0  0.23145537275E+02 -0.28313798604E+02  0.17770158120E+02  0.50528860723E+02  0.30000002654E+02 0.  0.
         12    1    1    2    0    0 -0.23145537275E+02  0.28313798604E+02 -0.17770158120E+02  0.40659139277E+02  0.00000000000E+00 0. -1.
         11    1    3    3    0    0  0.79029542379E+01  0.33963578362E-01  0.15847392706E+02  0.17708689818E+02  0.51100000000E-03 0. -1.
        -11    1    3    3    0    0  0.68589870129E+01 -0.17285677157E+02  0.32433471474E+01  0.18877490262E+02  0.51100000000E-03 0.  1.
         12    1    3    3    0    0  0.83835960241E+01 -0.11062085026E+02 -0.13205817338E+01  0.13942680644E+02  0.00000000000E+00 0. -1.
</event>
<event>
 7    1  0.3054835E-011  0.5052886E+02  0.7816164E-02  0.1300439E+00
        -11   -1    0    0    0    0  0.00000000000E+00  0.00000000000E+00  0.45593999997E+02  0.45594000000E+02  0.51100000000E-03 0. -1.
         11   -1    0    0    0    0 -0.00000000000E+00 -0.00000000000E+00 -0.45593999997E+02  0.45594000000E+02  0.51100000000E-03 0.  1.
    9900012    2    1    2    0    0 -0.35336451856E+02  0.95798417720E+01 -0.17684106620E+02  0.50528858037E+02  0.29999994490E+02 0.  0.
         12    1    1    2    0    0  0.35336451856E+02 -0.95798417720E+01  0.17684106620E+02  0.40659141963E+02  0.00000000000E+00 0. -1.
         11    1    3    3    0    0 -0.20636417304E+02  0.24228173828E+01 -0.16781105385E+02  0.26708374369E+02  0.51100000000E-03 0.  1.
        -11    1    3    3    0    0 -0.85701551985E+01 -0.17506552684E+01  0.63422791609E+01  0.10804483292E+02  0.51100000000E-03 0. -1.
         12    1    3    3    0    0 -0.61298793536E+01  0.89076796577E+01 -0.72452803966E+01  0.13016000376E+02  0.00000000000E+00 0. -1.
</event>
<event>
 7    1  0.3054835E-011  0.5052885E+02  0.7816164E-02  0.1300439E+00
        -11   -1    0    0    0    0  0.00000000000E+00  0.00000000000E+00  0.45593999997E+02  0.45594000000E+02  0.51100000000E-03 0. -1.
         11   -1    0    0    0    0 -0.00000000000E+00 -0.00000000000E+00 -0.45593999997E+02  0.45594000000E+02  0.51100000000E-03 0.  1.
    9900012    2    1    2    0    0 -0.20278991697E+02  0.19561941583E+02 -0.29313133351E+02  0.50528845439E+02  0.29999956197E+02 0.  0.
         12    1    1    2    0    0  0.20278991697E+02 -0.19561941583E+02  0.29313133351E+02  0.40659154561E+02  0.00000000000E+00 0. -1.
         11    1    3    3    0    0 -0.25539304526E+01  0.11915851387E+02 -0.64834327325E+01  0.13803802928E+02  0.51100000000E-03 0.  1.
        -11    1    3    3    0    0 -0.47529689519E+01 -0.64484724877E+01 -0.12806663724E+02  0.15105765366E+02  0.51100000000E-03 0. -1.
         12    1    3    3    0    0 -0.12972092293E+02  0.14094562684E+02 -0.10023036895E+02  0.21619277145E+02  0.00000000000E+00 0. -1.
</event>
<event>
 7    1  0.3054835E-011  0.5052885E+02  0.7816164E-02  0.1300439E+00
        -11   -1    0    0    0    0  0.00000000000E+00  0.00000000000E+00  0.45593999997E+02  0.45594000000E+02  0.51100000000E-03 0.  1.
         11   -1    0    0    0    0 -0.00000000000E+00 -0.00000000000E+00 -0.45593999997E+02  0.45594000000E+02  0.51100000000E-03 0. -1.
    9900012    2    1    2    0    0  0.20710402529E+02 -0.23258010509E+02  0.26140206937E+02  0.50528852881E+02  0.29999978816E+02 0.  0.
         12    1    1    2    0    0 -0.20710402529E+02  0.23258010509E+02 -0.26140206937E+02  0.40659147119E+02  0.00000000000E+00 0. -1.
         11    1    3    3    0    0 -0.49284618316E+01 -0.65257410722E+01 -0.12831455378E+01  0.82777711553E+01  0.51100000000E-03 0. -1.
        -11    1    3    3    0    0  0.20807227021E+02 -0.15566798225E+02  0.26648062055E+02  0.37220761879E+02  0.51100000000E-03 0.  1.
        -12    1    3    3    0    0  0.48316373396E+01 -0.11654712119E+01  0.77529042005E+00  0.50303198469E+01  0.00000000000E+00 0.  1.
</event>
<event>
 7    1  0.3054835E-011  0.5052887E+02  0.7816164E-02  0.1300439E+00
        -11   -1    0    0    0    0  0.00000000000E+00  0.00000000000E+00  0.45593999997E+02  0.45594000000E+02  0.51100000000E-03 0. -1.
         11   -1    0    0    0    0 -0.00000000000E+00 -0.00000000000E+00 -0.45593999997E+02  0.45594000000E+02  0.51100000000E-03 0.  1.
    9900012    2    1    2    0    0  0.59276612426E+00 -0.12349250493E+02 -0.38733833522E+02  0.50528865495E+02  0.30000017158E+02 0.  0.
         12    1    1    2    0    0 -0.59276612426E+00  0.12349250493E+02  0.38733833522E+02  0.40659134505E+02  0.00000000000E+00 0. -1.
         11    1    3    3    0    0  0.96203124936E+01  0.30258860149E+01 -0.45461268740E+01  0.11062263261E+02  0.51100000000E-03 0. -1.
        -11    1    3    3    0    0 -0.35293299352E+01 -0.95682193113E+01 -0.26412094810E+02  0.28312642814E+02  0.51100000000E-03 0.  1.
         12    1    3    3    0    0 -0.54982164341E+01 -0.58069171964E+01 -0.77756118377E+01  0.11153959420E+02  0.00000000000E+00 0. -1.
</event>
<event>
 7    1  0.3054835E-011  0.5052885E+02  0.7816164E-02  0.1300439E+00
        -11   -1    0    0    0    0  0.00000000000E+00  0.00000000000E+00  0.45593999997E+02  0.45594000000E+02  0.51100000000E-03 0. -1.
         11   -1    0    0    0    0 -0.00000000000E+00 -0.00000000000E+00 -0.45593999997E+02  0.45594000000E+02  0.51100000000E-03 0.  1.
    9900012    2    1    2    0    0 -0.26533231848E+02 -0.30344214141E+02 -0.53275244923E+01  0.50528852919E+02  0.29999978931E+02 0.  0.
         12    1    1    2    0    0  0.26533231848E+02  0.30344214141E+02  0.53275244923E+01  0.40659147081E+02  0.00000000000E+00 0. -1.
         11    1    3    3    0    0 -0.21210463595E+02 -0.58750310653E+01 -0.34724803521E+01  0.22281334699E+02  0.51100000000E-03 0. -1.
        -11    1    3    3    0    0 -0.36274308320E+01 -0.21523670263E+02 -0.62382031232E+01  0.22701141260E+02  0.51100000000E-03 0.  1.
         12    1    3    3    0    0 -0.16953374216E+01 -0.29455128124E+01  0.43831589829E+01  0.55463769590E+01  0.00000000000E+00 0. -1.
</event>
<event>
 7    1  0.3054835E-011  0.5052884E+02  0.7816164E-02  0.1300439E+00
        -11   -1    0    0    0    0  0.00000000000E+00  0.00000000000E+00  0.45593999997E+02  0.45594000000E+02  0.51100000000E-03 0. -1.
         11   -1    0    0    0    0 -0.00000000000E+00 -0.00000000000E+00 -0.45593999997E+02  0.45594000000E+02  0.51100000000E-03 0.  1.
    9900012    2    1    2    0    0 -0.39955833494E+02 -0.75239817775E+01  0.29720504785E+00  0.50528840358E+02  0.29999940751E+02 0.  0.
         12    1    1    2    0    0  0.39955833494E+02  0.75239817775E+01 -0.29720504785E+00  0.40659159642E+02  0.00000000000E+00 0. -1.
         11    1    3    3    0    0 -0.13788408672E+02  0.76977991435E+01 -0.51285570054E+00  0.15799979322E+02  0.51100000000E-03 0.  1.
        -11    1    3    3    0    0 -0.23824176363E+02 -0.16819091587E+02 -0.37047817882E+01  0.29397255477E+02  0.51100000000E-03 0. -1.
         12    1    3    3    0    0 -0.23432484592E+01  0.15973106663E+01  0.45148425366E+01  0.53316055590E+01  0.00000000000E+00 0. -1.
</event>
<event>
 7    1  0.3054835E-011  0.5052885E+02  0.7816164E-02  0.1300439E+00
        -11   -1    0    0    0    0  0.00000000000E+00  0.00000000000E+00  0.45593999997E+02  0.45594000000E+02  0.51100000000E-03 0.  1.
         11   -1    0    0    0    0 -0.00000000000E+00 -0.00000000000E+00 -0.45593999997E+02  0.45594000000E+02  0.51100000000E-03 0. -1.
    9900012    2    1    2    0    0  0.27042611516E+02  0.24136599459E+02  0.18419778662E+02  0.50528849529E+02  0.29999968629E+02 0.  0.
         12    1    1    2    0    0 -0.27042611516E+02 -0.24136599459E+02 -0.18419778662E+02  0.40659150471E+02  0.00000000000E+00 0. -1.
         11    1    3    3    0    0  0.20666298157E+01  0.21574058629E+02  0.91600576325E+01  0.23529080318E+02  0.51100000000E-03 0. -1.
        -11    1    3    3    0    0  0.13320793251E+02  0.18813163846E+00  0.63309728089E+01  0.14749920112E+02  0.51100000000E-03 0.  1.
         12    1    3    3    0    0  0.11655188449E+02  0.23744091911E+01  0.29287482205E+01  0.12249849098E+02  0.00000000000E+00 0. -1.
</event>
<event>
 7    1  0.3054835E-011  0.5052886E+02  0.7816164E-02  0.1300439E+00
        -11   -1    0    0    0    0  0.00000000000E+00  0.00000000000E+00  0.45593999997E+02  0.45594000000E+02  0.51100000000E-03 0.  1.
         11   -1    0    0    0    0 -0.00000000000E+00 -0.00000000000E+00 -0.45593999997E+02  0.45594000000E+02  0.51100000000E-03 0. -1.
    9900012    2    1    2    0    0  0.24997382002E+02 -0.30877469360E+02  0.86532129394E+01  0.50528864308E+02  0.30000013551E+02 0.  0.
         12    1    1    2    0    0 -0.24997382002E+02  0.30877469360E+02 -0.86532129394E+01  0.40659135692E+02  0.00000000000E+00 0. -1.
         11    1    3    3    0    0  0.16150254452E+02 -0.84964068706E+01  0.10845311015E+02  0.21228292909E+02  0.51100000000E-03 0. -1.
        -11    1    3    3    0    0 -0.38011821057E+01 -0.31827827225E+01 -0.38111815382E+01  0.62533348093E+01  0.51100000000E-03 0.  1.
        -12    1    3    3    0    0  0.12648309655E+02 -0.19198279767E+02  0.16190834624E+01  0.23047236589E+02  0.00000000000E+00 0.  1.
</event>
<event>
 7    1  0.3054835E-011  0.5052886E+02  0.7816164E-02  0.1300439E+00
        -11   -1    0    0    0    0  0.00000000000E+00  0.00000000000E+00  0.45593999997E+02  0.45594000000E+02  0.51100000000E-03 0.  1.
         11   -1    0    0    0    0 -0.00000000000E+00 -0.00000000000E+00 -0.45593999997E+02  0.45594000000E+02  0.51100000000E-03 0. -1.
    9900012    2    1    2    0    0 -0.36022760675E+02  0.17872709032E+01  0.18770516491E+02  0.50528856954E+02  0.29999991197E+02 0.  0.
         12    1    1    2    0    0  0.36022760675E+02 -0.17872709032E+01 -0.18770516491E+02  0.40659143046E+02  0.00000000000E+00 0. -1.
         11    1    3    3    0    0 -0.45091031679E+01 -0.77438266484E+01 -0.12022769123E+01  0.90412572452E+01  0.51100000000E-03 0. -1.
        -11    1    3    3    0    0 -0.24656344094E+02  0.10162884334E+02  0.82921202542E+01  0.27928100198E+02  0.51100000000E-03 0.  1.
        -12    1    3    3    0    0 -0.68573134126E+01 -0.63178678244E+00  0.11680673149E+02  0.13559499511E+02  0.00000000000E+00 0.  1.
</event>
<event>
 7    1  0.3054835E-011  0.5052886E+02  0.7816164E-02  0.1300439E+00
        -11   -1    0    0    0    0  0.00000000000E+00  0.00000000000E+00  0.45593999997E+02  0.45594000000E+02  0.51100000000E-03 0.  1.
         11   -1    0    0    0    0 -0.00000000000E+00 -0.00000000000E+00 -0.45593999997E+02  0.45594000000E+02  0.51100000000E-03 0. -1.
    9900012    2    1    2    0    0 -0.39079223525E+02  0.13574793941E+01  0.11141693894E+02  0.50528858292E+02  0.29999995263E+02 0.  0.
         12    1    1    2    0    0  0.39079223525E+02 -0.13574793941E+01 -0.11141693894E+02  0.40659141708E+02  0.00000000000E+00 0. -1.
         11    1    3    3    0    0 -0.80872500462E+01  0.84689337507E+01 -0.44273881247E+01  0.12519114108E+02  0.51100000000E-03 0. -1.
        -11    1    3    3    0    0 -0.91241215703E+01 -0.55840515494E+01  0.11514658137E+02  0.15716824692E+02  0.51100000000E-03 0.  1.
         12    1    3    3    0    0 -0.21867851909E+02 -0.15274028071E+01  0.40544238824E+01  0.22292919491E+02  0.00000000000E+00 0. -1.
</event>
<event>
 7    1  0.3054835E-011  0.5052882E+02  0.7816164E-02  0.1300439E+00
        -11   -1    0    0    0    0  0.00000000000E+00  0.00000000000E+00  0.45593999997E+02  0.45594000000E+02  0.51100000000E-03 0.  1.
         11   -1    0    0    0    0 -0.00000000000E+00 -0.00000000000E+00 -0.45593999997E+02  0.45594000000E+02  0.51100000000E-03 0. -1.
    9900012    2    1    2    0    0  0.75724951213E+01 -0.21452781519E+02 -0.33698724943E+02  0.50528824159E+02  0.29999891514E+02 0.  0.
         12    1    1    2    0    0 -0.75724951213E+01  0.21452781519E+02  0.33698724943E+02  0.40659175841E+02  0.00000000000E+00 0. -1.
         11    1    3    3    0    0  0.12759784721E+02 -0.23077855376E+02 -0.32605307620E+02  0.41934539465E+02  0.51100000000E-03 0. -1.
        -11    1    3    3    0    0 -0.17100556459E+01  0.34296737307E+01  0.12478262656E+01  0.40303874331E+01  0.51100000000E-03 0.  1.
         12    1    3    3    0    0 -0.34772339534E+01 -0.18045998736E+01 -0.23412435888E+01  0.45638972614E+01  0.00000000000E+00 0. -1.
</event>
<event>
 7    1  0.3054835E-011  0.5052886E+02  0.7816164E-02  0.1300439E+00
        -11   -1    0    0    0    0  0.00000000000E+00  0.00000000000E+00  0.45593999997E+02  0.45594000000E+02  0.51100000000E-03 0. -1.
         11   -1    0    0    0    0 -0.00000000000E+00 -0.00000000000E+00 -0.45593999997E+02  0.45594000000E+02  0.51100000000E-03 0.  1.
    9900012    2    1    2    0    0 -0.13272752941E+02  0.26396546661E+02 -0.27932458115E+02  0.50528857576E+02  0.29999993089E+02 0.  0.
         12    1    1    2    0    0  0.13272752941E+02 -0.26396546661E+02  0.27932458115E+02  0.40659142424E+02  0.00000000000E+00 0. -1.
         11    1    3    3    0    0  0.32393536219E+01  0.85449057860E+01 -0.34534740715E+01  0.97690997642E+01  0.51100000000E-03 0. -1.
        -11    1    3    3    0    0 -0.51107319675E+01  0.32701018292E+01 -0.21085972291E+02  0.21941544497E+02  0.51100000000E-03 0.  1.
        -12    1    3    3    0    0 -0.11401374595E+02  0.14581539046E+02 -0.33930117529E+01  0.18818213315E+02  0.00000000000E+00 0.  1.
</event>
<event>
 7    1  0.3054835E-011  0.5052885E+02  0.7816164E-02  0.1300439E+00
        -11   -1    0    0    0    0  0.00000000000E+00  0.00000000000E+00  0.45593999997E+02  0.45594000000E+02  0.51100000000E-03 0. -1.
         11   -1    0    0    0    0 -0.00000000000E+00 -0.00000000000E+00 -0.45593999997E+02  0.45594000000E+02  0.51100000000E-03 0.  1.
    9900012    2    1    2    0    0  0.36355437026E+02 -0.16093729519E+02 -0.85111825569E+01  0.50528853923E+02  0.29999981985E+02 0.  0.
         12    1    1    2    0    0 -0.36355437026E+02  0.16093729519E+02  0.85111825569E+01  0.40659146077E+02  0.00000000000E+00 0. -1.
         11    1    3    3    0    0 -0.36381970743E+01 -0.50820720386E+01  0.30412587231E+01  0.69507689530E+01  0.51100000000E-03 0. -1.
        -11    1    3    3    0    0  0.18330376093E+02 -0.75522973697E+01 -0.78859428689E+01  0.21336072236E+02  0.51100000000E-03 0.  1.
         12    1    3    3    0    0  0.21663258007E+02 -0.34593601111E+01 -0.36664984111E+01  0.22242012734E+02  0.00000000000E+00 0. -1.
</event>
<event>
 7    1  0.3054835E-011  0.5052884E+02  0.7816164E-02  0.1300439E+00
        -11   -1    0    0    0    0  0.00000000000E+00  0.00000000000E+00  0.45593999997E+02  0.45594000000E+02  0.51100000000E-03 0.  1.
         11   -1    0    0    0    0 -0.00000000000E+00 -0.00000000000E+00 -0.45593999997E+02  0.45594000000E+02  0.51100000000E-03 0. -1.
    9900012    2    1    2    0    0 -0.32667561220E+02  0.16826015998E+01  0.24148846990E+02  0.50528837255E+02  0.29999931319E+02 0.  0.
         12    1    1    2    0    0  0.32667561220E+02 -0.16826015998E+01 -0.24148846990E+02  0.40659162745E+02  0.00000000000E+00 0. -1.
         11    1    3    3    0    0 -0.17766638804E+02 -0.29239935249E+01  0.49963797760E+01  0.18686010908E+02  0.51100000000E-03 0. -1.
        -11    1    3    3    0    0 -0.60585632867E+01  0.58455547696E+01  0.21088274760E+02  0.22706651719E+02  0.51100000000E-03 0.  1.
         12    1    3    3    0    0 -0.88423591297E+01 -0.12389596449E+01 -0.19358075461E+01  0.91361746281E+01  0.00000000000E+00 0. -1.
</event>
<event>
 7    1  0.3054835E-011  0.5052884E+02  0.7816164E-02  0.1300439E+00
        -11   -1    0    0    0    0  0.00000000000E+00  0.00000000000E+00  0.45593999997E+02  0.45594000000E+02  0.51100000000E-03 0.  1.
         11   -1    0    0    0    0 -0.00000000000E+00 -0.00000000000E+00 -0.45593999997E+02  0.45594000000E+02  0.51100000000E-03 0. -1.
    9900012    2    1    2    0    0 -0.19830707133E+02 -0.21439606707E+02  0.28288753207E+02  0.50528840648E+02  0.29999941634E+02 0.  0.
         12    1    1    2    0    0  0.19830707133E+02  0.21439606707E+02 -0.28288753207E+02  0.40659159352E+02  0.00000000000E+00 0. -1.
         11    1    3    3    0    0 -0.20546365821E+01  0.32963038085E+01  0.38735732657E+01  0.54855920727E+01  0.51100000000E-03 0. -1.
        -11    1    3    3    0    0 -0.18968170261E+02 -0.18284030915E+02  0.82658341173E+01  0.27611977174E+02  0.51100000000E-03 0.  1.
        -12    1    3    3    0    0  0.11920997100E+01 -0.64518796008E+01  0.16149345824E+02  0.17431271401E+02  0.00000000000E+00 0.  1.
</event>
<event>
 7    1  0.3054835E-011  0.5052886E+02  0.7816164E-02  0.1300439E+00
        -11   -1    0    0    0    0  0.00000000000E+00  0.00000000000E+00  0.45593999997E+02  0.45594000000E+02  0.51100000000E-03 0.  1.
         11   -1    0    0    0    0 -0.00000000000E+00 -0.00000000000E+00 -0.45593999997E+02  0.45594000000E+02  0.51100000000E-03 0. -1.
    9900012    2    1    2    0    0 -0.19841164115E+01  0.33511053385E+02  0.22939884260E+02  0.50528859493E+02  0.29999998915E+02 0.  0.
         12    1    1    2    0    0  0.19841164115E+01 -0.33511053385E+02 -0.22939884260E+02  0.40659140507E+02  0.00000000000E+00 0. -1.
         11    1    3    3    0    0 -0.27067864559E+01  0.31391981616E+01 -0.63518778294E+01  0.75846957906E+01  0.51100000000E-03 0. -1.
        -11    1    3    3    0    0  0.18046437691E+01  0.26408615156E+02  0.28234178353E+02  0.38701944668E+02  0.51100000000E-03 0.  1.
        -12    1    3    3    0    0 -0.10819737247E+01  0.39632400674E+01  0.10575837366E+01  0.42422190340E+01  0.00000000000E+00 0.  1.
</event>
<event>
 7    1  0.3054835E-011  0.5052886E+02  0.7816164E-02  0.1300439E+00
        -11   -1    0    0    0    0  0.00000000000E+00  0.00000000000E+00  0.45593999997E+02  0.45594000000E+02  0.51100000000E-03 0. -1.
         11   -1    0    0    0    0 -0.00000000000E+00 -0.00000000000E+00 -0.45593999997E+02  0.45594000000E+02  0.51100000000E-03 0.  1.
    9900012    2    1    2    0    0  0.65254424883E+01 -0.91616157042E+01 -0.39072356684E+02  0.50528860083E+02  0.30000000708E+02 0.  0.
         12    1    1    2    0    0 -0.65254424883E+01  0.91616157042E+01  0.39072356684E+02  0.40659139917E+02  0.00000000000E+00 0. -1.
         11    1    3    3    0    0  0.50568519475E+00 -0.96513048740E+01  0.79941228601E+00  0.96975493580E+01  0.51100000000E-03 0. -1.
        -11    1    3    3    0    0  0.44417782138E+01 -0.75825244615E+00 -0.37275183988E+02  0.37546553531E+02  0.51100000000E-03 0.  1.
         12    1    3    3    0    0  0.15779790798E+01  0.12479416160E+01 -0.25965849822E+01  0.32847571939E+01  0.00000000000E+00 0. -1.
</event>
<event>
 7    1  0.3054835E-011  0.5052886E+02  0.7816164E-02  0.1300439E+00
        -11   -1    0    0    0    0  0.00000000000E+00  0.00000000000E+00  0.45593999997E+02  0.45594000000E+02  0.51100000000E-03 0.  1.
         11   -1    0    0    0    0 -0.00000000000E+00 -0.00000000000E+00 -0.45593999997E+02  0.45594000000E+02  0.51100000000E-03 0. -1.
    9900012    2    1    2    0    0  0.31722303267E+02  0.16696364103E+02 -0.19185738008E+02  0.50528860293E+02  0.30000001347E+02 0.  0.
         12    1    1    2    0    0 -0.31722303267E+02 -0.16696364103E+02  0.19185738008E+02  0.40659139707E+02  0.00000000000E+00 0. -1.
         11    1    3    3    0    0  0.71705032702E+01  0.13018237611E+02 -0.47778747936E+01  0.15611493056E+02  0.51100000000E-03 0. -1.
        -11    1    3    3    0    0  0.23620407578E+02 -0.24966932000E+01 -0.60973099143E+01  0.24522118985E+02  0.51100000000E-03 0.  1.
        -12    1    3    3    0    0  0.93139241872E+00  0.61748196918E+01 -0.83105532998E+01  0.10395248252E+02  0.00000000000E+00 0.  1.
</event>
<event>
 7    1  0.3054835E-011  0.5052885E+02  0.7816164E-02  0.1300439E+00
        -11   -1    0    0    0    0  0.00000000000E+00  0.00000000000E+00  0.45593999997E+02  0.45594000000E+02  0.51100000000E-03 0.  1.
         11   -1    0    0    0    0 -0.00000000000E+00 -0.00000000000E+00 -0.45593999997E+02  0.45594000000E+02  0.51100000000E-03 0. -1.
    9900012    2    1    2    0    0  0.99129508235E+01  0.35325865354E+02  0.17520924513E+02  0.50528854007E+02  0.29999982241E+02 0.  0.
         12    1    1    2    0    0 -0.99129508235E+01 -0.35325865354E+02 -0.17520924513E+02  0.40659145993E+02  0.00000000000E+00 0. -1.
         11    1    3    3    0    0  0.13606942968E+01  0.22283730390E+02  0.54527397466E+01  0.22981481677E+02  0.51100000000E-03 0. -1.
        -11    1    3    3    0    0  0.67689284927E+01  0.12390353381E+02  0.17096382437E+02  0.22172630483E+02  0.51100000000E-03 0.  1.
         12    1    3    3    0    0  0.17833280339E+01  0.65178158372E+00 -0.50281976709E+01  0.53747418475E+01  0.00000000000E+00 0. -1.
</event>
<event>
 7    1  0.3054835E-011  0.5052887E+02  0.7816164E-02  0.1300439E+00
        -11   -1    0    0    0    0  0.00000000000E+00  0.00000000000E+00  0.45593999997E+02  0.45594000000E+02  0.51100000000E-03 0.  1.
         11   -1    0    0    0    0 -0.00000000000E+00 -0.00000000000E+00 -0.45593999997E+02  0.45594000000E+02  0.51100000000E-03 0. -1.
    9900012    2    1    2    0    0  0.25792480079E+02 -0.19496391163E+02 -0.24653678627E+02  0.50528866132E+02  0.30000019096E+02 0.  0.
         12    1    1    2    0    0 -0.25792480079E+02  0.19496391163E+02  0.24653678627E+02  0.40659133868E+02  0.00000000000E+00 0. -1.
         11    1    3    3    0    0  0.18071725200E+02  0.85518925481E+00 -0.20443700735E+02  0.27299514655E+02  0.51100000000E-03 0. -1.
        -11    1    3    3    0    0  0.29562280714E+01 -0.11417960095E+02 -0.55162798127E+01  0.13020692776E+02  0.51100000000E-03 0.  1.
         12    1    3    3    0    0  0.47645268076E+01 -0.89336203235E+01  0.13063019207E+01  0.10208658702E+02  0.00000000000E+00 0. -1.
</event>
<event>
 7    1  0.3054835E-011  0.5052885E+02  0.7816164E-02  0.1300439E+00
        -11   -1    0    0    0    0  0.00000000000E+00  0.00000000000E+00  0.45593999997E+02  0.45594000000E+02  0.51100000000E-03 0. -1.
         11   -1    0    0    0    0 -0.00000000000E+00 -0.00000000000E+00 -0.45593999997E+02  0.45594000000E+02  0.51100000000E-03 0.  1.
    9900012    2    1    2    0    0  0.34834326817E+02  0.41599058344E+01 -0.20553134366E+02  0.50528850063E+02  0.29999970250E+02 0.  0.
         12    1    1    2    0    0 -0.34834326817E+02 -0.41599058344E+01  0.20553134366E+02  0.40659149937E+02  0.00000000000E+00 0. -1.
         11    1    3    3    0    0  0.71218931061E+01  0.12475785470E+02 -0.13740489821E+02  0.19878824042E+02  0.51100000000E-03 0. -1.
        -11    1    3    3    0    0  0.91394017157E+01  0.76233092363E+00 -0.28212431331E+01  0.95952709829E+01  0.51100000000E-03 0.  1.
         12    1    3    3    0    0  0.18573031995E+02 -0.90782105595E+01 -0.39914014126E+01  0.21054755038E+02  0.00000000000E+00 0. -1.
</event>
<event>
 7    1  0.3054835E-011  0.5052887E+02  0.7816164E-02  0.1300439E+00
        -11   -1    0    0    0    0  0.00000000000E+00  0.00000000000E+00  0.45593999997E+02  0.45594000000E+02  0.51100000000E-03 0.  1.
         11   -1    0    0    0    0 -0.00000000000E+00 -0.00000000000E+00 -0.45593999997E+02  0.45594000000E+02  0.51100000000E-03 0. -1.
    9900012    2    1    2    0    0  0.49459520806E+01 -0.32648642494E+02  0.23722749676E+02  0.50528866329E+02  0.30000019694E+02 0.  0.
         12    1    1    2    0    0 -0.49459520806E+01  0.32648642494E+02 -0.23722749676E+02  0.40659133671E+02  0.00000000000E+00 0. -1.
         11    1    3    3    0    0 -0.46856877000E+01 -0.82273716398E+01 -0.10172943670E+01  0.95226152612E+01  0.51100000000E-03 0. -1.
        -11    1    3    3    0    0  0.72548440487E+01 -0.26738295064E+02  0.25440700939E+02  0.37613806636E+02  0.51100000000E-03 0.  1.
        -12    1    3    3    0    0  0.23767957320E+01  0.23170242099E+01 -0.70065689603E+00  0.33924444324E+01  0.00000000000E+00 0.  1.
</event>
<event>
 7    1  0.3054835E-011  0.5052886E+02  0.7816164E-02  0.1300439E+00
        -11   -1    0    0    0    0  0.00000000000E+00  0.00000000000E+00  0.45593999997E+02  0.45594000000E+02  0.51100000000E-03 0.  1.
         11   -1    0    0    0    0 -0.00000000000E+00 -0.00000000000E+00 -0.45593999997E+02  0.45594000000E+02  0.51100000000E-03 0. -1.
    9900012    2    1    2    0    0  0.68075497071E+01 -0.19750392859E+01  0.40036512188E+02  0.50528858084E+02  0.29999994632E+02 0.  0.
         12    1    1    2    0    0 -0.68075497071E+01  0.19750392859E+01 -0.40036512188E+02  0.40659141916E+02  0.00000000000E+00 0. -1.
         11    1    3    3    0    0  0.10691491638E+02 -0.15507305544E+01  0.26311471199E+02  0.28443035626E+02  0.51100000000E-03 0. -1.
        -11    1    3    3    0    0  0.67613787444E+00  0.76563232820E+01  0.40782273174E+01  0.87010566563E+01  0.51100000000E-03 0.  1.
         12    1    3    3    0    0 -0.45600798049E+01 -0.80806320135E+01  0.96468136709E+01  0.13384765802E+02  0.00000000000E+00 0. -1.
</event>
<event>
 7    1  0.3054835E-011  0.5052886E+02  0.7816164E-02  0.1300439E+00
        -11   -1    0    0    0    0  0.00000000000E+00  0.00000000000E+00  0.45593999997E+02  0.45594000000E+02  0.51100000000E-03 0.  1.
         11   -1    0    0    0    0 -0.00000000000E+00 -0.00000000000E+00 -0.45593999997E+02  0.45594000000E+02  0.51100000000E-03 0. -1.
    9900012    2    1    2    0    0  0.38875155853E+02 -0.91280114440E+01  0.76529537855E+01  0.50528855431E+02  0.29999986567E+02 0.  0.
         12    1    1    2    0    0 -0.38875155853E+02  0.91280114440E+01 -0.76529537855E+01  0.40659144569E+02  0.00000000000E+00 0. -1.
         11    1    3    3    0    0  0.24931593476E+02  0.27903866141E+01  0.11404988938E+02  0.27558018500E+02  0.51100000000E-03 0. -1.
        -11    1    3    3    0    0  0.25280065190E+01 -0.10739135596E+02 -0.50587158688E+00  0.11044263517E+02  0.51100000000E-03 0.  1.
         12    1    3    3    0    0  0.11415555858E+02 -0.11792624619E+01 -0.32461635657E+01  0.11926573413E+02  0.00000000000E+00 0. -1.
</event>
<event>
 7    1  0.3054835E-011  0.5052886E+02  0.7816164E-02  0.1300439E+00
        -11   -1    0    0    0    0  0.00000000000E+00  0.00000000000E+00  0.45593999997E+02  0.45594000000E+02  0.51100000000E-03 0. -1.
         11   -1    0    0    0    0 -0.00000000000E+00 -0.00000000000E+00 -0.45593999997E+02  0.45594000000E+02  0.51100000000E-03 0.  1.
    9900012    2    1    2    0    0  0.42561520839E+00  0.34987356738E+02 -0.20709162656E+02  0.50528859604E+02  0.29999999253E+02 0.  0.
         12    1    1    2    0    0 -0.42561520839E+00 -0.34987356738E+02  0.20709162656E+02  0.40659140396E+02  0.00000000000E+00 0. -1.
         11    1    3    3    0    0  0.11045531258E+02  0.95972062124E+01 -0.35097382279E+01  0.15047537691E+02  0.51100000000E-03 0. -1.
        -11    1    3    3    0    0 -0.83701052644E+01  0.39230333428E+01 -0.70721830032E+01  0.11638927160E+02  0.51100000000E-03 0.  1.
         12    1    3    3    0    0 -0.22498107857E+01  0.21467117183E+02 -0.10127241425E+02  0.23842394754E+02  0.00000000000E+00 0. -1.
</event>
<event>
 7    1  0.3054835E-011  0.5052886E+02  0.7816164E-02  0.1300439E+00
        -11   -1    0    0    0    0  0.00000000000E+00  0.00000000000E+00  0.45593999997E+02  0.45594000000E+02  0.51100000000E-03 0.  1.
         11   -1    0    0    0    0 -0.00000000000E+00 -0.00000000000E+00 -0.45593999997E+02  0.45594000000E+02  0.51100000000E-03 0. -1.
    9900012    2    1    2    0    0  0.16122159393E+01 -0.18630063273E+01  0.40584422772E+02  0.50528863209E+02  0.30000010211E+02 0.  0.
         12    1    1    2    0    0 -0.16122159393E+01  0.18630063273E+01 -0.40584422772E+02  0.40659136791E+02  0.00000000000E+00 0. -1.
         11    1    3    3    0    0  0.20189005101E+01  0.15618969054E+01 -0.40310049058E+01  0.47712138942E+01  0.51100000000E-03 0. -1.
        -11    1    3    3    0    0 -0.13954877701E+01  0.21783438573E+00  0.52632463827E+00  0.15072676677E+01  0.51100000000E-03 0.  1.
         12    1    3    3    0    0  0.98880319922E+00 -0.36427376184E+01  0.44089103040E+02  0.44250381648E+02  0.00000000000E+00 0. -1.
</event>
<event>
 7    1  0.3054835E-011  0.5052885E+02  0.7816164E-02  0.1300439E+00
        -11   -1    0    0    0    0  0.00000000000E+00  0.00000000000E+00  0.45593999997E+02  0.45594000000E+02  0.51100000000E-03 0.  1.
         11   -1    0    0    0    0 -0.00000000000E+00 -0.00000000000E+00 -0.45593999997E+02  0.45594000000E+02  0.51100000000E-03 0. -1.
    9900012    2    1    2    0    0  0.38929518171E+02 -0.83008146810E+00 -0.11703405154E+02  0.50528854504E+02  0.29999983750E+02 0.  0.
         12    1    1    2    0    0 -0.38929518171E+02  0.83008146810E+00  0.11703405154E+02  0.40659145496E+02  0.00000000000E+00 0. -1.
         11    1    3    3    0    0  0.32243959748E+02 -0.10077632017E+02 -0.75961239966E+01  0.34625607682E+02  0.51100000000E-03 0.  1.
        -11    1    3    3    0    0  0.68951730261E+01  0.74461087495E+01  0.12708485656E+01  0.10227560946E+02  0.51100000000E-03 0. -1.
         12    1    3    3    0    0 -0.20961460353E+00  0.18014417999E+01 -0.53781297229E+01  0.56756858755E+01  0.00000000000E+00 0. -1.
</event>
<event>
 7    1  0.3054835E-011  0.5052886E+02  0.7816164E-02  0.1300439E+00
        -11   -1    0    0    0    0  0.00000000000E+00  0.00000000000E+00  0.45593999997E+02  0.45594000000E+02  0.51100000000E-03 0.  1.
         11   -1    0    0    0    0 -0.00000000000E+00 -0.00000000000E+00 -0.45593999997E+02  0.45594000000E+02  0.51100000000E-03 0. -1.
    9900012    2    1    2    0    0  0.10114212919E+02  0.34929195820E+02  0.18188456792E+02  0.50528856083E+02  0.29999988550E+02 0.  0.
         12    1    1    2    0    0 -0.10114212919E+02 -0.34929195820E+02 -0.18188456792E+02  0.40659143917E+02  0.00000000000E+00 0. -1.
         11    1    3    3    0    0 -0.70036431079E+01  0.53336172290E+01  0.48646949428E+01  0.10058019023E+02  0.51100000000E-03 0. -1.
        -11    1    3    3    0    0  0.93141561218E+01  0.21926642881E+02  0.16615819001E+02  0.29045078991E+02  0.51100000000E-03 0.  1.
        -12    1    3    3    0    0  0.78036999050E+01  0.76689357102E+01 -0.32920571523E+01  0.11425758068E+02  0.00000000000E+00 0.  1.
</event>
<event>
 7    1  0.3054835E-011  0.5052886E+02  0.7816164E-02  0.1300439E+00
        -11   -1    0    0    0    0  0.00000000000E+00  0.00000000000E+00  0.45593999997E+02  0.45594000000E+02  0.51100000000E-03 0. -1.
         11   -1    0    0    0    0 -0.00000000000E+00 -0.00000000000E+00 -0.45593999997E+02  0.45594000000E+02  0.51100000000E-03 0.  1.
    9900012    2    1    2    0    0 -0.11641599511E+02 -0.36865395900E+02 -0.12592900750E+02  0.50528863225E+02  0.30000010258E+02 0.  0.
         12    1    1    2    0    0  0.11641599511E+02  0.36865395900E+02  0.12592900750E+02  0.40659136775E+02  0.00000000000E+00 0. -1.
         11    1    3    3    0    0 -0.89826515500E+01 -0.10518629433E+02 -0.30711254963E+00  0.13835603073E+02  0.51100000000E-03 0. -1.
        -11    1    3    3    0    0 -0.77307732825E+01 -0.15506675318E+02 -0.16576731175E+02  0.23979363037E+02  0.51100000000E-03 0.  1.
        -12    1    3    3    0    0  0.50718253219E+01 -0.10840091150E+02  0.42909429750E+01  0.12713897115E+02  0.00000000000E+00 0.  1.
</event>
<event>
 7    1  0.3054835E-011  0.5052887E+02  0.7816164E-02  0.1300439E+00
        -11   -1    0    0    0    0  0.00000000000E+00  0.00000000000E+00  0.45593999997E+02  0.45594000000E+02  0.51100000000E-03 0.  1.
         11   -1    0    0    0    0 -0.00000000000E+00 -0.00000000000E+00 -0.45593999997E+02  0.45594000000E+02  0.51100000000E-03 0. -1.
    9900012    2    1    2    0    0 -0.10215266776E+00  0.18480265930E+02  0.36216494966E+02  0.50528866074E+02  0.30000018918E+02 0.  0.
         12    1    1    2    0    0  0.10215266776E+00 -0.18480265930E+02 -0.36216494966E+02  0.40659133926E+02  0.00000000000E+00 0. -1.
         11    1    3    3    0    0 -0.29939681249E+01  0.13770203977E+01  0.17012447798E+01  0.37086742066E+01  0.51100000000E-03 0. -1.
        -11    1    3    3    0    0  0.13387186658E+02  0.12223647859E+02  0.28497882472E+02  0.33775192661E+02  0.51100000000E-03 0.  1.
        -12    1    3    3    0    0 -0.10495371201E+02  0.48795976728E+01  0.60173677136E+01  0.13044999206E+02  0.00000000000E+00 0.  1.
</event>
<event>
 7    1  0.3054835E-011  0.5052887E+02  0.7816164E-02  0.1300439E+00
        -11   -1    0    0    0    0  0.00000000000E+00  0.00000000000E+00  0.45593999997E+02  0.45594000000E+02  0.51100000000E-03 0. -1.
         11   -1    0    0    0    0 -0.00000000000E+00 -0.00000000000E+00 -0.45593999997E+02  0.45594000000E+02  0.51100000000E-03 0.  1.
    9900012    2    1    2    0    0 -0.26348649056E+02 -0.21124428750E+02 -0.22642270841E+02  0.50528865406E+02  0.30000016889E+02 0.  0.
         12    1    1    2    0    0  0.26348649056E+02  0.21124428750E+02  0.22642270841E+02  0.40659134594E+02  0.00000000000E+00 0. -1.
         11    1    3    3    0    0 -0.12410413184E+01 -0.12750667587E+01 -0.12941618135E+02  0.13063363235E+02  0.51100000000E-03 0. -1.
        -11    1    3    3    0    0 -0.23506416706E+02 -0.22681311988E+02 -0.10093082210E+02  0.34188650874E+02  0.51100000000E-03 0.  1.
         12    1    3    3    0    0 -0.16011910316E+01  0.28319499969E+01  0.39242950427E+00  0.32768512967E+01  0.00000000000E+00 0. -1.
</event>
<event>
 7    1  0.3054835E-011  0.5052886E+02  0.7816164E-02  0.1300439E+00
        -11   -1    0    0    0    0  0.00000000000E+00  0.00000000000E+00  0.45593999997E+02  0.45594000000E+02  0.51100000000E-03 0.  1.
         11   -1    0    0    0    0 -0.00000000000E+00 -0.00000000000E+00 -0.45593999997E+02  0.45594000000E+02  0.51100000000E-03 0. -1.
    9900012    2    1    2    0    0 -0.27171484309E+02 -0.17899772157E+02  0.24381837102E+02  0.50528863471E+02  0.30000011006E+02 0.  0.
         12    1    1    2    0    0  0.27171484309E+02  0.17899772157E+02 -0.24381837102E+02  0.40659136529E+02  0.00000000000E+00 0. -1.
         11    1    3    3    0    0 -0.17691868770E+02  0.29833376248E+01  0.28467469607E+01  0.18166080824E+02  0.51100000000E-03 0. -1.
        -11    1    3    3    0    0 -0.54734097489E+01 -0.16783823252E+02  0.12382091477E+02  0.21563189162E+02  0.51100000000E-03 0.  1.
         12    1    3    3    0    0 -0.40062057895E+01 -0.40992865299E+01  0.91529986651E+01  0.10799593485E+02  0.00000000000E+00 0. -1.
</event>
<event>
 7    1  0.3054835E-011  0.5052871E+02  0.7816164E-02  0.1300439E+00
        -11   -1    0    0    0    0  0.00000000000E+00  0.00000000000E+00  0.45593999997E+02  0.45594000000E+02  0.51100000000E-03 0.  1.
         11   -1    0    0    0    0 -0.00000000000E+00 -0.00000000000E+00 -0.45593999997E+02  0.45594000000E+02  0.51100000000E-03 0. -1.
    9900012    2    1    2    0    0  0.20611034050E+02  0.63880640890E+01  0.34460926743E+02  0.50528713737E+02  0.29999555873E+02 0.  0.
         12    1    1    2    0    0 -0.20611034050E+02 -0.63880640890E+01 -0.34460926743E+02  0.40659286263E+02  0.00000000000E+00 0. -1.
         11    1    3    3    0    0  0.35807194544E+01 -0.61580015701E+01  0.25109592098E+02  0.26100462653E+02  0.51100000000E-03 0. -1.
        -11    1    3    3    0    0  0.11788904387E+02  0.50667734092E+01  0.81878523246E+01  0.15221412069E+02  0.51100000000E-03 0.  1.
         12    1    3    3    0    0  0.52414102092E+01  0.74792922499E+01  0.11634823203E+01  0.92068390151E+01  0.00000000000E+00 0. -1.
</event>
<event>
 7    1  0.3054835E-011  0.5052886E+02  0.7816164E-02  0.1300439E+00
        -11   -1    0    0    0    0  0.00000000000E+00  0.00000000000E+00  0.45593999997E+02  0.45594000000E+02  0.51100000000E-03 0. -1.
         11   -1    0    0    0    0 -0.00000000000E+00 -0.00000000000E+00 -0.45593999997E+02  0.45594000000E+02  0.51100000000E-03 0.  1.
    9900012    2    1    2    0    0 -0.15436419797E+02 -0.36826785921E+02 -0.76596703126E+01  0.50528858755E+02  0.29999996672E+02 0.  0.
         12    1    1    2    0    0  0.15436419797E+02  0.36826785921E+02  0.76596703126E+01  0.40659141245E+02  0.00000000000E+00 0. -1.
         11    1    3    3    0    0 -0.59899649246E+01  0.18252287626E+01 -0.18380321766E+01  0.65260633139E+01  0.51100000000E-03 0. -1.
        -11    1    3    3    0    0  0.34767923585E+01 -0.20211948898E+02 -0.63797852635E+01  0.21478189487E+02  0.51100000000E-03 0.  1.
        -12    1    3    3    0    0 -0.12923247231E+02 -0.18440065786E+02  0.55814712749E+00  0.22524605954E+02  0.00000000000E+00 0.  1.
</event>
<event>
 7    1  0.3054835E-011  0.5052885E+02  0.7816164E-02  0.1300439E+00
        -11   -1    0    0    0    0  0.00000000000E+00  0.00000000000E+00  0.45593999997E+02  0.45594000000E+02  0.51100000000E-03 0.  1.
         11   -1    0    0    0    0 -0.00000000000E+00 -0.00000000000E+00 -0.45593999997E+02  0.45594000000E+02  0.51100000000E-03 0. -1.
    9900012    2    1    2    0    0 -0.31419795037E+02  0.14573710150E+01 -0.25765069106E+02  0.50528852979E+02  0.29999979114E+02 0.  0.
         12    1    1    2    0    0  0.31419795037E+02 -0.14573710150E+01  0.25765069106E+02  0.40659147021E+02  0.00000000000E+00 0. -1.
         11    1    3    3    0    0 -0.84596495098E+00  0.90319869395E+01 -0.33152326147E+01  0.96583234738E+01  0.51100000000E-03 0. -1.
        -11    1    3    3    0    0 -0.12031206078E+02 -0.96754334293E+01 -0.90411850833E+01  0.17891533185E+02  0.51100000000E-03 0.  1.
         12    1    3    3    0    0 -0.18542624009E+02  0.21008175048E+01 -0.13408651408E+02  0.22978996320E+02  0.00000000000E+00 0. -1.
</event>
<event>
 7    1  0.3054835E-011  0.5052884E+02  0.7816164E-02  0.1300439E+00
        -11   -1    0    0    0    0  0.00000000000E+00  0.00000000000E+00  0.45593999997E+02  0.45594000000E+02  0.51100000000E-03 0.  1.
         11   -1    0    0    0    0 -0.00000000000E+00 -0.00000000000E+00 -0.45593999997E+02  0.45594000000E+02  0.51100000000E-03 0. -1.
    9900012    2    1    2    0    0  0.32854451876E+02 -0.20063950973E+02  0.13083957877E+02  0.50528842478E+02  0.29999947195E+02 0.  0.
         12    1    1    2    0    0 -0.32854451876E+02  0.20063950973E+02 -0.13083957877E+02  0.40659157522E+02  0.00000000000E+00 0. -1.
         11    1    3    3    0    0 -0.51140129651E+01 -0.40154055014E+01  0.33252217661E+01  0.73029932221E+01  0.51100000000E-03 0. -1.
        -11    1    3    3    0    0  0.18183316773E+02 -0.40696968511E+01  0.16064770813E+01  0.18702304943E+02  0.51100000000E-03 0.  1.
         12    1    3    3    0    0  0.19785148068E+02 -0.11978848621E+02  0.81522590296E+01  0.24523544312E+02  0.00000000000E+00 0. -1.
</event>
<event>
 7    1  0.3054835E-011  0.5052885E+02  0.7816164E-02  0.1300439E+00
        -11   -1    0    0    0    0  0.00000000000E+00  0.00000000000E+00  0.45593999997E+02  0.45594000000E+02  0.51100000000E-03 0.  1.
         11   -1    0    0    0    0 -0.00000000000E+00 -0.00000000000E+00 -0.45593999997E+02  0.45594000000E+02  0.51100000000E-03 0. -1.
    9900012    2    1    2    0    0 -0.26160780308E+02  0.15043748941E+02  0.27248225256E+02  0.50528848654E+02  0.29999965970E+02 0.  0.
         12    1    1    2    0    0  0.26160780308E+02 -0.15043748941E+02 -0.27248225256E+02  0.40659151346E+02  0.00000000000E+00 0. -1.
         11    1    3    3    0    0 -0.56863202575E+01 -0.42211767486E+01  0.69112405924E-01  0.70821852559E+01  0.51100000000E-03 0. -1.
        -11    1    3    3    0    0 -0.20627726807E+02  0.20870166098E+02  0.18655905446E+02  0.34772255527E+02  0.51100000000E-03 0.  1.
        -12    1    3    3    0    0  0.15326675625E+00 -0.16052404084E+01  0.85232074037E+01  0.86744078711E+01  0.00000000000E+00 0.  1.
</event>
<event>
 7    1  0.3054835E-011  0.5052886E+02  0.7816164E-02  0.1300439E+00
        -11   -1    0    0    0    0  0.00000000000E+00  0.00000000000E+00  0.45593999997E+02  0.45594000000E+02  0.51100000000E-03 0.  1.
         11   -1    0    0    0    0 -0.00000000000E+00 -0.00000000000E+00 -0.45593999997E+02  0.45594000000E+02  0.51100000000E-03 0. -1.
    9900012    2    1    2    0    0 -0.17885679925E+01 -0.35742270468E+02  0.19299142580E+02  0.50528858617E+02  0.29999996253E+02 0.  0.
         12    1    1    2    0    0  0.17885679925E+01  0.35742270468E+02 -0.19299142580E+02  0.40659141383E+02  0.00000000000E+00 0. -1.
         11    1    3    3    0    0 -0.38221181127E+01 -0.15674246651E+02  0.15569387314E+02  0.22420892412E+02  0.51100000000E-03 0. -1.
        -11    1    3    3    0    0 -0.51060616959E+01 -0.16728320693E+02 -0.29976434326E+01  0.17745265443E+02  0.51100000000E-03 0.  1.
         12    1    3    3    0    0  0.71396118160E+01 -0.33397031245E+01  0.67273986980E+01  0.10362700762E+02  0.00000000000E+00 0. -1.
</event>
<event>
 7    1  0.3054835E-011  0.5052886E+02  0.7816164E-02  0.1300439E+00
        -11   -1    0    0    0    0  0.00000000000E+00  0.00000000000E+00  0.45593999997E+02  0.45594000000E+02  0.51100000000E-03 0. -1.
         11   -1    0    0    0    0 -0.00000000000E+00 -0.00000000000E+00 -0.45593999997E+02  0.45594000000E+02  0.51100000000E-03 0.  1.
    9900012    2    1    2    0    0  0.52874757212E+00  0.40516627891E+02 -0.33598989016E+01  0.50528860434E+02  0.30000001775E+02 0.  0.
         12    1    1    2    0    0 -0.52874757212E+00 -0.40516627891E+02  0.33598989016E+01  0.40659139566E+02  0.00000000000E+00 0. -1.
         11    1    3    3    0    0 -0.31793469738E+01  0.17220386810E+02  0.11631720720E+02  0.21022533060E+02  0.51100000000E-03 0. -1.
        -11    1    3    3    0    0 -0.62685932852E-01  0.18761641559E+01  0.13411712718E+01  0.23070895317E+01  0.51100000000E-03 0.  1.
         12    1    3    3    0    0  0.37707804788E+01  0.21420076924E+02 -0.16332790893E+02  0.27199237843E+02  0.00000000000E+00 0. -1.
</event>
<event>
 7    1  0.3054835E-011  0.5052890E+02  0.7816164E-02  0.1300439E+00
        -11   -1    0    0    0    0  0.00000000000E+00  0.00000000000E+00  0.45593999997E+02  0.45594000000E+02  0.51100000000E-03 0.  1.
         11   -1    0    0    0    0 -0.00000000000E+00 -0.00000000000E+00 -0.45593999997E+02  0.45594000000E+02  0.51100000000E-03 0. -1.
    9900012    2    1    2    0    0  0.31380642239E+02 -0.23419687997E+02  0.10951528142E+02  0.50528899397E+02  0.30000120207E+02 0.  0.
         12    1    1    2    0    0 -0.31380642239E+02  0.23419687997E+02 -0.10951528142E+02  0.40659100603E+02  0.00000000000E+00 0. -1.
         11    1    3    3    0    0  0.17397785632E+02 -0.49634111623E+01 -0.31803234938E+01  0.18369345472E+02  0.51100000000E-03 0. -1.
        -11    1    3    3    0    0  0.10119423371E+02 -0.71608301188E+01  0.15824658607E+02  0.20102239617E+02  0.51100000000E-03 0.  1.
        -12    1    3    3    0    0  0.38634332355E+01 -0.11295446716E+02 -0.16928069709E+01  0.12057314308E+02  0.00000000000E+00 0.  1.
</event>
<event>
 7    1  0.3054835E-011  0.5052886E+02  0.7816164E-02  0.1300439E+00
        -11   -1    0    0    0    0  0.00000000000E+00  0.00000000000E+00  0.45593999997E+02  0.45594000000E+02  0.51100000000E-03 0.  1.
         11   -1    0    0    0    0 -0.00000000000E+00 -0.00000000000E+00 -0.45593999997E+02  0.45594000000E+02  0.51100000000E-03 0. -1.
    9900012    2    1    2    0    0  0.29908307443E+02  0.11829599899E+02  0.24874068381E+02  0.50528861228E+02  0.30000004188E+02 0.  0.
         12    1    1    2    0    0 -0.29908307443E+02 -0.11829599899E+02 -0.24874068381E+02  0.40659138772E+02  0.00000000000E+00 0. -1.
         11    1    3    3    0    0 -0.41300911158E+00  0.56511505298E+01  0.34776915434E+01  0.66483394595E+01  0.51100000000E-03 0. -1.
        -11    1    3    3    0    0  0.22670980697E+02 -0.63244186850E+01  0.11509260799E+02  0.26199899272E+02  0.51100000000E-03 0.  1.
        -12    1    3    3    0    0  0.76503358580E+01  0.12502868054E+02  0.98871160380E+01  0.17680622496E+02  0.00000000000E+00 0.  1.
</event>
<event>
 7    1  0.3054835E-011  0.5052886E+02  0.7816164E-02  0.1300439E+00
        -11   -1    0    0    0    0  0.00000000000E+00  0.00000000000E+00  0.45593999997E+02  0.45594000000E+02  0.51100000000E-03 0. -1.
         11   -1    0    0    0    0 -0.00000000000E+00 -0.00000000000E+00 -0.45593999997E+02  0.45594000000E+02  0.51100000000E-03 0.  1.
    9900012    2    1    2    0    0 -0.26823690267E+02 -0.29079370276E+02 -0.93832486610E+01  0.50528862151E+02  0.30000006995E+02 0.  0.
         12    1    1    2    0    0  0.26823690267E+02  0.29079370276E+02  0.93832486610E+01  0.40659137849E+02  0.00000000000E+00 0. -1.
         11    1    3    3    0    0 -0.14961519772E+02 -0.19821708352E+00  0.24952907075E+01  0.15169470653E+02  0.51100000000E-03 0. -1.
        -11    1    3    3    0    0 -0.75733130315E+01 -0.10941237553E+02 -0.10336483000E+02  0.16849588438E+02  0.51100000000E-03 0.  1.
         12    1    3    3    0    0 -0.42888574633E+01 -0.17939915639E+02 -0.15420563685E+01  0.18509803060E+02  0.00000000000E+00 0. -1.
</event>
<event>
 7    1  0.3054835E-011  0.5052885E+02  0.7816164E-02  0.1300439E+00
        -11   -1    0    0    0    0  0.00000000000E+00  0.00000000000E+00  0.45593999997E+02  0.45594000000E+02  0.51100000000E-03 0.  1.
         11   -1    0    0    0    0 -0.00000000000E+00 -0.00000000000E+00 -0.45593999997E+02  0.45594000000E+02  0.51100000000E-03 0. -1.
    9900012    2    1    2    0    0  0.14540371742E+02 -0.28222078347E+02  0.25401931737E+02  0.50528852781E+02  0.29999978513E+02 0.  0.
         12    1    1    2    0    0 -0.14540371742E+02  0.28222078347E+02 -0.25401931737E+02  0.40659147219E+02  0.00000000000E+00 0. -1.
         11    1    3    3    0    0 -0.33694888517E+01 -0.83499482788E+01 -0.18822484950E+01  0.91988016088E+01  0.51100000000E-03 0. -1.
        -11    1    3    3    0    0  0.10195020529E+02 -0.18198817526E+02  0.25997356533E+02  0.33331635872E+02  0.51100000000E-03 0.  1.
         12    1    3    3    0    0  0.77148400641E+01 -0.16733125420E+01  0.12868236991E+01  0.79984152999E+01  0.00000000000E+00 0. -1.
</event>
<event>
 7    1  0.3054835E-011  0.5052885E+02  0.7816164E-02  0.1300439E+00
        -11   -1    0    0    0    0  0.00000000000E+00  0.00000000000E+00  0.45593999997E+02  0.45594000000E+02  0.51100000000E-03 0.  1.
         11   -1    0    0    0    0 -0.00000000000E+00 -0.00000000000E+00 -0.45593999997E+02  0.45594000000E+02  0.51100000000E-03 0. -1.
    9900012    2    1    2    0    0  0.39606912640E+01 -0.38187269729E+02  0.13387010471E+02  0.50528847353E+02  0.29999962014E+02 0.  0.
         12    1    1    2    0    0 -0.39606912640E+01  0.38187269729E+02 -0.13387010471E+02  0.40659152647E+02  0.00000000000E+00 0. -1.
         11    1    3    3    0    0 -0.16903814647E+01 -0.10704727070E+00 -0.16173749056E+00  0.17014722717E+01  0.51100000000E-03 0. -1.
        -11    1    3    3    0    0 -0.71453014972E+01 -0.26814982607E+02  0.12003758547E+01  0.27776600371E+02  0.51100000000E-03 0.  1.
        -12    1    3    3    0    0  0.12796374226E+02 -0.11265239851E+02  0.12348372107E+02  0.21050774711E+02  0.00000000000E+00 0.  1.
</event>
<event>
 7    1  0.3054835E-011  0.5052887E+02  0.7816164E-02  0.1300439E+00
        -11   -1    0    0    0    0  0.00000000000E+00  0.00000000000E+00  0.45593999997E+02  0.45594000000E+02  0.51100000000E-03 0. -1.
         11   -1    0    0    0    0 -0.00000000000E+00 -0.00000000000E+00 -0.45593999997E+02  0.45594000000E+02  0.51100000000E-03 0.  1.
    9900012    2    1    2    0    0  0.65545921756E+01  0.27691393454E+02 -0.29041161664E+02  0.50528867928E+02  0.30000024555E+02 0.  0.
         12    1    1    2    0    0 -0.65545921756E+01 -0.27691393454E+02  0.29041161664E+02  0.40659132072E+02  0.00000000000E+00 0. -1.
         11    1    3    3    0    0 -0.20003609340E+01 -0.31737890350E+01 -0.14071245303E+02  0.14562771897E+02  0.51100000000E-03 0. -1.
        -11    1    3    3    0    0  0.64529088872E+01  0.11257300231E+02 -0.62994917165E+01  0.14423953610E+02  0.51100000000E-03 0.  1.
         12    1    3    3    0    0  0.21020442223E+01  0.19607882259E+02 -0.86704246446E+01  0.21542142421E+02  0.00000000000E+00 0. -1.
</event>
<event>
 7    1  0.3054835E-011  0.5052886E+02  0.7816164E-02  0.1300439E+00
        -11   -1    0    0    0    0  0.00000000000E+00  0.00000000000E+00  0.45593999997E+02  0.45594000000E+02  0.51100000000E-03 0. -1.
         11   -1    0    0    0    0 -0.00000000000E+00 -0.00000000000E+00 -0.45593999997E+02  0.45594000000E+02  0.51100000000E-03 0.  1.
    9900012    2    1    2    0    0  0.40207682893E+02 -0.55113855843E+01 -0.24763893986E+01  0.50528860325E+02  0.30000001444E+02 0.  0.
         12    1    1    2    0    0 -0.40207682893E+02  0.55113855843E+01  0.24763893986E+01  0.40659139675E+02  0.00000000000E+00 0. -1.
         11    1    3    3    0    0  0.89664336193E+01  0.97804929266E+01 -0.46427981994E+01  0.14057401933E+02  0.51100000000E-03 0. -1.
        -11    1    3    3    0    0  0.15665134504E+02 -0.52345717728E+01  0.59366794503E+01  0.17551106627E+02  0.51100000000E-03 0.  1.
        -12    1    3    3    0    0  0.15576114770E+02 -0.10057306738E+02 -0.37702706495E+01  0.18920351765E+02  0.00000000000E+00 0.  1.
</event>
<event>
 7    1  0.3054835E-011  0.5052887E+02  0.7816164E-02  0.1300439E+00
        -11   -1    0    0    0    0  0.00000000000E+00  0.00000000000E+00  0.45593999997E+02  0.45594000000E+02  0.51100000000E-03 0. -1.
         11   -1    0    0    0    0 -0.00000000000E+00 -0.00000000000E+00 -0.45593999997E+02  0.45594000000E+02  0.51100000000E-03 0.  1.
    9900012    2    1    2    0    0  0.27796856604E+02  0.10755284085E+02 -0.27655449216E+02  0.50528865182E+02  0.30000016209E+02 0.  0.
         12    1    1    2    0    0 -0.27796856604E+02 -0.10755284085E+02  0.27655449216E+02  0.40659134818E+02  0.00000000000E+00 0. -1.
         11    1    3    3    0    0  0.74095715118E+01 -0.51643821812E+01 -0.47415013752E+01  0.10200707272E+02  0.51100000000E-03 0. -1.
        -11    1    3    3    0    0  0.16321697699E+02  0.17183659375E+02 -0.25916047612E+02  0.35118620266E+02  0.51100000000E-03 0.  1.
        -12    1    3    3    0    0  0.40655873930E+01 -0.12639931092E+01  0.30020997714E+01  0.52095376443E+01  0.00000000000E+00 0.  1.
</event>
<event>
 7    1  0.3054835E-011  0.5052877E+02  0.7816164E-02  0.1300439E+00
        -11   -1    0    0    0    0  0.00000000000E+00  0.00000000000E+00  0.45593999997E+02  0.45594000000E+02  0.51100000000E-03 0.  1.
         11   -1    0    0    0    0 -0.00000000000E+00 -0.00000000000E+00 -0.45593999997E+02  0.45594000000E+02  0.51100000000E-03 0. -1.
    9900012    2    1    2    0    0 -0.72360737235E+01 -0.82896688209E+01  0.39141970473E+02  0.50528767044E+02  0.29999717905E+02 0.  0.
         12    1    1    2    0    0  0.72360737235E+01  0.82896688209E+01 -0.39141970473E+02  0.40659232956E+02  0.00000000000E+00 0. -1.
         11    1    3    3    0    0 -0.13998128932E+02 -0.11191643283E+02  0.16574851587E+02  0.24411599669E+02  0.51100000000E-03 0. -1.
        -11    1    3    3    0    0  0.40644260104E+01 -0.39768971615E+01  0.84842740066E+01  0.10213626952E+02  0.51100000000E-03 0.  1.
         12    1    3    3    0    0  0.26976291986E+01  0.68788716241E+01  0.14082844879E+02  0.15903540423E+02  0.00000000000E+00 0. -1.
</event>
<event>
 7    1  0.3054835E-011  0.5052887E+02  0.7816164E-02  0.1300439E+00
        -11   -1    0    0    0    0  0.00000000000E+00  0.00000000000E+00  0.45593999997E+02  0.45594000000E+02  0.51100000000E-03 0.  1.
         11   -1    0    0    0    0 -0.00000000000E+00 -0.00000000000E+00 -0.45593999997E+02  0.45594000000E+02  0.51100000000E-03 0. -1.
    9900012    2    1    2    0    0 -0.22742540707E+02 -0.11825757008E+02  0.31560941021E+02  0.50528872061E+02  0.30000037118E+02 0.  0.
         12    1    1    2    0    0  0.22742540707E+02  0.11825757008E+02 -0.31560941021E+02  0.40659127939E+02  0.00000000000E+00 0. -1.
         11    1    3    3    0    0 -0.12762103389E+02 -0.15439040943E+02  0.19044488981E+02  0.27639244363E+02  0.51100000000E-03 0. -1.
        -11    1    3    3    0    0 -0.10232254053E+01  0.56275596061E+01  0.12458238127E+02  0.13708541674E+02  0.51100000000E-03 0.  1.
         12    1    3    3    0    0 -0.89572119125E+01 -0.20142756712E+01  0.58213913475E-01  0.91810860243E+01  0.00000000000E+00 0. -1.
</event>
<event>
 7    1  0.3054835E-011  0.5052886E+02  0.7816164E-02  0.1300439E+00
        -11   -1    0    0    0    0  0.00000000000E+00  0.00000000000E+00  0.45593999997E+02  0.45594000000E+02  0.51100000000E-03 0. -1.
         11   -1    0    0    0    0 -0.00000000000E+00 -0.00000000000E+00 -0.45593999997E+02  0.45594000000E+02  0.51100000000E-03 0.  1.
    9900012    2    1    2    0    0 -0.18628443008E+02  0.56726316299E+01 -0.35692693777E+02  0.50528855548E+02  0.29999986923E+02 0.  0.
         12    1    1    2    0    0  0.18628443008E+02 -0.56726316299E+01  0.35692693777E+02  0.40659144452E+02  0.00000000000E+00 0. -1.
         11    1    3    3    0    0 -0.24541954206E+02  0.94139075471E+01 -0.31600111949E+02  0.41103482176E+02  0.51100000000E-03 0.  1.
        -11    1    3    3    0    0  0.41056485970E+01 -0.19923026129E+01  0.67418426308E-01  0.45640076258E+01  0.51100000000E-03 0. -1.
        -12    1    3    3    0    0  0.18078626004E+01 -0.17489733043E+01 -0.41600002548E+01  0.48613657464E+01  0.00000000000E+00 0.  1.
</event>
<event>
 7    1  0.3054835E-011  0.5052886E+02  0.7816164E-02  0.1300439E+00
        -11   -1    0    0    0    0  0.00000000000E+00  0.00000000000E+00  0.45593999997E+02  0.45594000000E+02  0.51100000000E-03 0.  1.
         11   -1    0    0    0    0 -0.00000000000E+00 -0.00000000000E+00 -0.45593999997E+02  0.45594000000E+02  0.51100000000E-03 0. -1.
    9900012    2    1    2    0    0 -0.12393025965E+02 -0.99102175908E+01  0.37434827074E+02  0.50528858552E+02  0.29999996053E+02 0.  0.
         12    1    1    2    0    0  0.12393025965E+02  0.99102175908E+01 -0.37434827074E+02  0.40659141448E+02  0.00000000000E+00 0. -1.
         11    1    3    3    0    0  0.52281895760E+01  0.72464492798E+00 -0.16277547099E+01  0.55234646891E+01  0.51100000000E-03 0. -1.
        -11    1    3    3    0    0 -0.11318767474E+02 -0.27974540983E+01  0.26204612970E+02  0.28681387479E+02  0.51100000000E-03 0.  1.
         12    1    3    3    0    0 -0.63024480670E+01 -0.78374084205E+01  0.12857968814E+02  0.16324006384E+02  0.00000000000E+00 0. -1.
</event>
<event>
 7    1  0.3054835E-011  0.5052886E+02  0.7816164E-02  0.1300439E+00
        -11   -1    0    0    0    0  0.00000000000E+00  0.00000000000E+00  0.45593999997E+02  0.45594000000E+02  0.51100000000E-03 0. -1.
         11   -1    0    0    0    0 -0.00000000000E+00 -0.00000000000E+00 -0.45593999997E+02  0.45594000000E+02  0.51100000000E-03 0.  1.
    9900012    2    1    2    0    0 -0.27809293650E+02 -0.13199614898E+02 -0.26562742377E+02  0.50528856756E+02  0.29999990596E+02 0.  0.
         12    1    1    2    0    0  0.27809293650E+02  0.13199614898E+02  0.26562742377E+02  0.40659143244E+02  0.00000000000E+00 0. -1.
         11    1    3    3    0    0  0.28035022653E+01  0.50297613280E+01 -0.18007761767E+01  0.60333174181E+01  0.51100000000E-03 0. -1.
        -11    1    3    3    0    0 -0.14407997058E+02 -0.53499522514E+01 -0.15467543453E+02  0.21804982665E+02  0.51100000000E-03 0.  1.
         12    1    3    3    0    0 -0.16204798857E+02 -0.12879423974E+02 -0.92944227475E+01  0.22690556673E+02  0.00000000000E+00 0. -1.
</event>
<event>
 7    1  0.3054835E-011  0.5052885E+02  0.7816164E-02  0.1300439E+00
        -11   -1    0    0    0    0  0.00000000000E+00  0.00000000000E+00  0.45593999997E+02  0.45594000000E+02  0.51100000000E-03 0.  1.
         11   -1    0    0    0    0 -0.00000000000E+00 -0.00000000000E+00 -0.45593999997E+02  0.45594000000E+02  0.51100000000E-03 0. -1.
    9900012    2    1    2    0    0 -0.33674484888E+02  0.21263857852E+02  0.81880552307E+01  0.50528845660E+02  0.29999956867E+02 0.  0.
         12    1    1    2    0    0  0.33674484888E+02 -0.21263857852E+02 -0.81880552307E+01  0.40659154340E+02  0.00000000000E+00 0. -1.
         11    1    3    3    0    0 -0.59676583527E+01  0.12607298912E+00 -0.25374299615E+01  0.64859379957E+01  0.51100000000E-03 0. -1.
        -11    1    3    3    0    0 -0.88377951932E+01  0.15889452104E+02  0.15490883304E+02  0.23886162895E+02  0.51100000000E-03 0.  1.
        -12    1    3    3    0    0 -0.18869031342E+02  0.52483327585E+01 -0.47653981115E+01  0.20156744769E+02  0.00000000000E+00 0.  1.
</event>
<event>
 7    1  0.3054835E-011  0.5052885E+02  0.7816164E-02  0.1300439E+00
        -11   -1    0    0    0    0  0.00000000000E+00  0.00000000000E+00  0.45593999997E+02  0.45594000000E+02  0.51100000000E-03 0.  1.
         11   -1    0    0    0    0 -0.00000000000E+00 -0.00000000000E+00 -0.45593999997E+02  0.45594000000E+02  0.51100000000E-03 0. -1.
    9900012    2    1    2    0    0 -0.33806312273E+02 -0.68677813985E+00  0.22579371788E+02  0.50528850427E+02  0.29999971357E+02 0.  0.
         12    1    1    2    0    0  0.33806312273E+02  0.68677813985E+00 -0.22579371788E+02  0.40659149573E+02  0.00000000000E+00 0. -1.
         11    1    3    3    0    0  0.23298998157E+01  0.39921876922E+00  0.33688738038E+01  0.41154732102E+01  0.51100000000E-03 0. -1.
        -11    1    3    3    0    0 -0.29828218616E+02 -0.34913610710E+01  0.23741505988E+02  0.38282781179E+02  0.51100000000E-03 0.  1.
        -12    1    3    3    0    0 -0.63079934721E+01  0.24053641619E+01 -0.45310080039E+01  0.81305960377E+01  0.00000000000E+00 0.  1.
</event>
<event>
 7    1  0.3054835E-011  0.5052886E+02  0.7816164E-02  0.1300439E+00
        -11   -1    0    0    0    0  0.00000000000E+00  0.00000000000E+00  0.45593999997E+02  0.45594000000E+02  0.51100000000E-03 0.  1.
         11   -1    0    0    0    0 -0.00000000000E+00 -0.00000000000E+00 -0.45593999997E+02  0.45594000000E+02  0.51100000000E-03 0. -1.
    9900012    2    1    2    0    0 -0.21061065426E+01  0.37717968266E+02  0.15036111101E+02  0.50528862627E+02  0.30000008441E+02 0.  0.
         12    1    1    2    0    0  0.21061065426E+01 -0.37717968266E+02 -0.15036111101E+02  0.40659137373E+02  0.00000000000E+00 0. -1.
         11    1    3    3    0    0 -0.11616748648E+02  0.12711354492E+02  0.15640268404E+02  0.23262531637E+02  0.51100000000E-03 0. -1.
        -11    1    3    3    0    0  0.53846797162E+01  0.19942974868E+02 -0.12976636120E+01  0.20697849002E+02  0.51100000000E-03 0.  1.
        -12    1    3    3    0    0  0.41259623895E+01  0.50636389064E+01  0.69350630902E+00  0.65684819871E+01  0.00000000000E+00 0.  1.
</event>
<event>
 7    1  0.3054835E-011  0.5052889E+02  0.7816164E-02  0.1300439E+00
        -11   -1    0    0    0    0  0.00000000000E+00  0.00000000000E+00  0.45593999997E+02  0.45594000000E+02  0.51100000000E-03 0. -1.
         11   -1    0    0    0    0 -0.00000000000E+00 -0.00000000000E+00 -0.45593999997E+02  0.45594000000E+02  0.51100000000E-03 0.  1.
    9900012    2    1    2    0    0  0.20886575507E+02 -0.34732302004E+02  0.32529647383E+01  0.50528885173E+02  0.30000076972E+02 0.  0.
         12    1    1    2    0    0 -0.20886575507E+02  0.34732302004E+02 -0.32529647383E+01  0.40659114827E+02  0.00000000000E+00 0. -1.
         11    1    3    3    0    0  0.85111640831E+01 -0.28953320092E+02  0.10180348182E+02  0.31849240929E+02  0.51100000000E-03 0. -1.
        -11    1    3    3    0    0  0.84958988521E+01 -0.15423051280E+01 -0.90937675230E+01  0.12540159905E+02  0.51100000000E-03 0.  1.
         12    1    3    3    0    0  0.38795125719E+01 -0.42366767846E+01  0.21663840792E+01  0.61394843392E+01  0.00000000000E+00 0. -1.
</event>
<event>
 7    1  0.3054835E-011  0.5052886E+02  0.7816164E-02  0.1300439E+00
        -11   -1    0    0    0    0  0.00000000000E+00  0.00000000000E+00  0.45593999997E+02  0.45594000000E+02  0.51100000000E-03 0.  1.
         11   -1    0    0    0    0 -0.00000000000E+00 -0.00000000000E+00 -0.45593999997E+02  0.45594000000E+02  0.51100000000E-03 0. -1.
    9900012    2    1    2    0    0 -0.25755521958E+02 -0.16347286801E+02  0.26880944541E+02  0.50528857406E+02  0.29999992571E+02 0.  0.
         12    1    1    2    0    0  0.25755521958E+02  0.16347286801E+02 -0.26880944541E+02  0.40659142594E+02  0.00000000000E+00 0. -1.
         11    1    3    3    0    0 -0.10940502783E+00 -0.27269197519E+01 -0.45066252675E+01  0.52685607481E+01  0.51100000000E-03 0. -1.
        -11    1    3    3    0    0 -0.23664443947E+02 -0.14819317727E+02  0.21876024926E+02  0.35470812678E+02  0.51100000000E-03 0.  1.
        -12    1    3    3    0    0 -0.19816729827E+01  0.11989506779E+01  0.95115448828E+01  0.97894839800E+01  0.00000000000E+00 0.  1.
</event>
<event>
 7    1  0.3054835E-011  0.5052886E+02  0.7816164E-02  0.1300439E+00
        -11   -1    0    0    0    0  0.00000000000E+00  0.00000000000E+00  0.45593999997E+02  0.45594000000E+02  0.51100000000E-03 0.  1.
         11   -1    0    0    0    0 -0.00000000000E+00 -0.00000000000E+00 -0.45593999997E+02  0.45594000000E+02  0.51100000000E-03 0. -1.
    9900012    2    1    2    0    0  0.19451484706E+02  0.11561466701E+02  0.33780728640E+02  0.50528863302E+02  0.30000010493E+02 0.  0.
         12    1    1    2    0    0 -0.19451484706E+02 -0.11561466701E+02 -0.33780728640E+02  0.40659136698E+02  0.00000000000E+00 0. -1.
         11    1    3    3    0    0  0.10177805502E+02 -0.61952981584E+01  0.55280835860E+01  0.13135035306E+02  0.51100000000E-03 0. -1.
        -11    1    3    3    0    0  0.60983533211E+00  0.79721983413E+01  0.20947816738E+02  0.22421839173E+02  0.51100000000E-03 0.  1.
        -12    1    3    3    0    0  0.86638438723E+01  0.97845665185E+01  0.73048283158E+01  0.14971988823E+02  0.00000000000E+00 0.  1.
</event>
<event>
 7    1  0.3054835E-011  0.5052886E+02  0.7816164E-02  0.1300439E+00
        -11   -1    0    0    0    0  0.00000000000E+00  0.00000000000E+00  0.45593999997E+02  0.45594000000E+02  0.51100000000E-03 0.  1.
         11   -1    0    0    0    0 -0.00000000000E+00 -0.00000000000E+00 -0.45593999997E+02  0.45594000000E+02  0.51100000000E-03 0. -1.
    9900012    2    1    2    0    0  0.22332637144E+02 -0.33943833146E+02 -0.14950331649E+01  0.50528860626E+02  0.30000002359E+02 0.  0.
         12    1    1    2    0    0 -0.22332637144E+02  0.33943833146E+02  0.14950331649E+01  0.40659139374E+02  0.00000000000E+00 0. -1.
         11    1    3    3    0    0  0.16515149046E+02 -0.13088645891E+02 -0.10886524680E+02  0.23718752479E+02  0.51100000000E-03 0. -1.
        -11    1    3    3    0    0 -0.11016284393E+01 -0.16934685224E+02  0.48402997961E+01  0.17647256196E+02  0.51100000000E-03 0.  1.
        -12    1    3    3    0    0  0.69191165367E+01 -0.39205020312E+01  0.45511917190E+01  0.91628519517E+01  0.00000000000E+00 0.  1.
</event>
<event>
 7    1  0.3054835E-011  0.5052886E+02  0.7816164E-02  0.1300439E+00
        -11   -1    0    0    0    0  0.00000000000E+00  0.00000000000E+00  0.45593999997E+02  0.45594000000E+02  0.51100000000E-03 0. -1.
         11   -1    0    0    0    0 -0.00000000000E+00 -0.00000000000E+00 -0.45593999997E+02  0.45594000000E+02  0.51100000000E-03 0.  1.
    9900012    2    1    2    0    0  0.66072028522E+01  0.30923507668E+02 -0.25558701551E+02  0.50528859810E+02  0.29999999877E+02 0.  0.
         12    1    1    2    0    0 -0.66072028522E+01 -0.30923507668E+02  0.25558701551E+02  0.40659140190E+02  0.00000000000E+00 0. -1.
         11    1    3    3    0    0  0.15868475378E+01 -0.78638098267E+00 -0.15313617460E+02  0.15415685523E+02  0.51100000000E-03 0. -1.
        -11    1    3    3    0    0  0.52764605866E+00  0.24480366072E+02 -0.10392286746E+02  0.26600119501E+02  0.51100000000E-03 0.  1.
         12    1    3    3    0    0  0.44927092558E+01  0.72295225783E+01  0.14720265423E+00  0.85130547860E+01  0.00000000000E+00 0. -1.
</event>
<event>
 7    1  0.3054835E-011  0.5052885E+02  0.7816164E-02  0.1300439E+00
        -11   -1    0    0    0    0  0.00000000000E+00  0.00000000000E+00  0.45593999997E+02  0.45594000000E+02  0.51100000000E-03 0.  1.
         11   -1    0    0    0    0 -0.00000000000E+00 -0.00000000000E+00 -0.45593999997E+02  0.45594000000E+02  0.51100000000E-03 0. -1.
    9900012    2    1    2    0    0 -0.10583491798E+01 -0.31999649115E+02  0.25061294609E+02  0.50528854240E+02  0.29999982948E+02 0.  0.
         12    1    1    2    0    0  0.10583491798E+01  0.31999649115E+02 -0.25061294609E+02  0.40659145760E+02  0.00000000000E+00 0. -1.
         11    1    3    3    0    0 -0.35398861516E+01  0.12941615016E+01 -0.20427527886E+01  0.42870137830E+01  0.51100000000E-03 0. -1.
        -11    1    3    3    0    0 -0.10163662967E+00 -0.27860949037E+02  0.28719342039E+02  0.40013040607E+02  0.51100000000E-03 0.  1.
        -12    1    3    3    0    0  0.25831736015E+01 -0.54328615789E+01 -0.16152946411E+01  0.62287998497E+01  0.00000000000E+00 0.  1.
</event>
<event>
 7    1  0.3054835E-011  0.5052886E+02  0.7816164E-02  0.1300439E+00
        -11   -1    0    0    0    0  0.00000000000E+00  0.00000000000E+00  0.45593999997E+02  0.45594000000E+02  0.51100000000E-03 0. -1.
         11   -1    0    0    0    0 -0.00000000000E+00 -0.00000000000E+00 -0.45593999997E+02  0.45594000000E+02  0.51100000000E-03 0.  1.
    9900012    2    1    2    0    0  0.15969830295E+02 -0.46123613394E-02 -0.37391580046E+02  0.50528858847E+02  0.29999996951E+02 0.  0.
         12    1    1    2    0    0 -0.15969830295E+02  0.46123613394E-02  0.37391580046E+02  0.40659141153E+02  0.00000000000E+00 0. -1.
         11    1    3    3    0    0  0.98267764261E+00 -0.36256160602E+01 -0.14932394933E+01  0.40423398683E+01  0.51100000000E-03 0. -1.
        -11    1    3    3    0    0 -0.32501146263E+00  0.97426350205E+01 -0.24697684734E+02  0.26551839881E+02  0.51100000000E-03 0.  1.
        -12    1    3    3    0    0  0.15312164115E+02 -0.61216313216E+01 -0.11200655819E+02  0.19934679097E+02  0.00000000000E+00 0.  1.
</event>
<event>
 7    1  0.3054835E-011  0.5052885E+02  0.7816164E-02  0.1300439E+00
        -11   -1    0    0    0    0  0.00000000000E+00  0.00000000000E+00  0.45593999997E+02  0.45594000000E+02  0.51100000000E-03 0.  1.
         11   -1    0    0    0    0 -0.00000000000E+00 -0.00000000000E+00 -0.45593999997E+02  0.45594000000E+02  0.51100000000E-03 0. -1.
    9900012    2    1    2    0    0  0.30662193497E+02  0.57181196515E+01  0.26082552891E+02  0.50528848905E+02  0.29999966733E+02 0.  0.
         12    1    1    2    0    0 -0.30662193497E+02 -0.57181196515E+01 -0.26082552891E+02  0.40659151095E+02  0.00000000000E+00 0. -1.
         11    1    3    3    0    0  0.80463485281E+00  0.67357298001E+01  0.13645723795E+01  0.69195051287E+01  0.51100000000E-03 0. -1.
        -11    1    3    3    0    0  0.27230874216E+02 -0.30041232803E+01  0.11033969506E+02  0.29534619527E+02  0.51100000000E-03 0.  1.
        -12    1    3    3    0    0  0.26266844282E+01  0.19865131316E+01  0.13684011006E+02  0.14074724250E+02  0.00000000000E+00 0.  1.
</event>
<event>
 7    1  0.3054835E-011  0.5052886E+02  0.7816164E-02  0.1300439E+00
        -11   -1    0    0    0    0  0.00000000000E+00  0.00000000000E+00  0.45593999997E+02  0.45594000000E+02  0.51100000000E-03 0.  1.
         11   -1    0    0    0    0 -0.00000000000E+00 -0.00000000000E+00 -0.45593999997E+02  0.45594000000E+02  0.51100000000E-03 0. -1.
    9900012    2    1    2    0    0  0.32201323409E+02 -0.18270290307E+02  0.16805869366E+02  0.50528856105E+02  0.29999988616E+02 0.  0.
         12    1    1    2    0    0 -0.32201323409E+02  0.18270290307E+02 -0.16805869366E+02  0.40659143895E+02  0.00000000000E+00 0. -1.
         11    1    3    3    0    0  0.25337383785E+02 -0.36101311834E+01  0.16589072179E+02  0.30499399671E+02  0.51100000000E-03 0. -1.
        -11    1    3    3    0    0  0.61001973733E+01 -0.15399118864E+02  0.31937804900E+01  0.16868476631E+02  0.51100000000E-03 0.  1.
         12    1    3    3    0    0  0.76374225040E+00  0.73895974058E+00 -0.29769833037E+01  0.31609798028E+01  0.00000000000E+00 0. -1.
</event>
<event>
 7    1  0.3054835E-011  0.5052886E+02  0.7816164E-02  0.1300439E+00
        -11   -1    0    0    0    0  0.00000000000E+00  0.00000000000E+00  0.45593999997E+02  0.45594000000E+02  0.51100000000E-03 0.  1.
         11   -1    0    0    0    0 -0.00000000000E+00 -0.00000000000E+00 -0.45593999997E+02  0.45594000000E+02  0.51100000000E-03 0. -1.
    9900012    2    1    2    0    0  0.37484987815E+02  0.13269079613E+01 -0.15693324259E+02  0.50528862988E+02  0.30000009539E+02 0.  0.
         12    1    1    2    0    0 -0.37484987815E+02 -0.13269079613E+01  0.15693324259E+02  0.40659137012E+02  0.00000000000E+00 0. -1.
         11    1    3    3    0    0  0.19640292308E+01 -0.84992678664E+01 -0.92747946327E+00  0.87724103586E+01  0.51100000000E-03 0. -1.
        -11    1    3    3    0    0  0.88113984634E+01  0.35205581477E+01  0.18601649489E+01  0.96692960680E+01  0.51100000000E-03 0.  1.
         12    1    3    3    0    0  0.26709560121E+02  0.63056176800E+01 -0.16626009744E+02  0.32087156562E+02  0.00000000000E+00 0. -1.
</event>
<event>
 7    1  0.3054835E-011  0.5052885E+02  0.7816164E-02  0.1300439E+00
        -11   -1    0    0    0    0  0.00000000000E+00  0.00000000000E+00  0.45593999997E+02  0.45594000000E+02  0.51100000000E-03 0. -1.
         11   -1    0    0    0    0 -0.00000000000E+00 -0.00000000000E+00 -0.45593999997E+02  0.45594000000E+02  0.51100000000E-03 0.  1.
    9900012    2    1    2    0    0 -0.13045665322E+02 -0.37808154102E+02 -0.73157649671E+01  0.50528851985E+02  0.29999976093E+02 0.  0.
         12    1    1    2    0    0  0.13045665322E+02  0.37808154102E+02  0.73157649671E+01  0.40659148015E+02  0.00000000000E+00 0. -1.
         11    1    3    3    0    0  0.73068911180E+01 -0.74771904663E+01 -0.76310811522E+01  0.12943432114E+02  0.51100000000E-03 0. -1.
        -11    1    3    3    0    0 -0.16674218614E+02 -0.24223933398E+02  0.37958664137E+01  0.29651932783E+02  0.51100000000E-03 0.  1.
        -12    1    3    3    0    0 -0.36783378255E+01 -0.61070302376E+01 -0.34805502285E+01  0.79334870879E+01  0.00000000000E+00 0.  1.
</event>
<event>
 7    1  0.3054835E-011  0.5052885E+02  0.7816164E-02  0.1300439E+00
        -11   -1    0    0    0    0  0.00000000000E+00  0.00000000000E+00  0.45593999997E+02  0.45594000000E+02  0.51100000000E-03 0.  1.
         11   -1    0    0    0    0 -0.00000000000E+00 -0.00000000000E+00 -0.45593999997E+02  0.45594000000E+02  0.51100000000E-03 0. -1.
    9900012    2    1    2    0    0 -0.35066961006E+01 -0.32091508202E+01  0.40380331123E+02  0.50528847179E+02  0.29999961484E+02 0.  0.
         12    1    1    2    0    0  0.35066961006E+01  0.32091508202E+01 -0.40380331123E+02  0.40659152821E+02  0.00000000000E+00 0. -1.
         11    1    3    3    0    0  0.30202566461E+01  0.53465545595E+01  0.34189829815E+01  0.70283028361E+01  0.51100000000E-03 0.  1.
        -11    1    3    3    0    0 -0.13419380405E+02 -0.75332582206E+01  0.29618263267E+02  0.33377706169E+02  0.51100000000E-03 0. -1.
         12    1    3    3    0    0  0.68924276584E+01 -0.10224471592E+01  0.73430848749E+01  0.10122838174E+02  0.00000000000E+00 0. -1.
</event>
<event>
 7    1  0.3054835E-011  0.5052885E+02  0.7816164E-02  0.1300439E+00
        -11   -1    0    0    0    0  0.00000000000E+00  0.00000000000E+00  0.45593999997E+02  0.45594000000E+02  0.51100000000E-03 0. -1.
         11   -1    0    0    0    0 -0.00000000000E+00 -0.00000000000E+00 -0.45593999997E+02  0.45594000000E+02  0.51100000000E-03 0.  1.
    9900012    2    1    2    0    0  0.19502456115E+01 -0.37295185898E+02 -0.16075816824E+02  0.50528852989E+02  0.29999979144E+02 0.  0.
         12    1    1    2    0    0 -0.19502456115E+01  0.37295185898E+02  0.16075816824E+02  0.40659147011E+02  0.00000000000E+00 0. -1.
         11    1    3    3    0    0  0.95198675976E+01 -0.77096247560E+01 -0.11522947888E+02  0.16817982080E+02  0.51100000000E-03 0. -1.
        -11    1    3    3    0    0 -0.90440673541E+01 -0.13821884406E+02 -0.65170510128E+01  0.17757015430E+02  0.51100000000E-03 0.  1.
         12    1    3    3    0    0  0.14744453680E+01 -0.15763676736E+02  0.19641820764E+01  0.15953855478E+02  0.00000000000E+00 0. -1.
</event>
<event>
 7    1  0.3054835E-011  0.5052887E+02  0.7816164E-02  0.1300439E+00
        -11   -1    0    0    0    0  0.00000000000E+00  0.00000000000E+00  0.45593999997E+02  0.45594000000E+02  0.51100000000E-03 0.  1.
         11   -1    0    0    0    0 -0.00000000000E+00 -0.00000000000E+00 -0.45593999997E+02  0.45594000000E+02  0.51100000000E-03 0. -1.
    9900012    2    1    2    0    0 -0.34312497007E+02 -0.17783243912E+02  0.12632260194E+02  0.50528865571E+02  0.30000017390E+02 0.  0.
         12    1    1    2    0    0  0.34312497007E+02  0.17783243912E+02 -0.12632260194E+02  0.40659134429E+02  0.00000000000E+00 0. -1.
         11    1    3    3    0    0 -0.14250716238E+02  0.40781674831E+01  0.78435260690E+01  0.16770070505E+02  0.51100000000E-03 0. -1.
        -11    1    3    3    0    0 -0.11039498874E+02 -0.15805941800E+02 -0.41114842523E+01  0.19713006736E+02  0.51100000000E-03 0.  1.
        -12    1    3    3    0    0 -0.90222818958E+01 -0.60554695952E+01  0.89002183774E+01  0.14045788329E+02  0.00000000000E+00 0.  1.
</event>
<event>
 7    1  0.3054835E-011  0.5052888E+02  0.7816164E-02  0.1300439E+00
        -11   -1    0    0    0    0  0.00000000000E+00  0.00000000000E+00  0.45593999997E+02  0.45594000000E+02  0.51100000000E-03 0. -1.
         11   -1    0    0    0    0 -0.00000000000E+00 -0.00000000000E+00 -0.45593999997E+02  0.45594000000E+02  0.51100000000E-03 0.  1.
    9900012    2    1    2    0    0  0.74578710356E+01  0.38981756034E+02 -0.88298744577E+01  0.50528882611E+02  0.30000069185E+02 0.  0.
         12    1    1    2    0    0 -0.74578710356E+01 -0.38981756034E+02  0.88298744577E+01  0.40659117389E+02  0.00000000000E+00 0. -1.
         11    1    3    3    0    0  0.53938272236E+01  0.28891587374E+02  0.80351574477E+01  0.30469344407E+02  0.51100000000E-03 0. -1.
        -11    1    3    3    0    0 -0.15494834979E+00  0.69639397497E+01 -0.98308830663E+01  0.12048515591E+02  0.51100000000E-03 0.  1.
         12    1    3    3    0    0  0.22189921617E+01  0.31262289103E+01 -0.70341488391E+01  0.80110226129E+01  0.00000000000E+00 0. -1.
</event>
<event>
 7    1  0.3054835E-011  0.5052885E+02  0.7816164E-02  0.1300439E+00
        -11   -1    0    0    0    0  0.00000000000E+00  0.00000000000E+00  0.45593999997E+02  0.45594000000E+02  0.51100000000E-03 0. -1.
         11   -1    0    0    0    0 -0.00000000000E+00 -0.00000000000E+00 -0.45593999997E+02  0.45594000000E+02  0.51100000000E-03 0.  1.
    9900012    2    1    2    0    0 -0.20595170012E+02 -0.20634202004E+02 -0.28341397305E+02  0.50528854395E+02  0.29999983419E+02 0.  0.
         12    1    1    2    0    0  0.20595170012E+02  0.20634202004E+02  0.28341397305E+02  0.40659145605E+02  0.00000000000E+00 0. -1.
         11    1    3    3    0    0 -0.14199918955E+02 -0.11294164614E+02 -0.27236419291E+01  0.18347045491E+02  0.51100000000E-03 0. -1.
        -11    1    3    3    0    0  0.40324417259E+01 -0.59592410846E+01 -0.16214233603E+02  0.17739067399E+02  0.51100000000E-03 0.  1.
         12    1    3    3    0    0 -0.10427692783E+02 -0.33807963050E+01 -0.94035217723E+01  0.14442741504E+02  0.00000000000E+00 0. -1.
</event>
<event>
 7    1  0.3054835E-011  0.5052886E+02  0.7816164E-02  0.1300439E+00
        -11   -1    0    0    0    0  0.00000000000E+00  0.00000000000E+00  0.45593999997E+02  0.45594000000E+02  0.51100000000E-03 0. -1.
         11   -1    0    0    0    0 -0.00000000000E+00 -0.00000000000E+00 -0.45593999997E+02  0.45594000000E+02  0.51100000000E-03 0.  1.
    9900012    2    1    2    0    0  0.19128594185E+02  0.35777196576E+02 -0.26934921610E+01  0.50528858219E+02  0.29999995043E+02 0.  0.
         12    1    1    2    0    0 -0.19128594185E+02 -0.35777196576E+02  0.26934921610E+01  0.40659141781E+02  0.00000000000E+00 0. -1.
         11    1    3    3    0    0  0.87928278695E+01  0.14567751669E+02  0.10049367591E+02  0.19761654786E+02  0.51100000000E-03 0. -1.
        -11    1    3    3    0    0  0.94387906440E+01  0.23615918415E+02 -0.11426815505E+02  0.27881436194E+02  0.51100000000E-03 0.  1.
        -12    1    3    3    0    0  0.89697567130E+00 -0.24064735077E+01 -0.13160442472E+01  0.28857672392E+01  0.00000000000E+00 0.  1.
</event>
<event>
 7    1  0.3054835E-011  0.5052885E+02  0.7816164E-02  0.1300439E+00
        -11   -1    0    0    0    0  0.00000000000E+00  0.00000000000E+00  0.45593999997E+02  0.45594000000E+02  0.51100000000E-03 0.  1.
         11   -1    0    0    0    0 -0.00000000000E+00 -0.00000000000E+00 -0.45593999997E+02  0.45594000000E+02  0.51100000000E-03 0. -1.
    9900012    2    1    2    0    0  0.26783808243E+02 -0.24366553369E+02  0.18494994115E+02  0.50528854480E+02  0.29999983678E+02 0.  0.
         12    1    1    2    0    0 -0.26783808243E+02  0.24366553369E+02 -0.18494994115E+02  0.40659145520E+02  0.00000000000E+00 0. -1.
         11    1    3    3    0    0  0.52888599424E+01 -0.44052878643E+01 -0.70572461200E+01  0.98581602603E+01  0.51100000000E-03 0. -1.
        -11    1    3    3    0    0  0.23446619665E+01  0.12183673332E+01  0.44128910916E+01  0.51434877995E+01  0.51100000000E-03 0.  1.
         12    1    3    3    0    0  0.19150286334E+02 -0.21179632838E+02  0.21139349143E+02  0.35527206420E+02  0.00000000000E+00 0. -1.
</event>
<event>
 7    1  0.3054835E-011  0.5052885E+02  0.7816164E-02  0.1300439E+00
        -11   -1    0    0    0    0  0.00000000000E+00  0.00000000000E+00  0.45593999997E+02  0.45594000000E+02  0.51100000000E-03 0.  1.
         11   -1    0    0    0    0 -0.00000000000E+00 -0.00000000000E+00 -0.45593999997E+02  0.45594000000E+02  0.51100000000E-03 0. -1.
    9900012    2    1    2    0    0  0.20344405655E+02  0.23811077897E+02  0.25928834110E+02  0.50528847152E+02  0.29999961403E+02 0.  0.
         12    1    1    2    0    0 -0.20344405655E+02 -0.23811077897E+02 -0.25928834110E+02  0.40659152848E+02  0.00000000000E+00 0. -1.
         11    1    3    3    0    0 -0.60719890663E+01  0.10126163637E+02  0.25765420259E+01  0.12084982842E+02  0.51100000000E-03 0. -1.
        -11    1    3    3    0    0  0.10206321705E+02  0.69650466916E+01  0.58916858533E+01  0.13689150471E+02  0.51100000000E-03 0.  1.
         12    1    3    3    0    0  0.16210073015E+02  0.67198675688E+01  0.17460606230E+02  0.24754713839E+02  0.00000000000E+00 0. -1.
</event>
<event>
 7    1  0.3054835E-011  0.5052883E+02  0.7816164E-02  0.1300439E+00
        -11   -1    0    0    0    0  0.00000000000E+00  0.00000000000E+00  0.45593999997E+02  0.45594000000E+02  0.51100000000E-03 0. -1.
         11   -1    0    0    0    0 -0.00000000000E+00 -0.00000000000E+00 -0.45593999997E+02  0.45594000000E+02  0.51100000000E-03 0.  1.
    9900012    2    1    2    0    0 -0.99443390634E+01 -0.32602283497E+02 -0.22166851483E+02  0.50528830391E+02  0.29999910456E+02 0.  0.
         12    1    1    2    0    0  0.99443390634E+01  0.32602283497E+02  0.22166851483E+02  0.40659169609E+02  0.00000000000E+00 0. -1.
         11    1    3    3    0    0 -0.15740086815E+02 -0.25073364786E+02 -0.99531967413E+01  0.31232836571E+02  0.51100000000E-03 0. -1.
        -11    1    3    3    0    0  0.12867728778E+01 -0.42057119206E+01 -0.12922098399E+02  0.13650070494E+02  0.51100000000E-03 0.  1.
        -12    1    3    3    0    0  0.45089748741E+01 -0.33232067902E+01  0.70844365719E+00  0.56459233258E+01  0.00000000000E+00 0.  1.
</event>
<event>
 7    1  0.3054835E-011  0.5052886E+02  0.7816164E-02  0.1300439E+00
        -11   -1    0    0    0    0  0.00000000000E+00  0.00000000000E+00  0.45593999997E+02  0.45594000000E+02  0.51100000000E-03 0.  1.
         11   -1    0    0    0    0 -0.00000000000E+00 -0.00000000000E+00 -0.45593999997E+02  0.45594000000E+02  0.51100000000E-03 0. -1.
    9900012    2    1    2    0    0  0.54158818775E+01  0.27249976778E+02  0.29686230321E+02  0.50528864722E+02  0.30000014810E+02 0.  0.
         12    1    1    2    0    0 -0.54158818775E+01 -0.27249976778E+02 -0.29686230321E+02  0.40659135278E+02  0.00000000000E+00 0. -1.
         11    1    3    3    0    0  0.84438428561E+01  0.53846656472E+01  0.57161396622E+00  0.10030944577E+02  0.51100000000E-03 0. -1.
        -11    1    3    3    0    0 -0.10167547825E+02  0.10887592013E+02  0.17620744292E+02  0.23073996582E+02  0.51100000000E-03 0.  1.
        -12    1    3    3    0    0  0.71395868466E+01  0.10977719117E+02  0.11493872063E+02  0.17423923564E+02  0.00000000000E+00 0.  1.
</event>
<event>
 7    1  0.3054835E-011  0.5052885E+02  0.7816164E-02  0.1300439E+00
        -11   -1    0    0    0    0  0.00000000000E+00  0.00000000000E+00  0.45593999997E+02  0.45594000000E+02  0.51100000000E-03 0. -1.
         11   -1    0    0    0    0 -0.00000000000E+00 -0.00000000000E+00 -0.45593999997E+02  0.45594000000E+02  0.51100000000E-03 0.  1.
    9900012    2    1    2    0    0 -0.15829664200E+02  0.37432468767E+02  0.11824290692E+01  0.50528854348E+02  0.29999983276E+02 0.  0.
         12    1    1    2    0    0  0.15829664200E+02 -0.37432468767E+02 -0.11824290692E+01  0.40659145652E+02  0.00000000000E+00 0. -1.
         11    1    3    3    0    0  0.56078914937E+01  0.21647037076E+02  0.45170897362E+00  0.22366195528E+02  0.51100000000E-03 0.  1.
        -11    1    3    3    0    0 -0.21602884878E+02  0.14530452943E+02 -0.95754394026E+00  0.26052554355E+02  0.51100000000E-03 0. -1.
         12    1    3    3    0    0  0.16532918392E+00  0.12549787486E+01  0.16882640358E+01  0.21101044650E+01  0.00000000000E+00 0. -1.
</event>
<event>
 7    1  0.3054835E-011  0.5052885E+02  0.7816164E-02  0.1300439E+00
        -11   -1    0    0    0    0  0.00000000000E+00  0.00000000000E+00  0.45593999997E+02  0.45594000000E+02  0.51100000000E-03 0. -1.
         11   -1    0    0    0    0 -0.00000000000E+00 -0.00000000000E+00 -0.45593999997E+02  0.45594000000E+02  0.51100000000E-03 0.  1.
    9900012    2    1    2    0    0 -0.38606298253E+02  0.11251878349E+02 -0.60096228347E+01  0.50528848536E+02  0.29999965610E+02 0.  0.
         12    1    1    2    0    0  0.38606298253E+02 -0.11251878349E+02  0.60096228347E+01  0.40659151464E+02  0.00000000000E+00 0. -1.
         11    1    3    3    0    0 -0.17648282999E+02 -0.50597100577E+01 -0.29621367607E+01  0.18596688230E+02  0.51100000000E-03 0. -1.
        -11    1    3    3    0    0 -0.21348442814E+02  0.12673668599E+02 -0.77181856222E+01  0.25999005287E+02  0.51100000000E-03 0.  1.
        -12    1    3    3    0    0  0.39042756039E+00  0.36379198079E+01  0.46706995481E+01  0.59331550188E+01  0.00000000000E+00 0.  1.
</event>
<event>
 7    1  0.3054835E-011  0.5052885E+02  0.7816164E-02  0.1300439E+00
        -11   -1    0    0    0    0  0.00000000000E+00  0.00000000000E+00  0.45593999997E+02  0.45594000000E+02  0.51100000000E-03 0.  1.
         11   -1    0    0    0    0 -0.00000000000E+00 -0.00000000000E+00 -0.45593999997E+02  0.45594000000E+02  0.51100000000E-03 0. -1.
    9900012    2    1    2    0    0 -0.35955141813E+02 -0.13046431961E+02 -0.13790757794E+02  0.50528848383E+02  0.29999965145E+02 0.  0.
         12    1    1    2    0    0  0.35955141813E+02  0.13046431961E+02  0.13790757794E+02  0.40659151617E+02  0.00000000000E+00 0. -1.
         11    1    3    3    0    0 -0.34082875539E+02 -0.51453256972E+01 -0.97050359686E+01  0.35809279593E+02  0.51100000000E-03 0. -1.
        -11    1    3    3    0    0  0.33611896436E+01 -0.58047844263E+01  0.14012811465E+01  0.68524964188E+01  0.51100000000E-03 0.  1.
         12    1    3    3    0    0 -0.52334559171E+01 -0.20963218372E+01 -0.54870029717E+01  0.78670723711E+01  0.00000000000E+00 0. -1.
</event>
<event>
 7    1  0.3054835E-011  0.5052885E+02  0.7816164E-02  0.1300439E+00
        -11   -1    0    0    0    0  0.00000000000E+00  0.00000000000E+00  0.45593999997E+02  0.45594000000E+02  0.51100000000E-03 0.  1.
         11   -1    0    0    0    0 -0.00000000000E+00 -0.00000000000E+00 -0.45593999997E+02  0.45594000000E+02  0.51100000000E-03 0. -1.
    9900012    2    1    2    0    0 -0.15440361293E+02 -0.28123835031E+02  0.24976214632E+02  0.50528854030E+02  0.29999982308E+02 0.  0.
         12    1    1    2    0    0  0.15440361293E+02  0.28123835031E+02 -0.24976214632E+02  0.40659145970E+02  0.00000000000E+00 0. -1.
         11    1    3    3    0    0 -0.83918475457E+00 -0.89152848521E+01 -0.23357903884E+01  0.92543207231E+01  0.51100000000E-03 0. -1.
        -11    1    3    3    0    0 -0.15276962718E+02 -0.18485744909E+02  0.30001775179E+02  0.38408525992E+02  0.51100000000E-03 0.  1.
        -12    1    3    3    0    0  0.67578618013E+00 -0.72280526991E+00 -0.26897701587E+01  0.28660073144E+01  0.00000000000E+00 0.  1.
</event>
<event>
 7    1  0.3054835E-011  0.5052886E+02  0.7816164E-02  0.1300439E+00
        -11   -1    0    0    0    0  0.00000000000E+00  0.00000000000E+00  0.45593999997E+02  0.45594000000E+02  0.51100000000E-03 0.  1.
         11   -1    0    0    0    0 -0.00000000000E+00 -0.00000000000E+00 -0.45593999997E+02  0.45594000000E+02  0.51100000000E-03 0. -1.
    9900012    2    1    2    0    0  0.19542086415E+01 -0.30213347816E+02  0.27138532575E+02  0.50528864889E+02  0.30000015316E+02 0.  0.
         12    1    1    2    0    0 -0.19542086415E+01  0.30213347816E+02 -0.27138532575E+02  0.40659135111E+02  0.00000000000E+00 0. -1.
         11    1    3    3    0    0 -0.56561160853E+01 -0.40203679578E+01  0.59006715860E+01  0.91089479697E+01  0.51100000000E-03 0. -1.
        -11    1    3    3    0    0  0.10662915694E+02 -0.27655877755E+02  0.23079763379E+02  0.37566219178E+02  0.51100000000E-03 0.  1.
        -12    1    3    3    0    0 -0.30525909668E+01  0.14628978969E+01 -0.18419023893E+01  0.38536977410E+01  0.00000000000E+00 0.  1.
</event>
<event>
 7    1  0.3054835E-011  0.5052886E+02  0.7816164E-02  0.1300439E+00
        -11   -1    0    0    0    0  0.00000000000E+00  0.00000000000E+00  0.45593999997E+02  0.45594000000E+02  0.51100000000E-03 0.  1.
         11   -1    0    0    0    0 -0.00000000000E+00 -0.00000000000E+00 -0.45593999997E+02  0.45594000000E+02  0.51100000000E-03 0. -1.
    9900012    2    1    2    0    0 -0.15247208394E+02 -0.18653144330E+02  0.32752837979E+02  0.50528861385E+02  0.30000004667E+02 0.  0.
         12    1    1    2    0    0  0.15247208394E+02  0.18653144330E+02 -0.32752837979E+02  0.40659138615E+02  0.00000000000E+00 0. -1.
         11    1    3    3    0    0  0.14931390577E+01 -0.22704121184E+01 -0.18496681647E+01  0.32871732558E+01  0.51100000000E-03 0. -1.
        -11    1    3    3    0    0 -0.48842875500E+01 -0.36314183758E+01  0.27946027828E+02  0.28601117739E+02  0.51100000000E-03 0.  1.
        -12    1    3    3    0    0 -0.11856059902E+02 -0.12751313836E+02  0.66564783163E+01  0.18640570391E+02  0.00000000000E+00 0.  1.
</event>
<event>
 7    1  0.3054835E-011  0.5052886E+02  0.7816164E-02  0.1300439E+00
        -11   -1    0    0    0    0  0.00000000000E+00  0.00000000000E+00  0.45593999997E+02  0.45594000000E+02  0.51100000000E-03 0.  1.
         11   -1    0    0    0    0 -0.00000000000E+00 -0.00000000000E+00 -0.45593999997E+02  0.45594000000E+02  0.51100000000E-03 0. -1.
    9900012    2    1    2    0    0 -0.24918832737E+02 -0.12885765656E+02  0.29430842008E+02  0.50528860279E+02  0.30000001305E+02 0.  0.
         12    1    1    2    0    0  0.24918832737E+02  0.12885765656E+02 -0.29430842008E+02  0.40659139721E+02  0.00000000000E+00 0. -1.
         11    1    3    3    0    0 -0.76319463866E+01  0.87030825082E+01  0.88771188137E+01  0.14587442870E+02  0.51100000000E-03 0. -1.
        -11    1    3    3    0    0 -0.16824867746E+02 -0.17365958258E+02  0.20488600363E+02  0.31692829252E+02  0.51100000000E-03 0.  1.
        -12    1    3    3    0    0 -0.46201860402E+00 -0.42228899059E+01  0.65122831623E-01  0.42485881573E+01  0.00000000000E+00 0.  1.
</event>
<event>
 7    1  0.3054835E-011  0.5052887E+02  0.7816164E-02  0.1300439E+00
        -11   -1    0    0    0    0  0.00000000000E+00  0.00000000000E+00  0.45593999997E+02  0.45594000000E+02  0.51100000000E-03 0.  1.
         11   -1    0    0    0    0 -0.00000000000E+00 -0.00000000000E+00 -0.45593999997E+02  0.45594000000E+02  0.51100000000E-03 0. -1.
    9900012    2    1    2    0    0 -0.22732780640E+02 -0.25977076393E+01  0.33610081487E+02  0.50528868452E+02  0.30000026148E+02 0.  0.
         12    1    1    2    0    0  0.22732780640E+02  0.25977076393E+01 -0.33610081487E+02  0.40659131548E+02  0.00000000000E+00 0. -1.
         11    1    3    3    0    0  0.27862675189E+01  0.48876556413E+01  0.23950111167E+01  0.61146171479E+01  0.51100000000E-03 0. -1.
        -11    1    3    3    0    0 -0.14476743440E+02 -0.11595231490E+02  0.24891869549E+02  0.31042401065E+02  0.51100000000E-03 0.  1.
        -12    1    3    3    0    0 -0.11042304719E+02  0.41098682098E+01  0.63232008216E+01  0.13371850240E+02  0.00000000000E+00 0.  1.
</event>
<event>
 7    1  0.3054835E-011  0.5052885E+02  0.7816164E-02  0.1300439E+00
        -11   -1    0    0    0    0  0.00000000000E+00  0.00000000000E+00  0.45593999997E+02  0.45594000000E+02  0.51100000000E-03 0.  1.
         11   -1    0    0    0    0 -0.00000000000E+00 -0.00000000000E+00 -0.45593999997E+02  0.45594000000E+02  0.51100000000E-03 0. -1.
    9900012    2    1    2    0    0 -0.91180545295E+01  0.39200954489E+02 -0.57717488163E+01  0.50528845611E+02  0.29999956718E+02 0.  0.
         12    1    1    2    0    0  0.91180545295E+01 -0.39200954489E+02  0.57717488163E+01  0.40659154389E+02  0.00000000000E+00 0. -1.
         11    1    3    3    0    0  0.30041863800E+01  0.10588185250E+02 -0.13673547933E+02  0.17552797955E+02  0.51100000000E-03 0. -1.
        -11    1    3    3    0    0 -0.94301133623E+01  0.18994909988E+02  0.18254753382E+01  0.21285347165E+02  0.51100000000E-03 0.  1.
         12    1    3    3    0    0 -0.26921275472E+01  0.96178592508E+01  0.60763237786E+01  0.11690700491E+02  0.00000000000E+00 0. -1.
</event>
<event>
 7    1  0.3054835E-011  0.5052887E+02  0.7816164E-02  0.1300439E+00
        -11   -1    0    0    0    0  0.00000000000E+00  0.00000000000E+00  0.45593999997E+02  0.45594000000E+02  0.51100000000E-03 0. -1.
         11   -1    0    0    0    0 -0.00000000000E+00 -0.00000000000E+00 -0.45593999997E+02  0.45594000000E+02  0.51100000000E-03 0.  1.
    9900012    2    1    2    0    0  0.38961240936E+02  0.50064700110E+01 -0.10493910695E+02  0.50528865738E+02  0.30000017898E+02 0.  0.
         12    1    1    2    0    0 -0.38961240936E+02 -0.50064700110E+01  0.10493910695E+02  0.40659134262E+02  0.00000000000E+00 0. -1.
         11    1    3    3    0    0  0.22998781320E+02 -0.66537625764E+01 -0.11474407920E+02  0.26549548697E+02  0.51100000000E-03 0. -1.
        -11    1    3    3    0    0  0.14754985482E+02  0.54652720960E+01  0.49840022292E+01  0.16505122664E+02  0.51100000000E-03 0.  1.
         12    1    3    3    0    0  0.12074741332E+01  0.61949604913E+01 -0.40035050038E+01  0.74741943771E+01  0.00000000000E+00 0. -1.
</event>
<event>
 7    1  0.3054835E-011  0.5052885E+02  0.7816164E-02  0.1300439E+00
        -11   -1    0    0    0    0  0.00000000000E+00  0.00000000000E+00  0.45593999997E+02  0.45594000000E+02  0.51100000000E-03 0. -1.
         11   -1    0    0    0    0 -0.00000000000E+00 -0.00000000000E+00 -0.45593999997E+02  0.45594000000E+02  0.51100000000E-03 0.  1.
    9900012    2    1    2    0    0  0.11540850826E+02 -0.26296612647E+02 -0.28783039939E+02  0.50528850198E+02  0.29999970661E+02 0.  0.
         12    1    1    2    0    0 -0.11540850826E+02  0.26296612647E+02  0.28783039939E+02  0.40659149802E+02  0.00000000000E+00 0. -1.
         11    1    3    3    0    0  0.11571874302E+02 -0.13031701630E+02 -0.16856636542E+01  0.17509282808E+02  0.51100000000E-03 0. -1.
        -11    1    3    3    0    0  0.19455503214E+01 -0.15469026402E+02 -0.24704848951E+02  0.29213105036E+02  0.51100000000E-03 0.  1.
         12    1    3    3    0    0 -0.19765737977E+01  0.22041153850E+01 -0.23925273336E+01  0.38064623537E+01  0.00000000000E+00 0. -1.
</event>
<event>
 7    1  0.3054835E-011  0.5052886E+02  0.7816164E-02  0.1300439E+00
        -11   -1    0    0    0    0  0.00000000000E+00  0.00000000000E+00  0.45593999997E+02  0.45594000000E+02  0.51100000000E-03 0. -1.
         11   -1    0    0    0    0 -0.00000000000E+00 -0.00000000000E+00 -0.45593999997E+02  0.45594000000E+02  0.51100000000E-03 0.  1.
    9900012    2    1    2    0    0  0.36477745631E+02 -0.16384577937E+02  0.73542883548E+01  0.50528857391E+02  0.29999992525E+02 0.  0.
         12    1    1    2    0    0 -0.36477745631E+02  0.16384577937E+02 -0.73542883548E+01  0.40659142609E+02  0.00000000000E+00 0. -1.
         11    1    3    3    0    0  0.31208219412E+02 -0.14032620251E+02  0.15622859112E+02  0.37615703065E+02  0.51100000000E-03 0. -1.
        -11    1    3    3    0    0  0.49964042690E+01  0.85931333955E+00 -0.82582635778E+01  0.96902730930E+01  0.51100000000E-03 0.  1.
         12    1    3    3    0    0  0.27312195026E+00 -0.32112710258E+01 -0.10307179698E-01  0.32228812325E+01  0.00000000000E+00 0. -1.
</event>
<event>
 7    1  0.3054835E-011  0.5052884E+02  0.7816164E-02  0.1300439E+00
        -11   -1    0    0    0    0  0.00000000000E+00  0.00000000000E+00  0.45593999997E+02  0.45594000000E+02  0.51100000000E-03 0. -1.
         11   -1    0    0    0    0 -0.00000000000E+00 -0.00000000000E+00 -0.45593999997E+02  0.45594000000E+02  0.51100000000E-03 0.  1.
    9900012    2    1    2    0    0 -0.16852628081E+01  0.32133218595E+01 -0.40496933173E+02  0.50528841813E+02  0.29999945174E+02 0.  0.
         12    1    1    2    0    0  0.16852628081E+01 -0.32133218595E+01  0.40496933173E+02  0.40659158187E+02  0.00000000000E+00 0. -1.
         11    1    3    3    0    0  0.33618861746E+01  0.11765223555E+02 -0.29918664164E+02  0.32324127669E+02  0.51100000000E-03 0. -1.
        -11    1    3    3    0    0 -0.23197006517E+01 -0.10338075060E+02 -0.49366004275E+01  0.11688748055E+02  0.51100000000E-03 0.  1.
        -12    1    3    3    0    0 -0.27274483310E+01  0.17861733645E+01 -0.56416685810E+01  0.65159660883E+01  0.00000000000E+00 0.  1.
</event>
<event>
 7    1  0.3054835E-011  0.5052887E+02  0.7816164E-02  0.1300439E+00
        -11   -1    0    0    0    0  0.00000000000E+00  0.00000000000E+00  0.45593999997E+02  0.45594000000E+02  0.51100000000E-03 0.  1.
         11   -1    0    0    0    0 -0.00000000000E+00 -0.00000000000E+00 -0.45593999997E+02  0.45594000000E+02  0.51100000000E-03 0. -1.
    9900012    2    1    2    0    0  0.98571613830E+01  0.24783753566E+02  0.30688213836E+02  0.50528873844E+02  0.30000042536E+02 0.  0.
         12    1    1    2    0    0 -0.98571613830E+01 -0.24783753566E+02 -0.30688213836E+02  0.40659126156E+02  0.00000000000E+00 0. -1.
         11    1    3    3    0    0  0.95635608257E+01  0.12720117696E+02  0.88255706902E+00  0.15938694963E+02  0.51100000000E-03 0. -1.
        -11    1    3    3    0    0 -0.59069618556E+01  0.75521026288E+01  0.13356706131E+02  0.16441655981E+02  0.51100000000E-03 0.  1.
        -12    1    3    3    0    0  0.62005624129E+01  0.45115332409E+01  0.16448950636E+02  0.18148522900E+02  0.00000000000E+00 0.  1.
</event>
<event>
 7    1  0.3054835E-011  0.5052887E+02  0.7816164E-02  0.1300439E+00
        -11   -1    0    0    0    0  0.00000000000E+00  0.00000000000E+00  0.45593999997E+02  0.45594000000E+02  0.51100000000E-03 0.  1.
         11   -1    0    0    0    0 -0.00000000000E+00 -0.00000000000E+00 -0.45593999997E+02  0.45594000000E+02  0.51100000000E-03 0. -1.
    9900012    2    1    2    0    0 -0.26306639425E+02 -0.21832219566E+02  0.22010898394E+02  0.50528871417E+02  0.30000035160E+02 0.  0.
         12    1    1    2    0    0  0.26306639425E+02  0.21832219566E+02 -0.22010898394E+02  0.40659128583E+02  0.00000000000E+00 0. -1.
         11    1    3    3    0    0 -0.10136887570E+02 -0.15265454290E+02  0.89148313907E+01  0.20378047092E+02  0.51100000000E-03 0.  1.
        -11    1    3    3    0    0 -0.12595242599E+02 -0.65754507145E+00 -0.27113986961E+01  0.12900549786E+02  0.51100000000E-03 0. -1.
        -12    1    3    3    0    0 -0.35745092563E+01 -0.59092202042E+01  0.15807465699E+02  0.17250274539E+02  0.00000000000E+00 0.  1.
</event>
<event>
 7    1  0.3054835E-011  0.5052877E+02  0.7816164E-02  0.1300439E+00
        -11   -1    0    0    0    0  0.00000000000E+00  0.00000000000E+00  0.45593999997E+02  0.45594000000E+02  0.51100000000E-03 0.  1.
         11   -1    0    0    0    0 -0.00000000000E+00 -0.00000000000E+00 -0.45593999997E+02  0.45594000000E+02  0.51100000000E-03 0. -1.
    9900012    2    1    2    0    0  0.13521025919E+02  0.26661020101E+02  0.27559841569E+02  0.50528769780E+02  0.29999726223E+02 0.  0.
         12    1    1    2    0    0 -0.13521025919E+02 -0.26661020101E+02 -0.27559841569E+02  0.40659230220E+02  0.00000000000E+00 0. -1.
         11    1    3    3    0    0  0.19016032686E+01 -0.44600165892E+01  0.55500661515E+01  0.73696049768E+01  0.51100000000E-03 0. -1.
        -11    1    3    3    0    0  0.15909467087E+02  0.25062472145E+02  0.18106732305E+02  0.34772006097E+02  0.51100000000E-03 0.  1.
         12    1    3    3    0    0 -0.42900444367E+01  0.60585645454E+01  0.39030431130E+01  0.83871587061E+01  0.00000000000E+00 0. -1.
</event>
<event>
 7    1  0.3054835E-011  0.5052885E+02  0.7816164E-02  0.1300439E+00
        -11   -1    0    0    0    0  0.00000000000E+00  0.00000000000E+00  0.45593999997E+02  0.45594000000E+02  0.51100000000E-03 0.  1.
         11   -1    0    0    0    0 -0.00000000000E+00 -0.00000000000E+00 -0.45593999997E+02  0.45594000000E+02  0.51100000000E-03 0. -1.
    9900012    2    1    2    0    0  0.29727419853E+02 -0.25813076471E+02  0.10155401768E+02  0.50528848593E+02  0.29999965784E+02 0.  0.
         12    1    1    2    0    0 -0.29727419853E+02  0.25813076471E+02 -0.10155401768E+02  0.40659151407E+02  0.00000000000E+00 0. -1.
         11    1    3    3    0    0  0.34733881124E+01  0.30075319367E+00 -0.49714222838E+01  0.60720603792E+01  0.51100000000E-03 0. -1.
        -11    1    3    3    0    0  0.26630283102E+02 -0.15004388112E+02  0.95705235331E+01  0.32029651289E+02  0.51100000000E-03 0.  1.
        -12    1    3    3    0    0 -0.37625136132E+00 -0.11109441553E+02  0.55563005185E+01  0.12427136925E+02  0.00000000000E+00 0.  1.
</event>
<event>
 7    1  0.3054835E-011  0.5052886E+02  0.7816164E-02  0.1300439E+00
        -11   -1    0    0    0    0  0.00000000000E+00  0.00000000000E+00  0.45593999997E+02  0.45594000000E+02  0.51100000000E-03 0. -1.
         11   -1    0    0    0    0 -0.00000000000E+00 -0.00000000000E+00 -0.45593999997E+02  0.45594000000E+02  0.51100000000E-03 0.  1.
    9900012    2    1    2    0    0 -0.18211664202E+01 -0.39772989421E+02  0.82436913266E+01  0.50528858576E+02  0.29999996129E+02 0.  0.
         12    1    1    2    0    0  0.18211664202E+01  0.39772989421E+02 -0.82436913266E+01  0.40659141424E+02  0.00000000000E+00 0. -1.
         11    1    3    3    0    0 -0.37003932357E+01 -0.10755881349E+02  0.11336171725E+02  0.16058975164E+02  0.51100000000E-03 0. -1.
        -11    1    3    3    0    0  0.95161920488E+01 -0.15950205524E+02 -0.49493893261E+01  0.19221431328E+02  0.51100000000E-03 0.  1.
        -12    1    3    3    0    0 -0.76369652333E+01 -0.13066902548E+02  0.18569089281E+01  0.15248452084E+02  0.00000000000E+00 0.  1.
</event>
<event>
 7    1  0.3054835E-011  0.5052885E+02  0.7816164E-02  0.1300439E+00
        -11   -1    0    0    0    0  0.00000000000E+00  0.00000000000E+00  0.45593999997E+02  0.45594000000E+02  0.51100000000E-03 0. -1.
         11   -1    0    0    0    0 -0.00000000000E+00 -0.00000000000E+00 -0.45593999997E+02  0.45594000000E+02  0.51100000000E-03 0.  1.
    9900012    2    1    2    0    0 -0.31966089416E+02  0.20604487479E+02 -0.14380215846E+02  0.50528851157E+02  0.29999973577E+02 0.  0.
         12    1    1    2    0    0  0.31966089416E+02 -0.20604487479E+02  0.14380215846E+02  0.40659148843E+02  0.00000000000E+00 0. -1.
         11    1    3    3    0    0 -0.77800729391E+01  0.19202464952E+02 -0.59850834578E+01  0.21565839177E+02  0.51100000000E-03 0. -1.
        -11    1    3    3    0    0 -0.16218050091E+02 -0.30751937599E+01 -0.10526920886E+02  0.19577998596E+02  0.51100000000E-03 0.  1.
         12    1    3    3    0    0 -0.79679663859E+01  0.44772162872E+01  0.21317884985E+01  0.93850133837E+01  0.00000000000E+00 0. -1.
</event>
<event>
 7    1  0.3054835E-011  0.5052887E+02  0.7816164E-02  0.1300439E+00
        -11   -1    0    0    0    0  0.00000000000E+00  0.00000000000E+00  0.45593999997E+02  0.45594000000E+02  0.51100000000E-03 0.  1.
         11   -1    0    0    0    0 -0.00000000000E+00 -0.00000000000E+00 -0.45593999997E+02  0.45594000000E+02  0.51100000000E-03 0. -1.
    9900012    2    1    2    0    0  0.30674146348E+02 -0.38000211375E+01  0.26416312631E+02  0.50528868334E+02  0.30000025788E+02 0.  0.
         12    1    1    2    0    0 -0.30674146348E+02  0.38000211375E+01 -0.26416312631E+02  0.40659131666E+02  0.00000000000E+00 0. -1.
         11    1    3    3    0    0 -0.38956902046E+00  0.18477088323E+01  0.15160861522E+02  0.15278007537E+02  0.51100000000E-03 0. -1.
        -11    1    3    3    0    0  0.14695608444E+02 -0.80738229534E+01  0.43627636645E+01  0.17325738994E+02  0.51100000000E-03 0.  1.
         12    1    3    3    0    0  0.16368106924E+02  0.24260929836E+01  0.68926874446E+01  0.17925121803E+02  0.00000000000E+00 0. -1.
</event>
<event>
 7    1  0.3054835E-011  0.5052891E+02  0.7816164E-02  0.1300439E+00
        -11   -1    0    0    0    0  0.00000000000E+00  0.00000000000E+00  0.45593999997E+02  0.45594000000E+02  0.51100000000E-03 0.  1.
         11   -1    0    0    0    0 -0.00000000000E+00 -0.00000000000E+00 -0.45593999997E+02  0.45594000000E+02  0.51100000000E-03 0. -1.
    9900012    2    1    2    0    0  0.19986547189E+02 -0.28300905723E+02  0.21278114260E+02  0.50528911475E+02  0.30000156918E+02 0.  0.
         12    1    1    2    0    0 -0.19986547189E+02  0.28300905723E+02 -0.21278114260E+02  0.40659088525E+02  0.00000000000E+00 0. -1.
         11    1    3    3    0    0  0.64797396503E+01 -0.31198961989E+01  0.10678786831E+02  0.12874675400E+02  0.51100000000E-03 0. -1.
        -11    1    3    3    0    0  0.12402678672E+02 -0.20166278511E+02 -0.22844040508E+01  0.23784947537E+02  0.51100000000E-03 0.  1.
        -12    1    3    3    0    0  0.11041288668E+01 -0.50147310135E+01  0.12883731480E+02  0.13869288537E+02  0.00000000000E+00 0.  1.
</event>
<event>
 7    1  0.3054835E-011  0.5052886E+02  0.7816164E-02  0.1300439E+00
        -11   -1    0    0    0    0  0.00000000000E+00  0.00000000000E+00  0.45593999997E+02  0.45594000000E+02  0.51100000000E-03 0. -1.
         11   -1    0    0    0    0 -0.00000000000E+00 -0.00000000000E+00 -0.45593999997E+02  0.45594000000E+02  0.51100000000E-03 0.  1.
    9900012    2    1    2    0    0  0.35786268819E+02 -0.16320358401E+02 -0.10303121322E+02  0.50528862733E+02  0.30000008762E+02 0.  0.
         12    1    1    2    0    0 -0.35786268819E+02  0.16320358401E+02  0.10303121322E+02  0.40659137267E+02  0.00000000000E+00 0. -1.
         11    1    3    3    0    0  0.36068879736E+02 -0.41776635476E+01 -0.96707216624E+01  0.37575787628E+02  0.51100000000E-03 0.  1.
        -11    1    3    3    0    0 -0.22531488916E+01 -0.52019021109E+01  0.30629271294E+00  0.56771719179E+01  0.51100000000E-03 0. -1.
        -12    1    3    3    0    0  0.19705379746E+01 -0.69407927430E+01 -0.93869237302E+00  0.72759031866E+01  0.00000000000E+00 0.  1.
</event>
<event>
 7    1  0.3054835E-011  0.5052885E+02  0.7816164E-02  0.1300439E+00
        -11   -1    0    0    0    0  0.00000000000E+00  0.00000000000E+00  0.45593999997E+02  0.45594000000E+02  0.51100000000E-03 0. -1.
         11   -1    0    0    0    0 -0.00000000000E+00 -0.00000000000E+00 -0.45593999997E+02  0.45594000000E+02  0.51100000000E-03 0.  1.
    9900012    2    1    2    0    0 -0.31210185909E+02  0.83658367477E+01 -0.24680016927E+02  0.50528853864E+02  0.29999981805E+02 0.  0.
         12    1    1    2    0    0  0.31210185909E+02 -0.83658367477E+01  0.24680016927E+02  0.40659146136E+02  0.00000000000E+00 0. -1.
         11    1    3    3    0    0  0.18125643981E+01  0.34769137436E+01  0.39777361834E+01  0.55854009957E+01  0.51100000000E-03 0. -1.
        -11    1    3    3    0    0 -0.23956579412E+02  0.50342900122E+01 -0.15535924601E+02  0.28993563536E+02  0.51100000000E-03 0.  1.
        -12    1    3    3    0    0 -0.90661708952E+01 -0.14536700807E+00 -0.13121828510E+02  0.15949889332E+02  0.00000000000E+00 0.  1.
</event>
<event>
 7    1  0.3054835E-011  0.5052886E+02  0.7816164E-02  0.1300439E+00
        -11   -1    0    0    0    0  0.00000000000E+00  0.00000000000E+00  0.45593999997E+02  0.45594000000E+02  0.51100000000E-03 0.  1.
         11   -1    0    0    0    0 -0.00000000000E+00 -0.00000000000E+00 -0.45593999997E+02  0.45594000000E+02  0.51100000000E-03 0. -1.
    9900012    2    1    2    0    0  0.19519016045E+02 -0.10994843145E+02  0.33930620342E+02  0.50528861298E+02  0.30000004402E+02 0.  0.
         12    1    1    2    0    0 -0.19519016045E+02  0.10994843145E+02 -0.33930620342E+02  0.40659138702E+02  0.00000000000E+00 0. -1.
         11    1    3    3    0    0 -0.29587304158E+01  0.38661359152E+01  0.13648584570E+01  0.50560786640E+01  0.51100000000E-03 0. -1.
        -11    1    3    3    0    0  0.21963454176E+02 -0.58994237234E+01  0.22634877187E+02  0.32086355124E+02  0.51100000000E-03 0.  1.
        -12    1    3    3    0    0  0.51429228537E+00 -0.89615553365E+01  0.99308846979E+01  0.13386427510E+02  0.00000000000E+00 0.  1.
</event>
<event>
 7    1  0.3054835E-011  0.5052888E+02  0.7816164E-02  0.1300439E+00
        -11   -1    0    0    0    0  0.00000000000E+00  0.00000000000E+00  0.45593999997E+02  0.45594000000E+02  0.51100000000E-03 0.  1.
         11   -1    0    0    0    0 -0.00000000000E+00 -0.00000000000E+00 -0.45593999997E+02  0.45594000000E+02  0.51100000000E-03 0. -1.
    9900012    2    1    2    0    0  0.80347297959E+01 -0.64116446424E+01  0.39338252706E+02  0.50528878073E+02  0.30000055389E+02 0.  0.
         12    1    1    2    0    0 -0.80347297959E+01  0.64116446424E+01 -0.39338252706E+02  0.40659121927E+02  0.00000000000E+00 0. -1.
         11    1    3    3    0    0 -0.68236832270E+01 -0.88269935030E+01  0.13812813919E+02  0.17755908755E+02  0.51100000000E-03 0. -1.
        -11    1    3    3    0    0  0.16690721932E+02 -0.45840870127E+00  0.23434795385E+02  0.28774641130E+02  0.51100000000E-03 0.  1.
        -12    1    3    3    0    0 -0.18323089090E+01  0.28737575618E+01  0.20906434020E+01  0.39983281877E+01  0.00000000000E+00 0.  1.
</event>
<event>
 7    1  0.3054835E-011  0.5052878E+02  0.7816164E-02  0.1300439E+00
        -11   -1    0    0    0    0  0.00000000000E+00  0.00000000000E+00  0.45593999997E+02  0.45594000000E+02  0.51100000000E-03 0.  1.
         11   -1    0    0    0    0 -0.00000000000E+00 -0.00000000000E+00 -0.45593999997E+02  0.45594000000E+02  0.51100000000E-03 0. -1.
    9900012    2    1    2    0    0 -0.27951577945E+02  0.79363703883E+01  0.28441089457E+02  0.50528778979E+02  0.29999754184E+02 0.  0.
         12    1    1    2    0    0  0.27951577945E+02 -0.79363703883E+01 -0.28441089457E+02  0.40659221021E+02  0.00000000000E+00 0. -1.
         11    1    3    3    0    0 -0.18577426541E+02  0.75257550862E+01  0.27577398646E+01  0.20232718451E+02  0.51100000000E-03 0. -1.
        -11    1    3    3    0    0 -0.99679066233E+01  0.33152359945E+01  0.25187369016E+02  0.27290172414E+02  0.51100000000E-03 0.  1.
        -12    1    3    3    0    0  0.59375521928E+00 -0.29046206924E+01  0.49598057600E+00  0.30058881149E+01  0.00000000000E+00 0.  1.
</event>
<event>
 7    1  0.3054835E-011  0.5052886E+02  0.7816164E-02  0.1300439E+00
        -11   -1    0    0    0    0  0.00000000000E+00  0.00000000000E+00  0.45593999997E+02  0.45594000000E+02  0.51100000000E-03 0. -1.
         11   -1    0    0    0    0 -0.00000000000E+00 -0.00000000000E+00 -0.45593999997E+02  0.45594000000E+02  0.51100000000E-03 0.  1.
    9900012    2    1    2    0    0  0.20819479931E+02  0.29549050685E+02 -0.18616356761E+02  0.50528857362E+02  0.29999992437E+02 0.  0.
         12    1    1    2    0    0 -0.20819479931E+02 -0.29549050685E+02  0.18616356761E+02  0.40659142638E+02  0.00000000000E+00 0. -1.
         11    1    3    3    0    0  0.15337499335E+02  0.92866022562E+01 -0.19605422190E+02  0.26567883748E+02  0.51100000000E-03 0. -1.
        -11    1    3    3    0    0  0.76130591818E+01  0.20153588085E+02 -0.14586388302E+00  0.21544072487E+02  0.51100000000E-03 0.  1.
         12    1    3    3    0    0 -0.21310785858E+01  0.10886034408E+00  0.11349293115E+01  0.24169011266E+01  0.00000000000E+00 0. -1.
</event>
<event>
 7    1  0.3054835E-011  0.5052884E+02  0.7816164E-02  0.1300439E+00
        -11   -1    0    0    0    0  0.00000000000E+00  0.00000000000E+00  0.45593999997E+02  0.45594000000E+02  0.51100000000E-03 0.  1.
         11   -1    0    0    0    0 -0.00000000000E+00 -0.00000000000E+00 -0.45593999997E+02  0.45594000000E+02  0.51100000000E-03 0. -1.
    9900012    2    1    2    0    0 -0.92949802447E+01 -0.38710482030E+02  0.82625135543E+01  0.50528841045E+02  0.29999942840E+02 0.  0.
         12    1    1    2    0    0  0.92949802447E+01  0.38710482030E+02 -0.82625135543E+01  0.40659158955E+02  0.00000000000E+00 0. -1.
         11    1    3    3    0    0 -0.19889643580E+01  0.33005133448E+01 -0.59351687834E+00  0.38989267886E+01  0.51100000000E-03 0. -1.
        -11    1    3    3    0    0 -0.76595480683E+01 -0.29584431675E+02 -0.12846908280E+01  0.30586887794E+02  0.51100000000E-03 0.  1.
        -12    1    3    3    0    0  0.35353218151E+00 -0.12426563699E+02  0.10140721261E+02  0.16043026462E+02  0.00000000000E+00 0.  1.
</event>
<event>
 7    1  0.3054835E-011  0.5052885E+02  0.7816164E-02  0.1300439E+00
        -11   -1    0    0    0    0  0.00000000000E+00  0.00000000000E+00  0.45593999997E+02  0.45594000000E+02  0.51100000000E-03 0. -1.
         11   -1    0    0    0    0 -0.00000000000E+00 -0.00000000000E+00 -0.45593999997E+02  0.45594000000E+02  0.51100000000E-03 0.  1.
    9900012    2    1    2    0    0  0.30376885135E+02  0.26694620731E+02 -0.42200152410E+01  0.50528850290E+02  0.29999970942E+02 0.  0.
         12    1    1    2    0    0 -0.30376885135E+02 -0.26694620731E+02  0.42200152410E+01  0.40659149710E+02  0.00000000000E+00 0. -1.
         11    1    3    3    0    0  0.30868979666E+01 -0.42596235491E+01  0.44296410773E+01  0.68771398249E+01  0.51100000000E-03 0. -1.
        -11    1    3    3    0    0  0.10433485337E+02  0.19954511001E+02 -0.28002498087E+01  0.22691000965E+02  0.51100000000E-03 0.  1.
        -12    1    3    3    0    0  0.16856501832E+02  0.10999733279E+02 -0.58494065096E+01  0.20960709500E+02  0.00000000000E+00 0.  1.
</event>
<event>
 7    1  0.3054835E-011  0.5052886E+02  0.7816164E-02  0.1300439E+00
        -11   -1    0    0    0    0  0.00000000000E+00  0.00000000000E+00  0.45593999997E+02  0.45594000000E+02  0.51100000000E-03 0.  1.
         11   -1    0    0    0    0 -0.00000000000E+00 -0.00000000000E+00 -0.45593999997E+02  0.45594000000E+02  0.51100000000E-03 0. -1.
    9900012    2    1    2    0    0  0.36704922023E+00 -0.78957508698E+01  0.39883432982E+02  0.50528857936E+02  0.29999994183E+02 0.  0.
         12    1    1    2    0    0 -0.36704922023E+00  0.78957508698E+01 -0.39883432982E+02  0.40659142064E+02  0.00000000000E+00 0. -1.
         11    1    3    3    0    0 -0.16176179651E+00 -0.38989447806E+00  0.27166730463E+02  0.27170009733E+02  0.51100000000E-03 0.  1.
        -11    1    3    3    0    0  0.41951425672E+01  0.41950749790E+01  0.34914684062E+00  0.59430445915E+01  0.51100000000E-03 0. -1.
        -12    1    3    3    0    0 -0.36663315505E+01 -0.11700931371E+02  0.12367555679E+02  0.17415803612E+02  0.00000000000E+00 0.  1.
</event>
<event>
 7    1  0.3054835E-011  0.5052886E+02  0.7816164E-02  0.1300439E+00
        -11   -1    0    0    0    0  0.00000000000E+00  0.00000000000E+00  0.45593999997E+02  0.45594000000E+02  0.51100000000E-03 0.  1.
         11   -1    0    0    0    0 -0.00000000000E+00 -0.00000000000E+00 -0.45593999997E+02  0.45594000000E+02  0.51100000000E-03 0. -1.
    9900012    2    1    2    0    0  0.11901204621E+02  0.23772914994E+02  0.30763212499E+02  0.50528863241E+02  0.30000010307E+02 0.  0.
         12    1    1    2    0    0 -0.11901204621E+02 -0.23772914994E+02 -0.30763212499E+02  0.40659136759E+02  0.00000000000E+00 0. -1.
         11    1    3    3    0    0  0.72918728985E+01  0.12844610921E+02 -0.24593522514E+00  0.14772133376E+02  0.51100000000E-03 0. -1.
        -11    1    3    3    0    0  0.63025508856E+01  0.12468494423E+01  0.19961692189E+02  0.20970120088E+02  0.51100000000E-03 0.  1.
        -12    1    3    3    0    0 -0.16932191626E+01  0.96814546310E+01  0.11047455535E+02  0.14786609777E+02  0.00000000000E+00 0.  1.
</event>
<event>
 7    1  0.3054835E-011  0.5052886E+02  0.7816164E-02  0.1300439E+00
        -11   -1    0    0    0    0  0.00000000000E+00  0.00000000000E+00  0.45593999997E+02  0.45594000000E+02  0.51100000000E-03 0. -1.
         11   -1    0    0    0    0 -0.00000000000E+00 -0.00000000000E+00 -0.45593999997E+02  0.45594000000E+02  0.51100000000E-03 0.  1.
    9900012    2    1    2    0    0 -0.16693707636E+02 -0.31917290716E+02 -0.18861932308E+02  0.50528858203E+02  0.29999994994E+02 0.  0.
         12    1    1    2    0    0  0.16693707636E+02  0.31917290716E+02  0.18861932308E+02  0.40659141797E+02  0.00000000000E+00 0. -1.
         11    1    3    3    0    0 -0.79940832840E+00 -0.22427974758E+02 -0.10466760591E+02  0.24763000282E+02  0.51100000000E-03 0. -1.
        -11    1    3    3    0    0 -0.37634079132E+01 -0.86072243671E+00  0.45998669454E+01  0.60052359163E+01  0.51100000000E-03 0.  1.
        -12    1    3    3    0    0 -0.12130891394E+02 -0.86285935211E+01 -0.12995038663E+02  0.19760622005E+02  0.00000000000E+00 0.  1.
</event>
<event>
 7    1  0.3054835E-011  0.5052888E+02  0.7816164E-02  0.1300439E+00
        -11   -1    0    0    0    0  0.00000000000E+00  0.00000000000E+00  0.45593999997E+02  0.45594000000E+02  0.51100000000E-03 0.  1.
         11   -1    0    0    0    0 -0.00000000000E+00 -0.00000000000E+00 -0.45593999997E+02  0.45594000000E+02  0.51100000000E-03 0. -1.
    9900012    2    1    2    0    0  0.12964811028E+01 -0.19823184200E+02  0.35475692490E+02  0.50528877374E+02  0.30000053266E+02 0.  0.
         12    1    1    2    0    0 -0.12964811028E+01  0.19823184200E+02 -0.35475692490E+02  0.40659122626E+02  0.00000000000E+00 0. -1.
         11    1    3    3    0    0 -0.14407165546E+01  0.29175247193E+01 -0.34968938292E+01  0.47765972608E+01  0.51100000000E-03 0. -1.
        -11    1    3    3    0    0  0.15440366504E+01 -0.12243897313E+02  0.27581010373E+02  0.30216042164E+02  0.51100000000E-03 0.  1.
         12    1    3    3    0    0  0.11931610070E+01 -0.10496811606E+02  0.11391575945E+02  0.15536237949E+02  0.00000000000E+00 0. -1.
</event>
<event>
 7    1  0.3054835E-011  0.5052884E+02  0.7816164E-02  0.1300439E+00
        -11   -1    0    0    0    0  0.00000000000E+00  0.00000000000E+00  0.45593999997E+02  0.45594000000E+02  0.51100000000E-03 0.  1.
         11   -1    0    0    0    0 -0.00000000000E+00 -0.00000000000E+00 -0.45593999997E+02  0.45594000000E+02  0.51100000000E-03 0. -1.
    9900012    2    1    2    0    0 -0.23063672763E+02  0.32197570133E+02  0.91951360225E+01  0.50528842972E+02  0.29999948696E+02 0.  0.
         12    1    1    2    0    0  0.23063672763E+02 -0.32197570133E+02 -0.91951360225E+01  0.40659157028E+02  0.00000000000E+00 0. -1.
         11    1    3    3    0    0 -0.57644886824E+01  0.15440366806E+02  0.14648381726E+02  0.22050155200E+02  0.51100000000E-03 0. -1.
        -11    1    3    3    0    0 -0.12694237124E+02  0.16963799877E+02  0.19465513852E+00  0.21188488699E+02  0.51100000000E-03 0.  1.
         12    1    3    3    0    0 -0.46049469561E+01 -0.20659655048E+00 -0.56479008420E+01  0.72901990731E+01  0.00000000000E+00 0. -1.
</event>
<event>
 7    1  0.3054835E-011  0.5052886E+02  0.7816164E-02  0.1300439E+00
        -11   -1    0    0    0    0  0.00000000000E+00  0.00000000000E+00  0.45593999997E+02  0.45594000000E+02  0.51100000000E-03 0.  1.
         11   -1    0    0    0    0 -0.00000000000E+00 -0.00000000000E+00 -0.45593999997E+02  0.45594000000E+02  0.51100000000E-03 0. -1.
    9900012    2    1    2    0    0 -0.61728773209E+00 -0.10362052588E+02  0.39311733905E+02  0.50528860799E+02  0.30000002884E+02 0.  0.
         12    1    1    2    0    0  0.61728773209E+00  0.10362052588E+02 -0.39311733905E+02  0.40659139201E+02  0.00000000000E+00 0. -1.
         11    1    3    3    0    0 -0.72954535180E+01 -0.19275351791E+01 -0.13433653509E+01  0.76644415730E+01  0.51100000000E-03 0. -1.
        -11    1    3    3    0    0  0.63079397565E+01 -0.10040007777E+02  0.37039997023E+02  0.38891557437E+02  0.51100000000E-03 0.  1.
        -12    1    3    3    0    0  0.37022602942E+00  0.16054903689E+01  0.36151022326E+01  0.39728617884E+01  0.00000000000E+00 0.  1.
</event>
<event>
 7    1  0.3054835E-011  0.5052886E+02  0.7816164E-02  0.1300439E+00
        -11   -1    0    0    0    0  0.00000000000E+00  0.00000000000E+00  0.45593999997E+02  0.45594000000E+02  0.51100000000E-03 0.  1.
         11   -1    0    0    0    0 -0.00000000000E+00 -0.00000000000E+00 -0.45593999997E+02  0.45594000000E+02  0.51100000000E-03 0. -1.
    9900012    2    1    2    0    0  0.13836306814E+02  0.21318448786E+02  0.31737141589E+02  0.50528858333E+02  0.29999995389E+02 0.  0.
         12    1    1    2    0    0 -0.13836306814E+02 -0.21318448786E+02 -0.31737141589E+02  0.40659141667E+02  0.00000000000E+00 0. -1.
         11    1    3    3    0    0  0.11373380300E+02 -0.39564676124E+01  0.79166127023E+01  0.14411112807E+02  0.51100000000E-03 0. -1.
        -11    1    3    3    0    0  0.47084776682E+01  0.13641750467E+02  0.84935959598E+01  0.16745396094E+02  0.51100000000E-03 0.  1.
         12    1    3    3    0    0 -0.22455511537E+01  0.11633165932E+02  0.15326932926E+02  0.19372349432E+02  0.00000000000E+00 0. -1.
</event>
<event>
 7    1  0.3054835E-011  0.5052886E+02  0.7816164E-02  0.1300439E+00
        -11   -1    0    0    0    0  0.00000000000E+00  0.00000000000E+00  0.45593999997E+02  0.45594000000E+02  0.51100000000E-03 0.  1.
         11   -1    0    0    0    0 -0.00000000000E+00 -0.00000000000E+00 -0.45593999997E+02  0.45594000000E+02  0.51100000000E-03 0. -1.
    9900012    2    1    2    0    0 -0.36078413806E+02  0.15167533181E+02 -0.11020875596E+02  0.50528859521E+02  0.29999999001E+02 0.  0.
         12    1    1    2    0    0  0.36078413806E+02 -0.15167533181E+02  0.11020875596E+02  0.40659140479E+02  0.00000000000E+00 0. -1.
         11    1    3    3    0    0  0.23395330131E+01  0.52106523470E+01  0.19769705453E+01  0.60442307532E+01  0.51100000000E-03 0. -1.
        -11    1    3    3    0    0 -0.32921165352E+02  0.21593678847E+01 -0.96539072546E+01  0.34375338883E+02  0.51100000000E-03 0.  1.
        -12    1    3    3    0    0 -0.54967814672E+01  0.77975129491E+01 -0.33439388868E+01  0.10109289884E+02  0.00000000000E+00 0.  1.
</event>
<event>
 7    1  0.3054835E-011  0.5052889E+02  0.7816164E-02  0.1300439E+00
        -11   -1    0    0    0    0  0.00000000000E+00  0.00000000000E+00  0.45593999997E+02  0.45594000000E+02  0.51100000000E-03 0. -1.
         11   -1    0    0    0    0 -0.00000000000E+00 -0.00000000000E+00 -0.45593999997E+02  0.45594000000E+02  0.51100000000E-03 0.  1.
    9900012    2    1    2    0    0 -0.12168509663E+02 -0.43065980010E+01 -0.38555720159E+02  0.50528893139E+02  0.30000101184E+02 0.  0.
         12    1    1    2    0    0  0.12168509663E+02  0.43065980010E+01  0.38555720159E+02  0.40659106861E+02  0.00000000000E+00 0. -1.
         11    1    3    3    0    0 -0.83481645084E+01 -0.96683710587E+01 -0.18810381806E+01  0.12911527969E+02  0.51100000000E-03 0. -1.
        -11    1    3    3    0    0 -0.44961609974E+01  0.21998879250E+01 -0.25385666044E+02  0.25874447074E+02  0.51100000000E-03 0.  1.
         12    1    3    3    0    0  0.67581584311E+00  0.31618851328E+01 -0.11289015934E+02  0.11742918096E+02  0.00000000000E+00 0. -1.
</event>
<event>
 7    1  0.3054835E-011  0.5052886E+02  0.7816164E-02  0.1300439E+00
        -11   -1    0    0    0    0  0.00000000000E+00  0.00000000000E+00  0.45593999997E+02  0.45594000000E+02  0.51100000000E-03 0. -1.
         11   -1    0    0    0    0 -0.00000000000E+00 -0.00000000000E+00 -0.45593999997E+02  0.45594000000E+02  0.51100000000E-03 0.  1.
    9900012    2    1    2    0    0 -0.16258882575E+02  0.12417325301E+02 -0.35137220116E+02  0.50528862433E+02  0.30000007851E+02 0.  0.
         12    1    1    2    0    0  0.16258882575E+02 -0.12417325301E+02  0.35137220116E+02  0.40659137567E+02  0.00000000000E+00 0. -1.
         11    1    3    3    0    0  0.42068315619E+01  0.28982008720E+01  0.29676272771E+01  0.59079448205E+01  0.51100000000E-03 0. -1.
        -11    1    3    3    0    0 -0.77171814823E+01  0.48305822840E+01 -0.10811426592E+02  0.14134226560E+02  0.51100000000E-03 0.  1.
         12    1    3    3    0    0 -0.12748532655E+02  0.46885421451E+01 -0.27293420801E+02  0.30486691052E+02  0.00000000000E+00 0. -1.
</event>
<event>
 7    1  0.3054835E-011  0.5052886E+02  0.7816164E-02  0.1300439E+00
        -11   -1    0    0    0    0  0.00000000000E+00  0.00000000000E+00  0.45593999997E+02  0.45594000000E+02  0.51100000000E-03 0. -1.
         11   -1    0    0    0    0 -0.00000000000E+00 -0.00000000000E+00 -0.45593999997E+02  0.45594000000E+02  0.51100000000E-03 0.  1.
    9900012    2    1    2    0    0 -0.38876658697E+02  0.83146904553E+01 -0.85227183979E+01  0.50528863293E+02  0.30000010467E+02 0.  0.
         12    1    1    2    0    0  0.38876658697E+02 -0.83146904553E+01  0.85227183979E+01  0.40659136707E+02  0.00000000000E+00 0. -1.
         11    1    3    3    0    0 -0.20894935587E+01 -0.12434719972E+01 -0.63621476682E+01  0.68109565519E+01  0.51100000000E-03 0. -1.
        -11    1    3    3    0    0 -0.39004768031E+02  0.85594488689E+01  0.73088887344E+00  0.39939583033E+02  0.51100000000E-03 0.  1.
        -12    1    3    3    0    0  0.22176028919E+01  0.99871358358E+00 -0.28914596031E+01  0.37783237083E+01  0.00000000000E+00 0.  1.
</event>
<event>
 7    1  0.3054835E-011  0.5052886E+02  0.7816164E-02  0.1300439E+00
        -11   -1    0    0    0    0  0.00000000000E+00  0.00000000000E+00  0.45593999997E+02  0.45594000000E+02  0.51100000000E-03 0.  1.
         11   -1    0    0    0    0 -0.00000000000E+00 -0.00000000000E+00 -0.45593999997E+02  0.45594000000E+02  0.51100000000E-03 0. -1.
    9900012    2    1    2    0    0 -0.27573002457E+02  0.53877051706E+01  0.29391634915E+02  0.50528855462E+02  0.29999986664E+02 0.  0.
         12    1    1    2    0    0  0.27573002457E+02 -0.53877051706E+01 -0.29391634915E+02  0.40659144538E+02  0.00000000000E+00 0. -1.
         11    1    3    3    0    0  0.33611275695E+00 -0.97279368411E-01  0.57156458175E-01  0.35454503626E+00  0.51100000000E-03 0. -1.
        -11    1    3    3    0    0 -0.14766481872E+02  0.17394157420E+02  0.14334365886E+02  0.26945866935E+02  0.51100000000E-03 0.  1.
        -12    1    3    3    0    0 -0.13142633342E+02 -0.11909172881E+02  0.15000112571E+02  0.23228443491E+02  0.00000000000E+00 0.  1.
</event>
<event>
 7    1  0.3054835E-011  0.5052886E+02  0.7816164E-02  0.1300439E+00
        -11   -1    0    0    0    0  0.00000000000E+00  0.00000000000E+00  0.45593999997E+02  0.45594000000E+02  0.51100000000E-03 0.  1.
         11   -1    0    0    0    0 -0.00000000000E+00 -0.00000000000E+00 -0.45593999997E+02  0.45594000000E+02  0.51100000000E-03 0. -1.
    9900012    2    1    2    0    0 -0.39562580313E+02 -0.65816865557E+01  0.66819887889E+01  0.50528864088E+02  0.30000012883E+02 0.  0.
         12    1    1    2    0    0  0.39562580313E+02  0.65816865557E+01 -0.66819887889E+01  0.40659135912E+02  0.00000000000E+00 0. -1.
         11    1    3    3    0    0 -0.72889953367E+01 -0.10159645349E+02  0.11409383442E+01  0.12555858680E+02  0.51100000000E-03 0. -1.
        -11    1    3    3    0    0 -0.30546155884E+02  0.86145038693E+01  0.24873879649E+01  0.31834955872E+02  0.51100000000E-03 0.  1.
        -12    1    3    3    0    0 -0.17274290920E+01 -0.50365450762E+01  0.30536624798E+01  0.61380495365E+01  0.00000000000E+00 0.  1.
</event>
<event>
 7    1  0.3054835E-011  0.5052886E+02  0.7816164E-02  0.1300439E+00
        -11   -1    0    0    0    0  0.00000000000E+00  0.00000000000E+00  0.45593999997E+02  0.45594000000E+02  0.51100000000E-03 0. -1.
         11   -1    0    0    0    0 -0.00000000000E+00 -0.00000000000E+00 -0.45593999997E+02  0.45594000000E+02  0.51100000000E-03 0.  1.
    9900012    2    1    2    0    0 -0.31637495395E+02 -0.18447566090E+02 -0.17661307097E+02  0.50528861078E+02  0.30000003733E+02 0.  0.
         12    1    1    2    0    0  0.31637495395E+02  0.18447566090E+02  0.17661307097E+02  0.40659138922E+02  0.00000000000E+00 0. -1.
         11    1    3    3    0    0 -0.18072686241E+01  0.37137703497E+01  0.34343940350E+01  0.53715335556E+01  0.51100000000E-03 0. -1.
        -11    1    3    3    0    0 -0.27493247762E+02 -0.19378605242E+02 -0.23289837538E+02  0.40912413109E+02  0.51100000000E-03 0.  1.
        -12    1    3    3    0    0 -0.23369790088E+01 -0.27827311986E+01  0.21941364059E+01  0.42449144136E+01  0.00000000000E+00 0.  1.
</event>
<event>
 7    1  0.3054835E-011  0.5052886E+02  0.7816164E-02  0.1300439E+00
        -11   -1    0    0    0    0  0.00000000000E+00  0.00000000000E+00  0.45593999997E+02  0.45594000000E+02  0.51100000000E-03 0. -1.
         11   -1    0    0    0    0 -0.00000000000E+00 -0.00000000000E+00 -0.45593999997E+02  0.45594000000E+02  0.51100000000E-03 0.  1.
    9900012    2    1    2    0    0 -0.13427369673E+02  0.36378876306E+02 -0.12224930625E+02  0.50528858022E+02  0.29999994443E+02 0.  0.
         12    1    1    2    0    0  0.13427369673E+02 -0.36378876306E+02  0.12224930625E+02  0.40659141978E+02  0.00000000000E+00 0. -1.
         11    1    3    3    0    0 -0.77895980174E+01  0.19411117480E+02  0.23847601559E+01  0.21051280254E+02  0.51100000000E-03 0. -1.
        -11    1    3    3    0    0 -0.66676161553E-02  0.13832076529E+02 -0.17589576190E+02  0.22376764207E+02  0.51100000000E-03 0.  1.
        -12    1    3    3    0    0 -0.56311040398E+01  0.31356822970E+01  0.29798854084E+01  0.71008135606E+01  0.00000000000E+00 0.  1.
</event>
<event>
 7    1  0.3054835E-011  0.5052885E+02  0.7816164E-02  0.1300439E+00
        -11   -1    0    0    0    0  0.00000000000E+00  0.00000000000E+00  0.45593999997E+02  0.45594000000E+02  0.51100000000E-03 0. -1.
         11   -1    0    0    0    0 -0.00000000000E+00 -0.00000000000E+00 -0.45593999997E+02  0.45594000000E+02  0.51100000000E-03 0.  1.
    9900012    2    1    2    0    0 -0.13440924375E+02 -0.81706003441E+01 -0.37493320256E+02  0.50528853158E+02  0.29999979661E+02 0.  0.
         12    1    1    2    0    0  0.13440924375E+02  0.81706003441E+01  0.37493320256E+02  0.40659146842E+02  0.00000000000E+00 0. -1.
         11    1    3    3    0    0  0.42865598293E+01  0.55371809348E+00  0.89610682335E+00  0.44140918202E+01  0.51100000000E-03 0. -1.
        -11    1    3    3    0    0 -0.10891531141E+02 -0.82390808560E+00 -0.68568402308E+01  0.12896531834E+02  0.51100000000E-03 0.  1.
         12    1    3    3    0    0 -0.68359530628E+01 -0.79004103520E+01 -0.31532586849E+02  0.33218229504E+02  0.00000000000E+00 0. -1.
</event>
<event>
 7    1  0.3054835E-011  0.5052885E+02  0.7816164E-02  0.1300439E+00
        -11   -1    0    0    0    0  0.00000000000E+00  0.00000000000E+00  0.45593999997E+02  0.45594000000E+02  0.51100000000E-03 0. -1.
         11   -1    0    0    0    0 -0.00000000000E+00 -0.00000000000E+00 -0.45593999997E+02  0.45594000000E+02  0.51100000000E-03 0.  1.
    9900012    2    1    2    0    0 -0.10696972291E+02 -0.39124963375E+02  0.28246051446E+01  0.50528851343E+02  0.29999974141E+02 0.  0.
         12    1    1    2    0    0  0.10696972291E+02  0.39124963375E+02 -0.28246051446E+01  0.40659148657E+02  0.00000000000E+00 0. -1.
         11    1    3    3    0    0  0.12321337592E+01 -0.33506378052E+01  0.45079589901E+01  0.57503584079E+01  0.51100000000E-03 0. -1.
        -11    1    3    3    0    0 -0.12403391812E+02 -0.16108471369E+02 -0.10885205230E+02  0.23061107334E+02  0.51100000000E-03 0.  1.
        -12    1    3    3    0    0  0.47428576249E+00 -0.19665854201E+02  0.92018513843E+01  0.21717385601E+02  0.00000000000E+00 0.  1.
</event>
<event>
 7    1  0.3054835E-011  0.5052885E+02  0.7816164E-02  0.1300439E+00
        -11   -1    0    0    0    0  0.00000000000E+00  0.00000000000E+00  0.45593999997E+02  0.45594000000E+02  0.51100000000E-03 0.  1.
         11   -1    0    0    0    0 -0.00000000000E+00 -0.00000000000E+00 -0.45593999997E+02  0.45594000000E+02  0.51100000000E-03 0. -1.
    9900012    2    1    2    0    0  0.62390241479E+01 -0.22358905030E+02  0.33381438323E+02  0.50528849972E+02  0.29999969976E+02 0.  0.
         12    1    1    2    0    0 -0.62390241479E+01  0.22358905030E+02 -0.33381438323E+02  0.40659150028E+02  0.00000000000E+00 0. -1.
         11    1    3    3    0    0 -0.10085887395E+02 -0.10866526697E+02  0.22257547118E+02  0.26743315631E+02  0.51100000000E-03 0. -1.
        -11    1    3    3    0    0  0.78181875078E+01 -0.68086863054E+01  0.92530310626E+01  0.13896073158E+02  0.51100000000E-03 0.  1.
         12    1    3    3    0    0  0.85067240347E+01 -0.46836920279E+01  0.18708601425E+01  0.98894611829E+01  0.00000000000E+00 0. -1.
</event>
<event>
 7    1  0.3054835E-011  0.5052887E+02  0.7816164E-02  0.1300439E+00
        -11   -1    0    0    0    0  0.00000000000E+00  0.00000000000E+00  0.45593999997E+02  0.45594000000E+02  0.51100000000E-03 0. -1.
         11   -1    0    0    0    0 -0.00000000000E+00 -0.00000000000E+00 -0.45593999997E+02  0.45594000000E+02  0.51100000000E-03 0.  1.
    9900012    2    1    2    0    0  0.37212058853E+02  0.13475394375E+02  0.93188803866E+01  0.50528866840E+02  0.30000021248E+02 0.  0.
         12    1    1    2    0    0 -0.37212058853E+02 -0.13475394375E+02 -0.93188803866E+01  0.40659133160E+02  0.00000000000E+00 0. -1.
         11    1    3    3    0    0  0.17066250561E+02 -0.71514944644E+01  0.46636429919E+01  0.19082723796E+02  0.51100000000E-03 0. -1.
        -11    1    3    3    0    0  0.14915535704E+02  0.19544262610E+02  0.70736926641E+01  0.25582973527E+02  0.51100000000E-03 0.  1.
         12    1    3    3    0    0  0.52302725881E+01  0.10826262290E+01 -0.24184552695E+01  0.58631695172E+01  0.00000000000E+00 0. -1.
</event>
<event>
 7    1  0.3054835E-011  0.5052886E+02  0.7816164E-02  0.1300439E+00
        -11   -1    0    0    0    0  0.00000000000E+00  0.00000000000E+00  0.45593999997E+02  0.45594000000E+02  0.51100000000E-03 0. -1.
         11   -1    0    0    0    0 -0.00000000000E+00 -0.00000000000E+00 -0.45593999997E+02  0.45594000000E+02  0.51100000000E-03 0.  1.
    9900012    2    1    2    0    0 -0.25488048699E+02 -0.30979366051E+02  0.66184602174E+01  0.50528858801E+02  0.29999996810E+02 0.  0.
         12    1    1    2    0    0  0.25488048699E+02  0.30979366051E+02 -0.66184602174E+01  0.40659141199E+02  0.00000000000E+00 0. -1.
         11    1    3    3    0    0 -0.12018417650E+02 -0.96984256916E+01  0.14725400917E+02  0.21338679812E+02  0.51100000000E-03 0. -1.
        -11    1    3    3    0    0 -0.52326719777E+01 -0.18650818326E+02 -0.61624132988E+01  0.20327548258E+02  0.51100000000E-03 0.  1.
         12    1    3    3    0    0 -0.82369590720E+01 -0.26301220339E+01 -0.19445274003E+01  0.88626307313E+01  0.00000000000E+00 0. -1.
</event>
<event>
 7    1  0.3054835E-011  0.5052886E+02  0.7816164E-02  0.1300439E+00
        -11   -1    0    0    0    0  0.00000000000E+00  0.00000000000E+00  0.45593999997E+02  0.45594000000E+02  0.51100000000E-03 0. -1.
         11   -1    0    0    0    0 -0.00000000000E+00 -0.00000000000E+00 -0.45593999997E+02  0.45594000000E+02  0.51100000000E-03 0.  1.
    9900012    2    1    2    0    0 -0.35100579848E+02 -0.19275472838E+02  0.70406861732E+01  0.50528858093E+02  0.29999994661E+02 0.  0.
         12    1    1    2    0    0  0.35100579848E+02  0.19275472838E+02 -0.70406861732E+01  0.40659141907E+02  0.00000000000E+00 0. -1.
         11    1    3    3    0    0 -0.28467189018E+02 -0.18491711455E+02  0.85010638315E+01  0.34994175653E+02  0.51100000000E-03 0.  1.
        -11    1    3    3    0    0  0.24147088041E+01  0.13838063805E+01  0.39043235595E+01  0.47947347608E+01  0.51100000000E-03 0. -1.
        -12    1    3    3    0    0 -0.90480996340E+01 -0.21675677633E+01 -0.53647012178E+01  0.10739947679E+02  0.00000000000E+00 0.  1.
</event>
<event>
 7    1  0.3054835E-011  0.5052889E+02  0.7816164E-02  0.1300439E+00
        -11   -1    0    0    0    0  0.00000000000E+00  0.00000000000E+00  0.45593999997E+02  0.45594000000E+02  0.51100000000E-03 0.  1.
         11   -1    0    0    0    0 -0.00000000000E+00 -0.00000000000E+00 -0.45593999997E+02  0.45594000000E+02  0.51100000000E-03 0. -1.
    9900012    2    1    2    0    0 -0.49175380594E+01 -0.92072067632E+01  0.39296412786E+02  0.50528894073E+02  0.30000104023E+02 0.  0.
         12    1    1    2    0    0  0.49175380594E+01  0.92072067632E+01 -0.39296412786E+02  0.40659105927E+02  0.00000000000E+00 0. -1.
         11    1    3    3    0    0 -0.32486128503E+01 -0.82509639109E+00  0.18899724089E+01  0.38478910422E+01  0.51100000000E-03 0. -1.
        -11    1    3    3    0    0  0.71010666903E+01  0.46479811511E+01  0.32529718049E+01  0.90890430049E+01  0.51100000000E-03 0.  1.
        -12    1    3    3    0    0 -0.87699918995E+01 -0.13030091523E+02  0.34153468573E+02  0.37591960025E+02  0.00000000000E+00 0.  1.
</event>
<event>
 7    1  0.3054835E-011  0.5052886E+02  0.7816164E-02  0.1300439E+00
        -11   -1    0    0    0    0  0.00000000000E+00  0.00000000000E+00  0.45593999997E+02  0.45594000000E+02  0.51100000000E-03 0.  1.
         11   -1    0    0    0    0 -0.00000000000E+00 -0.00000000000E+00 -0.45593999997E+02  0.45594000000E+02  0.51100000000E-03 0. -1.
    9900012    2    1    2    0    0 -0.33398897161E+02  0.10013824817E+01  0.23166276285E+02  0.50528862585E+02  0.30000008313E+02 0.  0.
         12    1    1    2    0    0  0.33398897161E+02 -0.10013824817E+01 -0.23166276285E+02  0.40659137415E+02  0.00000000000E+00 0. -1.
         11    1    3    3    0    0 -0.46062023519E+01  0.79373732877E+01 -0.23621905001E+01  0.94762302122E+01  0.51100000000E-03 0. -1.
        -11    1    3    3    0    0 -0.17241973833E+02 -0.42768089399E+01  0.22775513969E+02  0.28884265495E+02  0.51100000000E-03 0.  1.
         12    1    3    3    0    0 -0.11550720976E+02 -0.26591818662E+01  0.27529528161E+01  0.12168366878E+02  0.00000000000E+00 0. -1.
</event>
<event>
 7    1  0.3054835E-011  0.5052885E+02  0.7816164E-02  0.1300439E+00
        -11   -1    0    0    0    0  0.00000000000E+00  0.00000000000E+00  0.45593999997E+02  0.45594000000E+02  0.51100000000E-03 0.  1.
         11   -1    0    0    0    0 -0.00000000000E+00 -0.00000000000E+00 -0.45593999997E+02  0.45594000000E+02  0.51100000000E-03 0. -1.
    9900012    2    1    2    0    0  0.22161544551E+01 -0.35030164717E+02  0.20521762506E+02  0.50528849530E+02  0.29999968630E+02 0.  0.
         12    1    1    2    0    0 -0.22161544551E+01  0.35030164717E+02 -0.20521762506E+02  0.40659150470E+02  0.00000000000E+00 0. -1.
         11    1    3    3    0    0  0.24308441002E+01 -0.23879043463E+01  0.10608844450E+02  0.11142650988E+02  0.51100000000E-03 0. -1.
        -11    1    3    3    0    0 -0.17664785298E+01 -0.16958277670E+02 -0.49176035445E+01  0.17745040231E+02  0.51100000000E-03 0.  1.
        -12    1    3    3    0    0  0.15517888847E+01 -0.15683982701E+02  0.14830521600E+02  0.21641158310E+02  0.00000000000E+00 0.  1.
</event>
<event>
 7    1  0.3054835E-011  0.5052882E+02  0.7816164E-02  0.1300439E+00
        -11   -1    0    0    0    0  0.00000000000E+00  0.00000000000E+00  0.45593999997E+02  0.45594000000E+02  0.51100000000E-03 0. -1.
         11   -1    0    0    0    0 -0.00000000000E+00 -0.00000000000E+00 -0.45593999997E+02  0.45594000000E+02  0.51100000000E-03 0.  1.
    9900012    2    1    2    0    0  0.53539561871E+01 -0.38804008994E+02 -0.10897369548E+02  0.50528823619E+02  0.29999889874E+02 0.  0.
         12    1    1    2    0    0 -0.53539561871E+01  0.38804008994E+02  0.10897369548E+02  0.40659176381E+02  0.00000000000E+00 0. -1.
         11    1    3    3    0    0 -0.60235462584E+01 -0.21565925993E+00 -0.71995066066E+01  0.93894895539E+01  0.51100000000E-03 0. -1.
        -11    1    3    3    0    0  0.12331152699E+02 -0.32955546771E+02 -0.23250039584E+01  0.35263735388E+02  0.51100000000E-03 0.  1.
         12    1    3    3    0    0 -0.95365025374E+00 -0.56328029637E+01 -0.13728589831E+01  0.58755986777E+01  0.00000000000E+00 0. -1.
</event>
<event>
 7    1  0.3054835E-011  0.5052886E+02  0.7816164E-02  0.1300439E+00
        -11   -1    0    0    0    0  0.00000000000E+00  0.00000000000E+00  0.45593999997E+02  0.45594000000E+02  0.51100000000E-03 0. -1.
         11   -1    0    0    0    0 -0.00000000000E+00 -0.00000000000E+00 -0.45593999997E+02  0.45594000000E+02  0.51100000000E-03 0.  1.
    9900012    2    1    2    0    0  0.37668773483E+02 -0.15302875633E+02 -0.22540243418E+00  0.50528864438E+02  0.30000013946E+02 0.  0.
         12    1    1    2    0    0 -0.37668773483E+02  0.15302875633E+02  0.22540243418E+00  0.40659135562E+02  0.00000000000E+00 0. -1.
         11    1    3    3    0    0  0.18200897883E+02 -0.37026521358E+00  0.76077847288E+01  0.19730386940E+02  0.51100000000E-03 0. -1.
        -11    1    3    3    0    0  0.18462179468E+02 -0.18362873432E+02 -0.57693452928E+01  0.26670818075E+02  0.51100000000E-03 0.  1.
        -12    1    3    3    0    0  0.10056961322E+01  0.34302630130E+01 -0.20638418701E+01  0.41276594231E+01  0.00000000000E+00 0.  1.
</event>
<event>
 7    1  0.3054835E-011  0.5052884E+02  0.7816164E-02  0.1300439E+00
        -11   -1    0    0    0    0  0.00000000000E+00  0.00000000000E+00  0.45593999997E+02  0.45594000000E+02  0.51100000000E-03 0.  1.
         11   -1    0    0    0    0 -0.00000000000E+00 -0.00000000000E+00 -0.45593999997E+02  0.45594000000E+02  0.51100000000E-03 0. -1.
    9900012    2    1    2    0    0  0.38592504981E+01  0.94326830053E+01  0.39361119852E+02  0.50528842617E+02  0.29999947620E+02 0.  0.
         12    1    1    2    0    0 -0.38592504981E+01 -0.94326830053E+01 -0.39361119852E+02  0.40659157383E+02  0.00000000000E+00 0. -1.
         11    1    3    3    0    0 -0.29010467140E+01  0.60573746566E+01 -0.18308963173E+00  0.67187336487E+01  0.51100000000E-03 0. -1.
        -11    1    3    3    0    0  0.12580311136E+02  0.12883685912E+01  0.25420463901E+02  0.28392324792E+02  0.51100000000E-03 0.  1.
        -12    1    3    3    0    0 -0.58200139244E+01  0.20869397575E+01  0.14123745583E+02  0.15417784177E+02  0.00000000000E+00 0.  1.
</event>
<event>
 7    1  0.3054835E-011  0.5052888E+02  0.7816164E-02  0.1300439E+00
        -11   -1    0    0    0    0  0.00000000000E+00  0.00000000000E+00  0.45593999997E+02  0.45594000000E+02  0.51100000000E-03 0.  1.
         11   -1    0    0    0    0 -0.00000000000E+00 -0.00000000000E+00 -0.45593999997E+02  0.45594000000E+02  0.51100000000E-03 0. -1.
    9900012    2    1    2    0    0 -0.58849202754E+01  0.19270413026E+02  0.35315480113E+02  0.50528877525E+02  0.30000053725E+02 0.  0.
         12    1    1    2    0    0  0.58849202754E+01 -0.19270413026E+02 -0.35315480113E+02  0.40659122475E+02  0.00000000000E+00 0. -1.
         11    1    3    3    0    0 -0.15525174522E+02  0.78903393011E+01  0.16352608364E+02  0.23889250696E+02  0.51100000000E-03 0. -1.
        -11    1    3    3    0    0  0.16889993826E+01  0.10574075144E+02  0.10420161523E+02  0.14941336971E+02  0.51100000000E-03 0.  1.
         12    1    3    3    0    0  0.79512548637E+01  0.80599858149E+00  0.85427102255E+01  0.11698289859E+02  0.00000000000E+00 0. -1.
</event>
<event>
 7    1  0.3054835E-011  0.5052886E+02  0.7816164E-02  0.1300439E+00
        -11   -1    0    0    0    0  0.00000000000E+00  0.00000000000E+00  0.45593999997E+02  0.45594000000E+02  0.51100000000E-03 0.  1.
         11   -1    0    0    0    0 -0.00000000000E+00 -0.00000000000E+00 -0.45593999997E+02  0.45594000000E+02  0.51100000000E-03 0. -1.
    9900012    2    1    2    0    0  0.25650825063E+02 -0.29884506509E+02  0.10105294494E+02  0.50528861636E+02  0.30000005428E+02 0.  0.
         12    1    1    2    0    0 -0.25650825063E+02  0.29884506509E+02 -0.10105294494E+02  0.40659138364E+02  0.00000000000E+00 0. -1.
         11    1    3    3    0    0  0.16321963166E+02 -0.16280124968E+01 -0.39722226621E+01  0.16877069041E+02  0.51100000000E-03 0. -1.
        -11    1    3    3    0    0  0.59660649775E+01 -0.17917170684E+02  0.12545953705E+02  0.22672006776E+02  0.51100000000E-03 0.  1.
         12    1    3    3    0    0  0.33627969195E+01 -0.10339323328E+02  0.15315634507E+01  0.10979785818E+02  0.00000000000E+00 0. -1.
</event>
<event>
 7    1  0.3054835E-011  0.5052884E+02  0.7816164E-02  0.1300439E+00
        -11   -1    0    0    0    0  0.00000000000E+00  0.00000000000E+00  0.45593999997E+02  0.45594000000E+02  0.51100000000E-03 0.  1.
         11   -1    0    0    0    0 -0.00000000000E+00 -0.00000000000E+00 -0.45593999997E+02  0.45594000000E+02  0.51100000000E-03 0. -1.
    9900012    2    1    2    0    0 -0.13678603109E+02  0.17828166440E+02  0.33885388305E+02  0.50528840612E+02  0.29999941523E+02 0.  0.
         12    1    1    2    0    0  0.13678603109E+02 -0.17828166440E+02 -0.33885388305E+02  0.40659159388E+02  0.00000000000E+00 0. -1.
         11    1    3    3    0    0 -0.16459829699E+02  0.17405163539E+02  0.30887086726E+02  0.39088077955E+02  0.51100000000E-03 0. -1.
        -11    1    3    3    0    0 -0.15808596745E+01 -0.42674712218E+01  0.19463594164E+01  0.49496205085E+01  0.51100000000E-03 0.  1.
         12    1    3    3    0    0  0.43620862647E+01  0.46904741225E+01  0.10519421619E+01  0.64911421481E+01  0.00000000000E+00 0. -1.
</event>
<event>
 7    1  0.3054835E-011  0.5052886E+02  0.7816164E-02  0.1300439E+00
        -11   -1    0    0    0    0  0.00000000000E+00  0.00000000000E+00  0.45593999997E+02  0.45594000000E+02  0.51100000000E-03 0.  1.
         11   -1    0    0    0    0 -0.00000000000E+00 -0.00000000000E+00 -0.45593999997E+02  0.45594000000E+02  0.51100000000E-03 0. -1.
    9900012    2    1    2    0    0 -0.33103333229E+02  0.15183486515E+02  0.18077511002E+02  0.50528864032E+02  0.30000012711E+02 0.  0.
         12    1    1    2    0    0  0.33103333229E+02 -0.15183486515E+02 -0.18077511002E+02  0.40659135968E+02  0.00000000000E+00 0. -1.
         11    1    3    3    0    0 -0.89920618288E+01 -0.38003761568E+01  0.11345060364E+02  0.14966977978E+02  0.51100000000E-03 0. -1.
        -11    1    3    3    0    0 -0.24300950157E+02  0.21356756814E+02  0.52986491802E+01  0.32782966973E+02  0.51100000000E-03 0.  1.
        -12    1    3    3    0    0  0.18967875697E+00 -0.23728941415E+01  0.14338014577E+01  0.27789190808E+01  0.00000000000E+00 0.  1.
</event>
<event>
 7    1  0.3054835E-011  0.5052885E+02  0.7816164E-02  0.1300439E+00
        -11   -1    0    0    0    0  0.00000000000E+00  0.00000000000E+00  0.45593999997E+02  0.45594000000E+02  0.51100000000E-03 0.  1.
         11   -1    0    0    0    0 -0.00000000000E+00 -0.00000000000E+00 -0.45593999997E+02  0.45594000000E+02  0.51100000000E-03 0. -1.
    9900012    2    1    2    0    0  0.14887925971E+02 -0.54630606206E+01  0.37438899679E+02  0.50528848752E+02  0.29999966266E+02 0.  0.
         12    1    1    2    0    0 -0.14887925971E+02  0.54630606206E+01 -0.37438899679E+02  0.40659151248E+02  0.00000000000E+00 0. -1.
         11    1    3    3    0    0 -0.47945335061E+01 -0.15329482058E+01  0.23506284883E+02  0.24039195307E+02  0.51100000000E-03 0. -1.
        -11    1    3    3    0    0  0.13868086994E+02  0.10151162380E+01  0.12552646237E+02  0.18732944927E+02  0.51100000000E-03 0.  1.
         12    1    3    3    0    0  0.58143724832E+01 -0.49452286528E+01  0.13799685589E+01  0.77567085175E+01  0.00000000000E+00 0. -1.
</event>
<event>
 7    1  0.3054835E-011  0.5052886E+02  0.7816164E-02  0.1300439E+00
        -11   -1    0    0    0    0  0.00000000000E+00  0.00000000000E+00  0.45593999997E+02  0.45594000000E+02  0.51100000000E-03 0. -1.
         11   -1    0    0    0    0 -0.00000000000E+00 -0.00000000000E+00 -0.45593999997E+02  0.45594000000E+02  0.51100000000E-03 0.  1.
    9900012    2    1    2    0    0  0.33027821544E+02 -0.20738114285E+02 -0.11500418423E+02  0.50528855839E+02  0.29999987807E+02 0.  0.
         12    1    1    2    0    0 -0.33027821544E+02  0.20738114285E+02  0.11500418423E+02  0.40659144161E+02  0.00000000000E+00 0. -1.
         11    1    3    3    0    0  0.46329950793E+01  0.31642851902E+00  0.63542214282E+01  0.78702541657E+01  0.51100000000E-03 0. -1.
        -11    1    3    3    0    0  0.11134287957E+02 -0.80086251341E+01 -0.15804003629E+02  0.20925510169E+02  0.51100000000E-03 0.  1.
         12    1    3    3    0    0  0.17260538508E+02 -0.13045917670E+02 -0.20506362222E+01  0.21733091504E+02  0.00000000000E+00 0. -1.
</event>
<event>
 7    1  0.3054835E-011  0.5052886E+02  0.7816164E-02  0.1300439E+00
        -11   -1    0    0    0    0  0.00000000000E+00  0.00000000000E+00  0.45593999997E+02  0.45594000000E+02  0.51100000000E-03 0.  1.
         11   -1    0    0    0    0 -0.00000000000E+00 -0.00000000000E+00 -0.45593999997E+02  0.45594000000E+02  0.51100000000E-03 0. -1.
    9900012    2    1    2    0    0 -0.11432065527E+02 -0.32568245175E+02  0.21489131902E+02  0.50528861964E+02  0.30000006424E+02 0.  0.
         12    1    1    2    0    0  0.11432065527E+02  0.32568245175E+02 -0.21489131902E+02  0.40659138036E+02  0.00000000000E+00 0. -1.
         11    1    3    3    0    0  0.44158390255E+01 -0.10474801054E+02 -0.29923803063E+01  0.11754804617E+02  0.51100000000E-03 0. -1.
        -11    1    3    3    0    0 -0.13091869846E+02 -0.14280576301E+02  0.23461879409E+02  0.30426825356E+02  0.51100000000E-03 0.  1.
         12    1    3    3    0    0 -0.27560347068E+01 -0.78128678191E+01  0.10196327989E+01  0.83472319908E+01  0.00000000000E+00 0. -1.
</event>
<event>
 7    1  0.3054835E-011  0.5052885E+02  0.7816164E-02  0.1300439E+00
        -11   -1    0    0    0    0  0.00000000000E+00  0.00000000000E+00  0.45593999997E+02  0.45594000000E+02  0.51100000000E-03 0. -1.
         11   -1    0    0    0    0 -0.00000000000E+00 -0.00000000000E+00 -0.45593999997E+02  0.45594000000E+02  0.51100000000E-03 0.  1.
    9900012    2    1    2    0    0 -0.30414182115E+02 -0.32246470781E+01  0.26790770406E+02  0.50528853410E+02  0.29999980425E+02 0.  0.
         12    1    1    2    0    0  0.30414182115E+02  0.32246470781E+01 -0.26790770406E+02  0.40659146590E+02  0.00000000000E+00 0. -1.
         11    1    3    3    0    0 -0.17158764467E+02 -0.41873598590E+01  0.23167950687E+02  0.29132646977E+02  0.51100000000E-03 0. -1.
        -11    1    3    3    0    0 -0.13875236487E+02  0.29904892225E+01 -0.29436528668E+01  0.14495872027E+02  0.51100000000E-03 0.  1.
         12    1    3    3    0    0  0.61981883902E+00 -0.20277764416E+01  0.65664725859E+01  0.69003344058E+01  0.00000000000E+00 0. -1.
</event>
<event>
 7    1  0.3054835E-011  0.5052886E+02  0.7816164E-02  0.1300439E+00
        -11   -1    0    0    0    0  0.00000000000E+00  0.00000000000E+00  0.45593999997E+02  0.45594000000E+02  0.51100000000E-03 0.  1.
         11   -1    0    0    0    0 -0.00000000000E+00 -0.00000000000E+00 -0.45593999997E+02  0.45594000000E+02  0.51100000000E-03 0. -1.
    9900012    2    1    2    0    0  0.36965555278E+02 -0.16494837775E+02  0.38254425428E+01  0.50528856368E+02  0.29999989417E+02 0.  0.
         12    1    1    2    0    0 -0.36965555278E+02  0.16494837775E+02 -0.38254425428E+01  0.40659143632E+02  0.00000000000E+00 0. -1.
         11    1    3    3    0    0  0.27671631070E+01 -0.85650308283E+01 -0.66222583858E+01  0.11174580580E+02  0.51100000000E-03 0. -1.
        -11    1    3    3    0    0  0.28458551149E+02 -0.37489085527E+01  0.13382357393E+02  0.31670663689E+02  0.51100000000E-03 0.  1.
         12    1    3    3    0    0  0.57398410219E+01 -0.41808983940E+01 -0.29346564642E+01  0.76836120998E+01  0.00000000000E+00 0. -1.
</event>
<event>
 7    1  0.3054835E-011  0.5052886E+02  0.7816164E-02  0.1300439E+00
        -11   -1    0    0    0    0  0.00000000000E+00  0.00000000000E+00  0.45593999997E+02  0.45594000000E+02  0.51100000000E-03 0.  1.
         11   -1    0    0    0    0 -0.00000000000E+00 -0.00000000000E+00 -0.45593999997E+02  0.45594000000E+02  0.51100000000E-03 0. -1.
    9900012    2    1    2    0    0 -0.29865529721E+02  0.48273727711E+01  0.27164540798E+02  0.50528859943E+02  0.30000000282E+02 0.  0.
         12    1    1    2    0    0  0.29865529721E+02 -0.48273727711E+01 -0.27164540798E+02  0.40659140057E+02  0.00000000000E+00 0. -1.
         11    1    3    3    0    0 -0.12186847302E+02 -0.97551880533E+00  0.82806207724E+00  0.12253839038E+02  0.51100000000E-03 0. -1.
        -11    1    3    3    0    0 -0.21805066375E+02  0.60632065081E+01  0.25429040132E+02  0.34042025132E+02  0.51100000000E-03 0.  1.
        -12    1    3    3    0    0  0.41263839563E+01 -0.26031493171E+00  0.90743858940E+00  0.42329957728E+01  0.00000000000E+00 0.  1.
</event>
<event>
 7    1  0.3054835E-011  0.5052886E+02  0.7816164E-02  0.1300439E+00
        -11   -1    0    0    0    0  0.00000000000E+00  0.00000000000E+00  0.45593999997E+02  0.45594000000E+02  0.51100000000E-03 0.  1.
         11   -1    0    0    0    0 -0.00000000000E+00 -0.00000000000E+00 -0.45593999997E+02  0.45594000000E+02  0.51100000000E-03 0. -1.
    9900012    2    1    2    0    0  0.24952963511E+02  0.13343290238E+02  0.29197122658E+02  0.50528858914E+02  0.29999997154E+02 0.  0.
         12    1    1    2    0    0 -0.24952963511E+02 -0.13343290238E+02 -0.29197122658E+02  0.40659141086E+02  0.00000000000E+00 0. -1.
         11    1    3    3    0    0 -0.33693705980E+01 -0.27864724931E+01  0.29489744157E+01  0.52738541455E+01  0.51100000000E-03 0. -1.
        -11    1    3    3    0    0  0.26893808323E+02  0.18537036611E+02  0.19726528723E+02  0.38158021282E+02  0.51100000000E-03 0.  1.
        -12    1    3    3    0    0  0.14285257862E+01 -0.24072738797E+01  0.65216195189E+01  0.70969834861E+01  0.00000000000E+00 0.  1.
</event>
<event>
 7    1  0.3054835E-011  0.5052884E+02  0.7816164E-02  0.1300439E+00
        -11   -1    0    0    0    0  0.00000000000E+00  0.00000000000E+00  0.45593999997E+02  0.45594000000E+02  0.51100000000E-03 0. -1.
         11   -1    0    0    0    0 -0.00000000000E+00 -0.00000000000E+00 -0.45593999997E+02  0.45594000000E+02  0.51100000000E-03 0.  1.
    9900012    2    1    2    0    0  0.36571159693E+02 -0.17759495710E+02 -0.56363967166E+00  0.50528842374E+02  0.29999946880E+02 0.  0.
         12    1    1    2    0    0 -0.36571159693E+02  0.17759495710E+02  0.56363967166E+00  0.40659157626E+02  0.00000000000E+00 0. -1.
         11    1    3    3    0    0  0.27003539773E+02 -0.12027493994E+01  0.92573855240E+01  0.28571610969E+02  0.51100000000E-03 0. -1.
        -11    1    3    3    0    0  0.77816818833E+01 -0.12949701076E+02 -0.96536002308E+01  0.17928784916E+02  0.51100000000E-03 0.  1.
         12    1    3    3    0    0  0.17859380370E+01 -0.36070452343E+01 -0.16742496485E+00  0.40284464888E+01  0.00000000000E+00 0. -1.
</event>
<event>
 7    1  0.3054835E-011  0.5052884E+02  0.7816164E-02  0.1300439E+00
        -11   -1    0    0    0    0  0.00000000000E+00  0.00000000000E+00  0.45593999997E+02  0.45594000000E+02  0.51100000000E-03 0.  1.
         11   -1    0    0    0    0 -0.00000000000E+00 -0.00000000000E+00 -0.45593999997E+02  0.45594000000E+02  0.51100000000E-03 0. -1.
    9900012    2    1    2    0    0  0.38935834639E+02 -0.59367480466E+01  0.10095697305E+02  0.50528839894E+02  0.29999939343E+02 0.  0.
         12    1    1    2    0    0 -0.38935834639E+02  0.59367480466E+01 -0.10095697305E+02  0.40659160106E+02  0.00000000000E+00 0. -1.
         11    1    3    3    0    0  0.10036622332E+02  0.16646765020E+01  0.46128650270E+01  0.11170651714E+02  0.51100000000E-03 0. -1.
        -11    1    3    3    0    0  0.11142052065E+02 -0.42841504577E+01 -0.99955313759E+01  0.15569518846E+02  0.51100000000E-03 0.  1.
        -12    1    3    3    0    0  0.17757160242E+02 -0.33172740909E+01  0.15478363654E+02  0.23788669334E+02  0.00000000000E+00 0.  1.
</event>
<event>
 7    1  0.3054835E-011  0.5052887E+02  0.7816164E-02  0.1300439E+00
        -11   -1    0    0    0    0  0.00000000000E+00  0.00000000000E+00  0.45593999997E+02  0.45594000000E+02  0.51100000000E-03 0. -1.
         11   -1    0    0    0    0 -0.00000000000E+00 -0.00000000000E+00 -0.45593999997E+02  0.45594000000E+02  0.51100000000E-03 0.  1.
    9900012    2    1    2    0    0  0.32782055328E+02  0.23206324813E+02  0.63220582711E+01  0.50528867156E+02  0.30000022208E+02 0.  0.
         12    1    1    2    0    0 -0.32782055328E+02 -0.23206324813E+02 -0.63220582711E+01  0.40659132844E+02  0.00000000000E+00 0. -1.
         11    1    3    3    0    0  0.23341238067E+02  0.48853914725E+01  0.11333483933E+02  0.26403187358E+02  0.51100000000E-03 0. -1.
        -11    1    3    3    0    0  0.13114687261E+01  0.96379582038E+01  0.25191291235E+01  0.10047696271E+02  0.51100000000E-03 0.  1.
         12    1    3    3    0    0  0.81293485345E+01  0.86829751366E+01 -0.75305547850E+01  0.14077983527E+02  0.00000000000E+00 0. -1.
</event>
<event>
 7    1  0.3054835E-011  0.5052883E+02  0.7816164E-02  0.1300439E+00
        -11   -1    0    0    0    0  0.00000000000E+00  0.00000000000E+00  0.45593999997E+02  0.45594000000E+02  0.51100000000E-03 0.  1.
         11   -1    0    0    0    0 -0.00000000000E+00 -0.00000000000E+00 -0.45593999997E+02  0.45594000000E+02  0.51100000000E-03 0. -1.
    9900012    2    1    2    0    0  0.21769922699E+01  0.34772536365E+01  0.40451669478E+02  0.50528829426E+02  0.29999907524E+02 0.  0.
         12    1    1    2    0    0 -0.21769922699E+01 -0.34772536365E+01 -0.40451669478E+02  0.40659170574E+02  0.00000000000E+00 0. -1.
         11    1    3    3    0    0 -0.11492748866E+02  0.20803125378E+01  0.16723525617E+02  0.20398217718E+02  0.51100000000E-03 0. -1.
        -11    1    3    3    0    0  0.11416409289E+02  0.75790874950E+00  0.24979456521E+02  0.27475117380E+02  0.51100000000E-03 0.  1.
         12    1    3    3    0    0  0.22533318471E+01  0.63903234923E+00 -0.12513126595E+01  0.26554943285E+01  0.00000000000E+00 0. -1.
</event>
<event>
 7    1  0.3054835E-011  0.5052886E+02  0.7816164E-02  0.1300439E+00
        -11   -1    0    0    0    0  0.00000000000E+00  0.00000000000E+00  0.45593999997E+02  0.45594000000E+02  0.51100000000E-03 0.  1.
         11   -1    0    0    0    0 -0.00000000000E+00 -0.00000000000E+00 -0.45593999997E+02  0.45594000000E+02  0.51100000000E-03 0. -1.
    9900012    2    1    2    0    0  0.29772815761E+02 -0.27284490395E+02 -0.47224844298E+01  0.50528857933E+02  0.29999994172E+02 0.  0.
         12    1    1    2    0    0 -0.29772815761E+02  0.27284490395E+02  0.47224844298E+01  0.40659142067E+02  0.00000000000E+00 0. -1.
         11    1    3    3    0    0  0.26604792785E+00  0.46494411444E+00 -0.37050451139E+00  0.65132816885E+00  0.51100000000E-03 0. -1.
        -11    1    3    3    0    0 -0.31829776519E+01  0.28828864461E+01  0.18030038941E+01  0.46575964076E+01  0.51100000000E-03 0.  1.
        -12    1    3    3    0    0  0.32689745485E+02 -0.30632320956E+02 -0.61549838125E+01  0.45219933356E+02  0.00000000000E+00 0.  1.
</event>
<event>
 7    1  0.3054835E-011  0.5052883E+02  0.7816164E-02  0.1300439E+00
        -11   -1    0    0    0    0  0.00000000000E+00  0.00000000000E+00  0.45593999997E+02  0.45594000000E+02  0.51100000000E-03 0. -1.
         11   -1    0    0    0    0 -0.00000000000E+00 -0.00000000000E+00 -0.45593999997E+02  0.45594000000E+02  0.51100000000E-03 0.  1.
    9900012    2    1    2    0    0 -0.26869416782E+02 -0.24219144706E+02 -0.18564365992E+02  0.50528828671E+02  0.29999905229E+02 0.  0.
         12    1    1    2    0    0  0.26869416782E+02  0.24219144706E+02  0.18564365992E+02  0.40659171329E+02  0.00000000000E+00 0. -1.
         11    1    3    3    0    0 -0.10394614120E+01 -0.13978389260E+02 -0.91319529068E+01  0.16729268080E+02  0.51100000000E-03 0. -1.
        -11    1    3    3    0    0 -0.14164014912E+02  0.26056386672E+01 -0.81498924545E+00  0.14424731506E+02  0.51100000000E-03 0.  1.
        -12    1    3    3    0    0 -0.11665940458E+02 -0.12846394113E+02 -0.86174238393E+01  0.19374829085E+02  0.00000000000E+00 0.  1.
</event>
<event>
 7    1  0.3054835E-011  0.5052884E+02  0.7816164E-02  0.1300439E+00
        -11   -1    0    0    0    0  0.00000000000E+00  0.00000000000E+00  0.45593999997E+02  0.45594000000E+02  0.51100000000E-03 0.  1.
         11   -1    0    0    0    0 -0.00000000000E+00 -0.00000000000E+00 -0.45593999997E+02  0.45594000000E+02  0.51100000000E-03 0. -1.
    9900012    2    1    2    0    0  0.33507592665E+02 -0.22860051815E+02 -0.27975587602E+01  0.50528842726E+02  0.29999947951E+02 0.  0.
         12    1    1    2    0    0 -0.33507592665E+02  0.22860051815E+02  0.27975587602E+01  0.40659157274E+02  0.00000000000E+00 0. -1.
         11    1    3    3    0    0 -0.10803683842E+01  0.46656117550E+01 -0.88818882379E+00  0.48707297750E+01  0.51100000000E-03 0. -1.
        -11    1    3    3    0    0  0.23746059828E+02 -0.24458819068E+02 -0.35415555742E+01  0.34273193661E+02  0.51100000000E-03 0.  1.
        -12    1    3    3    0    0  0.10841901221E+02 -0.30668445019E+01  0.16321856378E+01  0.11384919290E+02  0.00000000000E+00 0.  1.
</event>
<event>
 7    1  0.3054835E-011  0.5052885E+02  0.7816164E-02  0.1300439E+00
        -11   -1    0    0    0    0  0.00000000000E+00  0.00000000000E+00  0.45593999997E+02  0.45594000000E+02  0.51100000000E-03 0.  1.
         11   -1    0    0    0    0 -0.00000000000E+00 -0.00000000000E+00 -0.45593999997E+02  0.45594000000E+02  0.51100000000E-03 0. -1.
    9900012    2    1    2    0    0  0.53686829462E+01 -0.59078056636E+01  0.39867797197E+02  0.50528853702E+02  0.29999981312E+02 0.  0.
         12    1    1    2    0    0 -0.53686829462E+01  0.59078056636E+01 -0.39867797197E+02  0.40659146298E+02  0.00000000000E+00 0. -1.
         11    1    3    3    0    0 -0.51883311592E+01  0.61196900901E+01  0.32987620354E+01  0.86747460046E+01  0.51100000000E-03 0. -1.
        -11    1    3    3    0    0  0.97238312442E+01 -0.35440623861E+01  0.27618091974E+02  0.29493597217E+02  0.51100000000E-03 0.  1.
        -12    1    3    3    0    0  0.83318286123E+00 -0.84834333676E+01  0.89509431876E+01  0.12360510480E+02  0.00000000000E+00 0.  1.
</event>
<event>
 7    1  0.3054835E-011  0.5052885E+02  0.7816164E-02  0.1300439E+00
        -11   -1    0    0    0    0  0.00000000000E+00  0.00000000000E+00  0.45593999997E+02  0.45594000000E+02  0.51100000000E-03 0. -1.
         11   -1    0    0    0    0 -0.00000000000E+00 -0.00000000000E+00 -0.45593999997E+02  0.45594000000E+02  0.51100000000E-03 0.  1.
    9900012    2    1    2    0    0  0.79186935519E+01 -0.34354657897E+02 -0.20253837438E+02  0.50528853947E+02  0.29999982058E+02 0.  0.
         12    1    1    2    0    0 -0.79186935519E+01  0.34354657897E+02  0.20253837438E+02  0.40659146053E+02  0.00000000000E+00 0. -1.
         11    1    3    3    0    0  0.10310050811E+02 -0.26379455016E+02 -0.33526837350E+01  0.28520401175E+02  0.51100000000E-03 0. -1.
        -11    1    3    3    0    0  0.40783914614E+01 -0.20072055608E+01 -0.94095255648E+01  0.10449943669E+02  0.51100000000E-03 0.  1.
         12    1    3    3    0    0 -0.64697487209E+01 -0.59679973198E+01 -0.74916281381E+01  0.11558509103E+02  0.00000000000E+00 0. -1.
</event>
<event>
 7    1  0.3054835E-011  0.5052886E+02  0.7816164E-02  0.1300439E+00
        -11   -1    0    0    0    0  0.00000000000E+00  0.00000000000E+00  0.45593999997E+02  0.45594000000E+02  0.51100000000E-03 0. -1.
         11   -1    0    0    0    0 -0.00000000000E+00 -0.00000000000E+00 -0.45593999997E+02  0.45594000000E+02  0.51100000000E-03 0.  1.
    9900012    2    1    2    0    0 -0.65684509665E+01  0.28777497464E+02 -0.27962060388E+02  0.50528859213E+02  0.29999998064E+02 0.  0.
         12    1    1    2    0    0  0.65684509665E+01 -0.28777497464E+02  0.27962060388E+02  0.40659140787E+02  0.00000000000E+00 0. -1.
         11    1    3    3    0    0 -0.83578564854E+01  0.73543443494E+01 -0.78670557389E+01  0.13631973889E+02  0.51100000000E-03 0. -1.
        -11    1    3    3    0    0  0.30663765965E+01  0.17815524345E+02 -0.24889887034E+02  0.30762022852E+02  0.51100000000E-03 0.  1.
        -12    1    3    3    0    0 -0.12769710776E+01  0.36076287697E+01  0.47948823849E+01  0.61348624726E+01  0.00000000000E+00 0.  1.
</event>
<event>
 7    1  0.3054835E-011  0.5052885E+02  0.7816164E-02  0.1300439E+00
        -11   -1    0    0    0    0  0.00000000000E+00  0.00000000000E+00  0.45593999997E+02  0.45594000000E+02  0.51100000000E-03 0. -1.
         11   -1    0    0    0    0 -0.00000000000E+00 -0.00000000000E+00 -0.45593999997E+02  0.45594000000E+02  0.51100000000E-03 0.  1.
    9900012    2    1    2    0    0 -0.26661515655E+02 -0.27331505594E+02 -0.13975655775E+02  0.50528848886E+02  0.29999966672E+02 0.  0.
         12    1    1    2    0    0  0.26661515655E+02  0.27331505594E+02  0.13975655775E+02  0.40659151114E+02  0.00000000000E+00 0. -1.
         11    1    3    3    0    0  0.30824924902E+00  0.11991670374E+01 -0.15661473760E+01  0.19964561221E+01  0.51100000000E-03 0. -1.
        -11    1    3    3    0    0 -0.18732411684E+02 -0.29690400861E+02 -0.17028066701E+02  0.39017665315E+02  0.51100000000E-03 0.  1.
        -12    1    3    3    0    0 -0.82373532195E+01  0.11597282296E+01  0.46185583025E+01  0.95147274487E+01  0.00000000000E+00 0.  1.
</event>
<event>
 7    1  0.3054835E-011  0.5052887E+02  0.7816164E-02  0.1300439E+00
        -11   -1    0    0    0    0  0.00000000000E+00  0.00000000000E+00  0.45593999997E+02  0.45594000000E+02  0.51100000000E-03 0.  1.
         11   -1    0    0    0    0 -0.00000000000E+00 -0.00000000000E+00 -0.45593999997E+02  0.45594000000E+02  0.51100000000E-03 0. -1.
    9900012    2    1    2    0    0 -0.21536893233E+02  0.70528301683E+01  0.33757740293E+02  0.50528865562E+02  0.30000017363E+02 0.  0.
         12    1    1    2    0    0  0.21536893233E+02 -0.70528301683E+01 -0.33757740293E+02  0.40659134438E+02  0.00000000000E+00 0. -1.
         11    1    3    3    0    0 -0.17394822160E+02  0.97009393718E+01  0.12274715820E+02  0.23395655823E+02  0.51100000000E-03 0. -1.
        -11    1    3    3    0    0 -0.62710294875E+01 -0.41989781798E+01  0.22921560385E+02  0.24132035955E+02  0.51100000000E-03 0.  1.
         12    1    3    3    0    0  0.21289584149E+01  0.15508689763E+01 -0.14385359113E+01  0.30011737841E+01  0.00000000000E+00 0. -1.
</event>
<event>
 7    1  0.3054835E-011  0.5052885E+02  0.7816164E-02  0.1300439E+00
        -11   -1    0    0    0    0  0.00000000000E+00  0.00000000000E+00  0.45593999997E+02  0.45594000000E+02  0.51100000000E-03 0.  1.
         11   -1    0    0    0    0 -0.00000000000E+00 -0.00000000000E+00 -0.45593999997E+02  0.45594000000E+02  0.51100000000E-03 0. -1.
    9900012    2    1    2    0    0 -0.38015596426E+02  0.12618869233E+02  0.69817546033E+01  0.50528851833E+02  0.29999975632E+02 0.  0.
         12    1    1    2    0    0  0.38015596426E+02 -0.12618869233E+02 -0.69817546033E+01  0.40659148167E+02  0.00000000000E+00 0. -1.
         11    1    3    3    0    0 -0.15087120833E+02  0.18426428814E+02  0.32656291176E+01  0.24037862377E+02  0.51100000000E-03 0. -1.
        -11    1    3    3    0    0 -0.23141156757E+02 -0.43250102871E+01  0.54858354711E+01  0.24172572083E+02  0.51100000000E-03 0.  1.
         12    1    3    3    0    0  0.21268116362E+00 -0.14825492938E+01 -0.17697099854E+01  0.23184173736E+01  0.00000000000E+00 0. -1.
</event>
<event>
 7    1  0.3054835E-011  0.5052884E+02  0.7816164E-02  0.1300439E+00
        -11   -1    0    0    0    0  0.00000000000E+00  0.00000000000E+00  0.45593999997E+02  0.45594000000E+02  0.51100000000E-03 0.  1.
         11   -1    0    0    0    0 -0.00000000000E+00 -0.00000000000E+00 -0.45593999997E+02  0.45594000000E+02  0.51100000000E-03 0. -1.
    9900012    2    1    2    0    0  0.37990422290E+01  0.14365845318E+02  0.37846491875E+02  0.50528841366E+02  0.29999943817E+02 0.  0.
         12    1    1    2    0    0 -0.37990422290E+01 -0.14365845318E+02 -0.37846491875E+02  0.40659158634E+02  0.00000000000E+00 0. -1.
         11    1    3    3    0    0  0.79626172868E+01  0.14057889405E+02  0.16234707306E+02  0.22904000745E+02  0.51100000000E-03 0. -1.
        -11    1    3    3    0    0 -0.79012597986E+01  0.51493955724E+00  0.22435618288E+02  0.23791848129E+02  0.51100000000E-03 0.  1.
        -12    1    3    3    0    0  0.37376847408E+01 -0.20698364416E+00 -0.82383371887E+00  0.38329924924E+01  0.00000000000E+00 0.  1.
</event>
<event>
 7    1  0.3054835E-011  0.5052885E+02  0.7816164E-02  0.1300439E+00
        -11   -1    0    0    0    0  0.00000000000E+00  0.00000000000E+00  0.45593999997E+02  0.45594000000E+02  0.51100000000E-03 0.  1.
         11   -1    0    0    0    0 -0.00000000000E+00 -0.00000000000E+00 -0.45593999997E+02  0.45594000000E+02  0.51100000000E-03 0. -1.
    9900012    2    1    2    0    0 -0.16791231949E+02 -0.34263602014E+02  0.14043744279E+02  0.50528847934E+02  0.29999963782E+02 0.  0.
         12    1    1    2    0    0  0.16791231949E+02  0.34263602014E+02 -0.14043744279E+02  0.40659152066E+02  0.00000000000E+00 0. -1.
         11    1    3    3    0    0  0.13252961196E+01 -0.15055906857E+02  0.17080242882E+02  0.22807267224E+02  0.51100000000E-03 0. -1.
        -11    1    3    3    0    0  0.55891954507E+00 -0.21714584987E+01  0.12704869856E+00  0.22458327414E+01  0.51100000000E-03 0.  1.
         12    1    3    3    0    0 -0.18675447613E+02 -0.17036236659E+02 -0.31635473015E+01  0.25475747969E+02  0.00000000000E+00 0. -1.
</event>
<event>
 7    1  0.3054835E-011  0.5052886E+02  0.7816164E-02  0.1300439E+00
        -11   -1    0    0    0    0  0.00000000000E+00  0.00000000000E+00  0.45593999997E+02  0.45594000000E+02  0.51100000000E-03 0.  1.
         11   -1    0    0    0    0 -0.00000000000E+00 -0.00000000000E+00 -0.45593999997E+02  0.45594000000E+02  0.51100000000E-03 0. -1.
    9900012    2    1    2    0    0  0.29146404385E+02  0.26832930506E+02 -0.91458483478E+01  0.50528860927E+02  0.30000003275E+02 0.  0.
         12    1    1    2    0    0 -0.29146404385E+02 -0.26832930506E+02  0.91458483478E+01  0.40659139073E+02  0.00000000000E+00 0. -1.
         11    1    3    3    0    0  0.79095854483E+00 -0.31522052887E+01 -0.21005341023E+01  0.38696585609E+01  0.51100000000E-03 0. -1.
        -11    1    3    3    0    0  0.17729317849E+02  0.21302681190E+02  0.52807787047E+01  0.28213818623E+02  0.51100000000E-03 0.  1.
        -12    1    3    3    0    0  0.10626127991E+02  0.86824546042E+01 -0.12326092950E+02  0.18445383744E+02  0.00000000000E+00 0.  1.
</event>
<event>
 7    1  0.3054835E-011  0.5052887E+02  0.7816164E-02  0.1300439E+00
        -11   -1    0    0    0    0  0.00000000000E+00  0.00000000000E+00  0.45593999997E+02  0.45594000000E+02  0.51100000000E-03 0.  1.
         11   -1    0    0    0    0 -0.00000000000E+00 -0.00000000000E+00 -0.45593999997E+02  0.45594000000E+02  0.51100000000E-03 0. -1.
    9900012    2    1    2    0    0  0.21142362820E+02  0.19634122493E+02  0.28647280308E+02  0.50528868914E+02  0.30000027550E+02 0.  0.
         12    1    1    2    0    0 -0.21142362820E+02 -0.19634122493E+02 -0.28647280308E+02  0.40659131086E+02  0.00000000000E+00 0. -1.
         11    1    3    3    0    0  0.17629195771E+02 -0.10485294200E+01  0.18434185968E+02  0.25528555973E+02  0.51100000000E-03 0.  1.
        -11    1    3    3    0    0  0.43505962982E+01  0.20915762453E+02  0.10813076827E+02  0.23944089831E+02  0.51100000000E-03 0. -1.
        -12    1    3    3    0    0 -0.83742924969E+00 -0.23311053987E+00 -0.59998248705E+00  0.10562231094E+01  0.00000000000E+00 0.  1.
</event>
<event>
 7    1  0.3054835E-011  0.5052886E+02  0.7816164E-02  0.1300439E+00
        -11   -1    0    0    0    0  0.00000000000E+00  0.00000000000E+00  0.45593999997E+02  0.45594000000E+02  0.51100000000E-03 0. -1.
         11   -1    0    0    0    0 -0.00000000000E+00 -0.00000000000E+00 -0.45593999997E+02  0.45594000000E+02  0.51100000000E-03 0.  1.
    9900012    2    1    2    0    0  0.38499721712E+02 -0.11835469270E+02  0.55550971859E+01  0.50528855770E+02  0.29999987599E+02 0.  0.
         12    1    1    2    0    0 -0.38499721712E+02  0.11835469270E+02 -0.55550971859E+01  0.40659144230E+02  0.00000000000E+00 0. -1.
         11    1    3    3    0    0  0.28673564559E+01  0.21326072482E+01  0.48087318634E+01  0.59911308711E+01  0.51100000000E-03 0. -1.
        -11    1    3    3    0    0  0.17654045182E+02 -0.18195471115E+02 -0.34844953126E+01  0.25590666037E+02  0.51100000000E-03 0.  1.
        -12    1    3    3    0    0  0.17978320075E+02  0.42273945976E+01  0.42308606351E+01  0.18947058861E+02  0.00000000000E+00 0.  1.
</event>
<event>
 7    1  0.3054835E-011  0.5052886E+02  0.7816164E-02  0.1300439E+00
        -11   -1    0    0    0    0  0.00000000000E+00  0.00000000000E+00  0.45593999997E+02  0.45594000000E+02  0.51100000000E-03 0. -1.
         11   -1    0    0    0    0 -0.00000000000E+00 -0.00000000000E+00 -0.45593999997E+02  0.45594000000E+02  0.51100000000E-03 0.  1.
    9900012    2    1    2    0    0 -0.35025969917E+02  0.17479346221E+02  0.10991800596E+02  0.50528858429E+02  0.29999995681E+02 0.  0.
         12    1    1    2    0    0  0.35025969917E+02 -0.17479346221E+02 -0.10991800596E+02  0.40659141571E+02  0.00000000000E+00 0. -1.
         11    1    3    3    0    0  0.35690090345E+01 -0.54441657564E+00 -0.72977189741E+00  0.36833113064E+01  0.51100000000E-03 0. -1.
        -11    1    3    3    0    0 -0.20102933682E+02  0.12987947343E+02  0.13701641404E+02  0.27578065491E+02  0.51100000000E-03 0.  1.
        -12    1    3    3    0    0 -0.18492045270E+02  0.50358154544E+01 -0.19800689105E+01  0.19267481632E+02  0.00000000000E+00 0.  1.
</event>
<event>
 7    1  0.3054835E-011  0.5052886E+02  0.7816164E-02  0.1300439E+00
        -11   -1    0    0    0    0  0.00000000000E+00  0.00000000000E+00  0.45593999997E+02  0.45594000000E+02  0.51100000000E-03 0. -1.
         11   -1    0    0    0    0 -0.00000000000E+00 -0.00000000000E+00 -0.45593999997E+02  0.45594000000E+02  0.51100000000E-03 0.  1.
    9900012    2    1    2    0    0 -0.80106441741E+01 -0.90517424445E+01 -0.38820886923E+02  0.50528859295E+02  0.29999998314E+02 0.  0.
         12    1    1    2    0    0  0.80106441741E+01  0.90517424445E+01  0.38820886923E+02  0.40659140705E+02  0.00000000000E+00 0. -1.
         11    1    3    3    0    0  0.35209445547E+01 -0.14271935982E+02 -0.13388753456E+02  0.19883257444E+02  0.51100000000E-03 0. -1.
        -11    1    3    3    0    0 -0.10030481520E+02  0.21214843521E+01 -0.83573373067E+01  0.13227106354E+02  0.51100000000E-03 0.  1.
         12    1    3    3    0    0 -0.15011072090E+01  0.30987091856E+01 -0.17074796160E+02  0.17418495497E+02  0.00000000000E+00 0. -1.
</event>
<event>
 7    1  0.3054835E-011  0.5052888E+02  0.7816164E-02  0.1300439E+00
        -11   -1    0    0    0    0  0.00000000000E+00  0.00000000000E+00  0.45593999997E+02  0.45594000000E+02  0.51100000000E-03 0.  1.
         11   -1    0    0    0    0 -0.00000000000E+00 -0.00000000000E+00 -0.45593999997E+02  0.45594000000E+02  0.51100000000E-03 0. -1.
    9900012    2    1    2    0    0 -0.38702039103E+02  0.12393886167E+02  0.13067181587E+01  0.50528883465E+02  0.30000071782E+02 0.  0.
         12    1    1    2    0    0  0.38702039103E+02 -0.12393886167E+02 -0.13067181587E+01  0.40659116535E+02  0.00000000000E+00 0. -1.
         11    1    3    3    0    0  0.31407324031E+01  0.13364060109E+01  0.26014940705E+00  0.34231358473E+01  0.51100000000E-03 0. -1.
        -11    1    3    3    0    0 -0.32635428004E+02  0.16049413653E+02  0.28430352879E+01  0.36479277536E+02  0.51100000000E-03 0.  1.
        -12    1    3    3    0    0 -0.92073435014E+01 -0.49919334970E+01 -0.17964665363E+01  0.10626470082E+02  0.00000000000E+00 0.  1.
</event>
<event>
 7    1  0.3054835E-011  0.5052885E+02  0.7816164E-02  0.1300439E+00
        -11   -1    0    0    0    0  0.00000000000E+00  0.00000000000E+00  0.45593999997E+02  0.45594000000E+02  0.51100000000E-03 0.  1.
         11   -1    0    0    0    0 -0.00000000000E+00 -0.00000000000E+00 -0.45593999997E+02  0.45594000000E+02  0.51100000000E-03 0. -1.
    9900012    2    1    2    0    0 -0.37252739205E+02  0.53101505885E+01  0.15401379331E+02  0.50528846506E+02  0.29999959439E+02 0.  0.
         12    1    1    2    0    0  0.37252739205E+02 -0.53101505885E+01 -0.15401379331E+02  0.40659153494E+02  0.00000000000E+00 0. -1.
         11    1    3    3    0    0 -0.11399453994E+02  0.69568784156E+01  0.39660693622E+01  0.13931095258E+02  0.51100000000E-03 0. -1.
        -11    1    3    3    0    0 -0.91735462427E+01 -0.62704978656E+01  0.15254606557E+02  0.18872628742E+02  0.51100000000E-03 0.  1.
        -12    1    3    3    0    0 -0.16679738968E+02  0.46237700385E+01 -0.38192965880E+01  0.17725122506E+02  0.00000000000E+00 0.  1.
</event>
<event>
 7    1  0.3054835E-011  0.5052876E+02  0.7816164E-02  0.1300439E+00
        -11   -1    0    0    0    0  0.00000000000E+00  0.00000000000E+00  0.45593999997E+02  0.45594000000E+02  0.51100000000E-03 0.  1.
         11   -1    0    0    0    0 -0.00000000000E+00 -0.00000000000E+00 -0.45593999997E+02  0.45594000000E+02  0.51100000000E-03 0. -1.
    9900012    2    1    2    0    0 -0.29935255740E+02 -0.17533878016E+02 -0.21204182511E+02  0.50528760331E+02  0.29999697501E+02 0.  0.
         12    1    1    2    0    0  0.29935255740E+02  0.17533878016E+02  0.21204182511E+02  0.40659239669E+02  0.00000000000E+00 0. -1.
         11    1    3    3    0    0  0.12751906674E+01  0.43098456054E+01 -0.56879283301E+01  0.72493730301E+01  0.51100000000E-03 0. -1.
        -11    1    3    3    0    0 -0.24999492816E+02 -0.20378198264E+02 -0.17371693417E+02  0.36633609405E+02  0.51100000000E-03 0.  1.
         12    1    3    3    0    0 -0.62109535914E+01 -0.14655253568E+01  0.18554392366E+01  0.66457778962E+01  0.00000000000E+00 0. -1.
</event>
<event>
 7    1  0.3054835E-011  0.5052886E+02  0.7816164E-02  0.1300439E+00
        -11   -1    0    0    0    0  0.00000000000E+00  0.00000000000E+00  0.45593999997E+02  0.45594000000E+02  0.51100000000E-03 0.  1.
         11   -1    0    0    0    0 -0.00000000000E+00 -0.00000000000E+00 -0.45593999997E+02  0.45594000000E+02  0.51100000000E-03 0. -1.
    9900012    2    1    2    0    0 -0.21758410996E+02  0.89554671228E-01  0.34347191888E+02  0.50528855153E+02  0.29999985723E+02 0.  0.
         12    1    1    2    0    0  0.21758410996E+02 -0.89554671228E-01 -0.34347191888E+02  0.40659144847E+02  0.00000000000E+00 0. -1.
         11    1    3    3    0    0  0.56961569787E+01 -0.26649417827E+01  0.20770469081E+01  0.66228576272E+01  0.51100000000E-03 0. -1.
        -11    1    3    3    0    0 -0.25724487836E+02 -0.41998859667E+00  0.30432321624E+02  0.39850368436E+02  0.51100000000E-03 0.  1.
        -12    1    3    3    0    0 -0.17300801385E+01  0.31744850506E+01  0.18378233563E+01  0.40556290895E+01  0.00000000000E+00 0.  1.
</event>
<event>
 7    1  0.3054835E-011  0.5052886E+02  0.7816164E-02  0.1300439E+00
        -11   -1    0    0    0    0  0.00000000000E+00  0.00000000000E+00  0.45593999997E+02  0.45594000000E+02  0.51100000000E-03 0. -1.
         11   -1    0    0    0    0 -0.00000000000E+00 -0.00000000000E+00 -0.45593999997E+02  0.45594000000E+02  0.51100000000E-03 0.  1.
    9900012    2    1    2    0    0 -0.27158994443E+02  0.20072802379E+02 -0.22641497480E+02  0.50528858560E+02  0.29999996079E+02 0.  0.
         12    1    1    2    0    0  0.27158994443E+02 -0.20072802379E+02  0.22641497480E+02  0.40659141440E+02  0.00000000000E+00 0. -1.
         11    1    3    3    0    0 -0.54669681948E+01 -0.49978279339E+00 -0.20788983784E+01  0.58702080723E+01  0.51100000000E-03 0. -1.
        -11    1    3    3    0    0 -0.11255986547E+01  0.15180704024E+02 -0.17473056785E+02  0.23173874529E+02  0.51100000000E-03 0.  1.
        -12    1    3    3    0    0 -0.20566427593E+02  0.53918811482E+01 -0.30895423165E+01  0.21484775958E+02  0.00000000000E+00 0.  1.
</event>
<event>
 7    1  0.3054835E-011  0.5052885E+02  0.7816164E-02  0.1300439E+00
        -11   -1    0    0    0    0  0.00000000000E+00  0.00000000000E+00  0.45593999997E+02  0.45594000000E+02  0.51100000000E-03 0.  1.
         11   -1    0    0    0    0 -0.00000000000E+00 -0.00000000000E+00 -0.45593999997E+02  0.45594000000E+02  0.51100000000E-03 0. -1.
    9900012    2    1    2    0    0 -0.93725153913E+01 -0.39270632405E+02  0.48103553653E+01  0.50528854251E+02  0.29999982983E+02 0.  0.
         12    1    1    2    0    0  0.93725153913E+01  0.39270632405E+02 -0.48103553653E+01  0.40659145749E+02  0.00000000000E+00 0. -1.
         11    1    3    3    0    0  0.46510097686E+01 -0.15189703303E+01  0.64151939637E+01  0.80680776264E+01  0.51100000000E-03 0. -1.
        -11    1    3    3    0    0 -0.16159186051E+02 -0.34589504734E+02  0.33678507611E+00  0.38179399629E+02  0.51100000000E-03 0.  1.
         12    1    3    3    0    0  0.21356608911E+01 -0.31621573411E+01 -0.19416236745E+01  0.42813769964E+01  0.00000000000E+00 0. -1.
</event>
<event>
 7    1  0.3054835E-011  0.5052885E+02  0.7816164E-02  0.1300439E+00
        -11   -1    0    0    0    0  0.00000000000E+00  0.00000000000E+00  0.45593999997E+02  0.45594000000E+02  0.51100000000E-03 0.  1.
         11   -1    0    0    0    0 -0.00000000000E+00 -0.00000000000E+00 -0.45593999997E+02  0.45594000000E+02  0.51100000000E-03 0. -1.
    9900012    2    1    2    0    0 -0.88777465000E+01 -0.50020865848E+01  0.39361543268E+02  0.50528851687E+02  0.29999975188E+02 0.  0.
         12    1    1    2    0    0  0.88777465000E+01  0.50020865848E+01 -0.39361543268E+02  0.40659148313E+02  0.00000000000E+00 0. -1.
         11    1    3    3    0    0 -0.51571984614E+01 -0.17374698268E+02  0.18021431229E+02  0.25558732748E+02  0.51100000000E-03 0. -1.
        -11    1    3    3    0    0 -0.25291920440E+01  0.85123474236E+01  0.13669563926E+02  0.16300731555E+02  0.51100000000E-03 0.  1.
         12    1    3    3    0    0 -0.11913559946E+01  0.38602642598E+01  0.76705481126E+01  0.86693873837E+01  0.00000000000E+00 0. -1.
</event>
<event>
 7    1  0.3054835E-011  0.5052886E+02  0.7816164E-02  0.1300439E+00
        -11   -1    0    0    0    0  0.00000000000E+00  0.00000000000E+00  0.45593999997E+02  0.45594000000E+02  0.51100000000E-03 0.  1.
         11   -1    0    0    0    0 -0.00000000000E+00 -0.00000000000E+00 -0.45593999997E+02  0.45594000000E+02  0.51100000000E-03 0. -1.
    9900012    2    1    2    0    0 -0.84237820284E+01  0.35033261641E+02  0.18838147460E+02  0.50528864192E+02  0.30000013199E+02 0.  0.
         12    1    1    2    0    0  0.84237820284E+01 -0.35033261641E+02 -0.18838147460E+02  0.40659135808E+02  0.00000000000E+00 0. -1.
         11    1    3    3    0    0  0.33083668280E+01  0.11366852062E+01 -0.69230693814E+00  0.35660389068E+01  0.51100000000E-03 0. -1.
        -11    1    3    3    0    0 -0.18782996817E+02  0.26346951683E+02  0.14150459362E+02  0.35315695276E+02  0.51100000000E-03 0.  1.
        -12    1    3    3    0    0  0.70508479606E+01  0.75496247522E+01  0.53799950362E+01  0.11647130009E+02  0.00000000000E+00 0.  1.
</event>
<event>
 7    1  0.3054835E-011  0.5052886E+02  0.7816164E-02  0.1300439E+00
        -11   -1    0    0    0    0  0.00000000000E+00  0.00000000000E+00  0.45593999997E+02  0.45594000000E+02  0.51100000000E-03 0. -1.
         11   -1    0    0    0    0 -0.00000000000E+00 -0.00000000000E+00 -0.45593999997E+02  0.45594000000E+02  0.51100000000E-03 0.  1.
    9900012    2    1    2    0    0 -0.22348681964E+02  0.26445478196E+02 -0.21315222367E+02  0.50528860718E+02  0.30000002639E+02 0.  0.
         12    1    1    2    0    0  0.22348681964E+02 -0.26445478196E+02  0.21315222367E+02  0.40659139282E+02  0.00000000000E+00 0. -1.
         11    1    3    3    0    0 -0.62318168299E+01  0.37439938000E+01  0.16183547886E+01  0.74479596574E+01  0.51100000000E-03 0. -1.
        -11    1    3    3    0    0 -0.11723148284E+02  0.71892511773E+00 -0.15532823885E+02  0.19473512193E+02  0.51100000000E-03 0.  1.
        -12    1    3    3    0    0 -0.43937168509E+01  0.21982559279E+02 -0.74007532700E+01  0.23607388868E+02  0.00000000000E+00 0.  1.
</event>
<event>
 7    1  0.3054835E-011  0.5052885E+02  0.7816164E-02  0.1300439E+00
        -11   -1    0    0    0    0  0.00000000000E+00  0.00000000000E+00  0.45593999997E+02  0.45594000000E+02  0.51100000000E-03 0. -1.
         11   -1    0    0    0    0 -0.00000000000E+00 -0.00000000000E+00 -0.45593999997E+02  0.45594000000E+02  0.51100000000E-03 0.  1.
    9900012    2    1    2    0    0  0.95568730634E+01  0.19327274320E+02 -0.34471563940E+02  0.50528854954E+02  0.29999985119E+02 0.  0.
         12    1    1    2    0    0 -0.95568730634E+01 -0.19327274320E+02  0.34471563940E+02  0.40659145046E+02  0.00000000000E+00 0. -1.
         11    1    3    3    0    0  0.28933783447E+01 -0.51147312765E+01 -0.14934099195E+02  0.16048658302E+02  0.51100000000E-03 0. -1.
        -11    1    3    3    0    0  0.85566089666E+01  0.76835883579E+01 -0.88860957414E+01  0.14533264769E+02  0.51100000000E-03 0.  1.
         12    1    3    3    0    0 -0.18931142479E+01  0.16758417238E+02 -0.10651369003E+02  0.19946931883E+02  0.00000000000E+00 0. -1.
</event>
<event>
 7    1  0.3054835E-011  0.5052883E+02  0.7816164E-02  0.1300439E+00
        -11   -1    0    0    0    0  0.00000000000E+00  0.00000000000E+00  0.45593999997E+02  0.45594000000E+02  0.51100000000E-03 0.  1.
         11   -1    0    0    0    0 -0.00000000000E+00 -0.00000000000E+00 -0.45593999997E+02  0.45594000000E+02  0.51100000000E-03 0. -1.
    9900012    2    1    2    0    0  0.25383326341E+02 -0.30623163417E+02  0.84307124258E+01  0.50528827532E+02  0.29999901765E+02 0.  0.
         12    1    1    2    0    0 -0.25383326341E+02  0.30623163417E+02 -0.84307124258E+01  0.40659172468E+02  0.00000000000E+00 0. -1.
         11    1    3    3    0    0 -0.14574189860E+01 -0.23357456375E+01  0.67870618058E+01  0.73242054860E+01  0.51100000000E-03 0. -1.
        -11    1    3    3    0    0  0.15842796162E+02 -0.23602759430E+02 -0.59495922749E+01  0.29042763151E+02  0.51100000000E-03 0.  1.
        -12    1    3    3    0    0  0.10997949165E+02 -0.46846583492E+01  0.75932428948E+01  0.14161858894E+02  0.00000000000E+00 0.  1.
</event>
<event>
 7    1  0.3054835E-011  0.5052886E+02  0.7816164E-02  0.1300439E+00
        -11   -1    0    0    0    0  0.00000000000E+00  0.00000000000E+00  0.45593999997E+02  0.45594000000E+02  0.51100000000E-03 0.  1.
         11   -1    0    0    0    0 -0.00000000000E+00 -0.00000000000E+00 -0.45593999997E+02  0.45594000000E+02  0.51100000000E-03 0. -1.
    9900012    2    1    2    0    0  0.21179475256E+02 -0.62171332423E+00  0.34701716918E+02  0.50528857650E+02  0.29999993313E+02 0.  0.
         12    1    1    2    0    0 -0.21179475256E+02  0.62171332423E+00 -0.34701716918E+02  0.40659142350E+02  0.00000000000E+00 0. -1.
         11    1    3    3    0    0  0.20156026653E+02 -0.32439769919E+01  0.92512874172E+01  0.22413726069E+02  0.51100000000E-03 0. -1.
        -11    1    3    3    0    0 -0.27592140507E+01  0.60667195824E+01  0.12032277635E+02  0.13754782950E+02  0.51100000000E-03 0.  1.
         12    1    3    3    0    0  0.37826626546E+01 -0.34444559147E+01  0.13418151866E+02  0.14360348631E+02  0.00000000000E+00 0. -1.
</event>
<event>
 7    1  0.3054835E-011  0.5052885E+02  0.7816164E-02  0.1300439E+00
        -11   -1    0    0    0    0  0.00000000000E+00  0.00000000000E+00  0.45593999997E+02  0.45594000000E+02  0.51100000000E-03 0.  1.
         11   -1    0    0    0    0 -0.00000000000E+00 -0.00000000000E+00 -0.45593999997E+02  0.45594000000E+02  0.51100000000E-03 0. -1.
    9900012    2    1    2    0    0  0.29535181585E+02  0.97906763768E+01  0.26172170033E+02  0.50528846302E+02  0.29999958819E+02 0.  0.
         12    1    1    2    0    0 -0.29535181585E+02 -0.97906763768E+01 -0.26172170033E+02  0.40659153698E+02  0.00000000000E+00 0. -1.
         11    1    3    3    0    0 -0.20914869605E+01  0.32545486389E+01  0.59951542079E+01  0.71350037692E+01  0.51100000000E-03 0. -1.
        -11    1    3    3    0    0  0.31910251359E+02  0.87197956669E+01  0.12427480699E+02  0.35337533234E+02  0.51100000000E-03 0.  1.
        -12    1    3    3    0    0 -0.28358281345E+00 -0.21836679290E+01  0.77495351266E+01  0.80563092986E+01  0.00000000000E+00 0.  1.
</event>
<event>
 7    1  0.3054835E-011  0.5052886E+02  0.7816164E-02  0.1300439E+00
        -11   -1    0    0    0    0  0.00000000000E+00  0.00000000000E+00  0.45593999997E+02  0.45594000000E+02  0.51100000000E-03 0.  1.
         11   -1    0    0    0    0 -0.00000000000E+00 -0.00000000000E+00 -0.45593999997E+02  0.45594000000E+02  0.51100000000E-03 0. -1.
    9900012    2    1    2    0    0  0.23548388524E+01  0.24098796909E+02  0.32662946407E+02  0.50528863924E+02  0.30000012384E+02 0.  0.
         12    1    1    2    0    0 -0.23548388524E+01 -0.24098796909E+02 -0.32662946407E+02  0.40659136076E+02  0.00000000000E+00 0. -1.
         11    1    3    3    0    0 -0.11928254471E+01  0.46250637641E+01 -0.36636498954E+01  0.60196659530E+01  0.51100000000E-03 0. -1.
        -11    1    3    3    0    0 -0.29377182415E+01  0.95360312522E+01  0.28744269871E+02  0.30426947451E+02  0.51100000000E-03 0.  1.
         12    1    3    3    0    0  0.64853825410E+01  0.99377018923E+01  0.75823264306E+01  0.14082250520E+02  0.00000000000E+00 0. -1.
</event>
<event>
 7    1  0.3054835E-011  0.5052887E+02  0.7816164E-02  0.1300439E+00
        -11   -1    0    0    0    0  0.00000000000E+00  0.00000000000E+00  0.45593999997E+02  0.45594000000E+02  0.51100000000E-03 0.  1.
         11   -1    0    0    0    0 -0.00000000000E+00 -0.00000000000E+00 -0.45593999997E+02  0.45594000000E+02  0.51100000000E-03 0. -1.
    9900012    2    1    2    0    0 -0.15842887071E+01 -0.56790430047E+01  0.40229386102E+02  0.50528868107E+02  0.30000025099E+02 0.  0.
         12    1    1    2    0    0  0.15842887071E+01  0.56790430047E+01 -0.40229386102E+02  0.40659131893E+02  0.00000000000E+00 0. -1.
         11    1    3    3    0    0 -0.35643834301E+01 -0.40059766194E+00 -0.33851017009E+01  0.49319591959E+01  0.51100000000E-03 0. -1.
        -11    1    3    3    0    0 -0.31507854428E+01 -0.66165800369E+01  0.32012553418E+02  0.32840678387E+02  0.51100000000E-03 0.  1.
        -12    1    3    3    0    0  0.51308801657E+01  0.13381346941E+01  0.11601934385E+02  0.12756230525E+02  0.00000000000E+00 0.  1.
</event>
<event>
 7    1  0.3054835E-011  0.5052886E+02  0.7816164E-02  0.1300439E+00
        -11   -1    0    0    0    0  0.00000000000E+00  0.00000000000E+00  0.45593999997E+02  0.45594000000E+02  0.51100000000E-03 0.  1.
         11   -1    0    0    0    0 -0.00000000000E+00 -0.00000000000E+00 -0.45593999997E+02  0.45594000000E+02  0.51100000000E-03 0. -1.
    9900012    2    1    2    0    0 -0.20798220374E+02  0.45617765690E+01  0.34637983999E+02  0.50528859433E+02  0.29999998732E+02 0.  0.
         12    1    1    2    0    0  0.20798220374E+02 -0.45617765690E+01 -0.34637983999E+02  0.40659140567E+02  0.00000000000E+00 0. -1.
         11    1    3    3    0    0 -0.79636898288E+01  0.19019340361E+01  0.22500675129E+02  0.23944061691E+02  0.51100000000E-03 0.  1.
        -11    1    3    3    0    0  0.39460681611E+01  0.20815391351E+01 -0.17529713787E+01  0.47934505336E+01  0.51100000000E-03 0. -1.
        -12    1    3    3    0    0 -0.16780598706E+02  0.57830339787E+00  0.13890280249E+02  0.21791347208E+02  0.00000000000E+00 0.  1.
</event>
<event>
 7    1  0.3054835E-011  0.5052886E+02  0.7816164E-02  0.1300439E+00
        -11   -1    0    0    0    0  0.00000000000E+00  0.00000000000E+00  0.45593999997E+02  0.45594000000E+02  0.51100000000E-03 0.  1.
         11   -1    0    0    0    0 -0.00000000000E+00 -0.00000000000E+00 -0.45593999997E+02  0.45594000000E+02  0.51100000000E-03 0. -1.
    9900012    2    1    2    0    0  0.31609980405E+02 -0.21606599379E+02  0.13679531610E+02  0.50528861015E+02  0.30000003542E+02 0.  0.
         12    1    1    2    0    0 -0.31609980405E+02  0.21606599379E+02 -0.13679531610E+02  0.40659138985E+02  0.00000000000E+00 0. -1.
         11    1    3    3    0    0 -0.76690334296E+00 -0.36867734325E+01  0.79835224374E+00  0.38493902954E+01  0.51100000000E-03 0. -1.
        -11    1    3    3    0    0  0.94791065764E+01  0.63904905374E+01  0.41371679922E+01  0.12157630939E+02  0.51100000000E-03 0.  1.
        -12    1    3    3    0    0  0.22897777171E+02 -0.24310316484E+02  0.87440113739E+01  0.34521839781E+02  0.00000000000E+00 0.  1.
</event>
<event>
 7    1  0.3054835E-011  0.5052886E+02  0.7816164E-02  0.1300439E+00
        -11   -1    0    0    0    0  0.00000000000E+00  0.00000000000E+00  0.45593999997E+02  0.45594000000E+02  0.51100000000E-03 0.  1.
         11   -1    0    0    0    0 -0.00000000000E+00 -0.00000000000E+00 -0.45593999997E+02  0.45594000000E+02  0.51100000000E-03 0. -1.
    9900012    2    1    2    0    0  0.51044500657E+01  0.17192630599E+01  0.40300798540E+02  0.50528860328E+02  0.30000001451E+02 0.  0.
         12    1    1    2    0    0 -0.51044500657E+01 -0.17192630599E+01 -0.40300798540E+02  0.40659139672E+02  0.00000000000E+00 0. -1.
         11    1    3    3    0    0  0.68136071264E+01 -0.55730845189E+01  0.43673245437E+01  0.98263949167E+01  0.51100000000E-03 0. -1.
        -11    1    3    3    0    0  0.76400765693E+00  0.11617221843E+02  0.13990583599E+02  0.18201098339E+02  0.51100000000E-03 0.  1.
        -12    1    3    3    0    0 -0.24731647176E+01 -0.43248742639E+01  0.21942890397E+02  0.22501367072E+02  0.00000000000E+00 0.  1.
</event>
<event>
 7    1  0.3054835E-011  0.5052883E+02  0.7816164E-02  0.1300439E+00
        -11   -1    0    0    0    0  0.00000000000E+00  0.00000000000E+00  0.45593999997E+02  0.45594000000E+02  0.51100000000E-03 0.  1.
         11   -1    0    0    0    0 -0.00000000000E+00 -0.00000000000E+00 -0.45593999997E+02  0.45594000000E+02  0.51100000000E-03 0. -1.
    9900012    2    1    2    0    0  0.28723121110E+01 -0.92635165759E+01  0.39485507251E+02  0.50528828844E+02  0.29999905754E+02 0.  0.
         12    1    1    2    0    0 -0.28723121110E+01  0.92635165759E+01 -0.39485507251E+02  0.40659171156E+02  0.00000000000E+00 0. -1.
         11    1    3    3    0    0 -0.50680896355E+01 -0.54554258095E+01  0.67041194243E+01  0.10019601830E+02  0.51100000000E-03 0.  1.
        -11    1    3    3    0    0  0.45723222840E+01  0.88391096868E+01  0.92692351331E+01  0.13599805562E+02  0.51100000000E-03 0. -1.
        -12    1    3    3    0    0  0.33680794625E+01 -0.12647200453E+02  0.23512152694E+02  0.26909421452E+02  0.00000000000E+00 0.  1.
</event>
<event>
 7    1  0.3054835E-011  0.5052885E+02  0.7816164E-02  0.1300439E+00
        -11   -1    0    0    0    0  0.00000000000E+00  0.00000000000E+00  0.45593999997E+02  0.45594000000E+02  0.51100000000E-03 0.  1.
         11   -1    0    0    0    0 -0.00000000000E+00 -0.00000000000E+00 -0.45593999997E+02  0.45594000000E+02  0.51100000000E-03 0. -1.
    9900012    2    1    2    0    0 -0.20385316358E+02  0.19380473986E+02  0.29359883437E+02  0.50528847890E+02  0.29999963645E+02 0.  0.
         12    1    1    2    0    0  0.20385316358E+02 -0.19380473986E+02 -0.29359883437E+02  0.40659152110E+02  0.00000000000E+00 0. -1.
         11    1    3    3    0    0 -0.21726256666E+02  0.10237179396E+02  0.28805393831E+02  0.37504410204E+02  0.51100000000E-03 0. -1.
        -11    1    3    3    0    0  0.15239568977E+01  0.95174642127E+01  0.33452920043E+01  0.10202722603E+02  0.51100000000E-03 0.  1.
         12    1    3    3    0    0 -0.18301658949E+00 -0.37416962358E+00 -0.27908023985E+01  0.28217150824E+01  0.00000000000E+00 0. -1.
</event>
<event>
 7    1  0.3054835E-011  0.5052886E+02  0.7816164E-02  0.1300439E+00
        -11   -1    0    0    0    0  0.00000000000E+00  0.00000000000E+00  0.45593999997E+02  0.45594000000E+02  0.51100000000E-03 0.  1.
         11   -1    0    0    0    0 -0.00000000000E+00 -0.00000000000E+00 -0.45593999997E+02  0.45594000000E+02  0.51100000000E-03 0. -1.
    9900012    2    1    2    0    0 -0.29861474179E+02 -0.21890116063E+01  0.27507570475E+02  0.50528857788E+02  0.29999993734E+02 0.  0.
         12    1    1    2    0    0  0.29861474179E+02  0.21890116063E+01 -0.27507570475E+02  0.40659142212E+02  0.00000000000E+00 0. -1.
         11    1    3    3    0    0 -0.29714789334E+02  0.31932590548E+01  0.97277480139E+01  0.31429201235E+02  0.51100000000E-03 0.  1.
        -11    1    3    3    0    0 -0.46914156354E+00 -0.71085903360E+00  0.98777875833E+01  0.99144390751E+01  0.51100000000E-03 0. -1.
        -12    1    3    3    0    0  0.32245671853E+00 -0.46714116275E+01  0.79020348775E+01  0.91852174788E+01  0.00000000000E+00 0.  1.
</event>
<event>
 7    1  0.3054835E-011  0.5052885E+02  0.7816164E-02  0.1300439E+00
        -11   -1    0    0    0    0  0.00000000000E+00  0.00000000000E+00  0.45593999997E+02  0.45594000000E+02  0.51100000000E-03 0.  1.
         11   -1    0    0    0    0 -0.00000000000E+00 -0.00000000000E+00 -0.45593999997E+02  0.45594000000E+02  0.51100000000E-03 0. -1.
    9900012    2    1    2    0    0  0.79978243539E+01 -0.34833906694E+02  0.19385564074E+02  0.50528851652E+02  0.29999975080E+02 0.  0.
         12    1    1    2    0    0 -0.79978243539E+01  0.34833906694E+02 -0.19385564074E+02  0.40659148348E+02  0.00000000000E+00 0. -1.
         11    1    3    3    0    0  0.79113973918E+01 -0.57631792603E+01 -0.77004677430E+00  0.98182185845E+01  0.51100000000E-03 0. -1.
        -11    1    3    3    0    0  0.38221683125E+01 -0.61408442329E+01  0.15375294690E+02  0.16991722266E+02  0.51100000000E-03 0.  1.
         12    1    3    3    0    0 -0.37357413504E+01 -0.22929883201E+02  0.47803161588E+01  0.23718910801E+02  0.00000000000E+00 0. -1.
</event>
<event>
 7    1  0.3054835E-011  0.5052887E+02  0.7816164E-02  0.1300439E+00
        -11   -1    0    0    0    0  0.00000000000E+00  0.00000000000E+00  0.45593999997E+02  0.45594000000E+02  0.51100000000E-03 0. -1.
         11   -1    0    0    0    0 -0.00000000000E+00 -0.00000000000E+00 -0.45593999997E+02  0.45594000000E+02  0.51100000000E-03 0.  1.
    9900012    2    1    2    0    0  0.63090606250E+01 -0.40161854470E+02 -0.62156859698E+00  0.50528866365E+02  0.30000019804E+02 0.  0.
         12    1    1    2    0    0 -0.63090606250E+01  0.40161854470E+02  0.62156859698E+00  0.40659133635E+02  0.00000000000E+00 0. -1.
         11    1    3    3    0    0 -0.56524091570E+01 -0.13803123388E+02  0.12601148184E+01  0.14968761945E+02  0.51100000000E-03 0. -1.
        -11    1    3    3    0    0  0.87707853265E+01 -0.28302846026E+02  0.25774176332E+01  0.29742576391E+02  0.51100000000E-03 0.  1.
        -12    1    3    3    0    0  0.31906844555E+01  0.19441149449E+01 -0.44591010485E+01  0.58175280296E+01  0.00000000000E+00 0.  1.
</event>
<event>
 7    1  0.3054835E-011  0.5052886E+02  0.7816164E-02  0.1300439E+00
        -11   -1    0    0    0    0  0.00000000000E+00  0.00000000000E+00  0.45593999997E+02  0.45594000000E+02  0.51100000000E-03 0. -1.
         11   -1    0    0    0    0 -0.00000000000E+00 -0.00000000000E+00 -0.45593999997E+02  0.45594000000E+02  0.51100000000E-03 0.  1.
    9900012    2    1    2    0    0 -0.13060072880E+02  0.35959503994E+02 -0.13766404566E+02  0.50528864178E+02  0.30000013156E+02 0.  0.
         12    1    1    2    0    0  0.13060072880E+02 -0.35959503994E+02  0.13766404566E+02  0.40659135822E+02  0.00000000000E+00 0. -1.
         11    1    3    3    0    0 -0.29649632864E+01  0.75019084271E+00  0.67425119071E+01  0.74037328874E+01  0.51100000000E-03 0. -1.
        -11    1    3    3    0    0 -0.53985799424E+01  0.28894283433E+02 -0.12642393530E+02  0.31997724840E+02  0.51100000000E-03 0.  1.
         12    1    3    3    0    0 -0.46965296512E+01  0.63150297179E+01 -0.78665229434E+01  0.11127406451E+02  0.00000000000E+00 0. -1.
</event>
<event>
 7    1  0.3054835E-011  0.5052888E+02  0.7816164E-02  0.1300439E+00
        -11   -1    0    0    0    0  0.00000000000E+00  0.00000000000E+00  0.45593999997E+02  0.45594000000E+02  0.51100000000E-03 0.  1.
         11   -1    0    0    0    0 -0.00000000000E+00 -0.00000000000E+00 -0.45593999997E+02  0.45594000000E+02  0.51100000000E-03 0. -1.
    9900012    2    1    2    0    0  0.39871632194E+02  0.53864393990E+01  0.58654300754E+01  0.50528879828E+02  0.30000060725E+02 0.  0.
         12    1    1    2    0    0 -0.39871632194E+02 -0.53864393990E+01 -0.58654300754E+01  0.40659120172E+02  0.00000000000E+00 0. -1.
         11    1    3    3    0    0  0.89326744753E+01  0.38829147079E+01  0.72935723823E+01  0.12168233161E+02  0.51100000000E-03 0. -1.
        -11    1    3    3    0    0  0.10709378011E+02 -0.10295922333E+02 -0.15908034074E+01  0.14940798165E+02  0.51100000000E-03 0.  1.
        -12    1    3    3    0    0  0.20229579708E+02  0.11799447024E+02  0.16266110054E+00  0.23419848502E+02  0.00000000000E+00 0.  1.
</event>
<event>
 7    1  0.3054835E-011  0.5052888E+02  0.7816164E-02  0.1300439E+00
        -11   -1    0    0    0    0  0.00000000000E+00  0.00000000000E+00  0.45593999997E+02  0.45594000000E+02  0.51100000000E-03 0.  1.
         11   -1    0    0    0    0 -0.00000000000E+00 -0.00000000000E+00 -0.45593999997E+02  0.45594000000E+02  0.51100000000E-03 0. -1.
    9900012    2    1    2    0    0  0.19426074697E+02 -0.34504453080E+02  0.92322430665E+01  0.50528880820E+02  0.30000063740E+02 0.  0.
         12    1    1    2    0    0 -0.19426074697E+02  0.34504453080E+02 -0.92322430665E+01  0.40659119180E+02  0.00000000000E+00 0. -1.
         11    1    3    3    0    0 -0.14360827979E+01  0.11314708919E+01 -0.22342512885E+01  0.28869428922E+01  0.51100000000E-03 0. -1.
        -11    1    3    3    0    0  0.21906813082E+02 -0.34814067387E+02  0.54643991466E+01  0.41494426201E+02  0.51100000000E-03 0.  1.
        -12    1    3    3    0    0 -0.10446555876E+01 -0.82185658486E+00  0.60020952083E+01  0.61475117269E+01  0.00000000000E+00 0.  1.
</event>
<event>
 7    1  0.3054835E-011  0.5052888E+02  0.7816164E-02  0.1300439E+00
        -11   -1    0    0    0    0  0.00000000000E+00  0.00000000000E+00  0.45593999997E+02  0.45594000000E+02  0.51100000000E-03 0.  1.
         11   -1    0    0    0    0 -0.00000000000E+00 -0.00000000000E+00 -0.45593999997E+02  0.45594000000E+02  0.51100000000E-03 0. -1.
    9900012    2    1    2    0    0  0.78350293541E+01  0.37471506981E+02  0.13699011037E+02  0.50528875270E+02  0.30000046870E+02 0.  0.
         12    1    1    2    0    0 -0.78350293541E+01 -0.37471506981E+02 -0.13699011037E+02  0.40659124730E+02  0.00000000000E+00 0. -1.
         11    1    3    3    0    0 -0.92577788522E+01  0.25519169742E+02  0.72161394165E+01  0.28089271296E+02  0.51100000000E-03 0. -1.
        -11    1    3    3    0    0  0.10571114815E+02  0.84508883385E+01  0.17327318523E+01  0.13644352021E+02  0.51100000000E-03 0.  1.
         12    1    3    3    0    0  0.65216933918E+01  0.35014489008E+01  0.47501397682E+01  0.87952519531E+01  0.00000000000E+00 0. -1.
</event>
<event>
 7    1  0.3054835E-011  0.5052885E+02  0.7816164E-02  0.1300439E+00
        -11   -1    0    0    0    0  0.00000000000E+00  0.00000000000E+00  0.45593999997E+02  0.45594000000E+02  0.51100000000E-03 0. -1.
         11   -1    0    0    0    0 -0.00000000000E+00 -0.00000000000E+00 -0.45593999997E+02  0.45594000000E+02  0.51100000000E-03 0.  1.
    9900012    2    1    2    0    0  0.15556835904E+02  0.97652387620E+00 -0.37552599344E+02  0.50528850233E+02  0.29999970769E+02 0.  0.
         12    1    1    2    0    0 -0.15556835904E+02 -0.97652387620E+00  0.37552599344E+02  0.40659149767E+02  0.00000000000E+00 0. -1.
         11    1    3    3    0    0 -0.48278053241E+01  0.39541270178E+01 -0.68201769032E+01  0.92443300445E+01  0.51100000000E-03 0. -1.
        -11    1    3    3    0    0  0.67238332239E+01 -0.10032501484E+02 -0.11669115578E+02  0.16793727337E+02  0.51100000000E-03 0.  1.
        -12    1    3    3    0    0  0.13660808004E+02  0.70548983420E+01 -0.19063306863E+02  0.24490792852E+02  0.00000000000E+00 0.  1.
</event>
<event>
 7    1  0.3054835E-011  0.5052886E+02  0.7816164E-02  0.1300439E+00
        -11   -1    0    0    0    0  0.00000000000E+00  0.00000000000E+00  0.45593999997E+02  0.45594000000E+02  0.51100000000E-03 0. -1.
         11   -1    0    0    0    0 -0.00000000000E+00 -0.00000000000E+00 -0.45593999997E+02  0.45594000000E+02  0.51100000000E-03 0.  1.
    9900012    2    1    2    0    0  0.15358383174E+02  0.37634344049E+02 -0.97062657270E+00  0.50528857096E+02  0.29999991629E+02 0.  0.
         12    1    1    2    0    0 -0.15358383174E+02 -0.37634344049E+02  0.97062657270E+00  0.40659142904E+02  0.00000000000E+00 0. -1.
         11    1    3    3    0    0  0.30799805275E+01  0.28723639651E+01 -0.88508454638E+01  0.98017457875E+01  0.51100000000E-03 0. -1.
        -11    1    3    3    0    0  0.47960485377E+01  0.23052602242E+02  0.11732237365E+02  0.26307222308E+02  0.51100000000E-03 0.  1.
         12    1    3    3    0    0  0.74823541087E+01  0.11709377843E+02 -0.38520184740E+01  0.14419889001E+02  0.00000000000E+00 0. -1.
</event>
<event>
 7    1  0.3054835E-011  0.5052872E+02  0.7816164E-02  0.1300439E+00
        -11   -1    0    0    0    0  0.00000000000E+00  0.00000000000E+00  0.45593999997E+02  0.45594000000E+02  0.51100000000E-03 0.  1.
         11   -1    0    0    0    0 -0.00000000000E+00 -0.00000000000E+00 -0.45593999997E+02  0.45594000000E+02  0.51100000000E-03 0. -1.
    9900012    2    1    2    0    0  0.77672494109E+01  0.36308356165E+02  0.16569545435E+02  0.50528723977E+02  0.29999586997E+02 0.  0.
         12    1    1    2    0    0 -0.77672494109E+01 -0.36308356165E+02 -0.16569545435E+02  0.40659276023E+02  0.00000000000E+00 0. -1.
         11    1    3    3    0    0  0.42201652290E+01 -0.22683151291E+01 -0.39927285357E+01  0.62367402950E+01  0.51100000000E-03 0. -1.
        -11    1    3    3    0    0  0.81839221929E+00  0.24428344537E+02  0.15852543660E+02  0.29132746582E+02  0.51100000000E-03 0.  1.
         12    1    3    3    0    0  0.27286919626E+01  0.14148326757E+02  0.47097303106E+01  0.15159237100E+02  0.00000000000E+00 0. -1.
</event>
<event>
 7    1  0.3054835E-011  0.5052887E+02  0.7816164E-02  0.1300439E+00
        -11   -1    0    0    0    0  0.00000000000E+00  0.00000000000E+00  0.45593999997E+02  0.45594000000E+02  0.51100000000E-03 0.  1.
         11   -1    0    0    0    0 -0.00000000000E+00 -0.00000000000E+00 -0.45593999997E+02  0.45594000000E+02  0.51100000000E-03 0. -1.
    9900012    2    1    2    0    0  0.21272298482E+01  0.38283830805E+02  0.13527313669E+02  0.50528867902E+02  0.30000024474E+02 0.  0.
         12    1    1    2    0    0 -0.21272298482E+01 -0.38283830805E+02 -0.13527313669E+02  0.40659132098E+02  0.00000000000E+00 0. -1.
         11    1    3    3    0    0 -0.12005656547E+01  0.18435270313E+02  0.20136697403E+02  0.27327406243E+02  0.51100000000E-03 0. -1.
        -11    1    3    3    0    0 -0.14006227731E+01  0.16151447198E+02 -0.43231438735E+01  0.16778574551E+02  0.51100000000E-03 0.  1.
         12    1    3    3    0    0  0.47284182761E+01  0.36971132937E+01 -0.22862398608E+01  0.64228871079E+01  0.00000000000E+00 0. -1.
</event>
<event>
 7    1  0.3054835E-011  0.5052886E+02  0.7816164E-02  0.1300439E+00
        -11   -1    0    0    0    0  0.00000000000E+00  0.00000000000E+00  0.45593999997E+02  0.45594000000E+02  0.51100000000E-03 0.  1.
         11   -1    0    0    0    0 -0.00000000000E+00 -0.00000000000E+00 -0.45593999997E+02  0.45594000000E+02  0.51100000000E-03 0. -1.
    9900012    2    1    2    0    0 -0.18931321010E+02  0.33687233973E+02  0.12646786924E+02  0.50528857518E+02  0.29999992911E+02 0.  0.
         12    1    1    2    0    0  0.18931321010E+02 -0.33687233973E+02 -0.12646786924E+02  0.40659142482E+02  0.00000000000E+00 0. -1.
         11    1    3    3    0    0 -0.10563088335E+02  0.86224859534E+01 -0.87123410882E+01  0.16181192375E+02  0.51100000000E-03 0. -1.
        -11    1    3    3    0    0 -0.26080610984E+01  0.14435002105E+02  0.13440091813E+02  0.19894907305E+02  0.51100000000E-03 0.  1.
         12    1    3    3    0    0 -0.57601715763E+01  0.10629745914E+02  0.79190361991E+01  0.14452757838E+02  0.00000000000E+00 0. -1.
</event>
<event>
 7    1  0.3054835E-011  0.5052885E+02  0.7816164E-02  0.1300439E+00
        -11   -1    0    0    0    0  0.00000000000E+00  0.00000000000E+00  0.45593999997E+02  0.45594000000E+02  0.51100000000E-03 0. -1.
         11   -1    0    0    0    0 -0.00000000000E+00 -0.00000000000E+00 -0.45593999997E+02  0.45594000000E+02  0.51100000000E-03 0.  1.
    9900012    2    1    2    0    0 -0.20553194681E+02  0.32975852274E+01 -0.34926474927E+02  0.50528849360E+02  0.29999968114E+02 0.  0.
         12    1    1    2    0    0  0.20553194681E+02 -0.32975852274E+01  0.34926474927E+02  0.40659150640E+02  0.00000000000E+00 0. -1.
         11    1    3    3    0    0 -0.76275842279E+01  0.46031494452E+01 -0.64157581153E+01  0.10978660138E+02  0.51100000000E-03 0. -1.
        -11    1    3    3    0    0  0.15362923434E+01 -0.10076057996E+02 -0.13650048837E+02  0.17035579604E+02  0.51100000000E-03 0.  1.
        -12    1    3    3    0    0 -0.14461902797E+02  0.87704937783E+01 -0.14860667975E+02  0.22514609618E+02  0.00000000000E+00 0.  1.
</event>
<event>
 7    1  0.3054835E-011  0.5052886E+02  0.7816164E-02  0.1300439E+00
        -11   -1    0    0    0    0  0.00000000000E+00  0.00000000000E+00  0.45593999997E+02  0.45594000000E+02  0.51100000000E-03 0. -1.
         11   -1    0    0    0    0 -0.00000000000E+00 -0.00000000000E+00 -0.45593999997E+02  0.45594000000E+02  0.51100000000E-03 0.  1.
    9900012    2    1    2    0    0 -0.37194367405E+02 -0.16118172350E+02 -0.31542920740E+01  0.50528855825E+02  0.29999987764E+02 0.  0.
         12    1    1    2    0    0  0.37194367405E+02  0.16118172350E+02  0.31542920740E+01  0.40659144175E+02  0.00000000000E+00 0. -1.
         11    1    3    3    0    0 -0.10944712681E+00 -0.75984877645E+01 -0.14868460397E+01  0.77433653142E+01  0.51100000000E-03 0. -1.
        -11    1    3    3    0    0 -0.11459513944E+02  0.62930522388E+01 -0.17230979662E+01  0.13186812851E+02  0.51100000000E-03 0.  1.
        -12    1    3    3    0    0 -0.25625406335E+02 -0.14812736824E+02  0.55651931867E-01  0.29598677659E+02  0.00000000000E+00 0.  1.
</event>
<event>
 7    1  0.3054835E-011  0.5052886E+02  0.7816164E-02  0.1300439E+00
        -11   -1    0    0    0    0  0.00000000000E+00  0.00000000000E+00  0.45593999997E+02  0.45594000000E+02  0.51100000000E-03 0. -1.
         11   -1    0    0    0    0 -0.00000000000E+00 -0.00000000000E+00 -0.45593999997E+02  0.45594000000E+02  0.51100000000E-03 0.  1.
    9900012    2    1    2    0    0 -0.93435650066E+01 -0.22521926276E+01 -0.39506846895E+02  0.50528861664E+02  0.30000005513E+02 0.  0.
         12    1    1    2    0    0  0.93435650066E+01  0.22521926276E+01  0.39506846895E+02  0.40659138336E+02  0.00000000000E+00 0. -1.
         11    1    3    3    0    0 -0.86915241611E+01  0.61037927591E+01 -0.51652815493E+01  0.11810123286E+02  0.51100000000E-03 0. -1.
        -11    1    3    3    0    0  0.65168263246E+01 -0.12020456851E+01 -0.20658198193E+02  0.21695047638E+02  0.51100000000E-03 0.  1.
         12    1    3    3    0    0 -0.71688671701E+01 -0.71539397016E+01 -0.13683367153E+02  0.17023690740E+02  0.00000000000E+00 0. -1.
</event>
<event>
 7    1  0.3054835E-011  0.5052885E+02  0.7816164E-02  0.1300439E+00
        -11   -1    0    0    0    0  0.00000000000E+00  0.00000000000E+00  0.45593999997E+02  0.45594000000E+02  0.51100000000E-03 0.  1.
         11   -1    0    0    0    0 -0.00000000000E+00 -0.00000000000E+00 -0.45593999997E+02  0.45594000000E+02  0.51100000000E-03 0. -1.
    9900012    2    1    2    0    0 -0.10798473223E+01  0.18431612842E+02  0.36225347803E+02  0.50528852866E+02  0.29999978771E+02 0.  0.
         12    1    1    2    0    0  0.10798473223E+01 -0.18431612842E+02 -0.36225347803E+02  0.40659147134E+02  0.00000000000E+00 0. -1.
         11    1    3    3    0    0 -0.26404662026E+01  0.59746423141E+01  0.81039043835E+00  0.65821839439E+01  0.51100000000E-03 0. -1.
        -11    1    3    3    0    0 -0.60803388673E+01  0.42377015633E+01  0.31022221069E+02  0.31895247853E+02  0.51100000000E-03 0.  1.
        -12    1    3    3    0    0  0.76409577476E+01  0.82192689649E+01  0.43927362957E+01  0.12051421069E+02  0.00000000000E+00 0.  1.
</event>
<event>
 7    1  0.3054835E-011  0.5052885E+02  0.7816164E-02  0.1300439E+00
        -11   -1    0    0    0    0  0.00000000000E+00  0.00000000000E+00  0.45593999997E+02  0.45594000000E+02  0.51100000000E-03 0.  1.
         11   -1    0    0    0    0 -0.00000000000E+00 -0.00000000000E+00 -0.45593999997E+02  0.45594000000E+02  0.51100000000E-03 0. -1.
    9900012    2    1    2    0    0 -0.39503322140E+02 -0.21858927949E+00  0.96231962210E+01  0.50528854080E+02  0.29999982463E+02 0.  0.
         12    1    1    2    0    0  0.39503322140E+02  0.21858927949E+00 -0.96231962210E+01  0.40659145920E+02  0.00000000000E+00 0. -1.
         11    1    3    3    0    0 -0.13217479457E+02 -0.28520995308E+01  0.17103242646E+02  0.21802686628E+02  0.51100000000E-03 0.  1.
        -11    1    3    3    0    0 -0.15200235356E+02  0.51504676337E+01 -0.65027892970E+01  0.17316487537E+02  0.51100000000E-03 0. -1.
        -12    1    3    3    0    0 -0.11085607327E+02 -0.25169573824E+01 -0.97725712772E+00  0.11409679915E+02  0.00000000000E+00 0.  1.
</event>
<event>
 7    1  0.3054835E-011  0.5052886E+02  0.7816164E-02  0.1300439E+00
        -11   -1    0    0    0    0  0.00000000000E+00  0.00000000000E+00  0.45593999997E+02  0.45594000000E+02  0.51100000000E-03 0.  1.
         11   -1    0    0    0    0 -0.00000000000E+00 -0.00000000000E+00 -0.45593999997E+02  0.45594000000E+02  0.51100000000E-03 0. -1.
    9900012    2    1    2    0    0 -0.33526583665E+02  0.22814312812E+02 -0.29395781225E+01  0.50528858336E+02  0.29999995398E+02 0.  0.
         12    1    1    2    0    0  0.33526583665E+02 -0.22814312812E+02  0.29395781225E+01  0.40659141664E+02  0.00000000000E+00 0. -1.
         11    1    3    3    0    0 -0.30415800386E+01  0.10215773326E+02  0.10541944819E+01  0.10710955141E+02  0.51100000000E-03 0. -1.
        -11    1    3    3    0    0 -0.61601066376E+01 -0.59764043290E+01  0.15280279231E+01  0.87177515498E+01  0.51100000000E-03 0.  1.
        -12    1    3    3    0    0 -0.24324896989E+02  0.18574943815E+02 -0.55218005275E+01  0.31100151645E+02  0.00000000000E+00 0.  1.
</event>
<event>
 7    1  0.3054835E-011  0.5052886E+02  0.7816164E-02  0.1300439E+00
        -11   -1    0    0    0    0  0.00000000000E+00  0.00000000000E+00  0.45593999997E+02  0.45594000000E+02  0.51100000000E-03 0.  1.
         11   -1    0    0    0    0 -0.00000000000E+00 -0.00000000000E+00 -0.45593999997E+02  0.45594000000E+02  0.51100000000E-03 0. -1.
    9900012    2    1    2    0    0  0.30500921183E+02  0.25591989390E+02  0.82407467671E+01  0.50528855626E+02  0.29999987160E+02 0.  0.
         12    1    1    2    0    0 -0.30500921183E+02 -0.25591989390E+02 -0.82407467671E+01  0.40659144374E+02  0.00000000000E+00 0. -1.
         11    1    3    3    0    0  0.16224198737E+02  0.14474026199E+02 -0.67487443530E+01  0.22765491641E+02  0.51100000000E-03 0. -1.
        -11    1    3    3    0    0  0.44355931075E+01  0.11453320589E+02  0.12672059036E+02  0.17647496117E+02  0.51100000000E-03 0.  1.
        -12    1    3    3    0    0  0.98411293389E+01 -0.33535739763E+00  0.23174320840E+01  0.10115867868E+02  0.00000000000E+00 0.  1.
</event>
<event>
 7    1  0.3054835E-011  0.5052888E+02  0.7816164E-02  0.1300439E+00
        -11   -1    0    0    0    0  0.00000000000E+00  0.00000000000E+00  0.45593999997E+02  0.45594000000E+02  0.51100000000E-03 0. -1.
         11   -1    0    0    0    0 -0.00000000000E+00 -0.00000000000E+00 -0.45593999997E+02  0.45594000000E+02  0.51100000000E-03 0.  1.
    9900012    2    1    2    0    0  0.43949961669E+01  0.37706764205E+02 -0.14561869829E+02  0.50528879116E+02  0.30000058561E+02 0.  0.
         12    1    1    2    0    0 -0.43949961669E+01 -0.37706764205E+02  0.14561869829E+02  0.40659120884E+02  0.00000000000E+00 0. -1.
         11    1    3    3    0    0  0.10682246293E+02  0.13838114488E+02  0.25828494100E+01  0.17671301870E+02  0.51100000000E-03 0. -1.
        -11    1    3    3    0    0 -0.92008229720E+01  0.97131639520E+01 -0.10197436397E+02  0.16822259261E+02  0.51100000000E-03 0.  1.
         12    1    3    3    0    0  0.29135728459E+01  0.14155485765E+02 -0.69472828422E+01  0.16035317985E+02  0.00000000000E+00 0. -1.
</event>
<event>
 7    1  0.3054835E-011  0.5052886E+02  0.7816164E-02  0.1300439E+00
        -11   -1    0    0    0    0  0.00000000000E+00  0.00000000000E+00  0.45593999997E+02  0.45594000000E+02  0.51100000000E-03 0.  1.
         11   -1    0    0    0    0 -0.00000000000E+00 -0.00000000000E+00 -0.45593999997E+02  0.45594000000E+02  0.51100000000E-03 0. -1.
    9900012    2    1    2    0    0  0.38631778671E+01 -0.20560550079E+02  0.34864097896E+02  0.50528859762E+02  0.29999999732E+02 0.  0.
         12    1    1    2    0    0 -0.38631778671E+01  0.20560550079E+02 -0.34864097896E+02  0.40659140238E+02  0.00000000000E+00 0. -1.
         11    1    3    3    0    0 -0.29227378016E+01  0.34866381594E+01  0.70256019175E+00  0.46035456982E+01  0.51100000000E-03 0. -1.
        -11    1    3    3    0    0 -0.48146793262E+01 -0.14313468085E+02  0.20972045300E+02  0.25843436110E+02  0.51100000000E-03 0.  1.
        -12    1    3    3    0    0  0.11600594995E+02 -0.97337201536E+01  0.13189492405E+02  0.20081877954E+02  0.00000000000E+00 0.  1.
</event>
<event>
 7    1  0.3054835E-011  0.5052880E+02  0.7816164E-02  0.1300439E+00
        -11   -1    0    0    0    0  0.00000000000E+00  0.00000000000E+00  0.45593999997E+02  0.45594000000E+02  0.51100000000E-03 0. -1.
         11   -1    0    0    0    0 -0.00000000000E+00 -0.00000000000E+00 -0.45593999997E+02  0.45594000000E+02  0.51100000000E-03 0.  1.
    9900012    2    1    2    0    0  0.25534482933E+02 -0.74543803277E+01 -0.30750497075E+02  0.50528798396E+02  0.29999813205E+02 0.  0.
         12    1    1    2    0    0 -0.25534482933E+02  0.74543803277E+01  0.30750497075E+02  0.40659201604E+02  0.00000000000E+00 0. -1.
         11    1    3    3    0    0  0.26561881881E+02 -0.11481249333E+01 -0.16506843248E+02  0.31294210874E+02  0.51100000000E-03 0. -1.
        -11    1    3    3    0    0  0.25399527606E+01 -0.68212922315E+01 -0.38512602992E+01  0.82349009640E+01  0.51100000000E-03 0.  1.
         12    1    3    3    0    0 -0.35673517093E+01  0.51503683715E+00 -0.10392393527E+02  0.10999686559E+02  0.00000000000E+00 0. -1.
</event>
<event>
 7    1  0.3054835E-011  0.5052886E+02  0.7816164E-02  0.1300439E+00
        -11   -1    0    0    0    0  0.00000000000E+00  0.00000000000E+00  0.45593999997E+02  0.45594000000E+02  0.51100000000E-03 0.  1.
         11   -1    0    0    0    0 -0.00000000000E+00 -0.00000000000E+00 -0.45593999997E+02  0.45594000000E+02  0.51100000000E-03 0. -1.
    9900012    2    1    2    0    0 -0.25535808849E+02 -0.36432590460E+01  0.31429525789E+02  0.50528856362E+02  0.29999989398E+02 0.  0.
         12    1    1    2    0    0  0.25535808849E+02  0.36432590460E+01 -0.31429525789E+02  0.40659143638E+02  0.00000000000E+00 0. -1.
         11    1    3    3    0    0 -0.27883370010E+02  0.78160753251E+00  0.27771330157E+02  0.39361656627E+02  0.51100000000E-03 0. -1.
        -11    1    3    3    0    0  0.30973197728E+01  0.22400876976E+01  0.98705082829E+00  0.39478667995E+01  0.51100000000E-03 0.  1.
         12    1    3    3    0    0 -0.74975861237E+00 -0.66649542761E+01  0.26711448033E+01  0.72193329359E+01  0.00000000000E+00 0. -1.
</event>
<event>
 7    1  0.3054835E-011  0.5052886E+02  0.7816164E-02  0.1300439E+00
        -11   -1    0    0    0    0  0.00000000000E+00  0.00000000000E+00  0.45593999997E+02  0.45594000000E+02  0.51100000000E-03 0. -1.
         11   -1    0    0    0    0 -0.00000000000E+00 -0.00000000000E+00 -0.45593999997E+02  0.45594000000E+02  0.51100000000E-03 0.  1.
    9900012    2    1    2    0    0 -0.82486820840E+01  0.39710952386E+02 -0.28574508452E+01  0.50528861779E+02  0.30000005864E+02 0.  0.
         12    1    1    2    0    0  0.82486820840E+01 -0.39710952386E+02  0.28574508452E+01  0.40659138221E+02  0.00000000000E+00 0. -1.
         11    1    3    3    0    0 -0.88415491066E+00  0.26930913337E+02  0.21532842377E+01  0.27031323615E+02  0.51100000000E-03 0. -1.
        -11    1    3    3    0    0  0.43067414480E+01 -0.98951663407E+00 -0.29874298472E+01  0.53340324729E+01  0.51100000000E-03 0.  1.
        -12    1    3    3    0    0 -0.11671268621E+02  0.13769555683E+02 -0.20233052357E+01  0.18163505692E+02  0.00000000000E+00 0.  1.
</event>
<event>
 7    1  0.3054835E-011  0.5052886E+02  0.7816164E-02  0.1300439E+00
        -11   -1    0    0    0    0  0.00000000000E+00  0.00000000000E+00  0.45593999997E+02  0.45594000000E+02  0.51100000000E-03 0.  1.
         11   -1    0    0    0    0 -0.00000000000E+00 -0.00000000000E+00 -0.45593999997E+02  0.45594000000E+02  0.51100000000E-03 0. -1.
    9900012    2    1    2    0    0 -0.30308199894E+02  0.82657506391E+01  0.25811932141E+02  0.50528862585E+02  0.30000008315E+02 0.  0.
         12    1    1    2    0    0  0.30308199894E+02 -0.82657506391E+01 -0.25811932141E+02  0.40659137415E+02  0.00000000000E+00 0. -1.
         11    1    3    3    0    0  0.38535850762E+01  0.97999909017E+00 -0.26112546419E+01  0.47570124261E+01  0.51100000000E-03 0. -1.
        -11    1    3    3    0    0 -0.18844494131E+02  0.36603040566E+01  0.20725467999E+02  0.28249916971E+02  0.51100000000E-03 0.  1.
        -12    1    3    3    0    0 -0.15317290839E+02  0.36254474924E+01  0.76977187839E+01  0.17521933188E+02  0.00000000000E+00 0.  1.
</event>
<event>
 7    1  0.3054835E-011  0.5052886E+02  0.7816164E-02  0.1300439E+00
        -11   -1    0    0    0    0  0.00000000000E+00  0.00000000000E+00  0.45593999997E+02  0.45594000000E+02  0.51100000000E-03 0.  1.
         11   -1    0    0    0    0 -0.00000000000E+00 -0.00000000000E+00 -0.45593999997E+02  0.45594000000E+02  0.51100000000E-03 0. -1.
    9900012    2    1    2    0    0 -0.15943515354E+02  0.35712067920E+02  0.11118382047E+02  0.50528857162E+02  0.29999991831E+02 0.  0.
         12    1    1    2    0    0  0.15943515354E+02 -0.35712067920E+02 -0.11118382047E+02  0.40659142838E+02  0.00000000000E+00 0. -1.
         11    1    3    3    0    0 -0.16225454197E+02  0.19201258802E+02  0.10312388056E+02  0.27171658970E+02  0.51100000000E-03 0. -1.
        -11    1    3    3    0    0  0.48040270615E+01  0.32029031292E-01  0.36509499079E+01  0.60339984552E+01  0.51100000000E-03 0.  1.
        -12    1    3    3    0    0 -0.45220882183E+01  0.16478780086E+02 -0.28449559163E+01  0.17323199738E+02  0.00000000000E+00 0.  1.
</event>
<event>
 7    1  0.3054835E-011  0.5052886E+02  0.7816164E-02  0.1300439E+00
        -11   -1    0    0    0    0  0.00000000000E+00  0.00000000000E+00  0.45593999997E+02  0.45594000000E+02  0.51100000000E-03 0. -1.
         11   -1    0    0    0    0 -0.00000000000E+00 -0.00000000000E+00 -0.45593999997E+02  0.45594000000E+02  0.51100000000E-03 0.  1.
    9900012    2    1    2    0    0 -0.10812154223E+02 -0.21792386509E+02 -0.32578440140E+02  0.50528861413E+02  0.30000004750E+02 0.  0.
         12    1    1    2    0    0  0.10812154223E+02  0.21792386509E+02  0.32578440140E+02  0.40659138587E+02  0.00000000000E+00 0. -1.
         11    1    3    3    0    0 -0.57846171660E+01 -0.20602055415E+02 -0.11209152079E+02  0.24156812158E+02  0.51100000000E-03 0.  1.
        -11    1    3    3    0    0 -0.71880786615E+01 -0.35697820033E+01 -0.21704322667E+02  0.23140644786E+02  0.51100000000E-03 0. -1.
         12    1    3    3    0    0  0.21605416044E+01  0.23794509088E+01  0.33503460589E+00  0.32314044685E+01  0.00000000000E+00 0. -1.
</event>
<event>
 7    1  0.3054835E-011  0.5052886E+02  0.7816164E-02  0.1300439E+00
        -11   -1    0    0    0    0  0.00000000000E+00  0.00000000000E+00  0.45593999997E+02  0.45594000000E+02  0.51100000000E-03 0. -1.
         11   -1    0    0    0    0 -0.00000000000E+00 -0.00000000000E+00 -0.45593999997E+02  0.45594000000E+02  0.51100000000E-03 0.  1.
    9900012    2    1    2    0    0  0.26281024890E+02 -0.30873450109E+02 -0.30501090737E+01  0.50528863804E+02  0.30000012017E+02 0.  0.
         12    1    1    2    0    0 -0.26281024890E+02  0.30873450109E+02  0.30501090737E+01  0.40659136196E+02  0.00000000000E+00 0. -1.
         11    1    3    3    0    0  0.18588386928E+00 -0.95565430844E+01  0.91433359997E+01  0.13227345236E+02  0.51100000000E-03 0. -1.
        -11    1    3    3    0    0  0.17943547628E+02 -0.18364164975E+02 -0.52794823534E+01  0.26212332801E+02  0.51100000000E-03 0.  1.
         12    1    3    3    0    0  0.81515933933E+01 -0.29527420491E+01 -0.69139627201E+01  0.11089185766E+02  0.00000000000E+00 0. -1.
</event>
<event>
 7    1  0.3054835E-011  0.5052885E+02  0.7816164E-02  0.1300439E+00
        -11   -1    0    0    0    0  0.00000000000E+00  0.00000000000E+00  0.45593999997E+02  0.45594000000E+02  0.51100000000E-03 0.  1.
         11   -1    0    0    0    0 -0.00000000000E+00 -0.00000000000E+00 -0.45593999997E+02  0.45594000000E+02  0.51100000000E-03 0. -1.
    9900012    2    1    2    0    0 -0.26190133676E+02 -0.20216094114E+02  0.23633717595E+02  0.50528853790E+02  0.29999981579E+02 0.  0.
         12    1    1    2    0    0  0.26190133676E+02  0.20216094114E+02 -0.23633717595E+02  0.40659146210E+02  0.00000000000E+00 0. -1.
         11    1    3    3    0    0 -0.17336623143E+02 -0.58487735812E+01 -0.34045399373E+01  0.18610683675E+02  0.51100000000E-03 0. -1.
        -11    1    3    3    0    0 -0.21163782081E+01 -0.22122099729E+01  0.51125893236E+01  0.59591525854E+01  0.51100000000E-03 0.  1.
         12    1    3    3    0    0 -0.67371323248E+01 -0.12155110560E+02  0.21925668209E+02  0.25959017529E+02  0.00000000000E+00 0. -1.
</event>
<event>
 7    1  0.3054835E-011  0.5052883E+02  0.7816164E-02  0.1300439E+00
        -11   -1    0    0    0    0  0.00000000000E+00  0.00000000000E+00  0.45593999997E+02  0.45594000000E+02  0.51100000000E-03 0. -1.
         11   -1    0    0    0    0 -0.00000000000E+00 -0.00000000000E+00 -0.45593999997E+02  0.45594000000E+02  0.51100000000E-03 0.  1.
    9900012    2    1    2    0    0 -0.33418152345E+02 -0.10189246759E+02 -0.20798425430E+02  0.50528829373E+02  0.29999907363E+02 0.  0.
         12    1    1    2    0    0  0.33418152345E+02  0.10189246759E+02  0.20798425430E+02  0.40659170627E+02  0.00000000000E+00 0. -1.
         11    1    3    3    0    0 -0.11859675437E+02 -0.14279299263E+01 -0.40872133677E+01  0.12625220740E+02  0.51100000000E-03 0. -1.
        -11    1    3    3    0    0  0.13370692482E+01  0.39859194317E+01  0.29559645667E+01  0.51393613096E+01  0.51100000000E-03 0.  1.
        -12    1    3    3    0    0 -0.22895546156E+02 -0.12747236264E+02 -0.19667176629E+02  0.32764247324E+02  0.00000000000E+00 0.  1.
</event>
<event>
 7    1  0.3054835E-011  0.5052886E+02  0.7816164E-02  0.1300439E+00
        -11   -1    0    0    0    0  0.00000000000E+00  0.00000000000E+00  0.45593999997E+02  0.45594000000E+02  0.51100000000E-03 0. -1.
         11   -1    0    0    0    0 -0.00000000000E+00 -0.00000000000E+00 -0.45593999997E+02  0.45594000000E+02  0.51100000000E-03 0.  1.
    9900012    2    1    2    0    0  0.18419759066E+02  0.23846269450E+02 -0.27298970342E+02  0.50528857455E+02  0.29999992719E+02 0.  0.
         12    1    1    2    0    0 -0.18419759066E+02 -0.23846269450E+02  0.27298970342E+02  0.40659142545E+02  0.00000000000E+00 0. -1.
         11    1    3    3    0    0  0.12450686068E+02  0.95479192929E+01 -0.28864650290E+02  0.32853468356E+02  0.51100000000E-03 0. -1.
        -11    1    3    3    0    0  0.80241340815E+01  0.11083318882E+02  0.20250514205E+01  0.13832119097E+02  0.51100000000E-03 0.  1.
        -12    1    3    3    0    0 -0.20550610830E+01  0.32150312757E+01 -0.45937147285E+00  0.38432700020E+01  0.00000000000E+00 0.  1.
</event>
<event>
 7    1  0.3054835E-011  0.5052885E+02  0.7816164E-02  0.1300439E+00
        -11   -1    0    0    0    0  0.00000000000E+00  0.00000000000E+00  0.45593999997E+02  0.45594000000E+02  0.51100000000E-03 0.  1.
         11   -1    0    0    0    0 -0.00000000000E+00 -0.00000000000E+00 -0.45593999997E+02  0.45594000000E+02  0.51100000000E-03 0. -1.
    9900012    2    1    2    0    0  0.28405820587E+01  0.38896041800E+02  0.11497613704E+02  0.50528854718E+02  0.29999984402E+02 0.  0.
         12    1    1    2    0    0 -0.28405820587E+01 -0.38896041800E+02 -0.11497613704E+02  0.40659145282E+02  0.00000000000E+00 0. -1.
         11    1    3    3    0    0 -0.38384582746E+01  0.41816273629E+01 -0.54530618654E+01  0.78711913518E+01  0.51100000000E-03 0. -1.
        -11    1    3    3    0    0  0.11341800217E+02  0.15351600165E+02  0.10111537568E+02  0.21599797500E+02  0.51100000000E-03 0.  1.
        -12    1    3    3    0    0 -0.46627598833E+01  0.19362814272E+02  0.68391380014E+01  0.21057865866E+02  0.00000000000E+00 0.  1.
</event>
<event>
 7    1  0.3054835E-011  0.5052886E+02  0.7816164E-02  0.1300439E+00
        -11   -1    0    0    0    0  0.00000000000E+00  0.00000000000E+00  0.45593999997E+02  0.45594000000E+02  0.51100000000E-03 0. -1.
         11   -1    0    0    0    0 -0.00000000000E+00 -0.00000000000E+00 -0.45593999997E+02  0.45594000000E+02  0.51100000000E-03 0.  1.
    9900012    2    1    2    0    0  0.23635200819E+02  0.11938103219E+02 -0.30854893155E+02  0.50528862554E+02  0.30000008219E+02 0.  0.
         12    1    1    2    0    0 -0.23635200819E+02 -0.11938103219E+02  0.30854893155E+02  0.40659137446E+02  0.00000000000E+00 0. -1.
         11    1    3    3    0    0  0.13521862897E+02 -0.77452282301E+01 -0.15318478286E+02  0.21851432763E+02  0.51100000000E-03 0. -1.
        -11    1    3    3    0    0  0.80240451776E+01  0.73428194313E+01 -0.38055107825E+01  0.11523203148E+02  0.51100000000E-03 0.  1.
         12    1    3    3    0    0  0.20892927446E+01  0.12340512018E+02 -0.11730904087E+02  0.17154226643E+02  0.00000000000E+00 0. -1.
</event>
<event>
 7    1  0.3054835E-011  0.5052886E+02  0.7816164E-02  0.1300439E+00
        -11   -1    0    0    0    0  0.00000000000E+00  0.00000000000E+00  0.45593999997E+02  0.45594000000E+02  0.51100000000E-03 0. -1.
         11   -1    0    0    0    0 -0.00000000000E+00 -0.00000000000E+00 -0.45593999997E+02  0.45594000000E+02  0.51100000000E-03 0.  1.
    9900012    2    1    2    0    0 -0.22308408705E+02 -0.31265667176E+02 -0.13340106806E+02  0.50528862128E+02  0.30000006924E+02 0.  0.
         12    1    1    2    0    0  0.22308408705E+02  0.31265667176E+02  0.13340106806E+02  0.40659137872E+02  0.00000000000E+00 0. -1.
         11    1    3    3    0    0  0.12457248491E+01  0.31010752727E+01  0.33624232020E+01  0.47407160110E+01  0.51100000000E-03 0. -1.
        -11    1    3    3    0    0 -0.61462380240E+01 -0.97179265008E+01 -0.43540760477E+00  0.11506690113E+02  0.51100000000E-03 0.  1.
         12    1    3    3    0    0 -0.17407895530E+02 -0.24648815948E+02 -0.16267122404E+02  0.34281456003E+02  0.00000000000E+00 0. -1.
</event>
<event>
 7    1  0.3054835E-011  0.5052885E+02  0.7816164E-02  0.1300439E+00
        -11   -1    0    0    0    0  0.00000000000E+00  0.00000000000E+00  0.45593999997E+02  0.45594000000E+02  0.51100000000E-03 0.  1.
         11   -1    0    0    0    0 -0.00000000000E+00 -0.00000000000E+00 -0.45593999997E+02  0.45594000000E+02  0.51100000000E-03 0. -1.
    9900012    2    1    2    0    0  0.29893860550E+02  0.27292462240E+02 -0.38268849104E+01  0.50528850454E+02  0.29999971439E+02 0.  0.
         12    1    1    2    0    0 -0.29893860550E+02 -0.27292462240E+02  0.38268849104E+01  0.40659149546E+02  0.00000000000E+00 0. -1.
         11    1    3    3    0    0  0.21340966673E+02  0.20611407562E+02 -0.13452495723E+02  0.32576626923E+02  0.51100000000E-03 0. -1.
        -11    1    3    3    0    0  0.19507694954E+00  0.39182504718E+01 -0.11023846143E+01  0.40750452605E+01  0.51100000000E-03 0.  1.
         12    1    3    3    0    0  0.83578169276E+01  0.27628042062E+01  0.10727995426E+02  0.13877178270E+02  0.00000000000E+00 0. -1.
</event>
<event>
 7    1  0.3054835E-011  0.5052886E+02  0.7816164E-02  0.1300439E+00
        -11   -1    0    0    0    0  0.00000000000E+00  0.00000000000E+00  0.45593999997E+02  0.45594000000E+02  0.51100000000E-03 0.  1.
         11   -1    0    0    0    0 -0.00000000000E+00 -0.00000000000E+00 -0.45593999997E+02  0.45594000000E+02  0.51100000000E-03 0. -1.
    9900012    2    1    2    0    0  0.14579621408E+02 -0.34877533569E+02  0.14971900012E+02  0.50528862057E+02  0.30000006709E+02 0.  0.
         12    1    1    2    0    0 -0.14579621408E+02  0.34877533569E+02 -0.14971900012E+02  0.40659137943E+02  0.00000000000E+00 0. -1.
         11    1    3    3    0    0 -0.10770748956E+00 -0.19633318389E+02  0.59538906545E+01  0.20516520321E+02  0.51100000000E-03 0. -1.
        -11    1    3    3    0    0  0.19331470016E+02 -0.13478989151E+02  0.83354319203E+01  0.24997366002E+02  0.51100000000E-03 0.  1.
        -12    1    3    3    0    0 -0.46441411181E+01 -0.17652260294E+01  0.68257743697E+00  0.50149757344E+01  0.00000000000E+00 0.  1.
</event>
<event>
 7    1  0.3054835E-011  0.5052885E+02  0.7816164E-02  0.1300439E+00
        -11   -1    0    0    0    0  0.00000000000E+00  0.00000000000E+00  0.45593999997E+02  0.45594000000E+02  0.51100000000E-03 0.  1.
         11   -1    0    0    0    0 -0.00000000000E+00 -0.00000000000E+00 -0.45593999997E+02  0.45594000000E+02  0.51100000000E-03 0. -1.
    9900012    2    1    2    0    0 -0.36894794600E+02  0.73357776449E+01  0.15431353312E+02  0.50528853831E+02  0.29999981704E+02 0.  0.
         12    1    1    2    0    0  0.36894794600E+02 -0.73357776449E+01 -0.15431353312E+02  0.40659146169E+02  0.00000000000E+00 0. -1.
         11    1    3    3    0    0 -0.34855391123E+02  0.43053278274E-01  0.10848193374E+02  0.36504567436E+02  0.51100000000E-03 0.  1.
        -11    1    3    3    0    0  0.35499853648E+01  0.67479765852E+01  0.23248618377E+01  0.79713591633E+01  0.51100000000E-03 0. -1.
         12    1    3    3    0    0 -0.55893888412E+01  0.54474778138E+00  0.22582980998E+01  0.60529272316E+01  0.00000000000E+00 0. -1.
</event>
<event>
 7    1  0.3054835E-011  0.5052884E+02  0.7816164E-02  0.1300439E+00
        -11   -1    0    0    0    0  0.00000000000E+00  0.00000000000E+00  0.45593999997E+02  0.45594000000E+02  0.51100000000E-03 0. -1.
         11   -1    0    0    0    0 -0.00000000000E+00 -0.00000000000E+00 -0.45593999997E+02  0.45594000000E+02  0.51100000000E-03 0.  1.
    9900012    2    1    2    0    0 -0.71005878125E+01  0.32282429569E+02 -0.23676863601E+02  0.50528837735E+02  0.29999932779E+02 0.  0.
         12    1    1    2    0    0  0.71005878125E+01 -0.32282429569E+02  0.23676863601E+02  0.40659162265E+02  0.00000000000E+00 0. -1.
         11    1    3    3    0    0  0.45058285981E+01 -0.37520197581E+00 -0.62584898118E+01  0.77208783738E+01  0.51100000000E-03 0. -1.
        -11    1    3    3    0    0 -0.11166062501E+02  0.26528943704E+02 -0.21060398574E+02  0.35665195838E+02  0.51100000000E-03 0.  1.
        -12    1    3    3    0    0 -0.44035391007E+00  0.61286878403E+01  0.36420247848E+01  0.71427635228E+01  0.00000000000E+00 0.  1.
</event>
<event>
 7    1  0.3054835E-011  0.5052885E+02  0.7816164E-02  0.1300439E+00
        -11   -1    0    0    0    0  0.00000000000E+00  0.00000000000E+00  0.45593999997E+02  0.45594000000E+02  0.51100000000E-03 0. -1.
         11   -1    0    0    0    0 -0.00000000000E+00 -0.00000000000E+00 -0.45593999997E+02  0.45594000000E+02  0.51100000000E-03 0.  1.
    9900012    2    1    2    0    0 -0.10185387720E+02 -0.36175482233E+02 -0.15516394439E+02  0.50528854237E+02  0.29999982940E+02 0.  0.
         12    1    1    2    0    0  0.10185387720E+02  0.36175482233E+02  0.15516394439E+02  0.40659145763E+02  0.00000000000E+00 0. -1.
         11    1    3    3    0    0  0.85165123145E+01 -0.18552623989E+02 -0.40542401239E+01  0.20812681281E+02  0.51100000000E-03 0. -1.
        -11    1    3    3    0    0 -0.19348044439E+02 -0.14483909315E+02 -0.95700868774E+01  0.25994557425E+02  0.51100000000E-03 0.  1.
        -12    1    3    3    0    0  0.64614440397E+00 -0.31389489290E+01 -0.18920674375E+01  0.37216155306E+01  0.00000000000E+00 0.  1.
</event>
<event>
 7    1  0.3054835E-011  0.5052887E+02  0.7816164E-02  0.1300439E+00
        -11   -1    0    0    0    0  0.00000000000E+00  0.00000000000E+00  0.45593999997E+02  0.45594000000E+02  0.51100000000E-03 0. -1.
         11   -1    0    0    0    0 -0.00000000000E+00 -0.00000000000E+00 -0.45593999997E+02  0.45594000000E+02  0.51100000000E-03 0.  1.
    9900012    2    1    2    0    0 -0.32594758306E+02  0.80222938416E+01 -0.22943183058E+02  0.50528866754E+02  0.30000020984E+02 0.  0.
         12    1    1    2    0    0  0.32594758306E+02 -0.80222938416E+01  0.22943183058E+02  0.40659133246E+02  0.00000000000E+00 0. -1.
         11    1    3    3    0    0 -0.42318726831E+01 -0.19531627891E+01 -0.29309904594E+01  0.55058420446E+01  0.51100000000E-03 0.  1.
        -11    1    3    3    0    0 -0.61024185222E+00  0.25480113808E+00  0.58349788074E+01  0.58723331549E+01  0.51100000000E-03 0. -1.
        -12    1    3    3    0    0 -0.27752643771E+02  0.97206554925E+01 -0.25847171406E+02  0.39150691554E+02  0.00000000000E+00 0.  1.
</event>
<event>
 7    1  0.3054835E-011  0.5052885E+02  0.7816164E-02  0.1300439E+00
        -11   -1    0    0    0    0  0.00000000000E+00  0.00000000000E+00  0.45593999997E+02  0.45594000000E+02  0.51100000000E-03 0.  1.
         11   -1    0    0    0    0 -0.00000000000E+00 -0.00000000000E+00 -0.45593999997E+02  0.45594000000E+02  0.51100000000E-03 0. -1.
    9900012    2    1    2    0    0  0.31113859457E+02 -0.21237995151E+02  0.15298422172E+02  0.50528850854E+02  0.29999972656E+02 0.  0.
         12    1    1    2    0    0 -0.31113859457E+02  0.21237995151E+02 -0.15298422172E+02  0.40659149146E+02  0.00000000000E+00 0. -1.
         11    1    3    3    0    0 -0.12738100848E+01  0.46773980722E+01 -0.60108011706E+00  0.48848687215E+01  0.51100000000E-03 0. -1.
        -11    1    3    3    0    0  0.15631185563E+02 -0.16426482540E+02  0.13093297800E+02  0.26183921369E+02  0.51100000000E-03 0.  1.
         12    1    3    3    0    0  0.16756483979E+02 -0.94889106825E+01  0.28062044895E+01  0.19460060763E+02  0.00000000000E+00 0. -1.
</event>
<event>
 7    1  0.3054835E-011  0.5052886E+02  0.7816164E-02  0.1300439E+00
        -11   -1    0    0    0    0  0.00000000000E+00  0.00000000000E+00  0.45593999997E+02  0.45594000000E+02  0.51100000000E-03 0.  1.
         11   -1    0    0    0    0 -0.00000000000E+00 -0.00000000000E+00 -0.45593999997E+02  0.45594000000E+02  0.51100000000E-03 0. -1.
    9900012    2    1    2    0    0  0.74211278824E+01 -0.29495846620E+02  0.26983097460E+02  0.50528860124E+02  0.30000000833E+02 0.  0.
         12    1    1    2    0    0 -0.74211278824E+01  0.29495846620E+02 -0.26983097460E+02  0.40659139876E+02  0.00000000000E+00 0. -1.
         11    1    3    3    0    0 -0.85548195699E+01 -0.10804788541E+02  0.14190941853E+01  0.13854321415E+02  0.51100000000E-03 0. -1.
        -11    1    3    3    0    0  0.25795681637E+01 -0.99740578757E+01  0.94938027635E+01  0.14009578637E+02  0.51100000000E-03 0.  1.
         12    1    3    3    0    0  0.13396379289E+02 -0.87170002034E+01  0.16070200511E+02  0.22664960072E+02  0.00000000000E+00 0. -1.
</event>
<event>
 7    1  0.3054835E-011  0.5052886E+02  0.7816164E-02  0.1300439E+00
        -11   -1    0    0    0    0  0.00000000000E+00  0.00000000000E+00  0.45593999997E+02  0.45594000000E+02  0.51100000000E-03 0. -1.
         11   -1    0    0    0    0 -0.00000000000E+00 -0.00000000000E+00 -0.45593999997E+02  0.45594000000E+02  0.51100000000E-03 0.  1.
    9900012    2    1    2    0    0 -0.23886699243E+01  0.17573764191E+02 -0.36587190106E+02  0.50528863122E+02  0.30000009945E+02 0.  0.
         12    1    1    2    0    0  0.23886699243E+01 -0.17573764191E+02  0.36587190106E+02  0.40659136878E+02  0.00000000000E+00 0. -1.
         11    1    3    3    0    0  0.80326871688E+01  0.17699328619E+02 -0.15789830602E+02  0.25042145424E+02  0.51100000000E-03 0. -1.
        -11    1    3    3    0    0 -0.57920775095E+01  0.47351086599E+01 -0.75116961925E+01  0.10601650619E+02  0.51100000000E-03 0.  1.
         12    1    3    3    0    0 -0.46292795836E+01 -0.48606730883E+01 -0.13285663311E+02  0.14885067079E+02  0.00000000000E+00 0. -1.
</event>
<event>
 7    1  0.3054835E-011  0.5052886E+02  0.7816164E-02  0.1300439E+00
        -11   -1    0    0    0    0  0.00000000000E+00  0.00000000000E+00  0.45593999997E+02  0.45594000000E+02  0.51100000000E-03 0. -1.
         11   -1    0    0    0    0 -0.00000000000E+00 -0.00000000000E+00 -0.45593999997E+02  0.45594000000E+02  0.51100000000E-03 0.  1.
    9900012    2    1    2    0    0 -0.39744250268E+02  0.69071907702E+00 -0.85488806608E+01  0.50528857328E+02  0.29999992335E+02 0.  0.
         12    1    1    2    0    0  0.39744250268E+02 -0.69071907702E+00  0.85488806608E+01  0.40659142672E+02  0.00000000000E+00 0. -1.
         11    1    3    3    0    0 -0.32903792330E+02 -0.81085852521E+01 -0.60478744861E+01  0.34423618208E+02  0.51100000000E-03 0. -1.
        -11    1    3    3    0    0 -0.60108097766E+00  0.83072159777E+01 -0.45863858058E+01  0.95082106972E+01  0.51100000000E-03 0.  1.
         12    1    3    3    0    0 -0.62393769611E+01  0.49208835142E+00  0.20853796312E+01  0.65970284231E+01  0.00000000000E+00 0. -1.
</event>
<event>
 7    1  0.3054835E-011  0.5052886E+02  0.7816164E-02  0.1300439E+00
        -11   -1    0    0    0    0  0.00000000000E+00  0.00000000000E+00  0.45593999997E+02  0.45594000000E+02  0.51100000000E-03 0.  1.
         11   -1    0    0    0    0 -0.00000000000E+00 -0.00000000000E+00 -0.45593999997E+02  0.45594000000E+02  0.51100000000E-03 0. -1.
    9900012    2    1    2    0    0  0.26888603093E+01  0.39438501461E+02 -0.95152517678E+01  0.50528863469E+02  0.30000010999E+02 0.  0.
         12    1    1    2    0    0 -0.26888603093E+01 -0.39438501461E+02  0.95152517678E+01  0.40659136531E+02  0.00000000000E+00 0. -1.
         11    1    3    3    0    0 -0.74020254989E+01 -0.14022480838E+00  0.26390419833E+01  0.78596556753E+01  0.51100000000E-03 0. -1.
        -11    1    3    3    0    0  0.34572693650E+01  0.13861357869E+02 -0.31879533912E+01  0.14637383664E+02  0.51100000000E-03 0.  1.
         12    1    3    3    0    0  0.66336164432E+01  0.25717368401E+02 -0.89663403600E+01  0.28031824129E+02  0.00000000000E+00 0. -1.
</event>
<event>
 7    1  0.3054835E-011  0.5052886E+02  0.7816164E-02  0.1300439E+00
        -11   -1    0    0    0    0  0.00000000000E+00  0.00000000000E+00  0.45593999997E+02  0.45594000000E+02  0.51100000000E-03 0.  1.
         11   -1    0    0    0    0 -0.00000000000E+00 -0.00000000000E+00 -0.45593999997E+02  0.45594000000E+02  0.51100000000E-03 0. -1.
    9900012    2    1    2    0    0 -0.30153452558E+02 -0.13488376892E+02  0.23706515344E+02  0.50528857336E+02  0.29999992360E+02 0.  0.
         12    1    1    2    0    0  0.30153452558E+02  0.13488376892E+02 -0.23706515344E+02  0.40659142664E+02  0.00000000000E+00 0. -1.
         11    1    3    3    0    0 -0.10860491613E+02  0.25554894228E+01  0.19472554958E+02  0.22442397401E+02  0.51100000000E-03 0. -1.
        -11    1    3    3    0    0 -0.19417127716E+02 -0.10402734277E+02  0.24260236044E+01  0.22161392555E+02  0.51100000000E-03 0.  1.
         12    1    3    3    0    0  0.12416677071E+00 -0.56411320375E+01  0.18079367817E+01  0.59250673800E+01  0.00000000000E+00 0. -1.
</event>
<event>
 7    1  0.3054835E-011  0.5052881E+02  0.7816164E-02  0.1300439E+00
        -11   -1    0    0    0    0  0.00000000000E+00  0.00000000000E+00  0.45593999997E+02  0.45594000000E+02  0.51100000000E-03 0.  1.
         11   -1    0    0    0    0 -0.00000000000E+00 -0.00000000000E+00 -0.45593999997E+02  0.45594000000E+02  0.51100000000E-03 0. -1.
    9900012    2    1    2    0    0  0.24792382751E+02 -0.31824448483E+02  0.50707321100E+01  0.50528805618E+02  0.29999835155E+02 0.  0.
         12    1    1    2    0    0 -0.24792382751E+02  0.31824448483E+02 -0.50707321100E+01  0.40659194382E+02  0.00000000000E+00 0. -1.
         11    1    3    3    0    0  0.66374617586E+01 -0.22003409369E+02  0.35901606825E+01  0.23261452587E+02  0.51100000000E-03 0.  1.
        -11    1    3    3    0    0 -0.71555915998E+00  0.37677913057E+01 -0.74572196326E+00  0.39069652856E+01  0.51100000000E-03 0. -1.
        -12    1    3    3    0    0  0.18870480152E+02 -0.13588830420E+02  0.22262933908E+01  0.23360387745E+02  0.00000000000E+00 0.  1.
</event>
<event>
 7    1  0.3054835E-011  0.5052885E+02  0.7816164E-02  0.1300439E+00
        -11   -1    0    0    0    0  0.00000000000E+00  0.00000000000E+00  0.45593999997E+02  0.45594000000E+02  0.51100000000E-03 0.  1.
         11   -1    0    0    0    0 -0.00000000000E+00 -0.00000000000E+00 -0.45593999997E+02  0.45594000000E+02  0.51100000000E-03 0. -1.
    9900012    2    1    2    0    0  0.11636673633E+02  0.11231692531E+02  0.37304196437E+02  0.50528853892E+02  0.29999981891E+02 0.  0.
         12    1    1    2    0    0 -0.11636673633E+02 -0.11231692531E+02 -0.37304196437E+02  0.40659146108E+02  0.00000000000E+00 0. -1.
         11    1    3    3    0    0 -0.21758359889E+01 -0.74319434888E+00 -0.32988677457E+01  0.40210855196E+01  0.51100000000E-03 0. -1.
        -11    1    3    3    0    0  0.12159028174E+01  0.86555933593E+01  0.23031057277E+02  0.24633865219E+02  0.51100000000E-03 0.  1.
        -12    1    3    3    0    0  0.12596606805E+02  0.33192935205E+01  0.17572006906E+02  0.21873903154E+02  0.00000000000E+00 0.  1.
</event>
<event>
 7    1  0.3054835E-011  0.5052892E+02  0.7816164E-02  0.1300439E+00
        -11   -1    0    0    0    0  0.00000000000E+00  0.00000000000E+00  0.45593999997E+02  0.45594000000E+02  0.51100000000E-03 0.  1.
         11   -1    0    0    0    0 -0.00000000000E+00 -0.00000000000E+00 -0.45593999997E+02  0.45594000000E+02  0.51100000000E-03 0. -1.
    9900012    2    1    2    0    0 -0.16439435407E+02 -0.18073282807E+02  0.32500183248E+02  0.50528923534E+02  0.30000193573E+02 0.  0.
         12    1    1    2    0    0  0.16439435407E+02  0.18073282807E+02 -0.32500183248E+02  0.40659076466E+02  0.00000000000E+00 0. -1.
         11    1    3    3    0    0 -0.22916439392E+02 -0.18403710386E+02  0.27714194243E+02  0.40397231504E+02  0.51100000000E-03 0. -1.
        -11    1    3    3    0    0  0.33412322032E+01 -0.27555719985E+00  0.58691788605E+01  0.67592177923E+01  0.51100000000E-03 0.  1.
         12    1    3    3    0    0  0.31357717814E+01  0.60598477893E+00 -0.10831898560E+01  0.33724742373E+01  0.00000000000E+00 0. -1.
</event>
<event>
 7    1  0.3054835E-011  0.5052886E+02  0.7816164E-02  0.1300439E+00
        -11   -1    0    0    0    0  0.00000000000E+00  0.00000000000E+00  0.45593999997E+02  0.45594000000E+02  0.51100000000E-03 0. -1.
         11   -1    0    0    0    0 -0.00000000000E+00 -0.00000000000E+00 -0.45593999997E+02  0.45594000000E+02  0.51100000000E-03 0.  1.
    9900012    2    1    2    0    0  0.18513648713E+02  0.34814396722E+02 -0.99180753984E+01  0.50528860469E+02  0.30000001882E+02 0.  0.
         12    1    1    2    0    0 -0.18513648713E+02 -0.34814396722E+02  0.99180753984E+01  0.40659139531E+02  0.00000000000E+00 0. -1.
         11    1    3    3    0    0  0.70581167186E+00 -0.68235547138E+00 -0.10655567285E+02  0.10700695937E+02  0.51100000000E-03 0. -1.
        -11    1    3    3    0    0  0.91515584772E+01  0.20772238410E+02 -0.48489525326E+00  0.22704009223E+02  0.51100000000E-03 0.  1.
         12    1    3    3    0    0  0.86562785635E+01  0.14724513784E+02  0.12223871399E+01  0.17124155310E+02  0.00000000000E+00 0. -1.
</event>
<event>
 7    1  0.3054835E-011  0.5052885E+02  0.7816164E-02  0.1300439E+00
        -11   -1    0    0    0    0  0.00000000000E+00  0.00000000000E+00  0.45593999997E+02  0.45594000000E+02  0.51100000000E-03 0.  1.
         11   -1    0    0    0    0 -0.00000000000E+00 -0.00000000000E+00 -0.45593999997E+02  0.45594000000E+02  0.51100000000E-03 0. -1.
    9900012    2    1    2    0    0  0.14208443721E+02 -0.22610269625E+02  0.30660431133E+02  0.50528853393E+02  0.29999980374E+02 0.  0.
         12    1    1    2    0    0 -0.14208443721E+02  0.22610269625E+02 -0.30660431133E+02  0.40659146607E+02  0.00000000000E+00 0. -1.
         11    1    3    3    0    0  0.26729986631E+01  0.35671257266E+01  0.69210022710E+01  0.82322281612E+01  0.51100000000E-03 0. -1.
        -11    1    3    3    0    0  0.10160151069E+02 -0.26360137215E+02  0.26797657838E+02  0.38938412521E+02  0.51100000000E-03 0.  1.
        -12    1    3    3    0    0  0.13752939896E+01  0.18274186344E+00 -0.30582289757E+01  0.33582127113E+01  0.00000000000E+00 0.  1.
</event>
<event>
 7    1  0.3054835E-011  0.5052896E+02  0.7816164E-02  0.1300438E+00
        -11   -1    0    0    0    0  0.00000000000E+00  0.00000000000E+00  0.45593999997E+02  0.45594000000E+02  0.51100000000E-03 0.  1.
         11   -1    0    0    0    0 -0.00000000000E+00 -0.00000000000E+00 -0.45593999997E+02  0.45594000000E+02  0.51100000000E-03 0. -1.
    9900012    2    1    2    0    0  0.14343306983E+01 -0.11662082185E+02  0.38924234170E+02  0.50528960769E+02  0.30000306752E+02 0.  0.
         12    1    1    2    0    0 -0.14343306983E+01  0.11662082185E+02 -0.38924234170E+02  0.40659039231E+02  0.00000000000E+00 0. -1.
         11    1    3    3    0    0 -0.39466750434E+00  0.88368978173E+01  0.11962350565E+02  0.14877646211E+02  0.51100000000E-03 0. -1.
        -11    1    3    3    0    0 -0.31378299759E+01 -0.95111592090E+01  0.66248126353E+01  0.12008175097E+02  0.51100000000E-03 0.  1.
         12    1    3    3    0    0  0.49668281785E+01 -0.10987820793E+02  0.20337070970E+02  0.23643139461E+02  0.00000000000E+00 0. -1.
</event>
<event>
 7    1  0.3054835E-011  0.5052886E+02  0.7816164E-02  0.1300439E+00
        -11   -1    0    0    0    0  0.00000000000E+00  0.00000000000E+00  0.45593999997E+02  0.45594000000E+02  0.51100000000E-03 0.  1.
         11   -1    0    0    0    0 -0.00000000000E+00 -0.00000000000E+00 -0.45593999997E+02  0.45594000000E+02  0.51100000000E-03 0. -1.
    9900012    2    1    2    0    0 -0.27777167632E+02 -0.29120446157E+02  0.57960532767E+01  0.50528860073E+02  0.30000000677E+02 0.  0.
         12    1    1    2    0    0  0.27777167632E+02  0.29120446157E+02 -0.57960532767E+01  0.40659139927E+02  0.00000000000E+00 0. -1.
         11    1    3    3    0    0 -0.34126949405E+01  0.16744605719E+01  0.89130977603E+01  0.96898718727E+01  0.51100000000E-03 0. -1.
        -11    1    3    3    0    0 -0.79295884528E+01 -0.13045573815E+02  0.36971595932E+01  0.15707780190E+02  0.51100000000E-03 0.  1.
         12    1    3    3    0    0 -0.16434884239E+02 -0.17749332914E+02 -0.68142040768E+01  0.25131208010E+02  0.00000000000E+00 0. -1.
</event>
<event>
 7    1  0.3054835E-011  0.5052892E+02  0.7816164E-02  0.1300439E+00
        -11   -1    0    0    0    0  0.00000000000E+00  0.00000000000E+00  0.45593999997E+02  0.45594000000E+02  0.51100000000E-03 0.  1.
         11   -1    0    0    0    0 -0.00000000000E+00 -0.00000000000E+00 -0.45593999997E+02  0.45594000000E+02  0.51100000000E-03 0. -1.
    9900012    2    1    2    0    0 -0.23114972768E+02 -0.33313696083E+02  0.30093821580E+01  0.50528921140E+02  0.30000186297E+02 0.  0.
         12    1    1    2    0    0  0.23114972768E+02  0.33313696083E+02 -0.30093821580E+01  0.40659078860E+02  0.00000000000E+00 0. -1.
         11    1    3    3    0    0 -0.91777679564E+01 -0.22295811675E+02 -0.11412836779E+02  0.26675597210E+02  0.51100000000E-03 0. -1.
        -11    1    3    3    0    0 -0.40195908642E+01 -0.47269582438E+01  0.89648385414E+01  0.10902732469E+02  0.51100000000E-03 0.  1.
        -12    1    3    3    0    0 -0.99176139473E+01 -0.62909261640E+01  0.54573803960E+01  0.12950591461E+02  0.00000000000E+00 0.  1.
</event>
<event>
 7    1  0.3054835E-011  0.5052886E+02  0.7816164E-02  0.1300439E+00
        -11   -1    0    0    0    0  0.00000000000E+00  0.00000000000E+00  0.45593999997E+02  0.45594000000E+02  0.51100000000E-03 0. -1.
         11   -1    0    0    0    0 -0.00000000000E+00 -0.00000000000E+00 -0.45593999997E+02  0.45594000000E+02  0.51100000000E-03 0.  1.
    9900012    2    1    2    0    0 -0.27735901953E+02  0.50596116000E+01 -0.29296509495E+02  0.50528863323E+02  0.30000010557E+02 0.  0.
         12    1    1    2    0    0  0.27735901953E+02 -0.50596116000E+01  0.29296509495E+02  0.40659136677E+02  0.00000000000E+00 0. -1.
         11    1    3    3    0    0 -0.23002444376E+01 -0.78821019478E-01  0.48567309069E+01  0.53744927751E+01  0.51100000000E-03 0. -1.
        -11    1    3    3    0    0 -0.12525606858E+02 -0.41557014323E+01 -0.11696695602E+02  0.17634437043E+02  0.51100000000E-03 0.  1.
         12    1    3    3    0    0 -0.12910050658E+02  0.92941340517E+01 -0.22456544801E+02  0.27519933505E+02  0.00000000000E+00 0. -1.
</event>
<event>
 7    1  0.3054835E-011  0.5052886E+02  0.7816164E-02  0.1300439E+00
        -11   -1    0    0    0    0  0.00000000000E+00  0.00000000000E+00  0.45593999997E+02  0.45594000000E+02  0.51100000000E-03 0.  1.
         11   -1    0    0    0    0 -0.00000000000E+00 -0.00000000000E+00 -0.45593999997E+02  0.45594000000E+02  0.51100000000E-03 0. -1.
    9900012    2    1    2    0    0  0.11094861972E+02  0.38371679436E+02  0.75950055089E+01  0.50528857688E+02  0.29999993427E+02 0.  0.
         12    1    1    2    0    0 -0.11094861972E+02 -0.38371679436E+02 -0.75950055089E+01  0.40659142312E+02  0.00000000000E+00 0. -1.
         11    1    3    3    0    0  0.45083745691E+01 -0.11570392817E+01 -0.13933148884E+01  0.48585499682E+01  0.51100000000E-03 0. -1.
        -11    1    3    3    0    0 -0.57446447740E+01  0.22845592087E+02  0.80827109685E+01  0.24904863747E+02  0.51100000000E-03 0.  1.
        -12    1    3    3    0    0  0.12331132177E+02  0.16683126630E+02  0.90560942869E+00  0.20765443972E+02  0.00000000000E+00 0.  1.
</event>
<event>
 7    1  0.3054835E-011  0.5052887E+02  0.7816164E-02  0.1300439E+00
        -11   -1    0    0    0    0  0.00000000000E+00  0.00000000000E+00  0.45593999997E+02  0.45594000000E+02  0.51100000000E-03 0. -1.
         11   -1    0    0    0    0 -0.00000000000E+00 -0.00000000000E+00 -0.45593999997E+02  0.45594000000E+02  0.51100000000E-03 0.  1.
    9900012    2    1    2    0    0 -0.36615648779E+02  0.12239851630E+02 -0.12753244215E+02  0.50528868905E+02  0.30000027524E+02 0.  0.
         12    1    1    2    0    0  0.36615648779E+02 -0.12239851630E+02  0.12753244215E+02  0.40659131095E+02  0.00000000000E+00 0. -1.
         11    1    3    3    0    0 -0.15289537481E+02 -0.36272330833E+01 -0.40441570249E+01  0.16225966305E+02  0.51100000000E-03 0. -1.
        -11    1    3    3    0    0 -0.18075102200E+02  0.20451874338E+02 -0.55415541910E+01  0.27851342994E+02  0.51100000000E-03 0.  1.
        -12    1    3    3    0    0 -0.32510090975E+01 -0.45847896243E+01 -0.31675329988E+01  0.64515596060E+01  0.00000000000E+00 0.  1.
</event>
<event>
 7    1  0.3054835E-011  0.5052886E+02  0.7816164E-02  0.1300439E+00
        -11   -1    0    0    0    0  0.00000000000E+00  0.00000000000E+00  0.45593999997E+02  0.45594000000E+02  0.51100000000E-03 0. -1.
         11   -1    0    0    0    0 -0.00000000000E+00 -0.00000000000E+00 -0.45593999997E+02  0.45594000000E+02  0.51100000000E-03 0.  1.
    9900012    2    1    2    0    0  0.26505969623E+02 -0.30339305469E+02  0.54887204837E+01  0.50528856692E+02  0.29999990400E+02 0.  0.
         12    1    1    2    0    0 -0.26505969623E+02  0.30339305469E+02 -0.54887204837E+01  0.40659143308E+02  0.00000000000E+00 0. -1.
         11    1    3    3    0    0  0.42168268342E+00 -0.82002550218E+00 -0.64058469880E+01  0.64718725269E+01  0.51100000000E-03 0. -1.
        -11    1    3    3    0    0  0.58600300513E+01 -0.11018217606E+02  0.10994942196E+02  0.16632192446E+02  0.51100000000E-03 0.  1.
        -12    1    3    3    0    0  0.20224256889E+02 -0.18501062361E+02  0.89962527563E+00  0.27424791719E+02  0.00000000000E+00 0.  1.
</event>
<event>
 7    1  0.3054835E-011  0.5052886E+02  0.7816164E-02  0.1300439E+00
        -11   -1    0    0    0    0  0.00000000000E+00  0.00000000000E+00  0.45593999997E+02  0.45594000000E+02  0.51100000000E-03 0.  1.
         11   -1    0    0    0    0 -0.00000000000E+00 -0.00000000000E+00 -0.45593999997E+02  0.45594000000E+02  0.51100000000E-03 0. -1.
    9900012    2    1    2    0    0  0.17916761411E+02  0.24311677985E+02  0.27223114183E+02  0.50528856234E+02  0.29999989010E+02 0.  0.
         12    1    1    2    0    0 -0.17916761411E+02 -0.24311677985E+02 -0.27223114183E+02  0.40659143766E+02  0.00000000000E+00 0. -1.
         11    1    3    3    0    0  0.11202505390E+02  0.27899633586E+02  0.25807410445E+02  0.39622066016E+02  0.51100000000E-03 0.  1.
        -11    1    3    3    0    0  0.35042442314E+01 -0.38551274751E+01 -0.25478430038E+01  0.57994171876E+01  0.51100000000E-03 0. -1.
         12    1    3    3    0    0  0.32100117892E+01  0.26717187416E+00  0.39635467420E+01  0.51073730305E+01  0.00000000000E+00 0. -1.
</event>
<event>
 7    1  0.3054835E-011  0.5052879E+02  0.7816164E-02  0.1300439E+00
        -11   -1    0    0    0    0  0.00000000000E+00  0.00000000000E+00  0.45593999997E+02  0.45594000000E+02  0.51100000000E-03 0.  1.
         11   -1    0    0    0    0 -0.00000000000E+00 -0.00000000000E+00 -0.45593999997E+02  0.45594000000E+02  0.51100000000E-03 0. -1.
    9900012    2    1    2    0    0  0.39679816708E+02 -0.26172932497E+01  0.84754567293E+01  0.50528788931E+02  0.29999784435E+02 0.  0.
         12    1    1    2    0    0 -0.39679816708E+02  0.26172932497E+01 -0.84754567293E+01  0.40659211069E+02  0.00000000000E+00 0. -1.
         11    1    3    3    0    0  0.21388597288E+02 -0.34192032717E+01  0.75123395511E-01  0.21660302139E+02  0.51100000000E-03 0. -1.
        -11    1    3    3    0    0 -0.33019055331E+01  0.20276284597E+01  0.59524683455E+01  0.71025162433E+01  0.51100000000E-03 0.  1.
        -12    1    3    3    0    0  0.21593124953E+02 -0.12257184376E+01  0.24478649882E+01  0.21765970549E+02  0.00000000000E+00 0.  1.
</event>
<event>
 7    1  0.3054835E-011  0.5052885E+02  0.7816164E-02  0.1300439E+00
        -11   -1    0    0    0    0  0.00000000000E+00  0.00000000000E+00  0.45593999997E+02  0.45594000000E+02  0.51100000000E-03 0.  1.
         11   -1    0    0    0    0 -0.00000000000E+00 -0.00000000000E+00 -0.45593999997E+02  0.45594000000E+02  0.51100000000E-03 0. -1.
    9900012    2    1    2    0    0  0.30176261167E+02 -0.10158956913E+01  0.27230999235E+02  0.50528854640E+02  0.29999984164E+02 0.  0.
         12    1    1    2    0    0 -0.30176261167E+02  0.10158956913E+01 -0.27230999235E+02  0.40659145360E+02  0.00000000000E+00 0. -1.
         11    1    3    3    0    0  0.81571289142E+01  0.12741074298E+02  0.97970520322E+01  0.18023760850E+02  0.51100000000E-03 0. -1.
        -11    1    3    3    0    0  0.34028930947E+01 -0.49022901875E+01  0.76054342029E+01  0.96672002241E+01  0.51100000000E-03 0.  1.
         12    1    3    3    0    0  0.18616239158E+02 -0.88546798014E+01  0.98285129997E+01  0.22837893567E+02  0.00000000000E+00 0. -1.
</event>
<event>
 7    1  0.3054835E-011  0.5052887E+02  0.7816164E-02  0.1300439E+00
        -11   -1    0    0    0    0  0.00000000000E+00  0.00000000000E+00  0.45593999997E+02  0.45594000000E+02  0.51100000000E-03 0.  1.
         11   -1    0    0    0    0 -0.00000000000E+00 -0.00000000000E+00 -0.45593999997E+02  0.45594000000E+02  0.51100000000E-03 0. -1.
    9900012    2    1    2    0    0 -0.13612084216E+02 -0.24164634876E+02  0.29731235816E+02  0.50528870662E+02  0.30000032863E+02 0.  0.
         12    1    1    2    0    0  0.13612084216E+02  0.24164634876E+02 -0.29731235816E+02  0.40659129338E+02  0.00000000000E+00 0. -1.
         11    1    3    3    0    0 -0.28054786222E+01  0.41090266231E+01  0.23058719189E+01  0.54837811459E+01  0.51100000000E-03 0. -1.
        -11    1    3    3    0    0 -0.11466154724E+02 -0.22937958965E+02  0.11256689352E+02  0.28005994377E+02  0.51100000000E-03 0.  1.
        -12    1    3    3    0    0  0.65954913034E+00 -0.53357025345E+01  0.16168674545E+02  0.17039095138E+02  0.00000000000E+00 0.  1.
</event>
<event>
 7    1  0.3054835E-011  0.5052886E+02  0.7816164E-02  0.1300439E+00
        -11   -1    0    0    0    0  0.00000000000E+00  0.00000000000E+00  0.45593999997E+02  0.45594000000E+02  0.51100000000E-03 0.  1.
         11   -1    0    0    0    0 -0.00000000000E+00 -0.00000000000E+00 -0.45593999997E+02  0.45594000000E+02  0.51100000000E-03 0. -1.
    9900012    2    1    2    0    0  0.39199219520E+02 -0.49092476393E+01  0.96169791097E+01  0.50528858217E+02  0.29999995035E+02 0.  0.
         12    1    1    2    0    0 -0.39199219520E+02  0.49092476393E+01 -0.96169791097E+01  0.40659141783E+02  0.00000000000E+00 0. -1.
         11    1    3    3    0    0 -0.24973354959E+01 -0.68173663818E+01  0.28378693090E+01  0.77952980340E+01  0.51100000000E-03 0. -1.
        -11    1    3    3    0    0  0.88791980445E+01 -0.17027454170E+01  0.28804654718E+01  0.94887607971E+01  0.51100000000E-03 0.  1.
         12    1    3    3    0    0  0.32817356972E+02  0.36108641595E+01  0.38986443290E+01  0.33244799385E+02  0.00000000000E+00 0. -1.
</event>
<event>
 7    1  0.3054835E-011  0.5052886E+02  0.7816164E-02  0.1300439E+00
        -11   -1    0    0    0    0  0.00000000000E+00  0.00000000000E+00  0.45593999997E+02  0.45594000000E+02  0.51100000000E-03 0. -1.
         11   -1    0    0    0    0 -0.00000000000E+00 -0.00000000000E+00 -0.45593999997E+02  0.45594000000E+02  0.51100000000E-03 0.  1.
    9900012    2    1    2    0    0 -0.33038067345E+02 -0.98412646582E+01  0.21559250810E+02  0.50528859829E+02  0.29999999936E+02 0.  0.
         12    1    1    2    0    0  0.33038067345E+02  0.98412646582E+01 -0.21559250810E+02  0.40659140171E+02  0.00000000000E+00 0. -1.
         11    1    3    3    0    0 -0.15861894095E+02  0.77241357174E+01  0.24067545459E+01  0.17806022143E+02  0.51100000000E-03 0. -1.
        -11    1    3    3    0    0 -0.16627468036E+02 -0.12258422538E+02  0.17673704848E+02  0.27186420502E+02  0.51100000000E-03 0.  1.
         12    1    3    3    0    0 -0.54870521433E+00 -0.53069778374E+01  0.14787914165E+01  0.55364171838E+01  0.00000000000E+00 0. -1.
</event>
<event>
 7    1  0.3054835E-011  0.5052887E+02  0.7816164E-02  0.1300439E+00
        -11   -1    0    0    0    0  0.00000000000E+00  0.00000000000E+00  0.45593999997E+02  0.45594000000E+02  0.51100000000E-03 0. -1.
         11   -1    0    0    0    0 -0.00000000000E+00 -0.00000000000E+00 -0.45593999997E+02  0.45594000000E+02  0.51100000000E-03 0.  1.
    9900012    2    1    2    0    0 -0.11184686607E+02 -0.35166969683E+02  0.17069040819E+02  0.50528866639E+02  0.30000020637E+02 0.  0.
         12    1    1    2    0    0  0.11184686607E+02  0.35166969683E+02 -0.17069040819E+02  0.40659133361E+02  0.00000000000E+00 0. -1.
         11    1    3    3    0    0 -0.13972465578E+02 -0.14245274875E+02  0.19715782488E+02  0.28051198370E+02  0.51100000000E-03 0. -1.
        -11    1    3    3    0    0  0.52143015190E+01 -0.15884170375E+02 -0.22979503678E+01  0.16875318811E+02  0.51100000000E-03 0.  1.
        -12    1    3    3    0    0 -0.24265225477E+01 -0.50375244322E+01 -0.34879130137E+00  0.56023494582E+01  0.00000000000E+00 0.  1.
</event>
<event>
 7    1  0.3054835E-011  0.5052886E+02  0.7816164E-02  0.1300439E+00
        -11   -1    0    0    0    0  0.00000000000E+00  0.00000000000E+00  0.45593999997E+02  0.45594000000E+02  0.51100000000E-03 0.  1.
         11   -1    0    0    0    0 -0.00000000000E+00 -0.00000000000E+00 -0.45593999997E+02  0.45594000000E+02  0.51100000000E-03 0. -1.
    9900012    2    1    2    0    0 -0.21871871007E+02 -0.26182945459E+02  0.22118778055E+02  0.50528859368E+02  0.29999998536E+02 0.  0.
         12    1    1    2    0    0  0.21871871007E+02  0.26182945459E+02 -0.22118778055E+02  0.40659140632E+02  0.00000000000E+00 0. -1.
         11    1    3    3    0    0  0.49008364379E+00 -0.18813806968E+01  0.34276914182E+00  0.19741495004E+01  0.51100000000E-03 0.  1.
        -11    1    3    3    0    0 -0.42648187517E+01  0.50528153898E+01 -0.17130119007E+01  0.68303757130E+01  0.51100000000E-03 0. -1.
        -12    1    3    3    0    0 -0.18097135899E+02 -0.29354380152E+02  0.23489020814E+02  0.41724334155E+02  0.00000000000E+00 0.  1.
</event>
<event>
 7    1  0.3054835E-011  0.5052886E+02  0.7816164E-02  0.1300439E+00
        -11   -1    0    0    0    0  0.00000000000E+00  0.00000000000E+00  0.45593999997E+02  0.45594000000E+02  0.51100000000E-03 0.  1.
         11   -1    0    0    0    0 -0.00000000000E+00 -0.00000000000E+00 -0.45593999997E+02  0.45594000000E+02  0.51100000000E-03 0. -1.
    9900012    2    1    2    0    0 -0.13268658617E+02  0.37533548276E+02  0.82668587659E+01  0.50528862017E+02  0.30000006587E+02 0.  0.
         12    1    1    2    0    0  0.13268658617E+02 -0.37533548276E+02 -0.82668587659E+01  0.40659137983E+02  0.00000000000E+00 0. -1.
         11    1    3    3    0    0  0.73725748863E+00  0.24959704252E+02  0.41722290566E+00  0.24974075762E+02  0.51100000000E-03 0. -1.
        -11    1    3    3    0    0 -0.99824738714E+01 -0.10072117568E+00 -0.24686706579E+00  0.99860338953E+01  0.51100000000E-03 0.  1.
        -12    1    3    3    0    0 -0.40234422346E+01  0.12674565200E+02  0.80965029260E+01  0.15568752360E+02  0.00000000000E+00 0.  1.
</event>
<event>
 7    1  0.3054835E-011  0.5052886E+02  0.7816164E-02  0.1300439E+00
        -11   -1    0    0    0    0  0.00000000000E+00  0.00000000000E+00  0.45593999997E+02  0.45594000000E+02  0.51100000000E-03 0.  1.
         11   -1    0    0    0    0 -0.00000000000E+00 -0.00000000000E+00 -0.45593999997E+02  0.45594000000E+02  0.51100000000E-03 0. -1.
    9900012    2    1    2    0    0 -0.18396596200E+02  0.21650878933E+02  0.29085571455E+02  0.50528858628E+02  0.29999996284E+02 0.  0.
         12    1    1    2    0    0  0.18396596200E+02 -0.21650878933E+02 -0.29085571455E+02  0.40659141372E+02  0.00000000000E+00 0. -1.
         11    1    3    3    0    0 -0.32106365049E+01  0.16733705806E+01  0.77990727854E+00  0.37035944015E+01  0.51100000000E-03 0. -1.
        -11    1    3    3    0    0  0.33485956598E+00  0.13868022387E+02 -0.11371302523E+00  0.13872530655E+02  0.51100000000E-03 0.  1.
        -12    1    3    3    0    0 -0.15520819261E+02  0.61094859649E+01  0.28419377201E+02  0.32952733571E+02  0.00000000000E+00 0.  1.
</event>
<event>
 7    1  0.3054835E-011  0.5052886E+02  0.7816164E-02  0.1300439E+00
        -11   -1    0    0    0    0  0.00000000000E+00  0.00000000000E+00  0.45593999997E+02  0.45594000000E+02  0.51100000000E-03 0.  1.
         11   -1    0    0    0    0 -0.00000000000E+00 -0.00000000000E+00 -0.45593999997E+02  0.45594000000E+02  0.51100000000E-03 0. -1.
    9900012    2    1    2    0    0  0.22949777949E+02  0.94428580719E+01  0.32207228363E+02  0.50528862832E+02  0.30000009063E+02 0.  0.
         12    1    1    2    0    0 -0.22949777949E+02 -0.94428580719E+01 -0.32207228363E+02  0.40659137168E+02  0.00000000000E+00 0. -1.
         11    1    3    3    0    0 -0.22545112542E+00  0.36303427899E+01 -0.13755581224E+01  0.38887501066E+01  0.51100000000E-03 0. -1.
        -11    1    3    3    0    0  0.21185683526E+02  0.16131590100E+01  0.35691704830E+02  0.41537131129E+02  0.51100000000E-03 0.  1.
        -12    1    3    3    0    0  0.19895455479E+01  0.41993562720E+01 -0.21089183450E+01  0.51029815963E+01  0.00000000000E+00 0.  1.
</event>
<event>
 7    1  0.3054835E-011  0.5052886E+02  0.7816164E-02  0.1300439E+00
        -11   -1    0    0    0    0  0.00000000000E+00  0.00000000000E+00  0.45593999997E+02  0.45594000000E+02  0.51100000000E-03 0.  1.
         11   -1    0    0    0    0 -0.00000000000E+00 -0.00000000000E+00 -0.45593999997E+02  0.45594000000E+02  0.51100000000E-03 0. -1.
    9900012    2    1    2    0    0 -0.18242804869E+02  0.13733663285E+02  0.33641520917E+02  0.50528863680E+02  0.30000011641E+02 0.  0.
         12    1    1    2    0    0  0.18242804869E+02 -0.13733663285E+02 -0.33641520917E+02  0.40659136320E+02  0.00000000000E+00 0. -1.
         11    1    3    3    0    0 -0.18672970241E+02  0.10154695481E+02  0.36634435029E+02  0.42354214525E+02  0.51100000000E-03 0.  1.
        -11    1    3    3    0    0 -0.20894061961E+01  0.30910486256E+01 -0.39519812154E+01  0.54349200220E+01  0.51100000000E-03 0. -1.
        -12    1    3    3    0    0  0.25195715679E+01  0.48791917878E+00  0.95906710321E+00  0.27397291324E+01  0.00000000000E+00 0.  1.
</event>
<event>
 7    1  0.3054835E-011  0.5052887E+02  0.7816164E-02  0.1300439E+00
        -11   -1    0    0    0    0  0.00000000000E+00  0.00000000000E+00  0.45593999997E+02  0.45594000000E+02  0.51100000000E-03 0.  1.
         11   -1    0    0    0    0 -0.00000000000E+00 -0.00000000000E+00 -0.45593999997E+02  0.45594000000E+02  0.51100000000E-03 0. -1.
    9900012    2    1    2    0    0  0.20278283170E+02 -0.73280647937E+01  0.34471085993E+02  0.50528867306E+02  0.30000022663E+02 0.  0.
         12    1    1    2    0    0 -0.20278283170E+02  0.73280647937E+01 -0.34471085993E+02  0.40659132694E+02  0.00000000000E+00 0. -1.
         11    1    3    3    0    0  0.15626524841E+02  0.98021249400E+01  0.19312959398E+02  0.26706934173E+02  0.51100000000E-03 0. -1.
        -11    1    3    3    0    0  0.67196592824E+00 -0.74025710292E+01  0.38035563646E+01  0.83496489346E+01  0.51100000000E-03 0.  1.
         12    1    3    3    0    0  0.39797924007E+01 -0.97276187045E+01  0.11354570230E+02  0.15472284198E+02  0.00000000000E+00 0. -1.
</event>
<event>
 7    1  0.3054835E-011  0.5052888E+02  0.7816164E-02  0.1300439E+00
        -11   -1    0    0    0    0  0.00000000000E+00  0.00000000000E+00  0.45593999997E+02  0.45594000000E+02  0.51100000000E-03 0.  1.
         11   -1    0    0    0    0 -0.00000000000E+00 -0.00000000000E+00 -0.45593999997E+02  0.45594000000E+02  0.51100000000E-03 0. -1.
    9900012    2    1    2    0    0  0.86425705598E+01 -0.16976074577E+02  0.35920509228E+02  0.50528879041E+02  0.30000058334E+02 0.  0.
         12    1    1    2    0    0 -0.86425705598E+01  0.16976074577E+02 -0.35920509228E+02  0.40659120959E+02  0.00000000000E+00 0. -1.
         11    1    3    3    0    0 -0.59543500268E+01  0.25289689852E+01  0.30231311659E+01  0.71406785866E+01  0.51100000000E-03 0. -1.
        -11    1    3    3    0    0  0.15943561327E+02 -0.20913870047E+02  0.31190801022E+02  0.40797710435E+02  0.51100000000E-03 0.  1.
         12    1    3    3    0    0 -0.13466407404E+01  0.14088264842E+01  0.17065770405E+01  0.25904900196E+01  0.00000000000E+00 0. -1.
</event>
<event>
 7    1  0.3054835E-011  0.5052886E+02  0.7816164E-02  0.1300439E+00
        -11   -1    0    0    0    0  0.00000000000E+00  0.00000000000E+00  0.45593999997E+02  0.45594000000E+02  0.51100000000E-03 0. -1.
         11   -1    0    0    0    0 -0.00000000000E+00 -0.00000000000E+00 -0.45593999997E+02  0.45594000000E+02  0.51100000000E-03 0.  1.
    9900012    2    1    2    0    0 -0.14487298384E+02 -0.20906523903E+02 -0.31720671961E+02  0.50528860980E+02  0.30000003435E+02 0.  0.
         12    1    1    2    0    0  0.14487298384E+02  0.20906523903E+02  0.31720671961E+02  0.40659139020E+02  0.00000000000E+00 0. -1.
         11    1    3    3    0    0  0.11027159269E+01 -0.75573523585E+01 -0.36102790549E+01  0.84477021847E+01  0.51100000000E-03 0. -1.
        -11    1    3    3    0    0 -0.21213921260E+02 -0.12228919239E+02 -0.17761619413E+02  0.30249827196E+02  0.51100000000E-03 0.  1.
        -12    1    3    3    0    0  0.56239069485E+01 -0.11202523051E+01 -0.10348773493E+02  0.11831331599E+02  0.00000000000E+00 0.  1.
</event>
<event>
 7    1  0.3054835E-011  0.5052886E+02  0.7816164E-02  0.1300439E+00
        -11   -1    0    0    0    0  0.00000000000E+00  0.00000000000E+00  0.45593999997E+02  0.45594000000E+02  0.51100000000E-03 0.  1.
         11   -1    0    0    0    0 -0.00000000000E+00 -0.00000000000E+00 -0.45593999997E+02  0.45594000000E+02  0.51100000000E-03 0. -1.
    9900012    2    1    2    0    0  0.36655562674E+02 -0.11044874730E+02  0.13694757604E+02  0.50528856888E+02  0.29999990998E+02 0.  0.
         12    1    1    2    0    0 -0.36655562674E+02  0.11044874730E+02 -0.13694757604E+02  0.40659143112E+02  0.00000000000E+00 0. -1.
         11    1    3    3    0    0  0.22270193274E+00  0.12258370041E+01  0.42431304254E+01  0.44222650960E+01  0.51100000000E-03 0. -1.
        -11    1    3    3    0    0  0.36515085080E+02 -0.39894035762E+01  0.64302473163E+01  0.37290948769E+02  0.51100000000E-03 0.  1.
        -12    1    3    3    0    0 -0.82224338852E-01 -0.82813081575E+01  0.30213798623E+01  0.88156430232E+01  0.00000000000E+00 0.  1.
</event>
<event>
 7    1  0.3054835E-011  0.5052887E+02  0.7816164E-02  0.1300439E+00
        -11   -1    0    0    0    0  0.00000000000E+00  0.00000000000E+00  0.45593999997E+02  0.45594000000E+02  0.51100000000E-03 0. -1.
         11   -1    0    0    0    0 -0.00000000000E+00 -0.00000000000E+00 -0.45593999997E+02  0.45594000000E+02  0.51100000000E-03 0.  1.
    9900012    2    1    2    0    0 -0.29568393076E+02  0.19760088694E+02 -0.19708225698E+02  0.50528866531E+02  0.30000020307E+02 0.  0.
         12    1    1    2    0    0  0.29568393076E+02 -0.19760088694E+02  0.19708225698E+02  0.40659133469E+02  0.00000000000E+00 0. -1.
         11    1    3    3    0    0  0.22481880548E+01 -0.10356774803E+01  0.60569655554E+00  0.25483025628E+01  0.51100000000E-03 0. -1.
        -11    1    3    3    0    0 -0.28365914165E+02  0.84139216428E+01 -0.18759133752E+02  0.35033188025E+02  0.51100000000E-03 0.  1.
        -12    1    3    3    0    0 -0.34506669660E+01  0.12381844532E+02 -0.15547885011E+01  0.12947375943E+02  0.00000000000E+00 0.  1.
</event>
<event>
 7    1  0.3054835E-011  0.5052888E+02  0.7816164E-02  0.1300439E+00
        -11   -1    0    0    0    0  0.00000000000E+00  0.00000000000E+00  0.45593999997E+02  0.45594000000E+02  0.51100000000E-03 0.  1.
         11   -1    0    0    0    0 -0.00000000000E+00 -0.00000000000E+00 -0.45593999997E+02  0.45594000000E+02  0.51100000000E-03 0. -1.
    9900012    2    1    2    0    0 -0.11932414388E+02 -0.26764121338E+00  0.38867856277E+02  0.50528875605E+02  0.30000047890E+02 0.  0.
         12    1    1    2    0    0  0.11932414388E+02  0.26764121338E+00 -0.38867856277E+02  0.40659124395E+02  0.00000000000E+00 0. -1.
         11    1    3    3    0    0 -0.25598412378E+01  0.13897334979E+02  0.21498415368E+02  0.25726845323E+02  0.51100000000E-03 0.  1.
        -11    1    3    3    0    0 -0.73649309392E+01 -0.78518862307E+01  0.12941599072E+02  0.16833873942E+02  0.51100000000E-03 0. -1.
        -12    1    3    3    0    0 -0.20076422111E+01 -0.63130899618E+01  0.44278418381E+01  0.79681563399E+01  0.00000000000E+00 0.  1.
</event>
<event>
 7    1  0.3054835E-011  0.5052886E+02  0.7816164E-02  0.1300439E+00
        -11   -1    0    0    0    0  0.00000000000E+00  0.00000000000E+00  0.45593999997E+02  0.45594000000E+02  0.51100000000E-03 0.  1.
         11   -1    0    0    0    0 -0.00000000000E+00 -0.00000000000E+00 -0.45593999997E+02  0.45594000000E+02  0.51100000000E-03 0. -1.
    9900012    2    1    2    0    0  0.23963101532E+02 -0.23515946046E+02  0.22933284058E+02  0.50528862391E+02  0.30000007722E+02 0.  0.
         12    1    1    2    0    0 -0.23963101532E+02  0.23515946046E+02 -0.22933284058E+02  0.40659137609E+02  0.00000000000E+00 0. -1.
         11    1    3    3    0    0  0.10821759509E+02  0.20757548126E+01  0.23456889569E+01  0.11265943985E+02  0.51100000000E-03 0. -1.
        -11    1    3    3    0    0  0.50803547255E+01 -0.18913410572E+02  0.21093074446E+02  0.28782718660E+02  0.51100000000E-03 0.  1.
        -12    1    3    3    0    0  0.80609872972E+01 -0.66782902865E+01 -0.50547934488E+00  0.10480199746E+02  0.00000000000E+00 0.  1.
</event>
<event>
 7    1  0.3054835E-011  0.5052886E+02  0.7816164E-02  0.1300439E+00
        -11   -1    0    0    0    0  0.00000000000E+00  0.00000000000E+00  0.45593999997E+02  0.45594000000E+02  0.51100000000E-03 0.  1.
         11   -1    0    0    0    0 -0.00000000000E+00 -0.00000000000E+00 -0.45593999997E+02  0.45594000000E+02  0.51100000000E-03 0. -1.
    9900012    2    1    2    0    0 -0.10066484635E+02  0.16899937950E+02  0.35584032099E+02  0.50528863806E+02  0.30000012024E+02 0.  0.
         12    1    1    2    0    0  0.10066484635E+02 -0.16899937950E+02 -0.35584032099E+02  0.40659136194E+02  0.00000000000E+00 0. -1.
         11    1    3    3    0    0 -0.20179763002E+01 -0.28048924411E+01  0.24253064623E+02  0.24497975300E+02  0.51100000000E-03 0. -1.
        -11    1    3    3    0    0 -0.29689914901E+01  0.76180720937E+01 -0.73995790416E+00  0.82095962662E+01  0.51100000000E-03 0.  1.
         12    1    3    3    0    0 -0.50795168451E+01  0.12086758298E+02  0.12070925380E+02  0.17821292239E+02  0.00000000000E+00 0. -1.
</event>
<event>
 7    1  0.3054835E-011  0.5052887E+02  0.7816164E-02  0.1300439E+00
        -11   -1    0    0    0    0  0.00000000000E+00  0.00000000000E+00  0.45593999997E+02  0.45594000000E+02  0.51100000000E-03 0. -1.
         11   -1    0    0    0    0 -0.00000000000E+00 -0.00000000000E+00 -0.45593999997E+02  0.45594000000E+02  0.51100000000E-03 0.  1.
    9900012    2    1    2    0    0 -0.12246038318E+02  0.23488944829E+02 -0.30845892226E+02  0.50528867559E+02  0.30000023432E+02 0.  0.
         12    1    1    2    0    0  0.12246038318E+02 -0.23488944829E+02  0.30845892226E+02  0.40659132441E+02  0.00000000000E+00 0. -1.
         11    1    3    3    0    0  0.93005144012E+00  0.24200569074E+01 -0.18299971486E+02  0.18482711591E+02  0.51100000000E-03 0. -1.
        -11    1    3    3    0    0 -0.13207150270E+02  0.18357074136E+02 -0.38533387334E+01  0.22940340205E+02  0.51100000000E-03 0.  1.
        -12    1    3    3    0    0  0.31060512392E-01  0.27118137860E+01 -0.86925820065E+01  0.91058157627E+01  0.00000000000E+00 0.  1.
</event>
<event>
 7    1  0.3054835E-011  0.5052886E+02  0.7816164E-02  0.1300439E+00
        -11   -1    0    0    0    0  0.00000000000E+00  0.00000000000E+00  0.45593999997E+02  0.45594000000E+02  0.51100000000E-03 0.  1.
         11   -1    0    0    0    0 -0.00000000000E+00 -0.00000000000E+00 -0.45593999997E+02  0.45594000000E+02  0.51100000000E-03 0. -1.
    9900012    2    1    2    0    0 -0.11417879015E+02  0.57381835796E+01  0.38598846544E+02  0.50528859988E+02  0.30000000418E+02 0.  0.
         12    1    1    2    0    0  0.11417879015E+02 -0.57381835796E+01 -0.38598846544E+02  0.40659140012E+02  0.00000000000E+00 0. -1.
         11    1    3    3    0    0 -0.11634319823E+02 -0.74691450320E+01  0.62633529318E+01  0.15178113041E+02  0.51100000000E-03 0. -1.
        -11    1    3    3    0    0  0.18095099579E+01  0.38549393832E+01  0.59927862496E+01  0.73517597369E+01  0.51100000000E-03 0.  1.
         12    1    3    3    0    0 -0.15930691498E+01  0.93523892283E+01  0.26342707363E+02  0.27998987210E+02  0.00000000000E+00 0. -1.
</event>
<event>
 7    1  0.3054835E-011  0.5052886E+02  0.7816164E-02  0.1300439E+00
        -11   -1    0    0    0    0  0.00000000000E+00  0.00000000000E+00  0.45593999997E+02  0.45594000000E+02  0.51100000000E-03 0.  1.
         11   -1    0    0    0    0 -0.00000000000E+00 -0.00000000000E+00 -0.45593999997E+02  0.45594000000E+02  0.51100000000E-03 0. -1.
    9900012    2    1    2    0    0  0.90241165553E+01  0.26260693989E+02  0.29700285769E+02  0.50528859537E+02  0.29999999049E+02 0.  0.
         12    1    1    2    0    0 -0.90241165553E+01 -0.26260693989E+02 -0.29700285769E+02  0.40659140463E+02  0.00000000000E+00 0. -1.
         11    1    3    3    0    0  0.96734144142E+01  0.22451182895E+02  0.94114004126E+01  0.26195515223E+02  0.51100000000E-03 0. -1.
        -11    1    3    3    0    0  0.41497228029E+01 -0.26413221818E+00  0.16434101142E+02  0.16951980586E+02  0.51100000000E-03 0.  1.
         12    1    3    3    0    0 -0.47990206619E+01  0.40736433126E+01  0.38547842140E+01  0.73813637282E+01  0.00000000000E+00 0. -1.
</event>
<event>
 7    1  0.3054835E-011  0.5052886E+02  0.7816164E-02  0.1300439E+00
        -11   -1    0    0    0    0  0.00000000000E+00  0.00000000000E+00  0.45593999997E+02  0.45594000000E+02  0.51100000000E-03 0.  1.
         11   -1    0    0    0    0 -0.00000000000E+00 -0.00000000000E+00 -0.45593999997E+02  0.45594000000E+02  0.51100000000E-03 0. -1.
    9900012    2    1    2    0    0  0.12886548143E+02 -0.25354637978E+02  0.29055893177E+02  0.50528859351E+02  0.29999998482E+02 0.  0.
         12    1    1    2    0    0 -0.12886548143E+02  0.25354637978E+02 -0.29055893177E+02  0.40659140649E+02  0.00000000000E+00 0. -1.
         11    1    3    3    0    0 -0.32139375559E+01  0.41072637414E+01  0.88686354463E+01  0.10288425778E+02  0.51100000000E-03 0. -1.
        -11    1    3    3    0    0  0.14177340229E+02 -0.24526007821E+02  0.20446436417E+02  0.34936782880E+02  0.51100000000E-03 0.  1.
         12    1    3    3    0    0  0.19231454690E+01 -0.49358938983E+01 -0.25917868615E+00  0.53036506919E+01  0.00000000000E+00 0. -1.
</event>
<event>
 7    1  0.3054835E-011  0.5052884E+02  0.7816164E-02  0.1300439E+00
        -11   -1    0    0    0    0  0.00000000000E+00  0.00000000000E+00  0.45593999997E+02  0.45594000000E+02  0.51100000000E-03 0. -1.
         11   -1    0    0    0    0 -0.00000000000E+00 -0.00000000000E+00 -0.45593999997E+02  0.45594000000E+02  0.51100000000E-03 0.  1.
    9900012    2    1    2    0    0  0.25182502702E+02  0.10918138775E+02 -0.29996716810E+02  0.50528840933E+02  0.29999942499E+02 0.  0.
         12    1    1    2    0    0 -0.25182502702E+02 -0.10918138775E+02  0.29996716810E+02  0.40659159067E+02  0.00000000000E+00 0. -1.
         11    1    3    3    0    0 -0.41981405947E+01  0.16379315257E+01 -0.16015380859E+02  0.16637296308E+02  0.51100000000E-03 0. -1.
        -11    1    3    3    0    0  0.10388541277E+02  0.31642533091E+01 -0.39187285048E+01  0.11545160121E+02  0.51100000000E-03 0.  1.
         12    1    3    3    0    0  0.18992102020E+02  0.61159539406E+01 -0.10062607447E+02  0.22346384503E+02  0.00000000000E+00 0. -1.
</event>
<event>
 7    1  0.3054835E-011  0.5052883E+02  0.7816164E-02  0.1300439E+00
        -11   -1    0    0    0    0  0.00000000000E+00  0.00000000000E+00  0.45593999997E+02  0.45594000000E+02  0.51100000000E-03 0.  1.
         11   -1    0    0    0    0 -0.00000000000E+00 -0.00000000000E+00 -0.45593999997E+02  0.45594000000E+02  0.51100000000E-03 0. -1.
    9900012    2    1    2    0    0 -0.13084079910E+01 -0.40002375507E+02  0.71600528452E+01  0.50528827180E+02  0.29999900696E+02 0.  0.
         12    1    1    2    0    0  0.13084079910E+01  0.40002375507E+02 -0.71600528452E+01  0.40659172820E+02  0.00000000000E+00 0. -1.
         11    1    3    3    0    0  0.99376621217E+01 -0.33276739785E+02  0.26332280393E+01  0.34828615093E+02  0.51100000000E-03 0. -1.
        -11    1    3    3    0    0 -0.32794366235E+01 -0.19687680915E+01  0.51332892497E+01  0.64016725274E+01  0.51100000000E-03 0.  1.
         12    1    3    3    0    0 -0.79666334892E+01 -0.47568676306E+01 -0.60646444383E+00  0.92985395589E+01  0.00000000000E+00 0. -1.
</event>
<event>
 7    1  0.3054835E-011  0.5052886E+02  0.7816164E-02  0.1300439E+00
        -11   -1    0    0    0    0  0.00000000000E+00  0.00000000000E+00  0.45593999997E+02  0.45594000000E+02  0.51100000000E-03 0. -1.
         11   -1    0    0    0    0 -0.00000000000E+00 -0.00000000000E+00 -0.45593999997E+02  0.45594000000E+02  0.51100000000E-03 0.  1.
    9900012    2    1    2    0    0 -0.25363965462E+02 -0.24366903570E+02 -0.20398257714E+02  0.50528860175E+02  0.30000000989E+02 0.  0.
         12    1    1    2    0    0  0.25363965462E+02  0.24366903570E+02  0.20398257714E+02  0.40659139825E+02  0.00000000000E+00 0. -1.
         11    1    3    3    0    0 -0.22294559909E+01  0.11402504359E+01 -0.30294279489E+01  0.39304044360E+01  0.51100000000E-03 0. -1.
        -11    1    3    3    0    0 -0.11454116516E+02 -0.28888936320E+02 -0.12753281105E+02  0.33591868154E+02  0.51100000000E-03 0.  1.
        -12    1    3    3    0    0 -0.11680392954E+02  0.33817823137E+01 -0.46155486599E+01  0.13006587585E+02  0.00000000000E+00 0.  1.
</event>
<event>
 7    1  0.3054835E-011  0.5052885E+02  0.7816164E-02  0.1300439E+00
        -11   -1    0    0    0    0  0.00000000000E+00  0.00000000000E+00  0.45593999997E+02  0.45594000000E+02  0.51100000000E-03 0. -1.
         11   -1    0    0    0    0 -0.00000000000E+00 -0.00000000000E+00 -0.45593999997E+02  0.45594000000E+02  0.51100000000E-03 0.  1.
    9900012    2    1    2    0    0  0.15604822373E+02 -0.10004616285E+00 -0.37545248965E+02  0.50528853300E+02  0.29999980091E+02 0.  0.
         12    1    1    2    0    0 -0.15604822373E+02  0.10004616285E+00  0.37545248965E+02  0.40659146700E+02  0.00000000000E+00 0. -1.
         11    1    3    3    0    0  0.70643379175E+01 -0.85557473216E+01 -0.17438600467E+02  0.20669070346E+02  0.51100000000E-03 0. -1.
        -11    1    3    3    0    0  0.76598794903E+01  0.13721862904E+02 -0.10598237090E+02  0.18954838565E+02  0.51100000000E-03 0.  1.
        -12    1    3    3    0    0  0.88060496487E+00 -0.52661617451E+01 -0.95084114080E+01  0.10904944389E+02  0.00000000000E+00 0.  1.
</event>
<event>
 7    1  0.3054835E-011  0.5052886E+02  0.7816164E-02  0.1300439E+00
        -11   -1    0    0    0    0  0.00000000000E+00  0.00000000000E+00  0.45593999997E+02  0.45594000000E+02  0.51100000000E-03 0.  1.
         11   -1    0    0    0    0 -0.00000000000E+00 -0.00000000000E+00 -0.45593999997E+02  0.45594000000E+02  0.51100000000E-03 0. -1.
    9900012    2    1    2    0    0 -0.24829723169E+02 -0.26448245064E+02  0.18361389575E+02  0.50528862690E+02  0.30000008633E+02 0.  0.
         12    1    1    2    0    0  0.24829723169E+02  0.26448245064E+02 -0.18361389575E+02  0.40659137310E+02  0.00000000000E+00 0. -1.
         11    1    3    3    0    0 -0.90025841156E+01 -0.16810080732E+02  0.19360934280E+02  0.27174824957E+02  0.51100000000E-03 0. -1.
        -11    1    3    3    0    0 -0.18460156775E+02 -0.74670317833E+01 -0.65428767650E+00  0.19923906354E+02  0.51100000000E-03 0.  1.
         12    1    3    3    0    0  0.26330177207E+01 -0.21711325489E+01 -0.34525702796E+00  0.34301313790E+01  0.00000000000E+00 0. -1.
</event>
<event>
 7    1  0.3054835E-011  0.5052886E+02  0.7816164E-02  0.1300439E+00
        -11   -1    0    0    0    0  0.00000000000E+00  0.00000000000E+00  0.45593999997E+02  0.45594000000E+02  0.51100000000E-03 0.  1.
         11   -1    0    0    0    0 -0.00000000000E+00 -0.00000000000E+00 -0.45593999997E+02  0.45594000000E+02  0.51100000000E-03 0. -1.
    9900012    2    1    2    0    0 -0.22863288502E+02  0.16151218424E+02  0.29488535715E+02  0.50528861343E+02  0.30000004540E+02 0.  0.
         12    1    1    2    0    0  0.22863288502E+02 -0.16151218424E+02 -0.29488535715E+02  0.40659138657E+02  0.00000000000E+00 0. -1.
         11    1    3    3    0    0 -0.17397454065E+02  0.15502884234E+02  0.32019927168E+01  0.23521555755E+02  0.51100000000E-03 0. -1.
        -11    1    3    3    0    0 -0.11443762751E+01  0.12791977013E+01  0.99567457206E+01  0.10103599825E+02  0.51100000000E-03 0.  1.
         12    1    3    3    0    0 -0.43214581620E+01 -0.63086351181E+00  0.16329797277E+02  0.16903705763E+02  0.00000000000E+00 0. -1.
</event>
<event>
 7    1  0.3054835E-011  0.5052885E+02  0.7816164E-02  0.1300439E+00
        -11   -1    0    0    0    0  0.00000000000E+00  0.00000000000E+00  0.45593999997E+02  0.45594000000E+02  0.51100000000E-03 0.  1.
         11   -1    0    0    0    0 -0.00000000000E+00 -0.00000000000E+00 -0.45593999997E+02  0.45594000000E+02  0.51100000000E-03 0. -1.
    9900012    2    1    2    0    0  0.26515048915E+02 -0.21647049804E+02  0.21943643967E+02  0.50528854721E+02  0.29999984411E+02 0.  0.
         12    1    1    2    0    0 -0.26515048915E+02  0.21647049804E+02 -0.21943643967E+02  0.40659145279E+02  0.00000000000E+00 0. -1.
         11    1    3    3    0    0  0.16633157334E+01  0.75577020707E+00 -0.23098287413E+01  0.29450156044E+01  0.51100000000E-03 0. -1.
        -11    1    3    3    0    0  0.14068026116E+02 -0.24750316554E+02  0.11462997239E+02  0.30690191174E+02  0.51100000000E-03 0.  1.
        -12    1    3    3    0    0  0.10783707066E+02  0.23474965422E+01  0.12790475470E+02  0.16893647944E+02  0.00000000000E+00 0.  1.
</event>
<event>
 7    1  0.3054835E-011  0.5052885E+02  0.7816164E-02  0.1300439E+00
        -11   -1    0    0    0    0  0.00000000000E+00  0.00000000000E+00  0.45593999997E+02  0.45594000000E+02  0.51100000000E-03 0. -1.
         11   -1    0    0    0    0 -0.00000000000E+00 -0.00000000000E+00 -0.45593999997E+02  0.45594000000E+02  0.51100000000E-03 0.  1.
    9900012    2    1    2    0    0 -0.24247027715E+02 -0.10328591149E+02 -0.30960749764E+02  0.50528853746E+02  0.29999981446E+02 0.  0.
         12    1    1    2    0    0  0.24247027715E+02  0.10328591149E+02  0.30960749764E+02  0.40659146254E+02  0.00000000000E+00 0. -1.
         11    1    3    3    0    0  0.21046870777E+01 -0.76170794705E+01 -0.13754110772E+01  0.80213068292E+01  0.51100000000E-03 0. -1.
        -11    1    3    3    0    0 -0.13320871029E+01  0.42717746750E+01 -0.54286808899E+01  0.70351326490E+01  0.51100000000E-03 0.  1.
         12    1    3    3    0    0 -0.25019627690E+02 -0.69832863535E+01 -0.24156657797E+02  0.35472414268E+02  0.00000000000E+00 0. -1.
</event>
<event>
 7    1  0.3054835E-011  0.5052886E+02  0.7816164E-02  0.1300439E+00
        -11   -1    0    0    0    0  0.00000000000E+00  0.00000000000E+00  0.45593999997E+02  0.45594000000E+02  0.51100000000E-03 0. -1.
         11   -1    0    0    0    0 -0.00000000000E+00 -0.00000000000E+00 -0.45593999997E+02  0.45594000000E+02  0.51100000000E-03 0.  1.
    9900012    2    1    2    0    0  0.23632120122E+02 -0.32086164496E+02  0.80726065659E+01  0.50528855514E+02  0.29999986821E+02 0.  0.
         12    1    1    2    0    0 -0.23632120122E+02  0.32086164496E+02 -0.80726065659E+01  0.40659144486E+02  0.00000000000E+00 0. -1.
         11    1    3    3    0    0  0.13589979847E+02 -0.12911947572E+02 -0.80632947515E+01  0.20406436848E+02  0.51100000000E-03 0. -1.
        -11    1    3    3    0    0 -0.23004884191E+01 -0.90028415362E+01  0.75318459268E+01  0.11961275267E+02  0.51100000000E-03 0.  1.
        -12    1    3    3    0    0  0.12342628695E+02 -0.10171375388E+02  0.86040553906E+01  0.18161143399E+02  0.00000000000E+00 0.  1.
</event>
<event>
 7    1  0.3054835E-011  0.5052885E+02  0.7816164E-02  0.1300439E+00
        -11   -1    0    0    0    0  0.00000000000E+00  0.00000000000E+00  0.45593999997E+02  0.45594000000E+02  0.51100000000E-03 0. -1.
         11   -1    0    0    0    0 -0.00000000000E+00 -0.00000000000E+00 -0.45593999997E+02  0.45594000000E+02  0.51100000000E-03 0.  1.
    9900012    2    1    2    0    0  0.24574931597E+02  0.26216135219E+02 -0.19025065443E+02  0.50528854363E+02  0.29999983321E+02 0.  0.
         12    1    1    2    0    0 -0.24574931597E+02 -0.26216135219E+02  0.19025065443E+02  0.40659145637E+02  0.00000000000E+00 0. -1.
         11    1    3    3    0    0  0.11818415703E+02  0.72072457590E+01  0.11961133887E+01  0.13894244444E+02  0.51100000000E-03 0. -1.
        -11    1    3    3    0    0  0.44256358817E+01  0.17643403232E+02 -0.21427091258E+02  0.28106870523E+02  0.51100000000E-03 0.  1.
        -12    1    3    3    0    0  0.83308800126E+01  0.13654862278E+01  0.12059124263E+01  0.85277393958E+01  0.00000000000E+00 0.  1.
</event>
<event>
 7    1  0.3054835E-011  0.5052886E+02  0.7816164E-02  0.1300439E+00
        -11   -1    0    0    0    0  0.00000000000E+00  0.00000000000E+00  0.45593999997E+02  0.45594000000E+02  0.51100000000E-03 0.  1.
         11   -1    0    0    0    0 -0.00000000000E+00 -0.00000000000E+00 -0.45593999997E+02  0.45594000000E+02  0.51100000000E-03 0. -1.
    9900012    2    1    2    0    0  0.40080573808E+02  0.41278562846E+01 -0.54473854638E+01  0.50528860773E+02  0.30000002806E+02 0.  0.
         12    1    1    2    0    0 -0.40080573808E+02 -0.41278562846E+01  0.54473854638E+01  0.40659139227E+02  0.00000000000E+00 0. -1.
         11    1    3    3    0    0  0.23118936823E+02 -0.61317804715E+01 -0.19070057605E+01  0.23994179352E+02  0.51100000000E-03 0. -1.
        -11    1    3    3    0    0  0.18340536744E+02  0.13208749072E+02 -0.14137437222E+01  0.22646081597E+02  0.51100000000E-03 0.  1.
         12    1    3    3    0    0 -0.13788997592E+01 -0.29491123154E+01 -0.21266359811E+01  0.38885998240E+01  0.00000000000E+00 0. -1.
</event>
<event>
 7    1  0.3054835E-011  0.5052885E+02  0.7816164E-02  0.1300439E+00
        -11   -1    0    0    0    0  0.00000000000E+00  0.00000000000E+00  0.45593999997E+02  0.45594000000E+02  0.51100000000E-03 0. -1.
         11   -1    0    0    0    0 -0.00000000000E+00 -0.00000000000E+00 -0.45593999997E+02  0.45594000000E+02  0.51100000000E-03 0.  1.
    9900012    2    1    2    0    0  0.24723070351E+02 -0.29272309055E+02  0.13603968290E+02  0.50528852958E+02  0.29999979051E+02 0.  0.
         12    1    1    2    0    0 -0.24723070351E+02  0.29272309055E+02 -0.13603968290E+02  0.40659147042E+02  0.00000000000E+00 0. -1.
         11    1    3    3    0    0 -0.26180140360E+01 -0.40952463226E+01 -0.46567242448E+01  0.67312792906E+01  0.51100000000E-03 0. -1.
        -11    1    3    3    0    0  0.13298021734E+02 -0.16951069955E+02  0.35024379589E+01  0.21827579494E+02  0.51100000000E-03 0.  1.
         12    1    3    3    0    0  0.14043062653E+02 -0.82259927769E+01  0.14758254575E+02  0.21969994173E+02  0.00000000000E+00 0. -1.
</event>
<event>
 7    1  0.3054835E-011  0.5052886E+02  0.7816164E-02  0.1300439E+00
        -11   -1    0    0    0    0  0.00000000000E+00  0.00000000000E+00  0.45593999997E+02  0.45594000000E+02  0.51100000000E-03 0.  1.
         11   -1    0    0    0    0 -0.00000000000E+00 -0.00000000000E+00 -0.45593999997E+02  0.45594000000E+02  0.51100000000E-03 0. -1.
    9900012    2    1    2    0    0 -0.26456937367E+02 -0.80205727583E+01  0.29813862897E+02  0.50528861506E+02  0.30000005035E+02 0.  0.
         12    1    1    2    0    0  0.26456937367E+02  0.80205727583E+01 -0.29813862897E+02  0.40659138494E+02  0.00000000000E+00 0. -1.
         11    1    3    3    0    0 -0.66577092836E+01 -0.95499011061E+01  0.97627473967E+01  0.15193318960E+02  0.51100000000E-03 0. -1.
        -11    1    3    3    0    0 -0.87389715573E+01  0.76232798107E+01  0.19509562453E+02  0.22695969825E+02  0.51100000000E-03 0.  1.
        -12    1    3    3    0    0 -0.11060256526E+02 -0.60939514629E+01  0.54155304755E+00  0.12639572720E+02  0.00000000000E+00 0.  1.
</event>
<event>
 7    1  0.3054835E-011  0.5052885E+02  0.7816164E-02  0.1300439E+00
        -11   -1    0    0    0    0  0.00000000000E+00  0.00000000000E+00  0.45593999997E+02  0.45594000000E+02  0.51100000000E-03 0. -1.
         11   -1    0    0    0    0 -0.00000000000E+00 -0.00000000000E+00 -0.45593999997E+02  0.45594000000E+02  0.51100000000E-03 0.  1.
    9900012    2    1    2    0    0 -0.81013958797E+01  0.14129966431E+02 -0.37254232801E+02  0.50528850622E+02  0.29999971951E+02 0.  0.
         12    1    1    2    0    0  0.81013958797E+01 -0.14129966431E+02  0.37254232801E+02  0.40659149378E+02  0.00000000000E+00 0. -1.
         11    1    3    3    0    0 -0.31988828954E+01  0.13603051584E+02 -0.30231430693E+02  0.33304883519E+02  0.51100000000E-03 0.  1.
        -11    1    3    3    0    0  0.37547056891E+01 -0.43833530585E+01 -0.27346355045E+01  0.63866916671E+01  0.51100000000E-03 0. -1.
        -12    1    3    3    0    0 -0.86572186734E+01  0.49102679056E+01 -0.42881666037E+01  0.10837275436E+02  0.00000000000E+00 0.  1.
</event>
<event>
 7    1  0.3054835E-011  0.5052886E+02  0.7816164E-02  0.1300439E+00
        -11   -1    0    0    0    0  0.00000000000E+00  0.00000000000E+00  0.45593999997E+02  0.45594000000E+02  0.51100000000E-03 0.  1.
         11   -1    0    0    0    0 -0.00000000000E+00 -0.00000000000E+00 -0.45593999997E+02  0.45594000000E+02  0.51100000000E-03 0. -1.
    9900012    2    1    2    0    0  0.12494738366E+02  0.23668383585E+02  0.30608085699E+02  0.50528858610E+02  0.29999996232E+02 0.  0.
         12    1    1    2    0    0 -0.12494738366E+02 -0.23668383585E+02 -0.30608085699E+02  0.40659141390E+02  0.00000000000E+00 0. -1.
         11    1    3    3    0    0  0.50804722160E+01  0.61804203614E+00  0.11351783552E+01  0.52423090386E+01  0.51100000000E-03 0. -1.
        -11    1    3    3    0    0  0.12658588333E+02  0.19402293076E+02  0.31017603508E+02  0.38714087395E+02  0.51100000000E-03 0.  1.
        -12    1    3    3    0    0 -0.52443221830E+01  0.36480484728E+01 -0.15446961642E+01  0.65724621763E+01  0.00000000000E+00 0.  1.
</event>
<event>
 7    1  0.3054835E-011  0.5052886E+02  0.7816164E-02  0.1300439E+00
        -11   -1    0    0    0    0  0.00000000000E+00  0.00000000000E+00  0.45593999997E+02  0.45594000000E+02  0.51100000000E-03 0.  1.
         11   -1    0    0    0    0 -0.00000000000E+00 -0.00000000000E+00 -0.45593999997E+02  0.45594000000E+02  0.51100000000E-03 0. -1.
    9900012    2    1    2    0    0  0.10094567574E+02  0.15290232962E+02  0.36297025064E+02  0.50528861457E+02  0.30000004885E+02 0.  0.
         12    1    1    2    0    0 -0.10094567574E+02 -0.15290232962E+02 -0.36297025064E+02  0.40659138543E+02  0.00000000000E+00 0. -1.
         11    1    3    3    0    0  0.16475847783E+02  0.16374673140E+02  0.25383780716E+02  0.34408135729E+02  0.51100000000E-03 0. -1.
        -11    1    3    3    0    0 -0.55750169514E+01 -0.98387915394E+00  0.12838387381E+02  0.14031144751E+02  0.51100000000E-03 0.  1.
        -12    1    3    3    0    0 -0.80626325764E+00 -0.10056102405E+00 -0.19251430338E+01  0.20895809773E+01  0.00000000000E+00 0.  1.
</event>
<event>
 7    1  0.3054835E-011  0.5052886E+02  0.7816164E-02  0.1300439E+00
        -11   -1    0    0    0    0  0.00000000000E+00  0.00000000000E+00  0.45593999997E+02  0.45594000000E+02  0.51100000000E-03 0.  1.
         11   -1    0    0    0    0 -0.00000000000E+00 -0.00000000000E+00 -0.45593999997E+02  0.45594000000E+02  0.51100000000E-03 0. -1.
    9900012    2    1    2    0    0 -0.63122017136E+01  0.39785540228E+02 -0.55165358722E+01  0.50528864868E+02  0.30000015252E+02 0.  0.
         12    1    1    2    0    0  0.63122017136E+01 -0.39785540228E+02  0.55165358722E+01  0.40659135132E+02  0.00000000000E+00 0. -1.
         11    1    3    3    0    0 -0.85197876842E+01  0.11299746633E+02  0.17068574834E+00  0.14152744965E+02  0.51100000000E-03 0. -1.
        -11    1    3    3    0    0  0.73342068898E+01  0.26182534739E+02 -0.10329715844E+02  0.29086401388E+02  0.51100000000E-03 0.  1.
        -12    1    3    3    0    0 -0.51266209193E+01  0.23032588555E+01  0.46424942233E+01  0.72897185144E+01  0.00000000000E+00 0.  1.
</event>
<event>
 7    1  0.3054835E-011  0.5052886E+02  0.7816164E-02  0.1300439E+00
        -11   -1    0    0    0    0  0.00000000000E+00  0.00000000000E+00  0.45593999997E+02  0.45594000000E+02  0.51100000000E-03 0.  1.
         11   -1    0    0    0    0 -0.00000000000E+00 -0.00000000000E+00 -0.45593999997E+02  0.45594000000E+02  0.51100000000E-03 0. -1.
    9900012    2    1    2    0    0  0.17369553617E+02  0.32453780850E+02  0.17268952218E+02  0.50528855949E+02  0.29999988141E+02 0.  0.
         12    1    1    2    0    0 -0.17369553617E+02 -0.32453780850E+02 -0.17268952218E+02  0.40659144051E+02  0.00000000000E+00 0. -1.
         11    1    3    3    0    0  0.11518923100E+02  0.22265009114E+02 -0.39324282190E+01  0.25374794821E+02  0.51100000000E-03 0. -1.
        -11    1    3    3    0    0  0.47521908082E+01  0.18865763625E+01  0.90897421481E+01  0.10429089147E+02  0.51100000000E-03 0.  1.
         12    1    3    3    0    0  0.10984397093E+01  0.83021953727E+01  0.12111638289E+02  0.14724971981E+02  0.00000000000E+00 0. -1.
</event>
<event>
 7    1  0.3054835E-011  0.5052886E+02  0.7816164E-02  0.1300439E+00
        -11   -1    0    0    0    0  0.00000000000E+00  0.00000000000E+00  0.45593999997E+02  0.45594000000E+02  0.51100000000E-03 0.  1.
         11   -1    0    0    0    0 -0.00000000000E+00 -0.00000000000E+00 -0.45593999997E+02  0.45594000000E+02  0.51100000000E-03 0. -1.
    9900012    2    1    2    0    0  0.26048984726E+02  0.31214298256E+02  0.53276827969E+00  0.50528857573E+02  0.29999993077E+02 0.  0.
         12    1    1    2    0    0 -0.26048984726E+02 -0.31214298256E+02 -0.53276827969E+00  0.40659142427E+02  0.00000000000E+00 0. -1.
         11    1    3    3    0    0  0.79233662810E+01  0.10565414821E+01 -0.10012076216E+01  0.80559561872E+01  0.51100000000E-03 0. -1.
        -11    1    3    3    0    0  0.73772840313E+01  0.20186297257E+02  0.11853238175E+02  0.24544045553E+02  0.51100000000E-03 0.  1.
        -12    1    3    3    0    0  0.10748334414E+02  0.99714595172E+01 -0.10319262274E+02  0.17928855832E+02  0.00000000000E+00 0.  1.
</event>
<event>
 7    1  0.3054835E-011  0.5052886E+02  0.7816164E-02  0.1300439E+00
        -11   -1    0    0    0    0  0.00000000000E+00  0.00000000000E+00  0.45593999997E+02  0.45594000000E+02  0.51100000000E-03 0.  1.
         11   -1    0    0    0    0 -0.00000000000E+00 -0.00000000000E+00 -0.45593999997E+02  0.45594000000E+02  0.51100000000E-03 0. -1.
    9900012    2    1    2    0    0  0.16199680265E+02  0.19591782125E+02  0.31731659164E+02  0.50528858829E+02  0.29999996896E+02 0.  0.
         12    1    1    2    0    0 -0.16199680265E+02 -0.19591782125E+02 -0.31731659164E+02  0.40659141171E+02  0.00000000000E+00 0. -1.
         11    1    3    3    0    0 -0.19503812313E+01  0.91171995701E+01  0.23021823168E+02  0.24838108970E+02  0.51100000000E-03 0. -1.
        -11    1    3    3    0    0  0.11707843102E+02  0.16131330661E+01  0.87997104760E+01  0.14734676553E+02  0.51100000000E-03 0.  1.
        -12    1    3    3    0    0  0.64422183941E+01  0.88614494884E+01 -0.89874480345E-01  0.10956073306E+02  0.00000000000E+00 0.  1.
</event>
<event>
 7    1  0.3054835E-011  0.5052886E+02  0.7816164E-02  0.1300439E+00
        -11   -1    0    0    0    0  0.00000000000E+00  0.00000000000E+00  0.45593999997E+02  0.45594000000E+02  0.51100000000E-03 0.  1.
         11   -1    0    0    0    0 -0.00000000000E+00 -0.00000000000E+00 -0.45593999997E+02  0.45594000000E+02  0.51100000000E-03 0. -1.
    9900012    2    1    2    0    0 -0.49149778697E+01 -0.35606901242E+02  0.19004141880E+02  0.50528857952E+02  0.29999994231E+02 0.  0.
         12    1    1    2    0    0  0.49149778697E+01  0.35606901242E+02 -0.19004141880E+02  0.40659142048E+02  0.00000000000E+00 0. -1.
         11    1    3    3    0    0  0.53360256747E+01  0.13778440298E+01  0.71147226552E+01  0.89994945910E+01  0.51100000000E-03 0. -1.
        -11    1    3    3    0    0 -0.73293431042E+01 -0.13513220277E+02  0.86962196098E+01  0.17662124118E+02  0.51100000000E-03 0.  1.
         12    1    3    3    0    0 -0.29216604401E+01 -0.23471524995E+02  0.31931996146E+01  0.23867239243E+02  0.00000000000E+00 0. -1.
</event>
<event>
 7    1  0.3054835E-011  0.5052888E+02  0.7816164E-02  0.1300439E+00
        -11   -1    0    0    0    0  0.00000000000E+00  0.00000000000E+00  0.45593999997E+02  0.45594000000E+02  0.51100000000E-03 0.  1.
         11   -1    0    0    0    0 -0.00000000000E+00 -0.00000000000E+00 -0.45593999997E+02  0.45594000000E+02  0.51100000000E-03 0. -1.
    9900012    2    1    2    0    0  0.21330159547E+01 -0.32633189560E+02  0.24159664907E+02  0.50528877698E+02  0.30000054252E+02 0.  0.
         12    1    1    2    0    0 -0.21330159547E+01  0.32633189560E+02 -0.24159664907E+02  0.40659122302E+02  0.00000000000E+00 0. -1.
         11    1    3    3    0    0  0.10576964208E+02 -0.25515174972E+02  0.98362889199E+01  0.29319769878E+02  0.51100000000E-03 0. -1.
        -11    1    3    3    0    0 -0.10136782382E+02 -0.78177126962E+01  0.91891227542E+01  0.15757885839E+02  0.51100000000E-03 0.  1.
         12    1    3    3    0    0  0.16928341288E+01  0.69969810858E+00  0.51342532330E+01  0.54512219815E+01  0.00000000000E+00 0. -1.
</event>
<event>
 7    1  0.3054835E-011  0.5052886E+02  0.7816164E-02  0.1300439E+00
        -11   -1    0    0    0    0  0.00000000000E+00  0.00000000000E+00  0.45593999997E+02  0.45594000000E+02  0.51100000000E-03 0.  1.
         11   -1    0    0    0    0 -0.00000000000E+00 -0.00000000000E+00 -0.45593999997E+02  0.45594000000E+02  0.51100000000E-03 0. -1.
    9900012    2    1    2    0    0 -0.14346054758E+01 -0.49437989685E+01  0.40331954126E+02  0.50528858780E+02  0.29999996748E+02 0.  0.
         12    1    1    2    0    0  0.14346054758E+01  0.49437989685E+01 -0.40331954126E+02  0.40659141220E+02  0.00000000000E+00 0. -1.
         11    1    3    3    0    0 -0.13572918224E+02 -0.68657967190E+01  0.16198465198E+02  0.22220565896E+02  0.51100000000E-03 0. -1.
        -11    1    3    3    0    0  0.27207199953E+01 -0.30790602942E+01  0.74595964262E+01  0.85163671064E+01  0.51100000000E-03 0.  1.
         12    1    3    3    0    0  0.94175927529E+01  0.50010580447E+01  0.16673892502E+02  0.19791925778E+02  0.00000000000E+00 0. -1.
</event>
<event>
 7    1  0.3054835E-011  0.5052893E+02  0.7816164E-02  0.1300439E+00
        -11   -1    0    0    0    0  0.00000000000E+00  0.00000000000E+00  0.45593999997E+02  0.45594000000E+02  0.51100000000E-03 0. -1.
         11   -1    0    0    0    0 -0.00000000000E+00 -0.00000000000E+00 -0.45593999997E+02  0.45594000000E+02  0.51100000000E-03 0.  1.
    9900012    2    1    2    0    0  0.14769891134E+02  0.29759483678E+02 -0.23438921630E+02  0.50528934590E+02  0.30000227178E+02 0.  0.
         12    1    1    2    0    0 -0.14769891134E+02 -0.29759483678E+02  0.23438921630E+02  0.40659065410E+02  0.00000000000E+00 0. -1.
         11    1    3    3    0    0  0.46233096226E+01  0.58637933521E+01 -0.21199628242E+02  0.22476283105E+02  0.51100000000E-03 0. -1.
        -11    1    3    3    0    0  0.65997848473E+01  0.15954526339E+02 -0.63970834108E+01  0.18412678979E+02  0.51100000000E-03 0.  1.
         12    1    3    3    0    0  0.35467966640E+01  0.79411639866E+01  0.41577900235E+01  0.96399725061E+01  0.00000000000E+00 0. -1.
</event>
<event>
 7    1  0.3054835E-011  0.5052886E+02  0.7816164E-02  0.1300439E+00
        -11   -1    0    0    0    0  0.00000000000E+00  0.00000000000E+00  0.45593999997E+02  0.45594000000E+02  0.51100000000E-03 0.  1.
         11   -1    0    0    0    0 -0.00000000000E+00 -0.00000000000E+00 -0.45593999997E+02  0.45594000000E+02  0.51100000000E-03 0. -1.
    9900012    2    1    2    0    0 -0.14845011251E+02  0.11115610113E+02  0.36183346527E+02  0.50528859415E+02  0.29999998677E+02 0.  0.
         12    1    1    2    0    0  0.14845011251E+02 -0.11115610113E+02 -0.36183346527E+02  0.40659140585E+02  0.00000000000E+00 0. -1.
         11    1    3    3    0    0 -0.23395810193E+01  0.12583419222E+02  0.93111130249E+01  0.15827599460E+02  0.51100000000E-03 0. -1.
        -11    1    3    3    0    0 -0.32007624098E+01 -0.90662816307E+01  0.90197965554E+01  0.13183287631E+02  0.51100000000E-03 0.  1.
         12    1    3    3    0    0 -0.93046678221E+01  0.75984725217E+01  0.17852436947E+02  0.21517972323E+02  0.00000000000E+00 0. -1.
</event>
<event>
 7    1  0.3054835E-011  0.5052886E+02  0.7816164E-02  0.1300439E+00
        -11   -1    0    0    0    0  0.00000000000E+00  0.00000000000E+00  0.45593999997E+02  0.45594000000E+02  0.51100000000E-03 0. -1.
         11   -1    0    0    0    0 -0.00000000000E+00 -0.00000000000E+00 -0.45593999997E+02  0.45594000000E+02  0.51100000000E-03 0.  1.
    9900012    2    1    2    0    0 -0.29153706488E+02  0.23681832085E+02 -0.15569134594E+02  0.50528859270E+02  0.29999998238E+02 0.  0.
         12    1    1    2    0    0  0.29153706488E+02 -0.23681832085E+02  0.15569134594E+02  0.40659140730E+02  0.00000000000E+00 0. -1.
         11    1    3    3    0    0 -0.54712377012E+01  0.32478742434E+01 -0.12830408138E+02  0.14321400153E+02  0.51100000000E-03 0. -1.
        -11    1    3    3    0    0 -0.20176864469E+02  0.22757879342E+02  0.12100847443E+01  0.30438318569E+02  0.51100000000E-03 0.  1.
         12    1    3    3    0    0 -0.35056043179E+01 -0.23239215009E+01 -0.39488111996E+01  0.57691405483E+01  0.00000000000E+00 0. -1.
</event>
<event>
 7    1  0.3054835E-011  0.5052886E+02  0.7816164E-02  0.1300439E+00
        -11   -1    0    0    0    0  0.00000000000E+00  0.00000000000E+00  0.45593999997E+02  0.45594000000E+02  0.51100000000E-03 0. -1.
         11   -1    0    0    0    0 -0.00000000000E+00 -0.00000000000E+00 -0.45593999997E+02  0.45594000000E+02  0.51100000000E-03 0.  1.
    9900012    2    1    2    0    0 -0.28144638231E+02  0.19526191182E+02 -0.21903720084E+02  0.50528858878E+02  0.29999997046E+02 0.  0.
         12    1    1    2    0    0  0.28144638231E+02 -0.19526191182E+02  0.21903720084E+02  0.40659141122E+02  0.00000000000E+00 0. -1.
         11    1    3    3    0    0 -0.15367838483E+01 -0.23276713037E+01 -0.61564386955E+01  0.67588087684E+01  0.51100000000E-03 0. -1.
        -11    1    3    3    0    0 -0.14174058933E+02  0.93004447268E+01  0.38490244092E+01  0.17384395530E+02  0.51100000000E-03 0.  1.
        -12    1    3    3    0    0 -0.12433795450E+02  0.12553417759E+02 -0.19596305797E+02  0.26385654580E+02  0.00000000000E+00 0.  1.
</event>
<event>
 7    1  0.3054835E-011  0.5052881E+02  0.7816164E-02  0.1300439E+00
        -11   -1    0    0    0    0  0.00000000000E+00  0.00000000000E+00  0.45593999997E+02  0.45594000000E+02  0.51100000000E-03 0.  1.
         11   -1    0    0    0    0 -0.00000000000E+00 -0.00000000000E+00 -0.45593999997E+02  0.45594000000E+02  0.51100000000E-03 0. -1.
    9900012    2    1    2    0    0 -0.21807492411E+02  0.10620577207E+02  0.32631371887E+02  0.50528808951E+02  0.29999845288E+02 0.  0.
         12    1    1    2    0    0  0.21807492411E+02 -0.10620577207E+02 -0.32631371887E+02  0.40659191049E+02  0.00000000000E+00 0. -1.
         11    1    3    3    0    0 -0.56227060287E+01 -0.59493353807E+01  0.16787397677E+02  0.18676887738E+02  0.51100000000E-03 0. -1.
        -11    1    3    3    0    0 -0.25156538195E+01  0.85031077988E+01 -0.73794555316E+00  0.88980852029E+01  0.51100000000E-03 0.  1.
         12    1    3    3    0    0 -0.13669132563E+02  0.80668047892E+01  0.16581919763E+02  0.22953836010E+02  0.00000000000E+00 0. -1.
</event>
<event>
 7    1  0.3054835E-011  0.5052886E+02  0.7816164E-02  0.1300439E+00
        -11   -1    0    0    0    0  0.00000000000E+00  0.00000000000E+00  0.45593999997E+02  0.45594000000E+02  0.51100000000E-03 0.  1.
         11   -1    0    0    0    0 -0.00000000000E+00 -0.00000000000E+00 -0.45593999997E+02  0.45594000000E+02  0.51100000000E-03 0. -1.
    9900012    2    1    2    0    0  0.25529936150E+02 -0.27325103088E+02  0.15960166292E+02  0.50528858265E+02  0.29999995182E+02 0.  0.
         12    1    1    2    0    0 -0.25529936150E+02  0.27325103088E+02 -0.15960166292E+02  0.40659141735E+02  0.00000000000E+00 0. -1.
         11    1    3    3    0    0  0.21664338075E+00 -0.18243317132E+02  0.56300767032E+01  0.19093541271E+02  0.51100000000E-03 0. -1.
        -11    1    3    3    0    0  0.23676697167E+02 -0.74351587232E+01  0.12902341292E+02  0.27970305416E+02  0.51100000000E-03 0.  1.
         12    1    3    3    0    0  0.16365956022E+01 -0.16466272324E+01 -0.25722517038E+01  0.34650115779E+01  0.00000000000E+00 0. -1.
</event>
<event>
 7    1  0.3054835E-011  0.5052886E+02  0.7816164E-02  0.1300439E+00
        -11   -1    0    0    0    0  0.00000000000E+00  0.00000000000E+00  0.45593999997E+02  0.45594000000E+02  0.51100000000E-03 0.  1.
         11   -1    0    0    0    0 -0.00000000000E+00 -0.00000000000E+00 -0.45593999997E+02  0.45594000000E+02  0.51100000000E-03 0. -1.
    9900012    2    1    2    0    0 -0.13064379400E+02  0.20008531260E+02  0.32895989926E+02  0.50528862214E+02  0.30000007185E+02 0.  0.
         12    1    1    2    0    0  0.13064379400E+02 -0.20008531260E+02 -0.32895989926E+02  0.40659137786E+02  0.00000000000E+00 0. -1.
         11    1    3    3    0    0  0.17396811382E+01  0.19508752597E+02  0.80907505042E+01  0.21191464375E+02  0.51100000000E-03 0. -1.
        -11    1    3    3    0    0 -0.12730022217E+02  0.84279341114E+00  0.17004337718E+02  0.21258204719E+02  0.51100000000E-03 0.  1.
         12    1    3    3    0    0 -0.20740383212E+01 -0.34301474843E+00  0.78009017043E+01  0.80791931203E+01  0.00000000000E+00 0. -1.
</event>
<event>
 7    1  0.3054835E-011  0.5052886E+02  0.7816164E-02  0.1300439E+00
        -11   -1    0    0    0    0  0.00000000000E+00  0.00000000000E+00  0.45593999997E+02  0.45594000000E+02  0.51100000000E-03 0.  1.
         11   -1    0    0    0    0 -0.00000000000E+00 -0.00000000000E+00 -0.45593999997E+02  0.45594000000E+02  0.51100000000E-03 0. -1.
    9900012    2    1    2    0    0 -0.32900721120E+01  0.29333474193E+02  0.27962264520E+02  0.50528861792E+02  0.30000005904E+02 0.  0.
         12    1    1    2    0    0  0.32900721120E+01 -0.29333474193E+02 -0.27962264520E+02  0.40659138208E+02  0.00000000000E+00 0. -1.
         11    1    3    3    0    0 -0.72290653546E+01  0.64116312724E+00  0.12490818292E+00  0.72585176428E+01  0.51100000000E-03 0. -1.
        -11    1    3    3    0    0 -0.26134201890E+01  0.25224155980E+02  0.18725567341E+02  0.31523560752E+02  0.51100000000E-03 0.  1.
         12    1    3    3    0    0  0.65524134317E+01  0.34681550852E+01  0.91117889964E+01  0.11746783398E+02  0.00000000000E+00 0. -1.
</event>
<event>
 7    1  0.3054835E-011  0.5052884E+02  0.7816164E-02  0.1300439E+00
        -11   -1    0    0    0    0  0.00000000000E+00  0.00000000000E+00  0.45593999997E+02  0.45594000000E+02  0.51100000000E-03 0.  1.
         11   -1    0    0    0    0 -0.00000000000E+00 -0.00000000000E+00 -0.45593999997E+02  0.45594000000E+02  0.51100000000E-03 0. -1.
    9900012    2    1    2    0    0 -0.16801904539E+02  0.32049798459E+01  0.36886196335E+02  0.50528839015E+02  0.29999936669E+02 0.  0.
         12    1    1    2    0    0  0.16801904539E+02 -0.32049798459E+01 -0.36886196335E+02  0.40659160985E+02  0.00000000000E+00 0. -1.
         11    1    3    3    0    0 -0.45074790838E+01  0.12953383178E+02  0.88192185195E+01  0.16306014811E+02  0.51100000000E-03 0. -1.
        -11    1    3    3    0    0 -0.77729625391E+01 -0.54455291674E+01  0.58569697932E+01  0.11152436055E+02  0.51100000000E-03 0.  1.
         12    1    3    3    0    0 -0.45214629156E+01 -0.43028741646E+01  0.22210008023E+02  0.23070388149E+02  0.00000000000E+00 0. -1.
</event>
<event>
 7    1  0.3054835E-011  0.5052887E+02  0.7816164E-02  0.1300439E+00
        -11   -1    0    0    0    0  0.00000000000E+00  0.00000000000E+00  0.45593999997E+02  0.45594000000E+02  0.51100000000E-03 0.  1.
         11   -1    0    0    0    0 -0.00000000000E+00 -0.00000000000E+00 -0.45593999997E+02  0.45594000000E+02  0.51100000000E-03 0. -1.
    9900012    2    1    2    0    0 -0.68357735356E+01 -0.14800561599E+02  0.37247556383E+02  0.50528869660E+02  0.30000029819E+02 0.  0.
         12    1    1    2    0    0  0.68357735356E+01  0.14800561599E+02 -0.37247556383E+02  0.40659130340E+02  0.00000000000E+00 0. -1.
         11    1    3    3    0    0  0.13643217713E+01 -0.77368590429E+01  0.63366332835E+01  0.10093229581E+02  0.51100000000E-03 0. -1.
        -11    1    3    3    0    0 -0.16214455955E+02 -0.53371952975E+01  0.25227154247E+02  0.30459867814E+02  0.51100000000E-03 0.  1.
        -12    1    3    3    0    0  0.80143606484E+01 -0.17265072586E+01  0.56837688523E+01  0.99757722650E+01  0.00000000000E+00 0.  1.
</event>
<event>
 7    1  0.3054835E-011  0.5052887E+02  0.7816164E-02  0.1300439E+00
        -11   -1    0    0    0    0  0.00000000000E+00  0.00000000000E+00  0.45593999997E+02  0.45594000000E+02  0.51100000000E-03 0. -1.
         11   -1    0    0    0    0 -0.00000000000E+00 -0.00000000000E+00 -0.45593999997E+02  0.45594000000E+02  0.51100000000E-03 0.  1.
    9900012    2    1    2    0    0  0.81934191976E+01 -0.33493194037E+02 -0.21546200801E+02  0.50528868998E+02  0.30000027805E+02 0.  0.
         12    1    1    2    0    0 -0.81934191976E+01  0.33493194037E+02  0.21546200801E+02  0.40659131002E+02  0.00000000000E+00 0. -1.
         11    1    3    3    0    0 -0.86340285671E+01 -0.14437884735E+01 -0.41605820366E+01  0.96923380873E+01  0.51100000000E-03 0. -1.
        -11    1    3    3    0    0  0.11482841786E+02 -0.16341116331E+02 -0.12410868030E+02  0.23514195371E+02  0.51100000000E-03 0.  1.
         12    1    3    3    0    0  0.53446059791E+01 -0.15708289232E+02 -0.49747507336E+01  0.17322335539E+02  0.00000000000E+00 0. -1.
</event>
<event>
 7    1  0.3054835E-011  0.5052885E+02  0.7816164E-02  0.1300439E+00
        -11   -1    0    0    0    0  0.00000000000E+00  0.00000000000E+00  0.45593999997E+02  0.45594000000E+02  0.51100000000E-03 0.  1.
         11   -1    0    0    0    0 -0.00000000000E+00 -0.00000000000E+00 -0.45593999997E+02  0.45594000000E+02  0.51100000000E-03 0. -1.
    9900012    2    1    2    0    0  0.35612657109E+01 -0.33797883660E+02  0.22320107492E+02  0.50528846642E+02  0.29999959854E+02 0.  0.
         12    1    1    2    0    0 -0.35612657109E+01  0.33797883660E+02 -0.22320107492E+02  0.40659153358E+02  0.00000000000E+00 0. -1.
         11    1    3    3    0    0  0.94484054858E+01 -0.12186850157E+01  0.11804785191E+02  0.15169393958E+02  0.51100000000E-03 0. -1.
        -11    1    3    3    0    0  0.89489148610E+00 -0.88423620519E+01  0.44462410001E+01  0.99376685757E+01  0.51100000000E-03 0.  1.
         12    1    3    3    0    0 -0.67820312610E+01 -0.23736836592E+02  0.60690813009E+01  0.25421784109E+02  0.00000000000E+00 0. -1.
</event>
<event>
 7    1  0.3054835E-011  0.5052886E+02  0.7816164E-02  0.1300439E+00
        -11   -1    0    0    0    0  0.00000000000E+00  0.00000000000E+00  0.45593999997E+02  0.45594000000E+02  0.51100000000E-03 0.  1.
         11   -1    0    0    0    0 -0.00000000000E+00 -0.00000000000E+00 -0.45593999997E+02  0.45594000000E+02  0.51100000000E-03 0. -1.
    9900012    2    1    2    0    0  0.12884506709E+02 -0.26247172926E+02  0.28253165966E+02  0.50528856049E+02  0.29999988447E+02 0.  0.
         12    1    1    2    0    0 -0.12884506709E+02  0.26247172926E+02 -0.28253165966E+02  0.40659143951E+02  0.00000000000E+00 0. -1.
         11    1    3    3    0    0  0.12380770817E+02 -0.11201201806E+02 -0.15059505495E+01  0.16763600306E+02  0.51100000000E-03 0. -1.
        -11    1    3    3    0    0  0.22861153052E+01 -0.13135614427E+02  0.24507584632E+02  0.27899684484E+02  0.51100000000E-03 0.  1.
         12    1    3    3    0    0 -0.17823794131E+01 -0.19103566934E+01  0.52515318828E+01  0.58655712582E+01  0.00000000000E+00 0. -1.
</event>
<event>
 7    1  0.3054835E-011  0.5052886E+02  0.7816164E-02  0.1300439E+00
        -11   -1    0    0    0    0  0.00000000000E+00  0.00000000000E+00  0.45593999997E+02  0.45594000000E+02  0.51100000000E-03 0. -1.
         11   -1    0    0    0    0 -0.00000000000E+00 -0.00000000000E+00 -0.45593999997E+02  0.45594000000E+02  0.51100000000E-03 0.  1.
    9900012    2    1    2    0    0  0.28694535902E+02  0.11188373394E+02 -0.26544481248E+02  0.50528861118E+02  0.30000003856E+02 0.  0.
         12    1    1    2    0    0 -0.28694535902E+02 -0.11188373394E+02  0.26544481248E+02  0.40659138882E+02  0.00000000000E+00 0. -1.
         11    1    3    3    0    0  0.52050224028E+01 -0.48592503127E+01  0.21690151399E+01  0.74437355376E+01  0.51100000000E-03 0. -1.
        -11    1    3    3    0    0  0.23114396132E+02  0.96367893394E+01 -0.18973926884E+02  0.31418989783E+02  0.51100000000E-03 0.  1.
        -12    1    3    3    0    0  0.37511736757E+00  0.64108343677E+01 -0.97395695045E+01  0.11666135798E+02  0.00000000000E+00 0.  1.
</event>
<event>
 7    1  0.3054835E-011  0.5052886E+02  0.7816164E-02  0.1300439E+00
        -11   -1    0    0    0    0  0.00000000000E+00  0.00000000000E+00  0.45593999997E+02  0.45594000000E+02  0.51100000000E-03 0. -1.
         11   -1    0    0    0    0 -0.00000000000E+00 -0.00000000000E+00 -0.45593999997E+02  0.45594000000E+02  0.51100000000E-03 0.  1.
    9900012    2    1    2    0    0  0.12589305856E+02 -0.20914499026E+02 -0.32515509677E+02  0.50528864975E+02  0.30000015578E+02 0.  0.
         12    1    1    2    0    0 -0.12589305856E+02  0.20914499026E+02  0.32515509677E+02  0.40659135025E+02  0.00000000000E+00 0. -1.
         11    1    3    3    0    0 -0.33514053136E+01 -0.18317518278E+02 -0.11499262070E+02  0.21885986883E+02  0.51100000000E-03 0. -1.
        -11    1    3    3    0    0  0.47890531634E+01  0.12678828302E+01 -0.50673242671E+00  0.49798930798E+01  0.51100000000E-03 0.  1.
         12    1    3    3    0    0  0.11151658006E+02 -0.38648635787E+01 -0.20509515180E+02  0.23662985012E+02  0.00000000000E+00 0. -1.
</event>
<event>
 7    1  0.3054835E-011  0.5052886E+02  0.7816164E-02  0.1300439E+00
        -11   -1    0    0    0    0  0.00000000000E+00  0.00000000000E+00  0.45593999997E+02  0.45594000000E+02  0.51100000000E-03 0. -1.
         11   -1    0    0    0    0 -0.00000000000E+00 -0.00000000000E+00 -0.45593999997E+02  0.45594000000E+02  0.51100000000E-03 0.  1.
    9900012    2    1    2    0    0 -0.33927325771E+02 -0.18814937988E+02 -0.12169642293E+02  0.50528861802E+02  0.30000005933E+02 0.  0.
         12    1    1    2    0    0  0.33927325771E+02  0.18814937988E+02  0.12169642293E+02  0.40659138198E+02  0.00000000000E+00 0. -1.
         11    1    3    3    0    0 -0.15456308459E+02  0.52978545225E+01 -0.79852829375E+01  0.18185969250E+02  0.51100000000E-03 0. -1.
        -11    1    3    3    0    0  0.91402155807E+00 -0.41250161635E+01 -0.67243976197E+00  0.42782437112E+01  0.51100000000E-03 0.  1.
         12    1    3    3    0    0 -0.19385038871E+02 -0.19987776347E+02 -0.35119195933E+01  0.28064648840E+02  0.00000000000E+00 0. -1.
</event>
<event>
 7    1  0.3054835E-011  0.5052898E+02  0.7816164E-02  0.1300438E+00
        -11   -1    0    0    0    0  0.00000000000E+00  0.00000000000E+00  0.45593999997E+02  0.45594000000E+02  0.51100000000E-03 0.  1.
         11   -1    0    0    0    0 -0.00000000000E+00 -0.00000000000E+00 -0.45593999997E+02  0.45594000000E+02  0.51100000000E-03 0. -1.
    9900012    2    1    2    0    0  0.19048004127E+02  0.27516475969E+01  0.35815604234E+02  0.50528984612E+02  0.30000379223E+02 0.  0.
         12    1    1    2    0    0 -0.19048004127E+02 -0.27516475969E+01 -0.35815604234E+02  0.40659015388E+02  0.00000000000E+00 0. -1.
         11    1    3    3    0    0  0.12523072514E+02 -0.89345297920E+01  0.25475199103E+02  0.29759686447E+02  0.51100000000E-03 0. -1.
        -11    1    3    3    0    0  0.33788372965E+00  0.60265412581E+01 -0.15385342375E+01  0.62290009481E+01  0.51100000000E-03 0.  1.
         12    1    3    3    0    0  0.61870478835E+01  0.56596361308E+01  0.11878939368E+02  0.14540297217E+02  0.00000000000E+00 0. -1.
</event>
<event>
 7    1  0.3054835E-011  0.5052886E+02  0.7816164E-02  0.1300439E+00
        -11   -1    0    0    0    0  0.00000000000E+00  0.00000000000E+00  0.45593999997E+02  0.45594000000E+02  0.51100000000E-03 0.  1.
         11   -1    0    0    0    0 -0.00000000000E+00 -0.00000000000E+00 -0.45593999997E+02  0.45594000000E+02  0.51100000000E-03 0. -1.
    9900012    2    1    2    0    0 -0.17877776719E+02 -0.32020024394E+02  0.17557593031E+02  0.50528856678E+02  0.29999990360E+02 0.  0.
         12    1    1    2    0    0  0.17877776719E+02  0.32020024394E+02 -0.17557593031E+02  0.40659143322E+02  0.00000000000E+00 0. -1.
         11    1    3    3    0    0 -0.43119732673E+01 -0.84057710354E+01 -0.58950297898E+01  0.11135595029E+02  0.51100000000E-03 0. -1.
        -11    1    3    3    0    0 -0.15945749041E+02 -0.24391220474E+02  0.21373977486E+02  0.36139250996E+02  0.51100000000E-03 0.  1.
         12    1    3    3    0    0  0.23799455899E+01  0.77696711526E+00  0.20786453343E+01  0.32540106538E+01  0.00000000000E+00 0. -1.
</event>
<event>
 7    1  0.3054835E-011  0.5052888E+02  0.7816164E-02  0.1300439E+00
        -11   -1    0    0    0    0  0.00000000000E+00  0.00000000000E+00  0.45593999997E+02  0.45594000000E+02  0.51100000000E-03 0.  1.
         11   -1    0    0    0    0 -0.00000000000E+00 -0.00000000000E+00 -0.45593999997E+02  0.45594000000E+02  0.51100000000E-03 0. -1.
    9900012    2    1    2    0    0 -0.21563581004E+02  0.30954385713E+02  0.15165813392E+02  0.50528881510E+02  0.30000065838E+02 0.  0.
         12    1    1    2    0    0  0.21563581004E+02 -0.30954385713E+02 -0.15165813392E+02  0.40659118490E+02  0.00000000000E+00 0. -1.
         11    1    3    3    0    0 -0.92227046189E+01  0.53352597468E-01 -0.42890222834E+01  0.10171373526E+02  0.51100000000E-03 0. -1.
        -11    1    3    3    0    0 -0.13956565582E+02  0.28082945220E+02  0.14788514914E+02  0.34671857589E+02  0.51100000000E-03 0.  1.
         12    1    3    3    0    0  0.16156891974E+01  0.28180878950E+01  0.46663207614E+01  0.56856503951E+01  0.00000000000E+00 0. -1.
</event>
<event>
 7    1  0.3054835E-011  0.5052885E+02  0.7816164E-02  0.1300439E+00
        -11   -1    0    0    0    0  0.00000000000E+00  0.00000000000E+00  0.45593999997E+02  0.45594000000E+02  0.51100000000E-03 0.  1.
         11   -1    0    0    0    0 -0.00000000000E+00 -0.00000000000E+00 -0.45593999997E+02  0.45594000000E+02  0.51100000000E-03 0. -1.
    9900012    2    1    2    0    0 -0.42602833970E+01 -0.22726820021E+02  0.33444100577E+02  0.50528853104E+02  0.29999979496E+02 0.  0.
         12    1    1    2    0    0  0.42602833970E+01  0.22726820021E+02 -0.33444100577E+02  0.40659146896E+02  0.00000000000E+00 0. -1.
         11    1    3    3    0    0 -0.10869125925E+02 -0.18875095686E+02  0.14495863345E+02  0.26163661630E+02  0.51100000000E-03 0.  1.
        -11    1    3    3    0    0  0.65224123712E+01 -0.16138694423E+01  0.16448936488E+01  0.69175221787E+01  0.51100000000E-03 0. -1.
         12    1    3    3    0    0  0.86430156730E-01 -0.22378548929E+01  0.17303343583E+02  0.17447669295E+02  0.00000000000E+00 0. -1.
</event>
<event>
 7    1  0.3054835E-011  0.5052886E+02  0.7816164E-02  0.1300439E+00
        -11   -1    0    0    0    0  0.00000000000E+00  0.00000000000E+00  0.45593999997E+02  0.45594000000E+02  0.51100000000E-03 0.  1.
         11   -1    0    0    0    0 -0.00000000000E+00 -0.00000000000E+00 -0.45593999997E+02  0.45594000000E+02  0.51100000000E-03 0. -1.
    9900012    2    1    2    0    0  0.48521253076E+01  0.99082481575E+01  0.39133731353E+02  0.50528862882E+02  0.30000009217E+02 0.  0.
         12    1    1    2    0    0 -0.48521253076E+01 -0.99082481575E+01 -0.39133731353E+02  0.40659137118E+02  0.00000000000E+00 0. -1.
         11    1    3    3    0    0 -0.26745118635E+01  0.33766951402E+01 -0.61817814538E+00  0.43516925740E+01  0.51100000000E-03 0. -1.
        -11    1    3    3    0    0  0.12037882803E+02  0.50511234322E+01  0.39295594678E+02  0.41407345141E+02  0.51100000000E-03 0.  1.
        -12    1    3    3    0    0 -0.45112456317E+01  0.14804295851E+01  0.45631482044E+00  0.47698251667E+01  0.00000000000E+00 0.  1.
</event>
<event>
 7    1  0.3054835E-011  0.5052886E+02  0.7816164E-02  0.1300439E+00
        -11   -1    0    0    0    0  0.00000000000E+00  0.00000000000E+00  0.45593999997E+02  0.45594000000E+02  0.51100000000E-03 0.  1.
         11   -1    0    0    0    0 -0.00000000000E+00 -0.00000000000E+00 -0.45593999997E+02  0.45594000000E+02  0.51100000000E-03 0. -1.
    9900012    2    1    2    0    0 -0.75120189875E+01 -0.32978432793E+02  0.22564525781E+02  0.50528864711E+02  0.30000014775E+02 0.  0.
         12    1    1    2    0    0  0.75120189875E+01  0.32978432793E+02 -0.22564525781E+02  0.40659135289E+02  0.00000000000E+00 0. -1.
         11    1    3    3    0    0 -0.19073799073E+01 -0.24653876675E+02  0.13111466814E+02  0.27988610103E+02  0.51100000000E-03 0. -1.
        -11    1    3    3    0    0 -0.68071888466E+01  0.24968212889E+01  0.91148772172E+01  0.11647013501E+02  0.51100000000E-03 0.  1.
         12    1    3    3    0    0  0.12025497664E+01 -0.10821377407E+02  0.33818175014E+00  0.10893241107E+02  0.00000000000E+00 0. -1.
</event>
<event>
 7    1  0.3054835E-011  0.5052886E+02  0.7816164E-02  0.1300439E+00
        -11   -1    0    0    0    0  0.00000000000E+00  0.00000000000E+00  0.45593999997E+02  0.45594000000E+02  0.51100000000E-03 0. -1.
         11   -1    0    0    0    0 -0.00000000000E+00 -0.00000000000E+00 -0.45593999997E+02  0.45594000000E+02  0.51100000000E-03 0.  1.
    9900012    2    1    2    0    0  0.72144201195E+01 -0.38118143145E+02 -0.12170651233E+02  0.50528862701E+02  0.30000008665E+02 0.  0.
         12    1    1    2    0    0 -0.72144201195E+01  0.38118143145E+02  0.12170651233E+02  0.40659137299E+02  0.00000000000E+00 0. -1.
         11    1    3    3    0    0  0.63800245959E+01 -0.37275538793E+02 -0.72173561135E+01  0.38500139424E+02  0.51100000000E-03 0. -1.
        -11    1    3    3    0    0  0.34892573704E+01 -0.16700575181E+01 -0.73836091181E+01  0.83355679459E+01  0.51100000000E-03 0.  1.
         12    1    3    3    0    0 -0.26548618468E+01  0.82745316562E+00  0.24303139984E+01  0.36931553308E+01  0.00000000000E+00 0. -1.
</event>
<event>
 7    1  0.3054835E-011  0.5052886E+02  0.7816164E-02  0.1300439E+00
        -11   -1    0    0    0    0  0.00000000000E+00  0.00000000000E+00  0.45593999997E+02  0.45594000000E+02  0.51100000000E-03 0.  1.
         11   -1    0    0    0    0 -0.00000000000E+00 -0.00000000000E+00 -0.45593999997E+02  0.45594000000E+02  0.51100000000E-03 0. -1.
    9900012    2    1    2    0    0  0.87226853242E+01  0.11421953465E+02  0.38034445625E+02  0.50528864320E+02  0.30000013587E+02 0.  0.
         12    1    1    2    0    0 -0.87226853242E+01 -0.11421953465E+02 -0.38034445625E+02  0.40659135680E+02  0.00000000000E+00 0. -1.
         11    1    3    3    0    0 -0.73254331050E+01  0.12368787322E+02  0.21468195260E+02  0.25836646028E+02  0.51100000000E-03 0. -1.
        -11    1    3    3    0    0  0.10160545875E+02  0.35935986022E+00  0.43300331464E+01  0.11050566470E+02  0.51100000000E-03 0.  1.
        -12    1    3    3    0    0  0.58875725538E+01 -0.13061937176E+01  0.12236217219E+02  0.13641651822E+02  0.00000000000E+00 0.  1.
</event>
<event>
 7    1  0.3054835E-011  0.5052883E+02  0.7816164E-02  0.1300439E+00
        -11   -1    0    0    0    0  0.00000000000E+00  0.00000000000E+00  0.45593999997E+02  0.45594000000E+02  0.51100000000E-03 0. -1.
         11   -1    0    0    0    0 -0.00000000000E+00 -0.00000000000E+00 -0.45593999997E+02  0.45594000000E+02  0.51100000000E-03 0.  1.
    9900012    2    1    2    0    0 -0.27604147473E+02  0.11375342465E+02 -0.27600369273E+02  0.50528834269E+02  0.29999922245E+02 0.  0.
         12    1    1    2    0    0  0.27604147473E+02 -0.11375342465E+02  0.27600369273E+02  0.40659165731E+02  0.00000000000E+00 0. -1.
         11    1    3    3    0    0 -0.12376501181E+02  0.56660313158E+01  0.15532161624E+01  0.13700152300E+02  0.51100000000E-03 0. -1.
        -11    1    3    3    0    0  0.13201781369E+01  0.38969800885E+00 -0.13085719695E+02  0.13157917580E+02  0.51100000000E-03 0.  1.
        -12    1    3    3    0    0 -0.16547824429E+02  0.53196131400E+01 -0.16067865741E+02  0.23670764389E+02  0.00000000000E+00 0.  1.
</event>
<event>
 7    1  0.3054835E-011  0.5052886E+02  0.7816164E-02  0.1300439E+00
        -11   -1    0    0    0    0  0.00000000000E+00  0.00000000000E+00  0.45593999997E+02  0.45594000000E+02  0.51100000000E-03 0.  1.
         11   -1    0    0    0    0 -0.00000000000E+00 -0.00000000000E+00 -0.45593999997E+02  0.45594000000E+02  0.51100000000E-03 0. -1.
    9900012    2    1    2    0    0 -0.27900967789E+02 -0.29447007373E+02  0.27523480396E+01  0.50528859988E+02  0.30000000419E+02 0.  0.
         12    1    1    2    0    0  0.27900967789E+02  0.29447007373E+02 -0.27523480396E+01  0.40659140012E+02  0.00000000000E+00 0. -1.
         11    1    3    3    0    0 -0.15025824912E+02 -0.13192191595E+01  0.71880807383E+01  0.16708807810E+02  0.51100000000E-03 0. -1.
        -11    1    3    3    0    0 -0.56588810461E+01 -0.19837312095E+02 -0.82049561166E+01  0.22200522314E+02  0.51100000000E-03 0.  1.
         12    1    3    3    0    0 -0.72162618311E+01 -0.82904761184E+01  0.37692234178E+01  0.11619529864E+02  0.00000000000E+00 0. -1.
</event>
<event>
 7    1  0.3054835E-011  0.5052885E+02  0.7816164E-02  0.1300439E+00
        -11   -1    0    0    0    0  0.00000000000E+00  0.00000000000E+00  0.45593999997E+02  0.45594000000E+02  0.51100000000E-03 0.  1.
         11   -1    0    0    0    0 -0.00000000000E+00 -0.00000000000E+00 -0.45593999997E+02  0.45594000000E+02  0.51100000000E-03 0. -1.
    9900012    2    1    2    0    0 -0.56391712919E+01  0.39204012468E+02  0.91875806501E+01  0.50528849927E+02  0.29999969838E+02 0.  0.
         12    1    1    2    0    0  0.56391712919E+01 -0.39204012468E+02 -0.91875806501E+01  0.40659150073E+02  0.00000000000E+00 0. -1.
         11    1    3    3    0    0 -0.88402412046E+01  0.44869134251E+01  0.42171369268E+01  0.10773416392E+02  0.51100000000E-03 0. -1.
        -11    1    3    3    0    0 -0.98779881799E+00  0.34443388158E+02  0.18175451927E+01  0.34505451817E+02  0.51100000000E-03 0.  1.
        -12    1    3    3    0    0  0.41888687306E+01  0.27371088460E+00  0.31528985306E+01  0.52499817176E+01  0.00000000000E+00 0.  1.
</event>
<event>
 7    1  0.3054835E-011  0.5052889E+02  0.7816164E-02  0.1300439E+00
        -11   -1    0    0    0    0  0.00000000000E+00  0.00000000000E+00  0.45593999997E+02  0.45594000000E+02  0.51100000000E-03 0.  1.
         11   -1    0    0    0    0 -0.00000000000E+00 -0.00000000000E+00 -0.45593999997E+02  0.45594000000E+02  0.51100000000E-03 0. -1.
    9900012    2    1    2    0    0  0.35509678952E+02  0.19320090096E+02  0.43543019184E+01  0.50528891232E+02  0.30000095389E+02 0.  0.
         12    1    1    2    0    0 -0.35509678952E+02 -0.19320090096E+02 -0.43543019184E+01  0.40659108768E+02  0.00000000000E+00 0. -1.
         11    1    3    3    0    0  0.13726739871E+02 -0.55061198783E+01 -0.49269228413E+01  0.15588948410E+02  0.51100000000E-03 0. -1.
        -11    1    3    3    0    0  0.12814538417E+02  0.19134728828E+02  0.70717473631E+01  0.24090659044E+02  0.51100000000E-03 0.  1.
         12    1    3    3    0    0  0.89684006645E+01  0.56914811469E+01  0.22094773965E+01  0.10849283778E+02  0.00000000000E+00 0. -1.
</event>
<event>
 7    1  0.3054835E-011  0.5052887E+02  0.7816164E-02  0.1300439E+00
        -11   -1    0    0    0    0  0.00000000000E+00  0.00000000000E+00  0.45593999997E+02  0.45594000000E+02  0.51100000000E-03 0.  1.
         11   -1    0    0    0    0 -0.00000000000E+00 -0.00000000000E+00 -0.45593999997E+02  0.45594000000E+02  0.51100000000E-03 0. -1.
    9900012    2    1    2    0    0 -0.65594288315E+01  0.15000127012E+02  0.37217403863E+02  0.50528867357E+02  0.30000022818E+02 0.  0.
         12    1    1    2    0    0  0.65594288315E+01 -0.15000127012E+02 -0.37217403863E+02  0.40659132643E+02  0.00000000000E+00 0. -1.
         11    1    3    3    0    0 -0.10919208320E+02  0.16617702075E+02  0.13471026058E+02  0.24017611786E+02  0.51100000000E-03 0.  1.
        -11    1    3    3    0    0  0.30903159981E+01 -0.61435211526E+01  0.11575889908E+02  0.13464550959E+02  0.51100000000E-03 0. -1.
         12    1    3    3    0    0  0.12694634904E+01  0.45259460897E+01  0.12170487897E+02  0.13046704611E+02  0.00000000000E+00 0. -1.
</event>
<event>
 7    1  0.3054835E-011  0.5052885E+02  0.7816164E-02  0.1300439E+00
        -11   -1    0    0    0    0  0.00000000000E+00  0.00000000000E+00  0.45593999997E+02  0.45594000000E+02  0.51100000000E-03 0. -1.
         11   -1    0    0    0    0 -0.00000000000E+00 -0.00000000000E+00 -0.45593999997E+02  0.45594000000E+02  0.51100000000E-03 0.  1.
    9900012    2    1    2    0    0  0.28176726973E+02 -0.27769533698E+02 -0.93857187898E+01  0.50528847747E+02  0.29999963211E+02 0.  0.
         12    1    1    2    0    0 -0.28176726973E+02  0.27769533698E+02  0.93857187898E+01  0.40659152253E+02  0.00000000000E+00 0. -1.
         11    1    3    3    0    0  0.14293420443E+02 -0.25852547797E+02 -0.71942943219E+01  0.30404176795E+02  0.51100000000E-03 0. -1.
        -11    1    3    3    0    0  0.15415086775E+02 -0.28885899193E+01 -0.52753331005E+01  0.16546842345E+02  0.51100000000E-03 0.  1.
         12    1    3    3    0    0 -0.15317802447E+01  0.97160401758E+00  0.30839086326E+01  0.35778286067E+01  0.00000000000E+00 0. -1.
</event>
<event>
 7    1  0.3054835E-011  0.5052885E+02  0.7816164E-02  0.1300439E+00
        -11   -1    0    0    0    0  0.00000000000E+00  0.00000000000E+00  0.45593999997E+02  0.45594000000E+02  0.51100000000E-03 0. -1.
         11   -1    0    0    0    0 -0.00000000000E+00 -0.00000000000E+00 -0.45593999997E+02  0.45594000000E+02  0.51100000000E-03 0.  1.
    9900012    2    1    2    0    0 -0.13825742992E+02  0.34253196211E+02 -0.16992170021E+02  0.50528850206E+02  0.29999970687E+02 0.  0.
         12    1    1    2    0    0  0.13825742992E+02 -0.34253196211E+02  0.16992170021E+02  0.40659149794E+02  0.00000000000E+00 0. -1.
         11    1    3    3    0    0 -0.26336969848E+01  0.24495351667E+02 -0.48132041191E+01  0.25102301633E+02  0.51100000000E-03 0. -1.
        -11    1    3    3    0    0 -0.90757011832E+00  0.53915820775E+01 -0.13120413350E+02  0.14214010256E+02  0.51100000000E-03 0.  1.
         12    1    3    3    0    0 -0.10284475889E+02  0.43662624658E+01  0.94144744798E+00  0.11212538318E+02  0.00000000000E+00 0. -1.
</event>
<event>
 7    1  0.3054835E-011  0.5052885E+02  0.7816164E-02  0.1300439E+00
        -11   -1    0    0    0    0  0.00000000000E+00  0.00000000000E+00  0.45593999997E+02  0.45594000000E+02  0.51100000000E-03 0.  1.
         11   -1    0    0    0    0 -0.00000000000E+00 -0.00000000000E+00 -0.45593999997E+02  0.45594000000E+02  0.51100000000E-03 0. -1.
    9900012    2    1    2    0    0  0.56084723057E+01 -0.40258918141E+02 -0.96474803945E+00  0.50528853547E+02  0.29999980843E+02 0.  0.
         12    1    1    2    0    0 -0.56084723057E+01  0.40258918141E+02  0.96474803945E+00  0.40659146453E+02  0.00000000000E+00 0. -1.
         11    1    3    3    0    0  0.35258413266E+00 -0.13266954328E+02 -0.10838883428E+02  0.17135279015E+02  0.51100000000E-03 0. -1.
        -11    1    3    3    0    0  0.15082128757E+01  0.77883650122E+00  0.45678883772E+01  0.48730787868E+01  0.51100000000E-03 0.  1.
         12    1    3    3    0    0  0.37476752973E+01 -0.27770800314E+02  0.53062470111E+01  0.28520495745E+02  0.00000000000E+00 0. -1.
</event>
<event>
 7    1  0.3054835E-011  0.5052886E+02  0.7816164E-02  0.1300439E+00
        -11   -1    0    0    0    0  0.00000000000E+00  0.00000000000E+00  0.45593999997E+02  0.45594000000E+02  0.51100000000E-03 0. -1.
         11   -1    0    0    0    0 -0.00000000000E+00 -0.00000000000E+00 -0.45593999997E+02  0.45594000000E+02  0.51100000000E-03 0.  1.
    9900012    2    1    2    0    0  0.13102255651E+02 -0.21590154933E+02 -0.31864743361E+02  0.50528858806E+02  0.29999996826E+02 0.  0.
         12    1    1    2    0    0 -0.13102255651E+02  0.21590154933E+02  0.31864743361E+02  0.40659141194E+02  0.00000000000E+00 0. -1.
         11    1    3    3    0    0  0.16528701082E+02 -0.88996878158E+00 -0.16559515224E+02  0.23413832420E+02  0.51100000000E-03 0. -1.
        -11    1    3    3    0    0 -0.15301618450E+01 -0.94096700689E+01 -0.23355543991E+01  0.98151974351E+01  0.51100000000E-03 0.  1.
        -12    1    3    3    0    0 -0.18962835855E+01 -0.11290516083E+02 -0.12969673738E+02  0.17299828951E+02  0.00000000000E+00 0.  1.
</event>
<event>
 7    1  0.3054835E-011  0.5052886E+02  0.7816164E-02  0.1300439E+00
        -11   -1    0    0    0    0  0.00000000000E+00  0.00000000000E+00  0.45593999997E+02  0.45594000000E+02  0.51100000000E-03 0. -1.
         11   -1    0    0    0    0 -0.00000000000E+00 -0.00000000000E+00 -0.45593999997E+02  0.45594000000E+02  0.51100000000E-03 0.  1.
    9900012    2    1    2    0    0 -0.21051940971E+02 -0.34639454914E+02 -0.31763677002E+01  0.50528863669E+02  0.30000011609E+02 0.  0.
         12    1    1    2    0    0  0.21051940971E+02  0.34639454914E+02  0.31763677002E+01  0.40659136331E+02  0.00000000000E+00 0. -1.
         11    1    3    3    0    0  0.27427144044E+01  0.15879367473E+01 -0.34068678484E+01  0.46530392449E+01  0.51100000000E-03 0. -1.
        -11    1    3    3    0    0 -0.23930066319E+02 -0.35574689634E+02  0.30461063530E+01  0.42982384540E+02  0.51100000000E-03 0.  1.
        -12    1    3    3    0    0  0.13541094378E+00 -0.65270202762E+00 -0.28156062048E+01  0.28934398838E+01  0.00000000000E+00 0.  1.
</event>
<event>
 7    1  0.3054835E-011  0.5052885E+02  0.7816164E-02  0.1300439E+00
        -11   -1    0    0    0    0  0.00000000000E+00  0.00000000000E+00  0.45593999997E+02  0.45594000000E+02  0.51100000000E-03 0.  1.
         11   -1    0    0    0    0 -0.00000000000E+00 -0.00000000000E+00 -0.45593999997E+02  0.45594000000E+02  0.51100000000E-03 0. -1.
    9900012    2    1    2    0    0 -0.34644210909E+02  0.15089315671E+02  0.15008589742E+02  0.50528848964E+02  0.29999966910E+02 0.  0.
         12    1    1    2    0    0  0.34644210909E+02 -0.15089315671E+02 -0.15008589742E+02  0.40659151036E+02  0.00000000000E+00 0. -1.
         11    1    3    3    0    0 -0.21944755122E+02 -0.20497758476E+01  0.41988924957E+01  0.22436678829E+02  0.51100000000E-03 0. -1.
        -11    1    3    3    0    0 -0.12773161667E+01  0.74156998293E+01  0.10712804897E+02  0.13091536563E+02  0.51100000000E-03 0.  1.
         12    1    3    3    0    0 -0.11422139620E+02  0.97233916896E+01  0.96892349482E-01  0.15000633573E+02  0.00000000000E+00 0. -1.
</event>
<event>
 7    1  0.3054835E-011  0.5052887E+02  0.7816164E-02  0.1300439E+00
        -11   -1    0    0    0    0  0.00000000000E+00  0.00000000000E+00  0.45593999997E+02  0.45594000000E+02  0.51100000000E-03 0.  1.
         11   -1    0    0    0    0 -0.00000000000E+00 -0.00000000000E+00 -0.45593999997E+02  0.45594000000E+02  0.51100000000E-03 0. -1.
    9900012    2    1    2    0    0 -0.31429459145E+01 -0.19544492741E+02  0.35514782262E+02  0.50528867389E+02  0.30000022917E+02 0.  0.
         12    1    1    2    0    0  0.31429459145E+01  0.19544492741E+02 -0.35514782262E+02  0.40659132611E+02  0.00000000000E+00 0. -1.
         11    1    3    3    0    0 -0.61681785198E+01 -0.87447116940E+01  0.34148456785E+01  0.11232879423E+02  0.51100000000E-03 0. -1.
        -11    1    3    3    0    0  0.41119495482E+01  0.51705017303E+01  0.81865453087E+01  0.10519588470E+02  0.51100000000E-03 0.  1.
        -12    1    3    3    0    0 -0.10867169430E+01 -0.15970282778E+02  0.23913391275E+02  0.28776399496E+02  0.00000000000E+00 0.  1.
</event>
<event>
 7    1  0.3054835E-011  0.5052885E+02  0.7816164E-02  0.1300439E+00
        -11   -1    0    0    0    0  0.00000000000E+00  0.00000000000E+00  0.45593999997E+02  0.45594000000E+02  0.51100000000E-03 0.  1.
         11   -1    0    0    0    0 -0.00000000000E+00 -0.00000000000E+00 -0.45593999997E+02  0.45594000000E+02  0.51100000000E-03 0. -1.
    9900012    2    1    2    0    0 -0.27877808069E+02  0.23583608906E+02  0.17883160576E+02  0.50528853133E+02  0.29999979583E+02 0.  0.
         12    1    1    2    0    0  0.27877808069E+02 -0.23583608906E+02 -0.17883160576E+02  0.40659146867E+02  0.00000000000E+00 0. -1.
         11    1    3    3    0    0 -0.15838729895E+01 -0.24780910988E+01 -0.23694390879E+01  0.37767487332E+01  0.51100000000E-03 0. -1.
        -11    1    3    3    0    0 -0.14839480520E+02  0.17721136642E+02  0.22672854860E+02  0.32377572697E+02  0.51100000000E-03 0.  1.
        -12    1    3    3    0    0 -0.11454454559E+02  0.83405633626E+01 -0.24202551959E+01  0.14374531703E+02  0.00000000000E+00 0.  1.
</event>
<event>
 7    1  0.3054835E-011  0.5052886E+02  0.7816164E-02  0.1300439E+00
        -11   -1    0    0    0    0  0.00000000000E+00  0.00000000000E+00  0.45593999997E+02  0.45594000000E+02  0.51100000000E-03 0.  1.
         11   -1    0    0    0    0 -0.00000000000E+00 -0.00000000000E+00 -0.45593999997E+02  0.45594000000E+02  0.51100000000E-03 0. -1.
    9900012    2    1    2    0    0  0.30078691054E+02  0.68296019018E+01  0.26491408390E+02  0.50528857902E+02  0.29999994078E+02 0.  0.
         12    1    1    2    0    0 -0.30078691054E+02 -0.68296019018E+01 -0.26491408390E+02  0.40659142098E+02  0.00000000000E+00 0. -1.
         11    1    3    3    0    0  0.29600766347E+02  0.51330113864E+01  0.11180048944E+02  0.32055368800E+02  0.51100000000E-03 0. -1.
        -11    1    3    3    0    0  0.39106455018E+01 -0.11417820343E+01  0.22080686978E+01  0.46338301749E+01  0.51100000000E-03 0.  1.
         12    1    3    3    0    0 -0.34327207946E+01  0.28383725497E+01  0.13103290748E+02  0.13839658927E+02  0.00000000000E+00 0. -1.
</event>
<event>
 7    1  0.3054835E-011  0.5052885E+02  0.7816164E-02  0.1300439E+00
        -11   -1    0    0    0    0  0.00000000000E+00  0.00000000000E+00  0.45593999997E+02  0.45594000000E+02  0.51100000000E-03 0.  1.
         11   -1    0    0    0    0 -0.00000000000E+00 -0.00000000000E+00 -0.45593999997E+02  0.45594000000E+02  0.51100000000E-03 0. -1.
    9900012    2    1    2    0    0  0.21912520672E+02 -0.83412027538E+01  0.33217945081E+02  0.50528854645E+02  0.29999984180E+02 0.  0.
         12    1    1    2    0    0 -0.21912520672E+02  0.83412027538E+01 -0.33217945081E+02  0.40659145355E+02  0.00000000000E+00 0. -1.
         11    1    3    3    0    0  0.44163002766E+01  0.95915504125E+01  0.15937276073E+02  0.19118010261E+02  0.51100000000E-03 0. -1.
        -11    1    3    3    0    0  0.12338636394E+02 -0.10576974086E+02  0.68271652744E+01  0.17627379693E+02  0.51100000000E-03 0.  1.
         12    1    3    3    0    0  0.51575840012E+01 -0.73557790798E+01  0.10453503734E+02  0.13783464692E+02  0.00000000000E+00 0. -1.
</event>
<event>
 7    1  0.3054835E-011  0.5052886E+02  0.7816164E-02  0.1300439E+00
        -11   -1    0    0    0    0  0.00000000000E+00  0.00000000000E+00  0.45593999997E+02  0.45594000000E+02  0.51100000000E-03 0.  1.
         11   -1    0    0    0    0 -0.00000000000E+00 -0.00000000000E+00 -0.45593999997E+02  0.45594000000E+02  0.51100000000E-03 0. -1.
    9900012    2    1    2    0    0 -0.31471821576E+02 -0.25740024915E+02 -0.37601733191E+00  0.50528858039E+02  0.29999994495E+02 0.  0.
         12    1    1    2    0    0  0.31471821576E+02  0.25740024915E+02  0.37601733191E+00  0.40659141961E+02  0.00000000000E+00 0. -1.
         11    1    3    3    0    0  0.22228107309E+00 -0.11715899722E+02 -0.89122717496E+01  0.14722102539E+02  0.51100000000E-03 0. -1.
        -11    1    3    3    0    0 -0.11359645011E+02 -0.35870111270E+01  0.32204111623E+01  0.12340147159E+02  0.51100000000E-03 0.  1.
         12    1    3    3    0    0 -0.20334457639E+02 -0.10437114066E+02  0.53158432554E+01  0.23466608340E+02  0.00000000000E+00 0. -1.
</event>
<event>
 7    1  0.3054835E-011  0.5052885E+02  0.7816164E-02  0.1300439E+00
        -11   -1    0    0    0    0  0.00000000000E+00  0.00000000000E+00  0.45593999997E+02  0.45594000000E+02  0.51100000000E-03 0.  1.
         11   -1    0    0    0    0 -0.00000000000E+00 -0.00000000000E+00 -0.45593999997E+02  0.45594000000E+02  0.51100000000E-03 0. -1.
    9900012    2    1    2    0    0 -0.21279663441E+02  0.13424128190E+02  0.31939548900E+02  0.50528854931E+02  0.29999985048E+02 0.  0.
         12    1    1    2    0    0  0.21279663441E+02 -0.13424128190E+02 -0.31939548900E+02  0.40659145069E+02  0.00000000000E+00 0. -1.
         11    1    3    3    0    0 -0.96233731162E+01  0.11727801320E+02  0.53367815262E+00  0.15180100348E+02  0.51100000000E-03 0. -1.
        -11    1    3    3    0    0 -0.12411845930E+02  0.45868244830E+01  0.25322437794E+02  0.28571292137E+02  0.51100000000E-03 0.  1.
        -12    1    3    3    0    0  0.75555560602E+00 -0.28904976129E+01  0.60834329529E+01  0.67774624467E+01  0.00000000000E+00 0.  1.
</event>
<event>
 7    1  0.3054835E-011  0.5052887E+02  0.7816164E-02  0.1300439E+00
        -11   -1    0    0    0    0  0.00000000000E+00  0.00000000000E+00  0.45593999997E+02  0.45594000000E+02  0.51100000000E-03 0. -1.
         11   -1    0    0    0    0 -0.00000000000E+00 -0.00000000000E+00 -0.45593999997E+02  0.45594000000E+02  0.51100000000E-03 0.  1.
    9900012    2    1    2    0    0 -0.67612616776E+01 -0.93909851468E+01 -0.38977685655E+02  0.50528865227E+02  0.30000016344E+02 0.  0.
         12    1    1    2    0    0  0.67612616776E+01  0.93909851468E+01  0.38977685655E+02  0.40659134773E+02  0.00000000000E+00 0. -1.
         11    1    3    3    0    0 -0.82065509348E+01 -0.83404449736E+01 -0.13406720863E+02  0.17794680811E+02  0.51100000000E-03 0. -1.
        -11    1    3    3    0    0  0.77473933052E+01 -0.30712527739E+01 -0.24688851177E+02  0.26057514642E+02  0.51100000000E-03 0.  1.
        -12    1    3    3    0    0 -0.63021040481E+01  0.20207126007E+01 -0.88211361556E+00  0.66766697745E+01  0.00000000000E+00 0.  1.
</event>
<event>
 7    1  0.3054835E-011  0.5052885E+02  0.7816164E-02  0.1300439E+00
        -11   -1    0    0    0    0  0.00000000000E+00  0.00000000000E+00  0.45593999997E+02  0.45594000000E+02  0.51100000000E-03 0.  1.
         11   -1    0    0    0    0 -0.00000000000E+00 -0.00000000000E+00 -0.45593999997E+02  0.45594000000E+02  0.51100000000E-03 0. -1.
    9900012    2    1    2    0    0  0.15827899993E+02 -0.37056687325E+02  0.54264181316E+01  0.50528849646E+02  0.29999968985E+02 0.  0.
         12    1    1    2    0    0 -0.15827899993E+02  0.37056687325E+02 -0.54264181316E+01  0.40659150354E+02  0.00000000000E+00 0. -1.
         11    1    3    3    0    0  0.34103477947E+01 -0.12330329769E+01  0.19844597241E+01  0.41338750660E+01  0.51100000000E-03 0. -1.
        -11    1    3    3    0    0  0.18514918535E+02 -0.34970410997E+02  0.53959829192E+01  0.39935554154E+02  0.51100000000E-03 0.  1.
        -12    1    3    3    0    0 -0.60973663361E+01 -0.85324335110E+00 -0.19540245117E+01  0.64594204264E+01  0.00000000000E+00 0.  1.
</event>
<event>
 7    1  0.3054835E-011  0.5052886E+02  0.7816164E-02  0.1300439E+00
        -11   -1    0    0    0    0  0.00000000000E+00  0.00000000000E+00  0.45593999997E+02  0.45594000000E+02  0.51100000000E-03 0. -1.
         11   -1    0    0    0    0 -0.00000000000E+00 -0.00000000000E+00 -0.45593999997E+02  0.45594000000E+02  0.51100000000E-03 0.  1.
    9900012    2    1    2    0    0  0.12410964409E+02  0.14801761396E+02 -0.35777665402E+02  0.50528861794E+02  0.30000005911E+02 0.  0.
         12    1    1    2    0    0 -0.12410964409E+02 -0.14801761396E+02  0.35777665402E+02  0.40659138206E+02  0.00000000000E+00 0. -1.
         11    1    3    3    0    0  0.16706294356E+01  0.11274417012E+02 -0.10314996952E+02  0.15372138565E+02  0.51100000000E-03 0. -1.
        -11    1    3    3    0    0  0.14905536614E+02  0.28026752901E+01 -0.26738633623E+02  0.30740600821E+02  0.51100000000E-03 0.  1.
        -12    1    3    3    0    0 -0.41652016409E+01  0.72466909463E+00  0.12759651733E+01  0.44161224088E+01  0.00000000000E+00 0.  1.
</event>
<event>
 7    1  0.3054835E-011  0.5052886E+02  0.7816164E-02  0.1300439E+00
        -11   -1    0    0    0    0  0.00000000000E+00  0.00000000000E+00  0.45593999997E+02  0.45594000000E+02  0.51100000000E-03 0. -1.
         11   -1    0    0    0    0 -0.00000000000E+00 -0.00000000000E+00 -0.45593999997E+02  0.45594000000E+02  0.51100000000E-03 0.  1.
    9900012    2    1    2    0    0  0.27020089221E+02 -0.17538883807E+01 -0.30331576490E+02  0.50528857383E+02  0.29999992502E+02 0.  0.
         12    1    1    2    0    0 -0.27020089221E+02  0.17538883807E+01  0.30331576490E+02  0.40659142617E+02  0.00000000000E+00 0. -1.
         11    1    3    3    0    0  0.17561143753E+02  0.35742739532E+01 -0.15433217923E+02  0.23650653689E+02  0.51100000000E-03 0. -1.
        -11    1    3    3    0    0  0.18670876725E+01 -0.65289789749E+01 -0.17493811914E+02  0.18765581216E+02  0.51100000000E-03 0.  1.
         12    1    3    3    0    0  0.75918577950E+01  0.12008166410E+01  0.25954533471E+01  0.81126224775E+01  0.00000000000E+00 0. -1.
</event>
<event>
 7    1  0.3054835E-011  0.5052885E+02  0.7816164E-02  0.1300439E+00
        -11   -1    0    0    0    0  0.00000000000E+00  0.00000000000E+00  0.45593999997E+02  0.45594000000E+02  0.51100000000E-03 0. -1.
         11   -1    0    0    0    0 -0.00000000000E+00 -0.00000000000E+00 -0.45593999997E+02  0.45594000000E+02  0.51100000000E-03 0.  1.
    9900012    2    1    2    0    0  0.28121473195E+02  0.18697482508E+02 -0.22644057545E+02  0.50528850367E+02  0.29999971174E+02 0.  0.
         12    1    1    2    0    0 -0.28121473195E+02 -0.18697482508E+02  0.22644057545E+02  0.40659149633E+02  0.00000000000E+00 0. -1.
         11    1    3    3    0    0  0.96946933564E+00  0.27102364479E+01 -0.59761130813E+01  0.66331877870E+01  0.51100000000E-03 0. -1.
        -11    1    3    3    0    0  0.18539345214E+01  0.14515971533E+01  0.63242826453E+01  0.67483893445E+01  0.51100000000E-03 0.  1.
        -12    1    3    3    0    0  0.25298069338E+02  0.14535648907E+02 -0.22992227109E+02  0.37147273235E+02  0.00000000000E+00 0.  1.
</event>
<event>
 7    1  0.3054835E-011  0.5052884E+02  0.7816164E-02  0.1300439E+00
        -11   -1    0    0    0    0  0.00000000000E+00  0.00000000000E+00  0.45593999997E+02  0.45594000000E+02  0.51100000000E-03 0.  1.
         11   -1    0    0    0    0 -0.00000000000E+00 -0.00000000000E+00 -0.45593999997E+02  0.45594000000E+02  0.51100000000E-03 0. -1.
    9900012    2    1    2    0    0 -0.29935337474E+02 -0.24326594389E+02  0.12855327112E+02  0.50528842859E+02  0.29999948355E+02 0.  0.
         12    1    1    2    0    0  0.29935337474E+02  0.24326594389E+02 -0.12855327112E+02  0.40659157141E+02  0.00000000000E+00 0. -1.
         11    1    3    3    0    0 -0.20357502181E+02 -0.22498416147E+02  0.52232000085E+01  0.30787796978E+02  0.51100000000E-03 0. -1.
        -11    1    3    3    0    0  0.23499731204E+01  0.54702822809E+00  0.71756973361E+01  0.75704851938E+01  0.51100000000E-03 0.  1.
         12    1    3    3    0    0 -0.11927808413E+02 -0.23752064705E+01  0.45642976738E+00  0.12170560687E+02  0.00000000000E+00 0. -1.
</event>
<event>
 7    1  0.3054835E-011  0.5052887E+02  0.7816164E-02  0.1300439E+00
        -11   -1    0    0    0    0  0.00000000000E+00  0.00000000000E+00  0.45593999997E+02  0.45594000000E+02  0.51100000000E-03 0.  1.
         11   -1    0    0    0    0 -0.00000000000E+00 -0.00000000000E+00 -0.45593999997E+02  0.45594000000E+02  0.51100000000E-03 0. -1.
    9900012    2    1    2    0    0 -0.25979651834E+02  0.59369666876E+01  0.30707902175E+02  0.50528866477E+02  0.30000020143E+02 0.  0.
         12    1    1    2    0    0  0.25979651834E+02 -0.59369666876E+01 -0.30707902175E+02  0.40659133523E+02  0.00000000000E+00 0. -1.
         11    1    3    3    0    0 -0.55319794546E+01  0.11203501856E+02  0.28620307357E+01  0.12818442601E+02  0.51100000000E-03 0. -1.
        -11    1    3    3    0    0 -0.42537454796E+01 -0.77109073896E+01  0.73191892362E+01  0.11450894057E+02  0.51100000000E-03 0.  1.
        -12    1    3    3    0    0 -0.16193926899E+02  0.24443722208E+01  0.20526682204E+02  0.26259529818E+02  0.00000000000E+00 0.  1.
</event>
<event>
 7    1  0.3054835E-011  0.5052886E+02  0.7816164E-02  0.1300439E+00
        -11   -1    0    0    0    0  0.00000000000E+00  0.00000000000E+00  0.45593999997E+02  0.45594000000E+02  0.51100000000E-03 0.  1.
         11   -1    0    0    0    0 -0.00000000000E+00 -0.00000000000E+00 -0.45593999997E+02  0.45594000000E+02  0.51100000000E-03 0. -1.
    9900012    2    1    2    0    0  0.23294695051E+02  0.18906109250E+02  0.27442333873E+02  0.50528862369E+02  0.30000007657E+02 0.  0.
         12    1    1    2    0    0 -0.23294695051E+02 -0.18906109250E+02 -0.27442333873E+02  0.40659137631E+02  0.00000000000E+00 0. -1.
         11    1    3    3    0    0  0.39011962074E+01  0.97833589978E+01  0.11130929166E+01  0.10591148249E+02  0.51100000000E-03 0. -1.
        -11    1    3    3    0    0  0.14782030511E+02 -0.33288063980E-01  0.25723215581E+02  0.29668052754E+02  0.51100000000E-03 0.  1.
        -12    1    3    3    0    0  0.46114683326E+01  0.91560383159E+01  0.60602537595E+00  0.10269661366E+02  0.00000000000E+00 0.  1.
</event>
<event>
 7    1  0.3054835E-011  0.5052886E+02  0.7816164E-02  0.1300439E+00
        -11   -1    0    0    0    0  0.00000000000E+00  0.00000000000E+00  0.45593999997E+02  0.45594000000E+02  0.51100000000E-03 0.  1.
         11   -1    0    0    0    0 -0.00000000000E+00 -0.00000000000E+00 -0.45593999997E+02  0.45594000000E+02  0.51100000000E-03 0. -1.
    9900012    2    1    2    0    0 -0.23820694724E+02 -0.23952867134E+02  0.22627416530E+02  0.50528864251E+02  0.30000013376E+02 0.  0.
         12    1    1    2    0    0  0.23820694724E+02  0.23952867134E+02 -0.22627416530E+02  0.40659135749E+02  0.00000000000E+00 0. -1.
         11    1    3    3    0    0 -0.45862238739E+01 -0.19314986916E+01  0.57114637686E+00  0.50090263587E+01  0.51100000000E-03 0. -1.
        -11    1    3    3    0    0 -0.25136274205E+02 -0.11853131058E+02  0.17867655177E+02  0.33039099542E+02  0.51100000000E-03 0.  1.
        -12    1    3    3    0    0  0.59018033546E+01 -0.10168237384E+02  0.41886149764E+01  0.12480738350E+02  0.00000000000E+00 0.  1.
</event>
<event>
 7    1  0.3054835E-011  0.5052886E+02  0.7816164E-02  0.1300439E+00
        -11   -1    0    0    0    0  0.00000000000E+00  0.00000000000E+00  0.45593999997E+02  0.45594000000E+02  0.51100000000E-03 0. -1.
         11   -1    0    0    0    0 -0.00000000000E+00 -0.00000000000E+00 -0.45593999997E+02  0.45594000000E+02  0.51100000000E-03 0.  1.
    9900012    2    1    2    0    0 -0.21772414174E+02 -0.21294593511E+02 -0.26938217567E+02  0.50528864527E+02  0.30000014216E+02 0.  0.
         12    1    1    2    0    0  0.21772414174E+02  0.21294593511E+02  0.26938217567E+02  0.40659135473E+02  0.00000000000E+00 0. -1.
         11    1    3    3    0    0 -0.35240423844E+01 -0.19717133474E+01 -0.22221921260E+02  0.22585843199E+02  0.51100000000E-03 0. -1.
        -11    1    3    3    0    0 -0.35460065177E+01 -0.13629830628E+01 -0.26686551236E+01  0.46425860771E+01  0.51100000000E-03 0.  1.
         12    1    3    3    0    0 -0.14702365272E+02 -0.17959897101E+02 -0.20476411827E+01  0.23300435251E+02  0.00000000000E+00 0. -1.
</event>
