<event>
 7    1  0.3032584E-015  0.9000771E+02  0.7816164E-02  0.1186339E+00
        -11   -1    0    0    0    0  0.00000000000E+00  0.00000000000E+00  0.45593999997E+02  0.45594000000E+02  0.51100000000E-03 0. -1.
         11   -1    0    0    0    0 -0.00000000000E+00 -0.00000000000E+00 -0.45593999997E+02  0.45594000000E+02  0.51100000000E-03 0.  1.
    9900012    2    1    2    0    0 -0.11714739102E+01  0.86212026451E-01 -0.11537850035E+00  0.90007705192E+02  0.89999966100E+02 0.  0.
         12    1    1    2    0    0  0.11714739102E+01 -0.86212026451E-01  0.11537850035E+00  0.11802948081E+01  0.00000000000E+00 0. -1.
         11    1    3    3    0    0 -0.27744648717E+01 -0.53582816740E+01  0.59313823327E+01  0.84610953464E+01  0.51100000000E-03 0. -1.
        -11    1    3    3    0    0  0.41109778564E+02  0.71299654741E+01 -0.46152731687E+01  0.41977982895E+02  0.51100000000E-03 0.  1.
         12    1    3    3    0    0 -0.39506787603E+02 -0.16854717737E+01 -0.14314876644E+01  0.39568626950E+02  0.00000000000E+00 0. -1.
</event>
<event>
 7    1  0.3032584E-015  0.9000771E+02  0.7816164E-02  0.1186339E+00
        -11   -1    0    0    0    0  0.00000000000E+00  0.00000000000E+00  0.45593999997E+02  0.45594000000E+02  0.51100000000E-03 0.  1.
         11   -1    0    0    0    0 -0.00000000000E+00 -0.00000000000E+00 -0.45593999997E+02  0.45594000000E+02  0.51100000000E-03 0. -1.
    9900012    2    1    2    0    0  0.68300316831E+00 -0.79239448271E+00  0.54652932717E+00  0.90007713319E+02  0.89999974335E+02 0.  0.
         12    1    1    2    0    0 -0.68300316831E+00  0.79239448271E+00 -0.54652932717E+00  0.11802866811E+01  0.00000000000E+00 0. -1.
         11    1    3    3    0    0 -0.34601528249E+02  0.13427741670E+02 -0.22144745110E+01  0.37181633922E+02  0.51100000000E-03 0. -1.
        -11    1    3    3    0    0 -0.51918587437E+01  0.55245056677E+01  0.17435254949E+01  0.77791671469E+01  0.51100000000E-03 0.  1.
        -12    1    3    3    0    0  0.40476390161E+02 -0.19744641821E+02  0.10174783433E+01  0.45046912250E+02  0.00000000000E+00 0.  1.
</event>
<event>
 7    1  0.3032584E-015  0.9000774E+02  0.7816164E-02  0.1186339E+00
        -11   -1    0    0    0    0  0.00000000000E+00  0.00000000000E+00  0.45593999997E+02  0.45594000000E+02  0.51100000000E-03 0.  1.
         11   -1    0    0    0    0 -0.00000000000E+00 -0.00000000000E+00 -0.45593999997E+02  0.45594000000E+02  0.51100000000E-03 0. -1.
    9900012    2    1    2    0    0  0.11260506163E+01 -0.86305496807E-01 -0.34290341974E+00  0.90007736731E+02  0.89999998056E+02 0.  0.
         12    1    1    2    0    0 -0.11260506163E+01  0.86305496807E-01  0.34290341974E+00  0.11802632692E+01  0.00000000000E+00 0. -1.
         11    1    3    3    0    0 -0.31905522033E+01 -0.85827498095E+01 -0.92661313103E+01  0.13027064419E+02  0.51100000000E-03 0. -1.
        -11    1    3    3    0    0 -0.34454120954E+02  0.13962335630E+02  0.66057050155E+01  0.37758027040E+02  0.51100000000E-03 0.  1.
         12    1    3    3    0    0  0.38770723774E+02 -0.54658913168E+01  0.23175228750E+01  0.39222645272E+02  0.00000000000E+00 0. -1.
</event>
<event>
 7    1  0.3032584E-015  0.9000777E+02  0.7816164E-02  0.1186339E+00
        -11   -1    0    0    0    0  0.00000000000E+00  0.00000000000E+00  0.45593999997E+02  0.45594000000E+02  0.51100000000E-03 0. -1.
         11   -1    0    0    0    0 -0.00000000000E+00 -0.00000000000E+00 -0.45593999997E+02  0.45594000000E+02  0.51100000000E-03 0.  1.
    9900012    2    1    2    0    0 -0.50140764355E+00 -0.92539493153E+00  0.53402336529E+00  0.90007768515E+02  0.90000030259E+02 0.  0.
         12    1    1    2    0    0  0.50140764355E+00  0.92539493153E+00 -0.53402336529E+00  0.11802314853E+01  0.00000000000E+00 0. -1.
         11    1    3    3    0    0 -0.13587168941E+02  0.23949928222E+02  0.43765949285E+01  0.27881262616E+02  0.51100000000E-03 0. -1.
        -11    1    3    3    0    0  0.79945930059E+01  0.10451670138E+02  0.16452911913E+02  0.21067729747E+02  0.51100000000E-03 0.  1.
        -12    1    3    3    0    0  0.50911682913E+01 -0.35326993291E+02 -0.20295483476E+02  0.41058776152E+02  0.00000000000E+00 0.  1.
</event>
<event>
 7    1  0.4028175E-015  0.9000785E+02  0.7816164E-02  0.1186339E+00
        -11   -1    0    0    0    0  0.00000000000E+00  0.00000000000E+00  0.45593999997E+02  0.45594000000E+02  0.51100000000E-03 0.  1.
         11   -1    0    0    0    0 -0.00000000000E+00 -0.00000000000E+00 -0.45593999997E+02  0.45594000000E+02  0.51100000000E-03 0. -1.
    9900012    2    1    2    0    0 -0.39872486911E+00  0.11103667695E+01  0.29163498609E-01  0.90007853232E+02  0.90000116095E+02 0.  0.
         12    1    1    2    0    0  0.39872486911E+00 -0.11103667695E+01 -0.29163498609E-01  0.11801467679E+01  0.00000000000E+00 0. -1.
         11    1    3    3    0    0  0.39386699237E+02 -0.12680456303E+02  0.34478289933E+01  0.41521001600E+02  0.51100000000E-03 0. -1.
        -11    1    3    3    0    0 -0.29895836157E+01  0.26436888732E+01 -0.88020595038E+01  0.96645203101E+01  0.51100000000E-03 0.  1.
        -12    1    3    3    0    0 -0.36795840490E+02  0.11147134199E+02  0.53833940091E+01  0.38822331322E+02  0.00000000000E+00 0.  1.
</event>
<event>
 7    1  0.3032584E-015  0.9000768E+02  0.7816164E-02  0.1186339E+00
        -11   -1    0    0    0    0  0.00000000000E+00  0.00000000000E+00  0.45593999997E+02  0.45594000000E+02  0.51100000000E-03 0. -1.
         11   -1    0    0    0    0 -0.00000000000E+00 -0.00000000000E+00 -0.45593999997E+02  0.45594000000E+02  0.51100000000E-03 0.  1.
    9900012    2    1    2    0    0 -0.36559247635E-01  0.21706637567E+00 -0.11596137914E+01  0.90007678631E+02  0.89999939188E+02 0.  0.
         12    1    1    2    0    0  0.36559247635E-01 -0.21706637567E+00  0.11596137914E+01  0.11803213694E+01  0.00000000000E+00 0. -1.
         11    1    3    3    0    0  0.12008475023E+02  0.36775490450E+01  0.89749324737E+00  0.12591002094E+02  0.51100000000E-03 0. -1.
        -11    1    3    3    0    0  0.20623620028E+02 -0.23115911624E+02 -0.18294368554E+02  0.35977256626E+02  0.51100000000E-03 0.  1.
         12    1    3    3    0    0 -0.32668654298E+02  0.19655428954E+02  0.16237261516E+02  0.41439419911E+02  0.00000000000E+00 0. -1.
</event>
<event>
 7    1  0.3032584E-015  0.9000781E+02  0.7816164E-02  0.1186339E+00
        -11   -1    0    0    0    0  0.00000000000E+00  0.00000000000E+00  0.45593999997E+02  0.45594000000E+02  0.51100000000E-03 0. -1.
         11   -1    0    0    0    0 -0.00000000000E+00 -0.00000000000E+00 -0.45593999997E+02  0.45594000000E+02  0.51100000000E-03 0.  1.
    9900012    2    1    2    0    0  0.28607922266E+00 -0.82088632583E+00 -0.79821876583E+00  0.90007809812E+02  0.90000072102E+02 0.  0.
         12    1    1    2    0    0 -0.28607922266E+00  0.82088632583E+00  0.79821876583E+00  0.11801901879E+01  0.00000000000E+00 0. -1.
         11    1    3    3    0    0 -0.81361762406E+01  0.80048404980E+01 -0.56492836333E+01  0.12735353982E+02  0.51100000000E-03 0. -1.
        -11    1    3    3    0    0 -0.14270068234E+02  0.28740075743E+02  0.86134783494E+01  0.33223768761E+02  0.51100000000E-03 0.  1.
         12    1    3    3    0    0  0.22692323697E+02 -0.37565802567E+02 -0.37624134819E+01  0.44048687069E+02  0.00000000000E+00 0. -1.
</event>
<event>
 7    1  0.3032584E-015  0.9000787E+02  0.7816164E-02  0.1186339E+00
        -11   -1    0    0    0    0  0.00000000000E+00  0.00000000000E+00  0.45593999997E+02  0.45594000000E+02  0.51100000000E-03 0.  1.
         11   -1    0    0    0    0 -0.00000000000E+00 -0.00000000000E+00 -0.45593999997E+02  0.45594000000E+02  0.51100000000E-03 0. -1.
    9900012    2    1    2    0    0  0.31795382544E+00 -0.76632904351E+00  0.83925593653E+00  0.90007870615E+02  0.90000133707E+02 0.  0.
         12    1    1    2    0    0 -0.31795382544E+00  0.76632904351E+00 -0.83925593653E+00  0.11801293849E+01  0.00000000000E+00 0. -1.
         11    1    3    3    0    0 -0.20525300618E+02  0.20289271050E+02  0.14084964642E+02  0.32114307005E+02  0.51100000000E-03 0. -1.
        -11    1    3    3    0    0  0.53929642932E+01  0.15134851230E+02 -0.87280648259E+01  0.18284608322E+02  0.51100000000E-03 0.  1.
        -12    1    3    3    0    0  0.15450290150E+02 -0.36190451324E+02 -0.45176438792E+01  0.39608955288E+02  0.00000000000E+00 0.  1.
</event>
<event>
 7    1  0.3032584E-015  0.9000774E+02  0.7816164E-02  0.1186339E+00
        -11   -1    0    0    0    0  0.00000000000E+00  0.00000000000E+00  0.45593999997E+02  0.45594000000E+02  0.51100000000E-03 0.  1.
         11   -1    0    0    0    0 -0.00000000000E+00 -0.00000000000E+00 -0.45593999997E+02  0.45594000000E+02  0.51100000000E-03 0. -1.
    9900012    2    1    2    0    0  0.10507544128E+01  0.40060787816E+00 -0.35838315951E+00  0.90007741555E+02  0.90000002943E+02 0.  0.
         12    1    1    2    0    0 -0.10507544128E+01 -0.40060787816E+00  0.35838315951E+00  0.11802584450E+01  0.00000000000E+00 0. -1.
         11    1    3    3    0    0 -0.65819428398E+01 -0.10400531642E+02  0.27568144789E+01  0.12613209596E+02  0.51100000000E-03 0. -1.
        -11    1    3    3    0    0 -0.11927055997E+02 -0.29884921765E+02 -0.19459538536E+01  0.32235848838E+02  0.51100000000E-03 0.  1.
         12    1    3    3    0    0  0.19559753250E+02  0.40686061285E+02 -0.11692437848E+01  0.45158683120E+02  0.00000000000E+00 0. -1.
</event>
<event>
 7    1  0.3032584E-015  0.9000778E+02  0.7816164E-02  0.1186339E+00
        -11   -1    0    0    0    0  0.00000000000E+00  0.00000000000E+00  0.45593999997E+02  0.45594000000E+02  0.51100000000E-03 0.  1.
         11   -1    0    0    0    0 -0.00000000000E+00 -0.00000000000E+00 -0.45593999997E+02  0.45594000000E+02  0.51100000000E-03 0. -1.
    9900012    2    1    2    0    0  0.54506457449E+00  0.10464238300E+01  0.28727893885E-01  0.90007778193E+02  0.90000040065E+02 0.  0.
         12    1    1    2    0    0 -0.54506457449E+00 -0.10464238300E+01 -0.28727893885E-01  0.11802218072E+01  0.00000000000E+00 0. -1.
         11    1    3    3    0    0 -0.56004332283E+01  0.29161062547E+01 -0.71723488372E+01  0.95556850166E+01  0.51100000000E-03 0. -1.
        -11    1    3    3    0    0 -0.18412247988E+02  0.22782508857E+02 -0.20685270129E+02  0.35859921728E+02  0.51100000000E-03 0.  1.
         12    1    3    3    0    0  0.24557745791E+02 -0.24652191281E+02  0.27886346860E+02  0.44592171448E+02  0.00000000000E+00 0. -1.
</event>
<event>
 7    1  0.3032584E-015  0.9000761E+02  0.7816164E-02  0.1186339E+00
        -11   -1    0    0    0    0  0.00000000000E+00  0.00000000000E+00  0.45593999997E+02  0.45594000000E+02  0.51100000000E-03 0. -1.
         11   -1    0    0    0    0 -0.00000000000E+00 -0.00000000000E+00 -0.45593999997E+02  0.45594000000E+02  0.51100000000E-03 0.  1.
    9900012    2    1    2    0    0  0.93702805974E+00 -0.49601211916E+00 -0.51891592396E+00  0.90007608818E+02  0.89999868454E+02 0.  0.
         12    1    1    2    0    0 -0.93702805974E+00  0.49601211916E+00  0.51891592396E+00  0.11803911823E+01  0.00000000000E+00 0. -1.
         11    1    3    3    0    0  0.48351853364E+01 -0.11438568965E+01  0.75770359142E+01  0.90608442953E+01  0.51100000000E-03 0. -1.
        -11    1    3    3    0    0 -0.24098466564E+01  0.40495944710E+02 -0.60726685155E+01  0.41019583153E+02  0.51100000000E-03 0.  1.
         12    1    3    3    0    0 -0.14883106203E+01 -0.39848099933E+02 -0.20232833226E+01  0.39927181370E+02  0.00000000000E+00 0. -1.
</event>
<event>
 7    1  0.3032584E-015  0.9000779E+02  0.7816164E-02  0.1186339E+00
        -11   -1    0    0    0    0  0.00000000000E+00  0.00000000000E+00  0.45593999997E+02  0.45594000000E+02  0.51100000000E-03 0.  1.
         11   -1    0    0    0    0 -0.00000000000E+00 -0.00000000000E+00 -0.45593999997E+02  0.45594000000E+02  0.51100000000E-03 0. -1.
    9900012    2    1    2    0    0  0.71142415535E-01 -0.10893214607E+01  0.44855513049E+00  0.90007794851E+02  0.90000056943E+02 0.  0.
         12    1    1    2    0    0 -0.71142415535E-01  0.10893214607E+01 -0.44855513049E+00  0.11802051487E+01  0.00000000000E+00 0. -1.
         11    1    3    3    0    0  0.96574727658E+01 -0.37447223395E+02  0.48690084459E+01  0.38977795778E+02  0.51100000000E-03 0. -1.
        -11    1    3    3    0    0 -0.20810503303E+01 -0.30649589496E+01 -0.98591475703E+01  0.10532214151E+02  0.51100000000E-03 0.  1.
        -12    1    3    3    0    0 -0.75052800200E+01  0.39422860884E+02  0.54386942549E+01  0.40497784923E+02  0.00000000000E+00 0.  1.
</event>
<event>
 7    1  0.3032584E-015  0.9000765E+02  0.7816164E-02  0.1186339E+00
        -11   -1    0    0    0    0  0.00000000000E+00  0.00000000000E+00  0.45593999997E+02  0.45594000000E+02  0.51100000000E-03 0.  1.
         11   -1    0    0    0    0 -0.00000000000E+00 -0.00000000000E+00 -0.45593999997E+02  0.45594000000E+02  0.51100000000E-03 0. -1.
    9900012    2    1    2    0    0 -0.81269227332E+00 -0.78056998510E+00 -0.35136501713E+00  0.90007654454E+02  0.89999914693E+02 0.  0.
         12    1    1    2    0    0  0.81269227332E+00  0.78056998510E+00  0.35136501713E+00  0.11803455460E+01  0.00000000000E+00 0. -1.
         11    1    3    3    0    0  0.66333704963E+01 -0.46712945354E+01 -0.68293384113E+01  0.10604831926E+02  0.51100000000E-03 0. -1.
        -11    1    3    3    0    0  0.20618764650E+02  0.25740933020E+02  0.22976184709E+02  0.40194951828E+02  0.51100000000E-03 0.  1.
         12    1    3    3    0    0 -0.28064827420E+02 -0.21850208470E+02 -0.16498211314E+02  0.39207870700E+02  0.00000000000E+00 0. -1.
</event>
<event>
 7    1  0.3032584E-015  0.9000766E+02  0.7816164E-02  0.1186339E+00
        -11   -1    0    0    0    0  0.00000000000E+00  0.00000000000E+00  0.45593999997E+02  0.45594000000E+02  0.51100000000E-03 0.  1.
         11   -1    0    0    0    0 -0.00000000000E+00 -0.00000000000E+00 -0.45593999997E+02  0.45594000000E+02  0.51100000000E-03 0. -1.
    9900012    2    1    2    0    0  0.52838216143E+00 -0.44281019579E+00  0.95809411162E+00  0.90007655599E+02  0.89999915853E+02 0.  0.
         12    1    1    2    0    0 -0.52838216143E+00  0.44281019579E+00 -0.95809411162E+00  0.11803444009E+01  0.00000000000E+00 0. -1.
         11    1    3    3    0    0  0.15253816093E+02  0.33040825080E+02 -0.96409802627E+01  0.37647357517E+02  0.51100000000E-03 0. -1.
        -11    1    3    3    0    0  0.53452361423E+01 -0.70143262822E+00  0.12769376317E+02  0.13860754991E+02  0.51100000000E-03 0.  1.
        -12    1    3    3    0    0 -0.20070670074E+02 -0.32782202648E+02 -0.21703019426E+01  0.38499543090E+02  0.00000000000E+00 0.  1.
</event>
<event>
 7    1  0.3032584E-015  0.9000775E+02  0.7816164E-02  0.1186339E+00
        -11   -1    0    0    0    0  0.00000000000E+00  0.00000000000E+00  0.45593999997E+02  0.45594000000E+02  0.51100000000E-03 0. -1.
         11   -1    0    0    0    0 -0.00000000000E+00 -0.00000000000E+00 -0.45593999997E+02  0.45594000000E+02  0.51100000000E-03 0.  1.
    9900012    2    1    2    0    0 -0.46670533199E+00 -0.29005862628E+00 -0.10445277547E+01  0.90007751677E+02  0.90000013199E+02 0.  0.
         12    1    1    2    0    0  0.46670533199E+00  0.29005862628E+00  0.10445277547E+01  0.11802483230E+01  0.00000000000E+00 0. -1.
         11    1    3    3    0    0  0.44436321212E+01  0.71983193588E+01  0.42374974510E+01  0.94613980430E+01  0.51100000000E-03 0. -1.
        -11    1    3    3    0    0  0.98042409278E+01  0.31523477394E+02 -0.17141462047E+02  0.37197882851E+02  0.51100000000E-03 0.  1.
         12    1    3    3    0    0 -0.14714578381E+02 -0.39011855379E+02  0.11859436842E+02  0.43348470783E+02  0.00000000000E+00 0. -1.
</event>
<event>
 7    1  0.3032584E-015  0.9000796E+02  0.7816164E-02  0.1186339E+00
        -11   -1    0    0    0    0  0.00000000000E+00  0.00000000000E+00  0.45593999997E+02  0.45594000000E+02  0.51100000000E-03 0.  1.
         11   -1    0    0    0    0 -0.00000000000E+00 -0.00000000000E+00 -0.45593999997E+02  0.45594000000E+02  0.51100000000E-03 0. -1.
    9900012    2    1    2    0    0  0.83963019194E+00 -0.78980647392E+00  0.25244100526E+00  0.90007957803E+02  0.90000222046E+02 0.  0.
         12    1    1    2    0    0 -0.83963019194E+00  0.78980647392E+00 -0.25244100526E+00  0.11800421970E+01  0.00000000000E+00 0. -1.
         11    1    3    3    0    0  0.21668105385E+02 -0.40784111572E+01 -0.33305528702E+02  0.39942439472E+02  0.51100000000E-03 0. -1.
        -11    1    3    3    0    0 -0.38089387924E+01  0.11381433781E+02  0.49903868445E+00  0.12012247480E+02  0.51100000000E-03 0.  1.
        -12    1    3    3    0    0 -0.17019536401E+02 -0.80928290982E+01  0.33058931023E+02  0.38053270852E+02  0.00000000000E+00 0.  1.
</event>
<event>
 7    1  0.3032584E-015  0.9000780E+02  0.7816164E-02  0.1186339E+00
        -11   -1    0    0    0    0  0.00000000000E+00  0.00000000000E+00  0.45593999997E+02  0.45594000000E+02  0.51100000000E-03 0. -1.
         11   -1    0    0    0    0 -0.00000000000E+00 -0.00000000000E+00 -0.45593999997E+02  0.45594000000E+02  0.51100000000E-03 0.  1.
    9900012    2    1    2    0    0 -0.33125117993E+00  0.62517551235E+00 -0.94461022347E+00  0.90007804999E+02  0.90000067225E+02 0.  0.
         12    1    1    2    0    0  0.33125117993E+00 -0.62517551235E+00  0.94461022347E+00  0.11801950007E+01  0.00000000000E+00 0. -1.
         11    1    3    3    0    0  0.38430951552E+02 -0.13917483991E+01 -0.11590132398E+02  0.40164737894E+02  0.51100000000E-03 0. -1.
        -11    1    3    3    0    0 -0.84100551378E+00  0.76227855274E+01  0.85020873337E+01  0.11449875054E+02  0.51100000000E-03 0.  1.
        -12    1    3    3    0    0 -0.37921197218E+02 -0.56058616159E+01  0.21434348410E+01  0.38393192051E+02  0.00000000000E+00 0.  1.
</event>
<event>
 7    1  0.3032584E-015  0.9000776E+02  0.7816164E-02  0.1186339E+00
        -11   -1    0    0    0    0  0.00000000000E+00  0.00000000000E+00  0.45593999997E+02  0.45594000000E+02  0.51100000000E-03 0. -1.
         11   -1    0    0    0    0 -0.00000000000E+00 -0.00000000000E+00 -0.45593999997E+02  0.45594000000E+02  0.51100000000E-03 0.  1.
    9900012    2    1    2    0    0  0.31751606691E+00  0.51479444690E+00 -0.10134782991E+01  0.90007759330E+02  0.90000020954E+02 0.  0.
         12    1    1    2    0    0 -0.31751606691E+00 -0.51479444690E+00  0.10134782991E+01  0.11802406695E+01  0.00000000000E+00 0. -1.
         11    1    3    3    0    0  0.66147861256E+01  0.62901616141E+01 -0.30162704608E+00  0.91330448239E+01  0.51100000000E-03 0. -1.
        -11    1    3    3    0    0  0.33715873054E+02  0.13286297525E+02  0.32033327275E+01  0.36380587386E+02  0.51100000000E-03 0.  1.
         12    1    3    3    0    0 -0.40013143113E+02 -0.19061664692E+02 -0.39151839805E+01  0.44494127121E+02  0.00000000000E+00 0. -1.
</event>
<event>
 7    1  0.3032584E-015  0.9000755E+02  0.7816164E-02  0.1186339E+00
        -11   -1    0    0    0    0  0.00000000000E+00  0.00000000000E+00  0.45593999997E+02  0.45594000000E+02  0.51100000000E-03 0. -1.
         11   -1    0    0    0    0 -0.00000000000E+00 -0.00000000000E+00 -0.45593999997E+02  0.45594000000E+02  0.51100000000E-03 0.  1.
    9900012    2    1    2    0    0  0.79895040845E+00  0.83033810567E+00  0.25627399029E+00  0.90007551152E+02  0.89999810027E+02 0.  0.
         12    1    1    2    0    0 -0.79895040845E+00 -0.83033810567E+00 -0.25627399029E+00  0.11804488481E+01  0.00000000000E+00 0. -1.
         11    1    3    3    0    0 -0.11544949275E+02  0.16111626476E+02  0.26637063828E+02  0.33202462727E+02  0.51100000000E-03 0. -1.
        -11    1    3    3    0    0 -0.69468985452E+01  0.13755176270E+02 -0.91047966885E+01  0.17898647899E+02  0.51100000000E-03 0.  1.
        -12    1    3    3    0    0  0.19290798228E+02 -0.29036464641E+02 -0.17275993150E+02  0.38906440526E+02  0.00000000000E+00 0.  1.
</event>
<event>
 7    1  0.3032584E-015  0.9000773E+02  0.7816164E-02  0.1186339E+00
        -11   -1    0    0    0    0  0.00000000000E+00  0.00000000000E+00  0.45593999997E+02  0.45594000000E+02  0.51100000000E-03 0. -1.
         11   -1    0    0    0    0 -0.00000000000E+00 -0.00000000000E+00 -0.45593999997E+02  0.45594000000E+02  0.51100000000E-03 0.  1.
    9900012    2    1    2    0    0 -0.82068419300E+00  0.21752528243E+00 -0.81988126689E+00  0.90007726691E+02  0.89999987883E+02 0.  0.
         12    1    1    2    0    0  0.82068419300E+00 -0.21752528243E+00  0.81988126689E+00  0.11802733094E+01  0.00000000000E+00 0. -1.
         11    1    3    3    0    0 -0.92088792890E+01  0.25454360966E+01 -0.97846550076E+01  0.13675605162E+02  0.51100000000E-03 0. -1.
        -11    1    3    3    0    0  0.64901364930E+00 -0.37822705648E+02 -0.33416688374E+01  0.37975584684E+02  0.51100000000E-03 0.  1.
         12    1    3    3    0    0  0.77391814467E+01  0.35494794833E+02  0.12306442578E+02  0.38356536844E+02  0.00000000000E+00 0. -1.
</event>
<event>
 7    1  0.3032584E-015  0.9000849E+02  0.7816164E-02  0.1186338E+00
        -11   -1    0    0    0    0  0.00000000000E+00  0.00000000000E+00  0.45593999997E+02  0.45594000000E+02  0.51100000000E-03 0. -1.
         11   -1    0    0    0    0 -0.00000000000E+00 -0.00000000000E+00 -0.45593999997E+02  0.45594000000E+02  0.51100000000E-03 0.  1.
    9900012    2    1    2    0    0  0.12117947639E+00  0.57524119031E+00 -0.10225759192E+01  0.90008488066E+02  0.90000759305E+02 0.  0.
         12    1    1    2    0    0 -0.12117947639E+00 -0.57524119031E+00  0.10225759192E+01  0.11795119343E+01  0.00000000000E+00 0. -1.
         11    1    3    3    0    0 -0.33180392450E+02  0.13045169179E+02 -0.83918868735E+01  0.36627020731E+02  0.51100000000E-03 0. -1.
        -11    1    3    3    0    0 -0.66599921361E+01  0.26647158529E+01  0.78678415634E+01  0.10647024794E+02  0.51100000000E-03 0.  1.
        -12    1    3    3    0    0  0.39961564063E+02 -0.15134643841E+02 -0.49853060912E+00  0.42734442541E+02  0.00000000000E+00 0.  1.
</event>
<event>
 7    1  0.3032584E-015  0.9000778E+02  0.7816164E-02  0.1186339E+00
        -11   -1    0    0    0    0  0.00000000000E+00  0.00000000000E+00  0.45593999997E+02  0.45594000000E+02  0.51100000000E-03 0. -1.
         11   -1    0    0    0    0 -0.00000000000E+00 -0.00000000000E+00 -0.45593999997E+02  0.45594000000E+02  0.51100000000E-03 0.  1.
    9900012    2    1    2    0    0  0.12649955796E+00  0.22711742961E+00 -0.11512358328E+01  0.90007776120E+02  0.90000037964E+02 0.  0.
         12    1    1    2    0    0 -0.12649955796E+00 -0.22711742961E+00  0.11512358328E+01  0.11802238803E+01  0.00000000000E+00 0. -1.
         11    1    3    3    0    0 -0.26908434374E+02  0.26190317440E+02 -0.19203285755E+01  0.37598992409E+02  0.51100000000E-03 0. -1.
        -11    1    3    3    0    0 -0.63318664089E+01 -0.23781022653E+01  0.84590976903E+01  0.10830708038E+02  0.51100000000E-03 0.  1.
        -12    1    3    3    0    0  0.33366800341E+02 -0.23585097745E+02 -0.76900049476E+01  0.41578075673E+02  0.00000000000E+00 0.  1.
</event>
<event>
 7    1  0.3032584E-015  0.9000769E+02  0.7816164E-02  0.1186339E+00
        -11   -1    0    0    0    0  0.00000000000E+00  0.00000000000E+00  0.45593999997E+02  0.45594000000E+02  0.51100000000E-03 0. -1.
         11   -1    0    0    0    0 -0.00000000000E+00 -0.00000000000E+00 -0.45593999997E+02  0.45594000000E+02  0.51100000000E-03 0.  1.
    9900012    2    1    2    0    0  0.51067456898E+00  0.94699224192E+00 -0.48533708264E+00  0.90007688640E+02  0.89999949331E+02 0.  0.
         12    1    1    2    0    0 -0.51067456898E+00 -0.94699224192E+00  0.48533708264E+00  0.11803113595E+01  0.00000000000E+00 0. -1.
         11    1    3    3    0    0 -0.56047002477E+00 -0.27943509784E+01 -0.61691391082E+01  0.67956457851E+01  0.51100000000E-03 0. -1.
        -11    1    3    3    0    0  0.35282489536E+02  0.11221611743E+02 -0.17766387663E+02  0.41066082950E+02  0.51100000000E-03 0.  1.
         12    1    3    3    0    0 -0.34211344942E+02 -0.74802685227E+01  0.23450189689E+02  0.42145959906E+02  0.00000000000E+00 0. -1.
</event>
<event>
 7    1  0.3032584E-015  0.9000776E+02  0.7816164E-02  0.1186339E+00
        -11   -1    0    0    0    0  0.00000000000E+00  0.00000000000E+00  0.45593999997E+02  0.45594000000E+02  0.51100000000E-03 0.  1.
         11   -1    0    0    0    0 -0.00000000000E+00 -0.00000000000E+00 -0.45593999997E+02  0.45594000000E+02  0.51100000000E-03 0. -1.
    9900012    2    1    2    0    0  0.82721781777E+00 -0.31900181392E+00  0.77904755070E+00  0.90007759956E+02  0.90000021587E+02 0.  0.
         12    1    1    2    0    0 -0.82721781777E+00  0.31900181392E+00 -0.77904755070E+00  0.11802400440E+01  0.00000000000E+00 0. -1.
         11    1    3    3    0    0  0.12380199580E+02  0.65773189701E+01 -0.79854296948E+01  0.16133739621E+02  0.51100000000E-03 0. -1.
        -11    1    3    3    0    0  0.12422649727E+02  0.24906823735E+02  0.17794613754E+02  0.33035138470E+02  0.51100000000E-03 0.  1.
         12    1    3    3    0    0 -0.23975631489E+02 -0.31803144519E+02 -0.90301365086E+01  0.40838881865E+02  0.00000000000E+00 0. -1.
</event>
<event>
 7    1  0.3032584E-015  0.9000769E+02  0.7816164E-02  0.1186339E+00
        -11   -1    0    0    0    0  0.00000000000E+00  0.00000000000E+00  0.45593999997E+02  0.45594000000E+02  0.51100000000E-03 0.  1.
         11   -1    0    0    0    0 -0.00000000000E+00 -0.00000000000E+00 -0.45593999997E+02  0.45594000000E+02  0.51100000000E-03 0. -1.
    9900012    2    1    2    0    0 -0.25784623660E-01 -0.84543964189E+00  0.82323091080E+00  0.90007685564E+02  0.89999946214E+02 0.  0.
         12    1    1    2    0    0  0.25784623660E-01  0.84543964189E+00 -0.82323091080E+00  0.11803144358E+01  0.00000000000E+00 0. -1.
         11    1    3    3    0    0 -0.15451799014E+01 -0.13617466503E+02  0.21132096095E+01  0.13866817588E+02  0.51100000000E-03 0. -1.
        -11    1    3    3    0    0  0.16603675281E+02  0.22585110887E+01  0.33125042229E+02  0.37122113735E+02  0.51100000000E-03 0.  1.
         12    1    3    3    0    0 -0.15084280003E+02  0.10513515773E+02 -0.34415020928E+02  0.39018754242E+02  0.00000000000E+00 0. -1.
</event>
<event>
 7    1  0.3032584E-015  0.9000781E+02  0.7816164E-02  0.1186339E+00
        -11   -1    0    0    0    0  0.00000000000E+00  0.00000000000E+00  0.45593999997E+02  0.45594000000E+02  0.51100000000E-03 0.  1.
         11   -1    0    0    0    0 -0.00000000000E+00 -0.00000000000E+00 -0.45593999997E+02  0.45594000000E+02  0.51100000000E-03 0. -1.
    9900012    2    1    2    0    0 -0.70468659698E+00 -0.27660312659E+00  0.90540932988E+00  0.90007805718E+02  0.90000067953E+02 0.  0.
         12    1    1    2    0    0  0.70468659698E+00  0.27660312659E+00 -0.90540932988E+00  0.11801942824E+01  0.00000000000E+00 0. -1.
         11    1    3    3    0    0 -0.74753928760E-02 -0.30938299416E-01 -0.92369016085E+01  0.92369564601E+01  0.51100000000E-03 0. -1.
        -11    1    3    3    0    0  0.35297681594E+02 -0.10487916745E+02 -0.10154616007E+02  0.38197368365E+02  0.51100000000E-03 0.  1.
         12    1    3    3    0    0 -0.35994892798E+02  0.10242251918E+02  0.20296926945E+02  0.42573480892E+02  0.00000000000E+00 0. -1.
</event>
<event>
 7    1  0.3032584E-015  0.9000785E+02  0.7816164E-02  0.1186339E+00
        -11   -1    0    0    0    0  0.00000000000E+00  0.00000000000E+00  0.45593999997E+02  0.45594000000E+02  0.51100000000E-03 0.  1.
         11   -1    0    0    0    0 -0.00000000000E+00 -0.00000000000E+00 -0.45593999997E+02  0.45594000000E+02  0.51100000000E-03 0. -1.
    9900012    2    1    2    0    0 -0.10461135973E+01 -0.18412453458E+00  0.51429870831E+00  0.90007848034E+02  0.90000110827E+02 0.  0.
         12    1    1    2    0    0  0.10461135973E+01  0.18412453458E+00 -0.51429870831E+00  0.11801519665E+01  0.00000000000E+00 0. -1.
         11    1    3    3    0    0  0.66608069870E+01 -0.14743913230E+00 -0.47854867323E+01  0.82029855262E+01  0.51100000000E-03 0. -1.
        -11    1    3    3    0    0 -0.20396873232E+00 -0.24963031751E+02  0.34565272513E+02  0.42637455619E+02  0.51100000000E-03 0.  1.
         12    1    3    3    0    0 -0.75029518520E+01  0.24926346349E+02 -0.29265487072E+02  0.39167406889E+02  0.00000000000E+00 0. -1.
</event>
<event>
 7    1  0.3032584E-015  0.9000775E+02  0.7816164E-02  0.1186339E+00
        -11   -1    0    0    0    0  0.00000000000E+00  0.00000000000E+00  0.45593999997E+02  0.45594000000E+02  0.51100000000E-03 0.  1.
         11   -1    0    0    0    0 -0.00000000000E+00 -0.00000000000E+00 -0.45593999997E+02  0.45594000000E+02  0.51100000000E-03 0. -1.
    9900012    2    1    2    0    0 -0.68367918723E+00 -0.60383720653E+00  0.74896330809E+00  0.90007753145E+02  0.90000014686E+02 0.  0.
         12    1    1    2    0    0  0.68367918723E+00  0.60383720653E+00 -0.74896330809E+00  0.11802468555E+01  0.00000000000E+00 0. -1.
         11    1    3    3    0    0 -0.72883059109E+01 -0.54883480533E+01 -0.31343466287E+01  0.96470459963E+01  0.51100000000E-03 0. -1.
        -11    1    3    3    0    0  0.50382393322E+01 -0.37463610349E+02 -0.56112384286E-01  0.37800914074E+02  0.51100000000E-03 0.  1.
         12    1    3    3    0    0  0.15663873914E+01  0.42348121196E+02  0.39394223210E+01  0.42559793074E+02  0.00000000000E+00 0. -1.
</event>
<event>
 7    1  0.3032584E-015  0.9000775E+02  0.7816164E-02  0.1186339E+00
        -11   -1    0    0    0    0  0.00000000000E+00  0.00000000000E+00  0.45593999997E+02  0.45594000000E+02  0.51100000000E-03 0.  1.
         11   -1    0    0    0    0 -0.00000000000E+00 -0.00000000000E+00 -0.45593999997E+02  0.45594000000E+02  0.51100000000E-03 0. -1.
    9900012    2    1    2    0    0  0.87144398020E+00  0.71923748103E+00  0.34100205030E+00  0.90007745975E+02  0.90000007422E+02 0.  0.
         12    1    1    2    0    0 -0.87144398020E+00 -0.71923748103E+00 -0.34100205030E+00  0.11802540248E+01  0.00000000000E+00 0. -1.
         11    1    3    3    0    0  0.90636606579E+01 -0.21357489397E+01 -0.33862277822E+01  0.99084765181E+01  0.51100000000E-03 0. -1.
        -11    1    3    3    0    0  0.34753866209E+02 -0.57999008502E+01  0.78430029105E+01  0.36096852512E+02  0.51100000000E-03 0.  1.
         12    1    3    3    0    0 -0.42946082887E+02  0.86548872710E+01 -0.41157730780E+01  0.44002416945E+02  0.00000000000E+00 0. -1.
</event>
<event>
 7    1  0.3032584E-015  0.9000776E+02  0.7816164E-02  0.1186339E+00
        -11   -1    0    0    0    0  0.00000000000E+00  0.00000000000E+00  0.45593999997E+02  0.45594000000E+02  0.51100000000E-03 0. -1.
         11   -1    0    0    0    0 -0.00000000000E+00 -0.00000000000E+00 -0.45593999997E+02  0.45594000000E+02  0.51100000000E-03 0.  1.
    9900012    2    1    2    0    0  0.10182219539E+01 -0.55917845980E+00  0.20860921794E+00  0.90007756676E+02  0.90000018264E+02 0.  0.
         12    1    1    2    0    0 -0.10182219539E+01  0.55917845980E+00 -0.20860921794E+00  0.11802433237E+01  0.00000000000E+00 0. -1.
         11    1    3    3    0    0  0.11121182801E+02 -0.42429629557E+01 -0.34384750289E+01  0.12389776120E+02  0.51100000000E-03 0. -1.
        -11    1    3    3    0    0  0.18010313423E+02  0.32420528218E+02  0.48218951994E+01  0.37399367817E+02  0.51100000000E-03 0.  1.
         12    1    3    3    0    0 -0.28113274269E+02 -0.28736743722E+02 -0.11748109526E+01  0.40218612739E+02  0.00000000000E+00 0. -1.
</event>
<event>
 7    1  0.3032584E-015  0.9000787E+02  0.7816164E-02  0.1186339E+00
        -11   -1    0    0    0    0  0.00000000000E+00  0.00000000000E+00  0.45593999997E+02  0.45594000000E+02  0.51100000000E-03 0. -1.
         11   -1    0    0    0    0 -0.00000000000E+00 -0.00000000000E+00 -0.45593999997E+02  0.45594000000E+02  0.51100000000E-03 0.  1.
    9900012    2    1    2    0    0 -0.98727914794E+00 -0.38849576025E+00 -0.51677536071E+00  0.90007870412E+02  0.90000133501E+02 0.  0.
         12    1    1    2    0    0  0.98727914794E+00  0.38849576025E+00  0.51677536071E+00  0.11801295883E+01  0.00000000000E+00 0. -1.
         11    1    3    3    0    0  0.33919012796E+00  0.98761044934E+01 -0.16744310871E+01  0.10022784525E+02  0.51100000000E-03 0. -1.
        -11    1    3    3    0    0  0.31231598905E+02 -0.15922593156E+01 -0.22749706247E+02  0.38671658801E+02  0.51100000000E-03 0.  1.
         12    1    3    3    0    0 -0.32558068181E+02 -0.86723409381E+01  0.23907361973E+02  0.41313427085E+02  0.00000000000E+00 0. -1.
</event>
<event>
 7    1  0.3032584E-015  0.9000749E+02  0.7816164E-02  0.1186340E+00
        -11   -1    0    0    0    0  0.00000000000E+00  0.00000000000E+00  0.45593999997E+02  0.45594000000E+02  0.51100000000E-03 0.  1.
         11   -1    0    0    0    0 -0.00000000000E+00 -0.00000000000E+00 -0.45593999997E+02  0.45594000000E+02  0.51100000000E-03 0. -1.
    9900012    2    1    2    0    0  0.44514422651E+00 -0.39028578671E+00  0.10213315648E+01  0.90007493946E+02  0.89999752066E+02 0.  0.
         12    1    1    2    0    0 -0.44514422651E+00  0.39028578671E+00 -0.10213315648E+01  0.11805060538E+01  0.00000000000E+00 0. -1.
         11    1    3    3    0    0  0.31034836365E+02  0.16737298710E+02 -0.11070456159E+02  0.36957451700E+02  0.51100000000E-03 0. -1.
        -11    1    3    3    0    0  0.66778038317E+01  0.36898879123E+00 -0.51239289683E+01  0.84251922872E+01  0.51100000000E-03 0.  1.
        -12    1    3    3    0    0 -0.37267495970E+02 -0.17496573288E+02  0.17215716692E+02  0.44624849960E+02  0.00000000000E+00 0.  1.
</event>
<event>
 7    1  0.3032584E-015  0.9000773E+02  0.7816164E-02  0.1186339E+00
        -11   -1    0    0    0    0  0.00000000000E+00  0.00000000000E+00  0.45593999997E+02  0.45594000000E+02  0.51100000000E-03 0. -1.
         11   -1    0    0    0    0 -0.00000000000E+00 -0.00000000000E+00 -0.45593999997E+02  0.45594000000E+02  0.51100000000E-03 0.  1.
    9900012    2    1    2    0    0  0.61716961652E+00 -0.60032401640E+00  0.80730615841E+00  0.90007732872E+02  0.89999994146E+02 0.  0.
         12    1    1    2    0    0 -0.61716961652E+00  0.60032401640E+00 -0.80730615841E+00  0.11802671281E+01  0.00000000000E+00 0. -1.
         11    1    3    3    0    0 -0.95494773432E+01  0.14330000355E+00  0.10282684025E+01  0.96057476850E+01  0.51100000000E-03 0. -1.
        -11    1    3    3    0    0  0.16821986705E+02 -0.19870341093E+01 -0.38219493574E+02  0.41804990498E+02  0.51100000000E-03 0.  1.
         12    1    3    3    0    0 -0.66553397452E+01  0.12434100893E+01  0.37998531330E+02  0.38596994689E+02  0.00000000000E+00 0. -1.
</event>
<event>
 7    1  0.3032584E-015  0.9000778E+02  0.7816164E-02  0.1186339E+00
        -11   -1    0    0    0    0  0.00000000000E+00  0.00000000000E+00  0.45593999997E+02  0.45594000000E+02  0.51100000000E-03 0.  1.
         11   -1    0    0    0    0 -0.00000000000E+00 -0.00000000000E+00 -0.45593999997E+02  0.45594000000E+02  0.51100000000E-03 0. -1.
    9900012    2    1    2    0    0  0.35235273110E+00 -0.75080533326E+00  0.83967116653E+00  0.90007784442E+02  0.90000046397E+02 0.  0.
         12    1    1    2    0    0 -0.35235273110E+00  0.75080533326E+00 -0.83967116653E+00  0.11802155581E+01  0.00000000000E+00 0. -1.
         11    1    3    3    0    0  0.19471678451E+02  0.27114717970E+02 -0.11466317291E+02  0.35296325939E+02  0.51100000000E-03 0. -1.
        -11    1    3    3    0    0  0.94411651095E+01  0.14521829373E+01 -0.43835408481E+01  0.10509988798E+02  0.51100000000E-03 0.  1.
        -12    1    3    3    0    0 -0.28560490829E+02 -0.29317706241E+02  0.16689529306E+02  0.44201469705E+02  0.00000000000E+00 0.  1.
</event>
<event>
 7    1  0.3032584E-015  0.9000774E+02  0.7816164E-02  0.1186339E+00
        -11   -1    0    0    0    0  0.00000000000E+00  0.00000000000E+00  0.45593999997E+02  0.45594000000E+02  0.51100000000E-03 0. -1.
         11   -1    0    0    0    0 -0.00000000000E+00 -0.00000000000E+00 -0.45593999997E+02  0.45594000000E+02  0.51100000000E-03 0.  1.
    9900012    2    1    2    0    0  0.12064491450E+00 -0.11149466286E+01 -0.36789840228E+00  0.90007741378E+02  0.90000002764E+02 0.  0.
         12    1    1    2    0    0 -0.12064491450E+00  0.11149466286E+01  0.36789840228E+00  0.11802586218E+01  0.00000000000E+00 0. -1.
         11    1    3    3    0    0 -0.31158923810E+01 -0.10626244866E+02  0.37650310699E+02  0.39245022121E+02  0.51100000000E-03 0. -1.
        -11    1    3    3    0    0  0.80945044140E+01 -0.19680478474E+01  0.22339945518E+01  0.86246707738E+01  0.51100000000E-03 0.  1.
        -12    1    3    3    0    0 -0.48579671185E+01  0.11479346085E+02 -0.40252203653E+02  0.42138048483E+02  0.00000000000E+00 0.  1.
</event>
<event>
 7    1  0.3032584E-015  0.9000765E+02  0.7816164E-02  0.1186339E+00
        -11   -1    0    0    0    0  0.00000000000E+00  0.00000000000E+00  0.45593999997E+02  0.45594000000E+02  0.51100000000E-03 0.  1.
         11   -1    0    0    0    0 -0.00000000000E+00 -0.00000000000E+00 -0.45593999997E+02  0.45594000000E+02  0.51100000000E-03 0. -1.
    9900012    2    1    2    0    0  0.28538892829E+00  0.31382789861E+00  0.11014969244E+01  0.90007648245E+02  0.89999908402E+02 0.  0.
         12    1    1    2    0    0 -0.28538892829E+00 -0.31382789861E+00 -0.11014969244E+01  0.11803517547E+01  0.00000000000E+00 0. -1.
         11    1    3    3    0    0 -0.30292798231E+01  0.18160026867E+02 -0.34474255596E+02  0.39082443772E+02  0.51100000000E-03 0. -1.
        -11    1    3    3    0    0  0.50544227906E+01 -0.61092729520E+01 -0.45088469781E+01  0.91214092705E+01  0.51100000000E-03 0.  1.
        -12    1    3    3    0    0 -0.17397540392E+01 -0.11736926017E+02  0.40084599498E+02  0.41803795203E+02  0.00000000000E+00 0.  1.
</event>
<event>
 7    1  0.3032584E-015  0.9000772E+02  0.7816164E-02  0.1186339E+00
        -11   -1    0    0    0    0  0.00000000000E+00  0.00000000000E+00  0.45593999997E+02  0.45594000000E+02  0.51100000000E-03 0. -1.
         11   -1    0    0    0    0 -0.00000000000E+00 -0.00000000000E+00 -0.45593999997E+02  0.45594000000E+02  0.51100000000E-03 0.  1.
    9900012    2    1    2    0    0  0.86408702394E+00  0.74122508518E+00 -0.31146617782E+00  0.90007715207E+02  0.89999976248E+02 0.  0.
         12    1    1    2    0    0 -0.86408702394E+00 -0.74122508518E+00  0.31146617782E+00  0.11802847927E+01  0.00000000000E+00 0. -1.
         11    1    3    3    0    0  0.24236672414E+02  0.18804323804E+02  0.10771214508E+02  0.32512119982E+02  0.51100000000E-03 0. -1.
        -11    1    3    3    0    0 -0.31299398004E+01  0.12454589620E+02  0.90453158628E+01  0.15707675355E+02  0.51100000000E-03 0.  1.
        -12    1    3    3    0    0 -0.20242645590E+02 -0.30517688339E+02 -0.20127996549E+02  0.41787919870E+02  0.00000000000E+00 0.  1.
</event>
<event>
 7    1  0.3032584E-015  0.9000777E+02  0.7816164E-02  0.1186339E+00
        -11   -1    0    0    0    0  0.00000000000E+00  0.00000000000E+00  0.45593999997E+02  0.45594000000E+02  0.51100000000E-03 0.  1.
         11   -1    0    0    0    0 -0.00000000000E+00 -0.00000000000E+00 -0.45593999997E+02  0.45594000000E+02  0.51100000000E-03 0. -1.
    9900012    2    1    2    0    0 -0.59235639297E-01 -0.28108602123E+00  0.11447344839E+01  0.90007773221E+02  0.90000035027E+02 0.  0.
         12    1    1    2    0    0  0.59235639297E-01  0.28108602123E+00 -0.11447344839E+01  0.11802267795E+01  0.00000000000E+00 0. -1.
         11    1    3    3    0    0  0.84068133103E+01 -0.45924955457E+01  0.58285763425E+00  0.95971479438E+01  0.51100000000E-03 0. -1.
        -11    1    3    3    0    0  0.28215101311E+02  0.23440081593E+02 -0.93836885670E+01  0.37862685832E+02  0.51100000000E-03 0.  1.
         12    1    3    3    0    0 -0.36681150260E+02 -0.19128672068E+02  0.99455654167E+01  0.42547939444E+02  0.00000000000E+00 0. -1.
</event>
<event>
 7    1  0.3032584E-015  0.9000777E+02  0.7816164E-02  0.1186339E+00
        -11   -1    0    0    0    0  0.00000000000E+00  0.00000000000E+00  0.45593999997E+02  0.45594000000E+02  0.51100000000E-03 0.  1.
         11   -1    0    0    0    0 -0.00000000000E+00 -0.00000000000E+00 -0.45593999997E+02  0.45594000000E+02  0.51100000000E-03 0. -1.
    9900012    2    1    2    0    0 -0.68050089860E+00  0.92606764421E+00 -0.26880844204E+00  0.90007770898E+02  0.90000032674E+02 0.  0.
         12    1    1    2    0    0  0.68050089860E+00 -0.92606764421E+00  0.26880844204E+00  0.11802291020E+01  0.00000000000E+00 0. -1.
         11    1    3    3    0    0  0.80396522443E+01 -0.39385334608E+02 -0.44675013718E+01  0.40445014021E+02  0.51100000000E-03 0. -1.
        -11    1    3    3    0    0 -0.38850414361E+01  0.53769854866E+00  0.84059810702E+01  0.92759465665E+01  0.51100000000E-03 0.  1.
        -12    1    3    3    0    0 -0.48351117068E+01  0.39773703703E+02 -0.42072881405E+01  0.40286810311E+02  0.00000000000E+00 0.  1.
</event>
<event>
 7    1  0.3032584E-015  0.9000781E+02  0.7816164E-02  0.1186339E+00
        -11   -1    0    0    0    0  0.00000000000E+00  0.00000000000E+00  0.45593999997E+02  0.45594000000E+02  0.51100000000E-03 0.  1.
         11   -1    0    0    0    0 -0.00000000000E+00 -0.00000000000E+00 -0.45593999997E+02  0.45594000000E+02  0.51100000000E-03 0. -1.
    9900012    2    1    2    0    0 -0.43731975610E+00 -0.17339219899E+00  0.10823797522E+01  0.90007805375E+02  0.90000067606E+02 0.  0.
         12    1    1    2    0    0  0.43731975610E+00  0.17339219899E+00 -0.10823797522E+01  0.11801946245E+01  0.00000000000E+00 0. -1.
         11    1    3    3    0    0  0.64344436578E+01  0.20424054724E+01 -0.68197185118E+01  0.95959390442E+01  0.51100000000E-03 0. -1.
        -11    1    3    3    0    0  0.95124935257E+01 -0.38653292070E+02  0.67821088180E+00  0.39812366058E+02  0.51100000000E-03 0.  1.
         12    1    3    3    0    0 -0.16384256940E+02  0.36437494398E+02  0.72238873822E+01  0.40599500273E+02  0.00000000000E+00 0. -1.
</event>
<event>
 7    1  0.3032584E-015  0.9000821E+02  0.7816164E-02  0.1186338E+00
        -11   -1    0    0    0    0  0.00000000000E+00  0.00000000000E+00  0.45593999997E+02  0.45594000000E+02  0.51100000000E-03 0. -1.
         11   -1    0    0    0    0 -0.00000000000E+00 -0.00000000000E+00 -0.45593999997E+02  0.45594000000E+02  0.51100000000E-03 0.  1.
    9900012    2    1    2    0    0  0.11429422384E+01  0.23508939154E+00 -0.17413400480E+00  0.90008209072E+02  0.90000476630E+02 0.  0.
         12    1    1    2    0    0 -0.11429422384E+01 -0.23508939154E+00  0.17413400480E+00  0.11797909281E+01  0.00000000000E+00 0. -1.
         11    1    3    3    0    0  0.28864315219E+01 -0.33744610882E+01 -0.87399730742E+01  0.98033465799E+01  0.51100000000E-03 0. -1.
        -11    1    3    3    0    0  0.30354177710E+02  0.10603501260E+02 -0.18977017923E+02  0.37335473118E+02  0.51100000000E-03 0.  1.
         12    1    3    3    0    0 -0.32097666994E+02 -0.69939507799E+01  0.27542856993E+02  0.42869389374E+02  0.00000000000E+00 0. -1.
</event>
<event>
 7    1  0.3032584E-015  0.9000778E+02  0.7816164E-02  0.1186339E+00
        -11   -1    0    0    0    0  0.00000000000E+00  0.00000000000E+00  0.45593999997E+02  0.45594000000E+02  0.51100000000E-03 0.  1.
         11   -1    0    0    0    0 -0.00000000000E+00 -0.00000000000E+00 -0.45593999997E+02  0.45594000000E+02  0.51100000000E-03 0. -1.
    9900012    2    1    2    0    0 -0.34582984487E+00  0.10235175419E+00  0.11237656849E+01  0.90007778208E+02  0.90000040081E+02 0.  0.
         12    1    1    2    0    0  0.34582984487E+00 -0.10235175419E+00 -0.11237656849E+01  0.11802217917E+01  0.00000000000E+00 0. -1.
         11    1    3    3    0    0  0.17615437324E+01  0.33206477014E+02 -0.19269838936E+02  0.38433056668E+02  0.51100000000E-03 0. -1.
        -11    1    3    3    0    0 -0.29410482822E+01 -0.34131860442E+01 -0.88256970428E+01  0.99092145260E+01  0.51100000000E-03 0.  1.
        -12    1    3    3    0    0  0.83367470494E+00 -0.29690939216E+02  0.29219301663E+02  0.41665507014E+02  0.00000000000E+00 0.  1.
</event>
<event>
 7    1  0.3032584E-015  0.9000779E+02  0.7816164E-02  0.1186339E+00
        -11   -1    0    0    0    0  0.00000000000E+00  0.00000000000E+00  0.45593999997E+02  0.45594000000E+02  0.51100000000E-03 0. -1.
         11   -1    0    0    0    0 -0.00000000000E+00 -0.00000000000E+00 -0.45593999997E+02  0.45594000000E+02  0.51100000000E-03 0.  1.
    9900012    2    1    2    0    0 -0.41438398888E+00 -0.97960828648E+00  0.51142680095E+00  0.90007786520E+02  0.90000048502E+02 0.  0.
         12    1    1    2    0    0  0.41438398888E+00  0.97960828648E+00 -0.51142680095E+00  0.11802134798E+01  0.00000000000E+00 0. -1.
         11    1    3    3    0    0  0.31715757701E+02 -0.24975694531E+02  0.43843066865E+01  0.40606609674E+02  0.51100000000E-03 0. -1.
        -11    1    3    3    0    0  0.28150906510E+01  0.56275026736E+01  0.60130245314E+01  0.87034467880E+01  0.51100000000E-03 0.  1.
        -12    1    3    3    0    0 -0.34945232341E+02  0.18368583571E+02 -0.98859044170E+01  0.40697730058E+02  0.00000000000E+00 0.  1.
</event>
<event>
 7    1  0.3032584E-015  0.9000779E+02  0.7816164E-02  0.1186339E+00
        -11   -1    0    0    0    0  0.00000000000E+00  0.00000000000E+00  0.45593999997E+02  0.45594000000E+02  0.51100000000E-03 0.  1.
         11   -1    0    0    0    0 -0.00000000000E+00 -0.00000000000E+00 -0.45593999997E+02  0.45594000000E+02  0.51100000000E-03 0. -1.
    9900012    2    1    2    0    0  0.97848556975E+00 -0.64067260368E+00 -0.15814222125E+00  0.90007786309E+02  0.90000048288E+02 0.  0.
         12    1    1    2    0    0 -0.97848556975E+00  0.64067260368E+00  0.15814222125E+00  0.11802136914E+01  0.00000000000E+00 0. -1.
         11    1    3    3    0    0  0.11972829072E+02  0.42086784622E+02 -0.84864600650E+01  0.44572032492E+02  0.51100000000E-03 0. -1.
        -11    1    3    3    0    0 -0.44105008849E+01 -0.89652633033E+01 -0.21047484591E+00  0.99936361788E+01  0.51100000000E-03 0.  1.
        -12    1    3    3    0    0 -0.65838426173E+01 -0.33762193922E+02  0.85387926897E+01  0.35442117638E+02  0.00000000000E+00 0.  1.
</event>
<event>
 7    1  0.3032584E-015  0.9000777E+02  0.7816164E-02  0.1186339E+00
        -11   -1    0    0    0    0  0.00000000000E+00  0.00000000000E+00  0.45593999997E+02  0.45594000000E+02  0.51100000000E-03 0. -1.
         11   -1    0    0    0    0 -0.00000000000E+00 -0.00000000000E+00 -0.45593999997E+02  0.45594000000E+02  0.51100000000E-03 0.  1.
    9900012    2    1    2    0    0  0.10218568867E+01  0.51904161799E+00 -0.28170177091E+00  0.90007766300E+02  0.90000028015E+02 0.  0.
         12    1    1    2    0    0 -0.10218568867E+01 -0.51904161799E+00  0.28170177091E+00  0.11802336997E+01  0.00000000000E+00 0. -1.
         11    1    3    3    0    0 -0.62534928104E+01 -0.14624580637E+01 -0.27287409686E+01  0.69778924793E+01  0.51100000000E-03 0. -1.
        -11    1    3    3    0    0 -0.57388259646E+01  0.63403565363E+00 -0.39072930735E+02  0.39497215613E+02  0.51100000000E-03 0.  1.
         12    1    3    3    0    0  0.13014175662E+02  0.13474640280E+01  0.41519969933E+02  0.43532658208E+02  0.00000000000E+00 0. -1.
</event>
<event>
 7    1  0.3032584E-015  0.9000802E+02  0.7816164E-02  0.1186338E+00
        -11   -1    0    0    0    0  0.00000000000E+00  0.00000000000E+00  0.45593999997E+02  0.45594000000E+02  0.51100000000E-03 0.  1.
         11   -1    0    0    0    0 -0.00000000000E+00 -0.00000000000E+00 -0.45593999997E+02  0.45594000000E+02  0.51100000000E-03 0. -1.
    9900012    2    1    2    0    0  0.46096320516E+00 -0.53848275856E+00  0.94334541312E+00  0.90008020625E+02  0.90000285696E+02 0.  0.
         12    1    1    2    0    0 -0.46096320516E+00  0.53848275856E+00 -0.94334541312E+00  0.11799793753E+01  0.00000000000E+00 0. -1.
         11    1    3    3    0    0  0.15836204978E+01  0.11554729956E+02 -0.57107845276E+01  0.12985865332E+02  0.51100000000E-03 0. -1.
        -11    1    3    3    0    0 -0.31068355066E+02  0.14788077864E+02  0.11971140072E+02  0.36431279532E+02  0.51100000000E-03 0.  1.
         12    1    3    3    0    0  0.29945697773E+02 -0.26881290579E+02 -0.53170101317E+01  0.40590875761E+02  0.00000000000E+00 0. -1.
</event>
<event>
 7    1  0.3032584E-015  0.9000772E+02  0.7816164E-02  0.1186339E+00
        -11   -1    0    0    0    0  0.00000000000E+00  0.00000000000E+00  0.45593999997E+02  0.45594000000E+02  0.51100000000E-03 0. -1.
         11   -1    0    0    0    0 -0.00000000000E+00 -0.00000000000E+00 -0.45593999997E+02  0.45594000000E+02  0.51100000000E-03 0.  1.
    9900012    2    1    2    0    0  0.94848619094E+00  0.15545270639E+00  0.68503315865E+00  0.90007719514E+02  0.89999980611E+02 0.  0.
         12    1    1    2    0    0 -0.94848619094E+00 -0.15545270639E+00 -0.68503315865E+00  0.11802804865E+01  0.00000000000E+00 0. -1.
         11    1    3    3    0    0  0.26520415958E+01  0.30950471318E+01  0.81243819023E+01  0.90894566905E+01  0.51100000000E-03 0. -1.
        -11    1    3    3    0    0  0.39234742964E+02 -0.27700690739E+01 -0.13238222094E+00  0.39332631026E+02  0.51100000000E-03 0.  1.
         12    1    3    3    0    0 -0.40938298369E+02 -0.16952535151E+00 -0.73069665227E+01  0.41585631797E+02  0.00000000000E+00 0. -1.
</event>
<event>
 7    1  0.3032584E-015  0.9000774E+02  0.7816164E-02  0.1186339E+00
        -11   -1    0    0    0    0  0.00000000000E+00  0.00000000000E+00  0.45593999997E+02  0.45594000000E+02  0.51100000000E-03 0.  1.
         11   -1    0    0    0    0 -0.00000000000E+00 -0.00000000000E+00 -0.45593999997E+02  0.45594000000E+02  0.51100000000E-03 0. -1.
    9900012    2    1    2    0    0  0.53807873838E+00  0.17322978571E+00  0.10360909522E+01  0.90007736577E+02  0.89999997899E+02 0.  0.
         12    1    1    2    0    0 -0.53807873838E+00 -0.17322978571E+00 -0.10360909522E+01  0.11802634234E+01  0.00000000000E+00 0. -1.
         11    1    3    3    0    0  0.55033126279E+01 -0.17774072698E+01 -0.55763953520E+01  0.80337918735E+01  0.51100000000E-03 0. -1.
        -11    1    3    3    0    0  0.30579422131E+02 -0.23012637687E+02  0.29196128390E+01  0.38382374739E+02  0.51100000000E-03 0.  1.
         12    1    3    3    0    0 -0.35544656021E+02  0.24963274743E+02  0.36928734651E+01  0.43591569964E+02  0.00000000000E+00 0. -1.
</event>
<event>
 7    1  0.3032584E-015  0.9000784E+02  0.7816164E-02  0.1186339E+00
        -11   -1    0    0    0    0  0.00000000000E+00  0.00000000000E+00  0.45593999997E+02  0.45594000000E+02  0.51100000000E-03 0.  1.
         11   -1    0    0    0    0 -0.00000000000E+00 -0.00000000000E+00 -0.45593999997E+02  0.45594000000E+02  0.51100000000E-03 0. -1.
    9900012    2    1    2    0    0 -0.34637039907E+00  0.10726980037E+01  0.34944702953E+00  0.90007844634E+02  0.90000107383E+02 0.  0.
         12    1    1    2    0    0  0.34637039907E+00 -0.10726980037E+01 -0.34944702953E+00  0.11801553656E+01  0.00000000000E+00 0. -1.
         11    1    3    3    0    0  0.98853576318E+01 -0.10280791690E+02 -0.41264606230E+02  0.43659852278E+02  0.51100000000E-03 0. -1.
        -11    1    3    3    0    0 -0.57726322435E+00  0.74532342455E+01  0.71464712143E+01  0.10341952651E+02  0.51100000000E-03 0.  1.
        -12    1    3    3    0    0 -0.96544648065E+01  0.39002554484E+01  0.34467582046E+02  0.36006039706E+02  0.00000000000E+00 0.  1.
</event>
<event>
 7    1  0.3032584E-015  0.9000776E+02  0.7816164E-02  0.1186339E+00
        -11   -1    0    0    0    0  0.00000000000E+00  0.00000000000E+00  0.45593999997E+02  0.45594000000E+02  0.51100000000E-03 0.  1.
         11   -1    0    0    0    0 -0.00000000000E+00 -0.00000000000E+00 -0.45593999997E+02  0.45594000000E+02  0.51100000000E-03 0. -1.
    9900012    2    1    2    0    0 -0.57410627924E+00  0.43387253109E+00  0.93547575830E+00  0.90007763461E+02  0.90000025139E+02 0.  0.
         12    1    1    2    0    0  0.57410627924E+00 -0.43387253109E+00 -0.93547575830E+00  0.11802365388E+01  0.00000000000E+00 0. -1.
         11    1    3    3    0    0 -0.23827307440E+02 -0.32215252035E+02 -0.87049919668E+01  0.41004145266E+02  0.51100000000E-03 0. -1.
        -11    1    3    3    0    0 -0.53438739294E+01  0.71260246534E+01  0.54563015700E+01  0.10445498696E+02  0.51100000000E-03 0.  1.
        -12    1    3    3    0    0  0.28597075090E+02  0.25523099913E+02  0.41841661551E+01  0.38558119499E+02  0.00000000000E+00 0.  1.
</event>
<event>
 7    1  0.3032584E-015  0.9000745E+02  0.7816164E-02  0.1186340E+00
        -11   -1    0    0    0    0  0.00000000000E+00  0.00000000000E+00  0.45593999997E+02  0.45594000000E+02  0.51100000000E-03 0. -1.
         11   -1    0    0    0    0 -0.00000000000E+00 -0.00000000000E+00 -0.45593999997E+02  0.45594000000E+02  0.51100000000E-03 0.  1.
    9900012    2    1    2    0    0  0.46700453804E+00  0.70436209423E+00 -0.82429969808E+00  0.90007453859E+02  0.89999711450E+02 0.  0.
         12    1    1    2    0    0 -0.46700453804E+00 -0.70436209423E+00  0.82429969808E+00  0.11805461408E+01  0.00000000000E+00 0. -1.
         11    1    3    3    0    0 -0.19002199870E+01 -0.37628817302E+02  0.16553864499E+02  0.41152996947E+02  0.51100000000E-03 0. -1.
        -11    1    3    3    0    0 -0.43944819879E+01  0.61591760344E+01  0.50136729233E+01  0.90765542916E+01  0.51100000000E-03 0.  1.
        -12    1    3    3    0    0  0.67617065129E+01  0.32174003362E+02 -0.22391837120E+02  0.39777902621E+02  0.00000000000E+00 0.  1.
</event>
<event>
 7    1  0.3032584E-015  0.9000782E+02  0.7816164E-02  0.1186339E+00
        -11   -1    0    0    0    0  0.00000000000E+00  0.00000000000E+00  0.45593999997E+02  0.45594000000E+02  0.51100000000E-03 0. -1.
         11   -1    0    0    0    0 -0.00000000000E+00 -0.00000000000E+00 -0.45593999997E+02  0.45594000000E+02  0.51100000000E-03 0.  1.
    9900012    2    1    2    0    0 -0.89724741526E+00 -0.10874966145E+00 -0.75891129295E+00  0.90007819605E+02  0.90000082024E+02 0.  0.
         12    1    1    2    0    0  0.89724741526E+00  0.10874966145E+00  0.75891129295E+00  0.11801803945E+01  0.00000000000E+00 0. -1.
         11    1    3    3    0    0  0.32053146520E+01 -0.67817117177E+01  0.56402720115E+01  0.93850052991E+01  0.51100000000E-03 0. -1.
        -11    1    3    3    0    0 -0.16229347290E+02 -0.33218883778E+02 -0.11255115055E+02  0.38646650153E+02  0.51100000000E-03 0.  1.
         12    1    3    3    0    0  0.12126785223E+02  0.39891845834E+02  0.48559317508E+01  0.41976164153E+02  0.00000000000E+00 0. -1.
</event>
<event>
 7    1  0.3032584E-015  0.9000775E+02  0.7816164E-02  0.1186339E+00
        -11   -1    0    0    0    0  0.00000000000E+00  0.00000000000E+00  0.45593999997E+02  0.45594000000E+02  0.51100000000E-03 0.  1.
         11   -1    0    0    0    0 -0.00000000000E+00 -0.00000000000E+00 -0.45593999997E+02  0.45594000000E+02  0.51100000000E-03 0. -1.
    9900012    2    1    2    0    0 -0.96988456438E+00 -0.52480331636E+00 -0.42060016253E+00  0.90007746177E+02  0.90000007627E+02 0.  0.
         12    1    1    2    0    0  0.96988456438E+00  0.52480331636E+00  0.42060016253E+00  0.11802538226E+01  0.00000000000E+00 0. -1.
         11    1    3    3    0    0  0.21112694086E+01  0.35314751200E+02  0.41156953993E+01  0.35616401555E+02  0.51100000000E-03 0. -1.
        -11    1    3    3    0    0  0.59407643696E+01  0.71654759019E+01  0.30608640954E+01  0.97982455301E+01  0.51100000000E-03 0.  1.
        -12    1    3    3    0    0 -0.90219183426E+01 -0.43005030418E+02 -0.75971596572E+01  0.44593099093E+02  0.00000000000E+00 0.  1.
</event>
<event>
 7    1  0.3032584E-015  0.9000761E+02  0.7816164E-02  0.1186339E+00
        -11   -1    0    0    0    0  0.00000000000E+00  0.00000000000E+00  0.45593999997E+02  0.45594000000E+02  0.51100000000E-03 0. -1.
         11   -1    0    0    0    0 -0.00000000000E+00 -0.00000000000E+00 -0.45593999997E+02  0.45594000000E+02  0.51100000000E-03 0.  1.
    9900012    2    1    2    0    0  0.84282172684E+00  0.76418652428E+00 -0.31461613512E+00  0.90007613275E+02  0.89999872971E+02 0.  0.
         12    1    1    2    0    0 -0.84282172684E+00 -0.76418652428E+00  0.31461613512E+00  0.11803867246E+01  0.00000000000E+00 0. -1.
         11    1    3    3    0    0 -0.46385935696E+01 -0.23881924519E+01 -0.52748290076E+01  0.74191532409E+01  0.51100000000E-03 0. -1.
        -11    1    3    3    0    0  0.37935027640E+02  0.76154556887E+01 -0.17909941936E+02  0.42635988411E+02  0.51100000000E-03 0.  1.
         12    1    3    3    0    0 -0.32453612343E+02 -0.44630767125E+01  0.22870154809E+02  0.39952471624E+02  0.00000000000E+00 0. -1.
</event>
<event>
 7    1  0.3032584E-015  0.9000785E+02  0.7816164E-02  0.1186339E+00
        -11   -1    0    0    0    0  0.00000000000E+00  0.00000000000E+00  0.45593999997E+02  0.45594000000E+02  0.51100000000E-03 0.  1.
         11   -1    0    0    0    0 -0.00000000000E+00 -0.00000000000E+00 -0.45593999997E+02  0.45594000000E+02  0.51100000000E-03 0. -1.
    9900012    2    1    2    0    0  0.67644838636E+00  0.24576209720E-01  0.96672616077E+00  0.90007853450E+02  0.90000116315E+02 0.  0.
         12    1    1    2    0    0 -0.67644838636E+00 -0.24576209720E-01 -0.96672616077E+00  0.11801465500E+01  0.00000000000E+00 0. -1.
         11    1    3    3    0    0  0.38093056056E+01  0.10092846448E+02 -0.63439186242E+00  0.10806424567E+02  0.51100000000E-03 0. -1.
        -11    1    3    3    0    0  0.68870557810E+01 -0.35271307417E+02  0.24674563739E+02  0.43592783350E+02  0.51100000000E-03 0.  1.
         12    1    3    3    0    0 -0.10019913000E+02  0.25203037178E+02 -0.23073445715E+02  0.35608645533E+02  0.00000000000E+00 0. -1.
</event>
<event>
 7    1  0.3032584E-015  0.9000781E+02  0.7816164E-02  0.1186339E+00
        -11   -1    0    0    0    0  0.00000000000E+00  0.00000000000E+00  0.45593999997E+02  0.45594000000E+02  0.51100000000E-03 0.  1.
         11   -1    0    0    0    0 -0.00000000000E+00 -0.00000000000E+00 -0.45593999997E+02  0.45594000000E+02  0.51100000000E-03 0. -1.
    9900012    2    1    2    0    0  0.10341128266E+01  0.50810130763E+00 -0.25552162660E+00  0.90007810363E+02  0.90000072660E+02 0.  0.
         12    1    1    2    0    0 -0.10341128266E+01 -0.50810130763E+00  0.25552162660E+00  0.11801896367E+01  0.00000000000E+00 0. -1.
         11    1    3    3    0    0 -0.21422378789E+02  0.32731619930E+02 -0.12057329526E+02  0.40934782909E+02  0.51100000000E-03 0. -1.
        -11    1    3    3    0    0  0.82467048274E+01  0.30580327545E+01 -0.11992989444E+01  0.88768250550E+01  0.51100000000E-03 0.  1.
        -12    1    3    3    0    0  0.14209786788E+02 -0.35281551377E+02  0.13001106844E+02  0.40196202399E+02  0.00000000000E+00 0.  1.
</event>
<event>
 7    1  0.3032584E-015  0.9000783E+02  0.7816164E-02  0.1186339E+00
        -11   -1    0    0    0    0  0.00000000000E+00  0.00000000000E+00  0.45593999997E+02  0.45594000000E+02  0.51100000000E-03 0.  1.
         11   -1    0    0    0    0 -0.00000000000E+00 -0.00000000000E+00 -0.45593999997E+02  0.45594000000E+02  0.51100000000E-03 0. -1.
    9900012    2    1    2    0    0  0.38470533501E+00 -0.10887843401E+01 -0.24360056857E+00  0.90007834431E+02  0.90000097045E+02 0.  0.
         12    1    1    2    0    0 -0.38470533501E+00  0.10887843401E+01  0.24360056857E+00  0.11801655693E+01  0.00000000000E+00 0. -1.
         11    1    3    3    0    0  0.41648375406E+01 -0.12617376372E+02 -0.33515901558E+02  0.36053567310E+02  0.51100000000E-03 0. -1.
        -11    1    3    3    0    0  0.58179722425E+01 -0.72260109884E+01 -0.47971791541E+01  0.10443991762E+02  0.51100000000E-03 0.  1.
        -12    1    3    3    0    0 -0.95981044481E+01  0.18754603021E+02  0.38069480143E+02  0.43510275359E+02  0.00000000000E+00 0.  1.
</event>
<event>
 7    1  0.3032584E-015  0.9000766E+02  0.7816164E-02  0.1186339E+00
        -11   -1    0    0    0    0  0.00000000000E+00  0.00000000000E+00  0.45593999997E+02  0.45594000000E+02  0.51100000000E-03 0.  1.
         11   -1    0    0    0    0 -0.00000000000E+00 -0.00000000000E+00 -0.45593999997E+02  0.45594000000E+02  0.51100000000E-03 0. -1.
    9900012    2    1    2    0    0  0.30913025927E-02  0.11431644200E+01 -0.29387923513E+00  0.90007661298E+02  0.89999921627E+02 0.  0.
         12    1    1    2    0    0 -0.30913025927E-02 -0.11431644200E+01  0.29387923513E+00  0.11803387023E+01  0.00000000000E+00 0. -1.
         11    1    3    3    0    0  0.22920316497E+01 -0.32448391322E+02 -0.21918520217E+02  0.39224648338E+02  0.51100000000E-03 0. -1.
        -11    1    3    3    0    0  0.12469166422E+01  0.82396622994E+01 -0.80548632662E+01  0.11589980950E+02  0.51100000000E-03 0.  1.
        -12    1    3    3    0    0 -0.35358569893E+01  0.25351893442E+02  0.29679504248E+02  0.39193032010E+02  0.00000000000E+00 0.  1.
</event>
<event>
 7    1  0.3032584E-015  0.9000781E+02  0.7816164E-02  0.1186339E+00
        -11   -1    0    0    0    0  0.00000000000E+00  0.00000000000E+00  0.45593999997E+02  0.45594000000E+02  0.51100000000E-03 0.  1.
         11   -1    0    0    0    0 -0.00000000000E+00 -0.00000000000E+00 -0.45593999997E+02  0.45594000000E+02  0.51100000000E-03 0. -1.
    9900012    2    1    2    0    0 -0.11196759728E+01 -0.37298944022E+00  0.79356359277E-02  0.90007805787E+02  0.90000068023E+02 0.  0.
         12    1    1    2    0    0  0.11196759728E+01  0.37298944022E+00 -0.79356359277E-02  0.11801942132E+01  0.00000000000E+00 0. -1.
         11    1    3    3    0    0 -0.12208361575E+01 -0.83489646994E+01 -0.49259916416E+01  0.97704168995E+01  0.51100000000E-03 0. -1.
        -11    1    3    3    0    0 -0.39041309623E+02  0.10540850539E+02 -0.15981650425E+01  0.40470823057E+02  0.51100000000E-03 0.  1.
         12    1    3    3    0    0  0.39142469808E+02 -0.25648752797E+01  0.65320923200E+01  0.39766565830E+02  0.00000000000E+00 0. -1.
</event>
<event>
 7    1  0.3032584E-015  0.9000780E+02  0.7816164E-02  0.1186339E+00
        -11   -1    0    0    0    0  0.00000000000E+00  0.00000000000E+00  0.45593999997E+02  0.45594000000E+02  0.51100000000E-03 0. -1.
         11   -1    0    0    0    0 -0.00000000000E+00 -0.00000000000E+00 -0.45593999997E+02  0.45594000000E+02  0.51100000000E-03 0.  1.
    9900012    2    1    2    0    0  0.73373676041E+00  0.60688174415E+00  0.69727510326E+00  0.90007801858E+02  0.90000064042E+02 0.  0.
         12    1    1    2    0    0 -0.73373676041E+00 -0.60688174415E+00 -0.69727510326E+00  0.11801981421E+01  0.00000000000E+00 0. -1.
         11    1    3    3    0    0  0.22466643416E+02 -0.28918383174E+02  0.13934332932E+02  0.39181482697E+02  0.51100000000E-03 0. -1.
        -11    1    3    3    0    0  0.79962334813E+01  0.45743585170E+01  0.14554284887E+01  0.93264558154E+01  0.51100000000E-03 0.  1.
        -12    1    3    3    0    0 -0.29729140137E+02  0.24950906401E+02 -0.14692486317E+02  0.41499863346E+02  0.00000000000E+00 0.  1.
</event>
<event>
 7    1  0.3032584E-015  0.9000716E+02  0.7816164E-02  0.1186340E+00
        -11   -1    0    0    0    0  0.00000000000E+00  0.00000000000E+00  0.45593999997E+02  0.45594000000E+02  0.51100000000E-03 0. -1.
         11   -1    0    0    0    0 -0.00000000000E+00 -0.00000000000E+00 -0.45593999997E+02  0.45594000000E+02  0.51100000000E-03 0.  1.
    9900012    2    1    2    0    0 -0.82019150289E+00  0.72456493688E+00 -0.44348909057E+00  0.90007156648E+02  0.89999410314E+02 0.  0.
         12    1    1    2    0    0  0.82019150289E+00 -0.72456493688E+00  0.44348909057E+00  0.11808433523E+01  0.00000000000E+00 0. -1.
         11    1    3    3    0    0 -0.73753581016E+01  0.58785540453E+01  0.12340332392E+02  0.15531809572E+02  0.51100000000E-03 0. -1.
        -11    1    3    3    0    0 -0.23648953124E+02  0.20720499150E+02  0.32156962780E+01  0.31606214131E+02  0.51100000000E-03 0.  1.
        -12    1    3    3    0    0  0.30204119722E+02 -0.25874488258E+02 -0.15999517761E+02  0.42869132944E+02  0.00000000000E+00 0.  1.
</event>
<event>
 7    1  0.3032584E-015  0.9000796E+02  0.7816164E-02  0.1186339E+00
        -11   -1    0    0    0    0  0.00000000000E+00  0.00000000000E+00  0.45593999997E+02  0.45594000000E+02  0.51100000000E-03 0. -1.
         11   -1    0    0    0    0 -0.00000000000E+00 -0.00000000000E+00 -0.45593999997E+02  0.45594000000E+02  0.51100000000E-03 0.  1.
    9900012    2    1    2    0    0 -0.10160043330E+01  0.55250812455E+00 -0.23443916200E+00  0.90007961122E+02  0.90000225409E+02 0.  0.
         12    1    1    2    0    0  0.10160043330E+01 -0.55250812455E+00  0.23443916200E+00  0.11800388777E+01  0.00000000000E+00 0. -1.
         11    1    3    3    0    0 -0.96902038645E+01 -0.63711016572E+01 -0.84114752877E+01  0.14326336030E+02  0.51100000000E-03 0. -1.
        -11    1    3    3    0    0 -0.32975272026E+02  0.11231449980E+00  0.20833787335E+01  0.33041211342E+02  0.51100000000E-03 0.  1.
         12    1    3    3    0    0  0.41649471557E+02  0.68112952819E+01  0.60936573922E+01  0.42640413751E+02  0.00000000000E+00 0. -1.
</event>
<event>
 7    1  0.3032584E-015  0.9000763E+02  0.7816164E-02  0.1186339E+00
        -11   -1    0    0    0    0  0.00000000000E+00  0.00000000000E+00  0.45593999997E+02  0.45594000000E+02  0.51100000000E-03 0.  1.
         11   -1    0    0    0    0 -0.00000000000E+00 -0.00000000000E+00 -0.45593999997E+02  0.45594000000E+02  0.51100000000E-03 0. -1.
    9900012    2    1    2    0    0 -0.47824976300E+00 -0.34358019315E+00  0.10229891548E+01  0.90007628450E+02  0.89999888346E+02 0.  0.
         12    1    1    2    0    0  0.47824976300E+00  0.34358019315E+00 -0.10229891548E+01  0.11803715499E+01  0.00000000000E+00 0. -1.
         11    1    3    3    0    0  0.68196805865E+01  0.98234802832E+00  0.31792865372E+01  0.75882088860E+01  0.51100000000E-03 0. -1.
        -11    1    3    3    0    0 -0.44228690835E+01  0.28455900748E+02  0.27838169581E+02  0.40053261343E+02  0.51100000000E-03 0.  1.
         12    1    3    3    0    0 -0.28750612660E+01 -0.29781828969E+02 -0.29994466964E+02  0.42366158222E+02  0.00000000000E+00 0. -1.
</event>
<event>
 7    1  0.3032584E-015  0.9000775E+02  0.7816164E-02  0.1186339E+00
        -11   -1    0    0    0    0  0.00000000000E+00  0.00000000000E+00  0.45593999997E+02  0.45594000000E+02  0.51100000000E-03 0.  1.
         11   -1    0    0    0    0 -0.00000000000E+00 -0.00000000000E+00 -0.45593999997E+02  0.45594000000E+02  0.51100000000E-03 0. -1.
    9900012    2    1    2    0    0  0.82857108589E+00  0.61931160052E+00  0.56824786186E+00  0.90007753189E+02  0.90000014731E+02 0.  0.
         12    1    1    2    0    0 -0.82857108589E+00 -0.61931160052E+00 -0.56824786186E+00  0.11802468112E+01  0.00000000000E+00 0. -1.
         11    1    3    3    0    0 -0.72479880319E+01 -0.35318893465E+01  0.34342379055E+01  0.87636501025E+01  0.51100000000E-03 0. -1.
        -11    1    3    3    0    0 -0.31796721795E+02 -0.36912021432E+01  0.16741494325E+02  0.36123871923E+02  0.51100000000E-03 0.  1.
         12    1    3    3    0    0  0.39873280913E+02  0.78424030902E+01 -0.19607484368E+02  0.45120231164E+02  0.00000000000E+00 0. -1.
</event>
<event>
 7    1  0.3032584E-015  0.9000779E+02  0.7816164E-02  0.1186339E+00
        -11   -1    0    0    0    0  0.00000000000E+00  0.00000000000E+00  0.45593999997E+02  0.45594000000E+02  0.51100000000E-03 0. -1.
         11   -1    0    0    0    0 -0.00000000000E+00 -0.00000000000E+00 -0.45593999997E+02  0.45594000000E+02  0.51100000000E-03 0.  1.
    9900012    2    1    2    0    0  0.47739871575E+00 -0.81155340033E+00 -0.71159887219E+00  0.90007787557E+02  0.90000049553E+02 0.  0.
         12    1    1    2    0    0 -0.47739871575E+00  0.81155340033E+00  0.71159887219E+00  0.11802124429E+01  0.00000000000E+00 0. -1.
         11    1    3    3    0    0  0.42982186378E+01  0.43158677188E+01 -0.57730082249E+01  0.83922000603E+01  0.51100000000E-03 0. -1.
        -11    1    3    3    0    0  0.46676949766E+01  0.37072690653E+02 -0.41516254430E+01  0.37595315702E+02  0.51100000000E-03 0.  1.
         12    1    3    3    0    0 -0.84885148987E+01 -0.42200111772E+02  0.92130347957E+01  0.44020271795E+02  0.00000000000E+00 0. -1.
</event>
<event>
 7    1  0.3032584E-015  0.9000769E+02  0.7816164E-02  0.1186339E+00
        -11   -1    0    0    0    0  0.00000000000E+00  0.00000000000E+00  0.45593999997E+02  0.45594000000E+02  0.51100000000E-03 0. -1.
         11   -1    0    0    0    0 -0.00000000000E+00 -0.00000000000E+00 -0.45593999997E+02  0.45594000000E+02  0.51100000000E-03 0.  1.
    9900012    2    1    2    0    0  0.25021007588E+00 -0.59177842113E+00 -0.99011116464E+00  0.90007692032E+02  0.89999952766E+02 0.  0.
         12    1    1    2    0    0 -0.25021007588E+00  0.59177842113E+00  0.99011116464E+00  0.11803079683E+01  0.00000000000E+00 0. -1.
         11    1    3    3    0    0 -0.10038067063E+02 -0.20186996646E+01 -0.30849193634E+01  0.10693674132E+02  0.51100000000E-03 0. -1.
        -11    1    3    3    0    0 -0.11228237730E+02 -0.33571890754E+02 -0.94491305754E+01  0.36639203597E+02  0.51100000000E-03 0.  1.
         12    1    3    3    0    0  0.21516514869E+02  0.34998811998E+02  0.11543938774E+02  0.42674814303E+02  0.00000000000E+00 0. -1.
</event>
<event>
 7    1  0.3032584E-015  0.9000788E+02  0.7816164E-02  0.1186339E+00
        -11   -1    0    0    0    0  0.00000000000E+00  0.00000000000E+00  0.45593999997E+02  0.45594000000E+02  0.51100000000E-03 0. -1.
         11   -1    0    0    0    0 -0.00000000000E+00 -0.00000000000E+00 -0.45593999997E+02  0.45594000000E+02  0.51100000000E-03 0.  1.
    9900012    2    1    2    0    0  0.70603755909E+00 -0.85482489743E+00  0.40431687807E+00  0.90007878490E+02  0.90000141686E+02 0.  0.
         12    1    1    2    0    0 -0.70603755909E+00  0.85482489743E+00 -0.40431687807E+00  0.11801215098E+01  0.00000000000E+00 0. -1.
         11    1    3    3    0    0  0.92128319152E+01 -0.10547139594E+02  0.54374008746E+01  0.15022774512E+02  0.51100000000E-03 0. -1.
        -11    1    3    3    0    0 -0.36942913938E+02 -0.72517030185E+01  0.95087797445E+01  0.38830181295E+02  0.51100000000E-03 0.  1.
         12    1    3    3    0    0  0.28436119582E+02  0.16944017715E+02 -0.14541863741E+02  0.36154922683E+02  0.00000000000E+00 0. -1.
</event>
<event>
 7    1  0.3032584E-015  0.9000770E+02  0.7816164E-02  0.1186339E+00
        -11   -1    0    0    0    0  0.00000000000E+00  0.00000000000E+00  0.45593999997E+02  0.45594000000E+02  0.51100000000E-03 0.  1.
         11   -1    0    0    0    0 -0.00000000000E+00 -0.00000000000E+00 -0.45593999997E+02  0.45594000000E+02  0.51100000000E-03 0. -1.
    9900012    2    1    2    0    0 -0.11172225077E+01 -0.25046715976E+00  0.28669901944E+00  0.90007696540E+02  0.89999957334E+02 0.  0.
         12    1    1    2    0    0  0.11172225077E+01  0.25046715976E+00 -0.28669901944E+00  0.11803034599E+01  0.00000000000E+00 0. -1.
         11    1    3    3    0    0 -0.71752346243E+01  0.91936375403E+01  0.65309341916E+01  0.13366378149E+02  0.51100000000E-03 0. -1.
        -11    1    3    3    0    0  0.17033076884E+02  0.27473142656E+02 -0.17177362525E+02  0.36605478539E+02  0.51100000000E-03 0.  1.
         12    1    3    3    0    0 -0.10975064767E+02 -0.36917247356E+02  0.10933127352E+02  0.40035839852E+02  0.00000000000E+00 0. -1.
</event>
<event>
 7    1  0.3032584E-015  0.9000755E+02  0.7816164E-02  0.1186339E+00
        -11   -1    0    0    0    0  0.00000000000E+00  0.00000000000E+00  0.45593999997E+02  0.45594000000E+02  0.51100000000E-03 0. -1.
         11   -1    0    0    0    0 -0.00000000000E+00 -0.00000000000E+00 -0.45593999997E+02  0.45594000000E+02  0.51100000000E-03 0.  1.
    9900012    2    1    2    0    0 -0.70440325187E+00  0.80222195885E+00 -0.50369493880E+00  0.90007554066E+02  0.89999812979E+02 0.  0.
         12    1    1    2    0    0  0.70440325187E+00 -0.80222195885E+00  0.50369493880E+00  0.11804459343E+01  0.00000000000E+00 0. -1.
         11    1    3    3    0    0  0.34712498272E+02 -0.50748468665E+01  0.11364127699E+02  0.36876211921E+02  0.51100000000E-03 0. -1.
        -11    1    3    3    0    0  0.65655325288E+01 -0.44265453755E+01  0.11127309654E+01  0.79961673200E+01  0.51100000000E-03 0.  1.
        -12    1    3    3    0    0 -0.41982434053E+02  0.10303614201E+02 -0.12980553603E+02  0.45135174825E+02  0.00000000000E+00 0.  1.
</event>
<event>
 7    1  0.3032584E-015  0.9000781E+02  0.7816164E-02  0.1186339E+00
        -11   -1    0    0    0    0  0.00000000000E+00  0.00000000000E+00  0.45593999997E+02  0.45594000000E+02  0.51100000000E-03 0. -1.
         11   -1    0    0    0    0 -0.00000000000E+00 -0.00000000000E+00 -0.45593999997E+02  0.45594000000E+02  0.51100000000E-03 0.  1.
    9900012    2    1    2    0    0 -0.87350314437E+00  0.79084219996E+00  0.66321708096E-01  0.90007814550E+02  0.90000076902E+02 0.  0.
         12    1    1    2    0    0  0.87350314437E+00 -0.79084219996E+00 -0.66321708096E-01  0.11801854504E+01  0.00000000000E+00 0. -1.
         11    1    3    3    0    0 -0.58213170327E+01 -0.96248662212E+01 -0.31655853304E+01  0.11685320386E+02  0.51100000000E-03 0. -1.
        -11    1    3    3    0    0 -0.16459447139E+02  0.10267942023E+02 -0.31809977987E+02  0.37258807460E+02  0.51100000000E-03 0.  1.
         12    1    3    3    0    0  0.21407261027E+02  0.14776639838E+00  0.35041885026E+02  0.41063686704E+02  0.00000000000E+00 0. -1.
</event>
<event>
 7    1  0.3032584E-015  0.9000822E+02  0.7816164E-02  0.1186338E+00
        -11   -1    0    0    0    0  0.00000000000E+00  0.00000000000E+00  0.45593999997E+02  0.45594000000E+02  0.51100000000E-03 0. -1.
         11   -1    0    0    0    0 -0.00000000000E+00 -0.00000000000E+00 -0.45593999997E+02  0.45594000000E+02  0.51100000000E-03 0.  1.
    9900012    2    1    2    0    0 -0.40887960050E+00 -0.29930156911E+00 -0.10654189634E+01  0.90008219713E+02  0.90000487412E+02 0.  0.
         12    1    1    2    0    0  0.40887960050E+00  0.29930156911E+00  0.10654189634E+01  0.11797802866E+01  0.00000000000E+00 0. -1.
         11    1    3    3    0    0  0.53192977073E+01  0.38674820028E+02 -0.14322238822E+02  0.41583207638E+02  0.51100000000E-03 0. -1.
        -11    1    3    3    0    0 -0.85330954422E+01 -0.27495010310E+01 -0.17157501424E+01  0.91278295645E+01  0.51100000000E-03 0.  1.
        -12    1    3    3    0    0  0.28049181344E+01 -0.36224620566E+02  0.14972570001E+02  0.39297182511E+02  0.00000000000E+00 0.  1.
</event>
<event>
 7    1  0.3032584E-015  0.9000771E+02  0.7816164E-02  0.1186339E+00
        -11   -1    0    0    0    0  0.00000000000E+00  0.00000000000E+00  0.45593999997E+02  0.45594000000E+02  0.51100000000E-03 0. -1.
         11   -1    0    0    0    0 -0.00000000000E+00 -0.00000000000E+00 -0.45593999997E+02  0.45594000000E+02  0.51100000000E-03 0.  1.
    9900012    2    1    2    0    0 -0.92785452156E+00 -0.48222553801E-01 -0.72790511804E+00  0.90007709659E+02  0.89999970627E+02 0.  0.
         12    1    1    2    0    0  0.92785452156E+00  0.48222553801E-01  0.72790511804E+00  0.11802903409E+01  0.00000000000E+00 0. -1.
         11    1    3    3    0    0  0.16266901759E+02  0.25679392565E+00  0.40727630831E+02  0.43856789090E+02  0.51100000000E-03 0. -1.
        -11    1    3    3    0    0 -0.16685235917E+01 -0.39423145453E+01 -0.74581458387E+01  0.85994043145E+01  0.51100000000E-03 0.  1.
        -12    1    3    3    0    0 -0.15526232689E+02  0.36372980659E+01 -0.33997390110E+02  0.37551516255E+02  0.00000000000E+00 0.  1.
</event>
<event>
 7    1  0.3032584E-015  0.9000772E+02  0.7816164E-02  0.1186339E+00
        -11   -1    0    0    0    0  0.00000000000E+00  0.00000000000E+00  0.45593999997E+02  0.45594000000E+02  0.51100000000E-03 0. -1.
         11   -1    0    0    0    0 -0.00000000000E+00 -0.00000000000E+00 -0.45593999997E+02  0.45594000000E+02  0.51100000000E-03 0.  1.
    9900012    2    1    2    0    0  0.29451990253E+00  0.10462789681E+01 -0.46001718326E+00  0.90007721448E+02  0.89999982571E+02 0.  0.
         12    1    1    2    0    0 -0.29451990253E+00 -0.10462789681E+01  0.46001718326E+00  0.11802785523E+01  0.00000000000E+00 0. -1.
         11    1    3    3    0    0 -0.29975220047E+02  0.26438745406E+02  0.11160412265E+02  0.41497902088E+02  0.51100000000E-03 0. -1.
        -11    1    3    3    0    0 -0.18620790227E+01 -0.98414917844E+01  0.21578358256E+01  0.10245904281E+02  0.51100000000E-03 0.  1.
        -12    1    3    3    0    0  0.32131818972E+02 -0.15550974654E+02 -0.13778265274E+02  0.38263915078E+02  0.00000000000E+00 0.  1.
</event>
<event>
 7    1  0.3032584E-015  0.9000845E+02  0.7816164E-02  0.1186338E+00
        -11   -1    0    0    0    0  0.00000000000E+00  0.00000000000E+00  0.45593999997E+02  0.45594000000E+02  0.51100000000E-03 0.  1.
         11   -1    0    0    0    0 -0.00000000000E+00 -0.00000000000E+00 -0.45593999997E+02  0.45594000000E+02  0.51100000000E-03 0. -1.
    9900012    2    1    2    0    0  0.17913621887E+00 -0.95099653428E+00  0.67443205800E+00  0.90008448054E+02  0.90000718765E+02 0.  0.
         12    1    1    2    0    0 -0.17913621887E+00  0.95099653428E+00 -0.67443205800E+00  0.11795519463E+01  0.00000000000E+00 0. -1.
         11    1    3    3    0    0 -0.48201337283E+01 -0.84747708960E+01  0.10932973630E+02  0.14648731807E+02  0.51100000000E-03 0. -1.
        -11    1    3    3    0    0 -0.18878326530E+02 -0.26709174930E+02 -0.73351179474E+01  0.33519773173E+02  0.51100000000E-03 0.  1.
         12    1    3    3    0    0  0.23877596478E+02  0.34232949291E+02 -0.29234236245E+01  0.41839943074E+02  0.00000000000E+00 0. -1.
</event>
<event>
 7    1  0.3032584E-015  0.9000768E+02  0.7816164E-02  0.1186339E+00
        -11   -1    0    0    0    0  0.00000000000E+00  0.00000000000E+00  0.45593999997E+02  0.45594000000E+02  0.51100000000E-03 0. -1.
         11   -1    0    0    0    0 -0.00000000000E+00 -0.00000000000E+00 -0.45593999997E+02  0.45594000000E+02  0.51100000000E-03 0.  1.
    9900012    2    1    2    0    0 -0.10926440624E+01  0.43933351937E+00 -0.79259436392E-01  0.90007675025E+02  0.89999935535E+02 0.  0.
         12    1    1    2    0    0  0.10926440624E+01 -0.43933351937E+00  0.79259436392E-01  0.11803249750E+01  0.00000000000E+00 0. -1.
         11    1    3    3    0    0 -0.23310995108E+02  0.31060596696E+02  0.13386364522E+02  0.41077462378E+02  0.51100000000E-03 0. -1.
        -11    1    3    3    0    0 -0.18886526713E+01 -0.55289673525E+01  0.65586959334E+01  0.87836769924E+01  0.51100000000E-03 0.  1.
        -12    1    3    3    0    0  0.24107003717E+02 -0.25092295824E+02 -0.20024319892E+02  0.40146535655E+02  0.00000000000E+00 0.  1.
</event>
<event>
 7    1  0.3032584E-015  0.9000777E+02  0.7816164E-02  0.1186339E+00
        -11   -1    0    0    0    0  0.00000000000E+00  0.00000000000E+00  0.45593999997E+02  0.45594000000E+02  0.51100000000E-03 0.  1.
         11   -1    0    0    0    0 -0.00000000000E+00 -0.00000000000E+00 -0.45593999997E+02  0.45594000000E+02  0.51100000000E-03 0. -1.
    9900012    2    1    2    0    0 -0.35907361956E+00  0.55318961215E+00  0.97876667406E+00  0.90007772559E+02  0.90000034356E+02 0.  0.
         12    1    1    2    0    0  0.35907361956E+00 -0.55318961215E+00 -0.97876667406E+00  0.11802274414E+01  0.00000000000E+00 0. -1.
         11    1    3    3    0    0 -0.19474387543E+02 -0.29508690618E+02  0.10803960255E+02  0.36969448868E+02  0.51100000000E-03 0. -1.
        -11    1    3    3    0    0 -0.17516197007E+01 -0.79803775034E+01 -0.44880901103E+01  0.93218855266E+01  0.51100000000E-03 0.  1.
        -12    1    3    3    0    0  0.20866933624E+02  0.38042257733E+02 -0.53371034707E+01  0.43716438164E+02  0.00000000000E+00 0.  1.
</event>
<event>
 7    1  0.3032584E-015  0.9000767E+02  0.7816164E-02  0.1186339E+00
        -11   -1    0    0    0    0  0.00000000000E+00  0.00000000000E+00  0.45593999997E+02  0.45594000000E+02  0.51100000000E-03 0. -1.
         11   -1    0    0    0    0 -0.00000000000E+00 -0.00000000000E+00 -0.45593999997E+02  0.45594000000E+02  0.51100000000E-03 0.  1.
    9900012    2    1    2    0    0 -0.10911561220E+01 -0.43111030124E+00 -0.12925419112E+00  0.90007667665E+02  0.89999928078E+02 0.  0.
         12    1    1    2    0    0  0.10911561220E+01  0.43111030124E+00  0.12925419112E+00  0.11803323347E+01  0.00000000000E+00 0. -1.
         11    1    3    3    0    0 -0.29942166894E+01  0.38958410959E+02  0.11590135002E-01  0.39073306139E+02  0.51100000000E-03 0. -1.
        -11    1    3    3    0    0 -0.93204101139E+01 -0.16942005908E+01 -0.59356028642E+01  0.11179076078E+02  0.51100000000E-03 0.  1.
        -12    1    3    3    0    0  0.11223470681E+02 -0.37695320670E+02  0.57947585380E+01  0.39755285448E+02  0.00000000000E+00 0.  1.
</event>
<event>
 7    1  0.3032584E-015  0.9000777E+02  0.7816164E-02  0.1186339E+00
        -11   -1    0    0    0    0  0.00000000000E+00  0.00000000000E+00  0.45593999997E+02  0.45594000000E+02  0.51100000000E-03 0.  1.
         11   -1    0    0    0    0 -0.00000000000E+00 -0.00000000000E+00 -0.45593999997E+02  0.45594000000E+02  0.51100000000E-03 0. -1.
    9900012    2    1    2    0    0 -0.11348582648E+01  0.32079079071E+00  0.46062391364E-01  0.90007774701E+02  0.90000036527E+02 0.  0.
         12    1    1    2    0    0  0.11348582648E+01 -0.32079079071E+00 -0.46062391364E-01  0.11802252990E+01  0.00000000000E+00 0. -1.
         11    1    3    3    0    0 -0.97329155979E+01  0.27090744548E+01  0.25936336159E+01  0.10430516096E+02  0.51100000000E-03 0. -1.
        -11    1    3    3    0    0  0.11139102986E+02  0.19779915133E+02  0.31525477328E+02  0.38848170859E+02  0.51100000000E-03 0.  1.
         12    1    3    3    0    0 -0.25410456530E+01 -0.22168198797E+02 -0.34073048553E+02  0.40729087746E+02  0.00000000000E+00 0. -1.
</event>
<event>
 7    1  0.3032584E-015  0.9000774E+02  0.7816164E-02  0.1186339E+00
        -11   -1    0    0    0    0  0.00000000000E+00  0.00000000000E+00  0.45593999997E+02  0.45594000000E+02  0.51100000000E-03 0. -1.
         11   -1    0    0    0    0 -0.00000000000E+00 -0.00000000000E+00 -0.45593999997E+02  0.45594000000E+02  0.51100000000E-03 0.  1.
    9900012    2    1    2    0    0  0.35171207549E+00 -0.10595699047E+01 -0.38290555981E+00  0.90007743064E+02  0.90000004473E+02 0.  0.
         12    1    1    2    0    0 -0.35171207549E+00  0.10595699047E+01  0.38290555981E+00  0.11802569359E+01  0.00000000000E+00 0. -1.
         11    1    3    3    0    0  0.51550961544E+01 -0.34363904290E+02  0.11679908513E+02  0.36658876108E+02  0.51100000000E-03 0. -1.
        -11    1    3    3    0    0  0.96628846549E+01 -0.40301910262E+01  0.24642028392E+01  0.10755746160E+02  0.51100000000E-03 0.  1.
        -12    1    3    3    0    0 -0.14466268734E+02  0.37334525411E+02 -0.14527016912E+02  0.42593120796E+02  0.00000000000E+00 0.  1.
</event>
<event>
 7    1  0.3032584E-015  0.9000767E+02  0.7816164E-02  0.1186339E+00
        -11   -1    0    0    0    0  0.00000000000E+00  0.00000000000E+00  0.45593999997E+02  0.45594000000E+02  0.51100000000E-03 0. -1.
         11   -1    0    0    0    0 -0.00000000000E+00 -0.00000000000E+00 -0.45593999997E+02  0.45594000000E+02  0.51100000000E-03 0.  1.
    9900012    2    1    2    0    0  0.15833170490E+00 -0.11695212456E+01 -0.18138848830E-01  0.90007670431E+02  0.89999930881E+02 0.  0.
         12    1    1    2    0    0 -0.15833170490E+00  0.11695212456E+01  0.18138848830E-01  0.11803295686E+01  0.00000000000E+00 0. -1.
         11    1    3    3    0    0 -0.22136098569E+02  0.10588588363E+02  0.28460231498E+02  0.37578049984E+02  0.51100000000E-03 0. -1.
        -11    1    3    3    0    0  0.66649570743E+01 -0.20230538963E+00  0.84104666337E+01  0.10733057790E+02  0.51100000000E-03 0.  1.
        -12    1    3    3    0    0  0.15629473199E+02 -0.11555804219E+02 -0.36888836981E+02  0.41696562657E+02  0.00000000000E+00 0.  1.
</event>
<event>
 7    1  0.3032584E-015  0.9000773E+02  0.7816164E-02  0.1186339E+00
        -11   -1    0    0    0    0  0.00000000000E+00  0.00000000000E+00  0.45593999997E+02  0.45594000000E+02  0.51100000000E-03 0.  1.
         11   -1    0    0    0    0 -0.00000000000E+00 -0.00000000000E+00 -0.45593999997E+02  0.45594000000E+02  0.51100000000E-03 0. -1.
    9900012    2    1    2    0    0  0.11012221943E+01  0.11121945009E+00  0.40985764574E+00  0.90007727414E+02  0.89999988616E+02 0.  0.
         12    1    1    2    0    0 -0.11012221943E+01 -0.11121945009E+00 -0.40985764574E+00  0.11802725860E+01  0.00000000000E+00 0. -1.
         11    1    3    3    0    0  0.56019326736E+01  0.71493410140E+01 -0.39799967219E+01  0.99164056382E+01  0.51100000000E-03 0. -1.
        -11    1    3    3    0    0  0.98791727659E+01  0.27140973101E+02 -0.20511344478E+02  0.35425213168E+02  0.51100000000E-03 0.  1.
         12    1    3    3    0    0 -0.14379883245E+02 -0.34179094665E+02  0.24901198845E+02  0.44666108608E+02  0.00000000000E+00 0. -1.
</event>
<event>
 7    1  0.3032584E-015  0.9000777E+02  0.7816164E-02  0.1186339E+00
        -11   -1    0    0    0    0  0.00000000000E+00  0.00000000000E+00  0.45593999997E+02  0.45594000000E+02  0.51100000000E-03 0. -1.
         11   -1    0    0    0    0 -0.00000000000E+00 -0.00000000000E+00 -0.45593999997E+02  0.45594000000E+02  0.51100000000E-03 0.  1.
    9900012    2    1    2    0    0 -0.71158033428E+00 -0.92364906003E+00  0.18294533258E+00  0.90007769873E+02  0.90000031635E+02 0.  0.
         12    1    1    2    0    0  0.71158033428E+00  0.92364906003E+00 -0.18294533258E+00  0.11802301271E+01  0.00000000000E+00 0. -1.
         11    1    3    3    0    0  0.11740471516E+02 -0.24603831221E+01 -0.71946385915E+00  0.12017062247E+02  0.51100000000E-03 0. -1.
        -11    1    3    3    0    0 -0.20927184333E+02  0.93564121132E+01 -0.34127408273E+02  0.41111670939E+02  0.51100000000E-03 0.  1.
         12    1    3    3    0    0  0.84751324823E+01 -0.78196780512E+01  0.35029817464E+02  0.36879036687E+02  0.00000000000E+00 0. -1.
</event>
<event>
 7    1  0.3032584E-015  0.9000785E+02  0.7816164E-02  0.1186339E+00
        -11   -1    0    0    0    0  0.00000000000E+00  0.00000000000E+00  0.45593999997E+02  0.45594000000E+02  0.51100000000E-03 0.  1.
         11   -1    0    0    0    0 -0.00000000000E+00 -0.00000000000E+00 -0.45593999997E+02  0.45594000000E+02  0.51100000000E-03 0. -1.
    9900012    2    1    2    0    0 -0.44334245512E+00 -0.10608821485E+01 -0.26597136078E+00  0.90007845675E+02  0.90000108438E+02 0.  0.
         12    1    1    2    0    0  0.44334245512E+00  0.10608821485E+01  0.26597136078E+00  0.11801543248E+01  0.00000000000E+00 0. -1.
         11    1    3    3    0    0 -0.64746311838E+01 -0.80873818048E+01 -0.71970859436E+01  0.12614461533E+02  0.51100000000E-03 0. -1.
        -11    1    3    3    0    0  0.68242126506E+01 -0.21520690300E+02  0.32155897714E+02  0.39290097319E+02  0.51100000000E-03 0.  1.
         12    1    3    3    0    0 -0.79292392189E+00  0.28547189957E+02 -0.25224783131E+02  0.38103286823E+02  0.00000000000E+00 0. -1.
</event>
<event>
 7    1  0.3032584E-015  0.9000769E+02  0.7816164E-02  0.1186339E+00
        -11   -1    0    0    0    0  0.00000000000E+00  0.00000000000E+00  0.45593999997E+02  0.45594000000E+02  0.51100000000E-03 0.  1.
         11   -1    0    0    0    0 -0.00000000000E+00 -0.00000000000E+00 -0.45593999997E+02  0.45594000000E+02  0.51100000000E-03 0. -1.
    9900012    2    1    2    0    0  0.53927045252E+00 -0.99296177231E+00 -0.34110166897E+00  0.90007688155E+02  0.89999948839E+02 0.  0.
         12    1    1    2    0    0 -0.53927045252E+00  0.99296177231E+00  0.34110166897E+00  0.11803118447E+01  0.00000000000E+00 0. -1.
         11    1    3    3    0    0  0.33307900863E+01 -0.68171326582E+00 -0.85180296177E+01  0.91714625009E+01  0.51100000000E-03 0. -1.
        -11    1    3    3    0    0  0.23562098010E+02 -0.27468791738E+02 -0.11773678212E+02  0.38056884805E+02  0.51100000000E-03 0.  1.
         12    1    3    3    0    0 -0.26353617643E+02  0.27157543232E+02  0.19950606161E+02  0.42779340849E+02  0.00000000000E+00 0. -1.
</event>
<event>
 7    1  0.3032584E-015  0.9000786E+02  0.7816164E-02  0.1186339E+00
        -11   -1    0    0    0    0  0.00000000000E+00  0.00000000000E+00  0.45593999997E+02  0.45594000000E+02  0.51100000000E-03 0.  1.
         11   -1    0    0    0    0 -0.00000000000E+00 -0.00000000000E+00 -0.45593999997E+02  0.45594000000E+02  0.51100000000E-03 0. -1.
    9900012    2    1    2    0    0 -0.11223651558E+01  0.22859692696E+00  0.28421956099E+00  0.90007855578E+02  0.90000118472E+02 0.  0.
         12    1    1    2    0    0  0.11223651558E+01 -0.22859692696E+00 -0.28421956099E+00  0.11801444220E+01  0.00000000000E+00 0. -1.
         11    1    3    3    0    0  0.67942179646E+01  0.31275532391E+02 -0.20107460727E+02  0.37797226105E+02  0.51100000000E-03 0. -1.
        -11    1    3    3    0    0 -0.52664643210E+01  0.57966371932E+01 -0.31129525453E+01  0.84277590737E+01  0.51100000000E-03 0.  1.
        -12    1    3    3    0    0 -0.26501187995E+01 -0.36843572657E+02  0.23504632833E+02  0.43782870399E+02  0.00000000000E+00 0.  1.
</event>
<event>
 7    1  0.3032584E-015  0.9000772E+02  0.7816164E-02  0.1186339E+00
        -11   -1    0    0    0    0  0.00000000000E+00  0.00000000000E+00  0.45593999997E+02  0.45594000000E+02  0.51100000000E-03 0. -1.
         11   -1    0    0    0    0 -0.00000000000E+00 -0.00000000000E+00 -0.45593999997E+02  0.45594000000E+02  0.51100000000E-03 0.  1.
    9900012    2    1    2    0    0 -0.16219100168E+00 -0.90451616070E+00 -0.74068133066E+00  0.90007718576E+02  0.89999979661E+02 0.  0.
         12    1    1    2    0    0  0.16219100168E+00  0.90451616070E+00  0.74068133066E+00  0.11802814239E+01  0.00000000000E+00 0. -1.
         11    1    3    3    0    0 -0.59951015399E+01 -0.29715632373E+00  0.68975880504E+01  0.91436461835E+01  0.51100000000E-03 0. -1.
        -11    1    3    3    0    0  0.54481225523E+01 -0.21659781927E+02 -0.37903815515E+02  0.43994629483E+02  0.51100000000E-03 0.  1.
         12    1    3    3    0    0  0.38478798594E+00  0.21052422090E+02  0.30265546134E+02  0.36869442910E+02  0.00000000000E+00 0. -1.
</event>
<event>
 7    1  0.3032584E-015  0.9000790E+02  0.7816164E-02  0.1186339E+00
        -11   -1    0    0    0    0  0.00000000000E+00  0.00000000000E+00  0.45593999997E+02  0.45594000000E+02  0.51100000000E-03 0.  1.
         11   -1    0    0    0    0 -0.00000000000E+00 -0.00000000000E+00 -0.45593999997E+02  0.45594000000E+02  0.51100000000E-03 0. -1.
    9900012    2    1    2    0    0 -0.10466967706E+01  0.41019409489E+00  0.35888137435E+00  0.90007902900E+02  0.90000166418E+02 0.  0.
         12    1    1    2    0    0  0.10466967706E+01 -0.41019409489E+00 -0.35888137435E+00  0.11800971002E+01  0.00000000000E+00 0. -1.
         11    1    3    3    0    0  0.83036041978E+01  0.49150427094E+01 -0.29081024150E+01  0.10077923766E+02  0.51100000000E-03 0. -1.
        -11    1    3    3    0    0  0.25250754473E+02 -0.99881771068E+01  0.26460946724E+02  0.37914983649E+02  0.51100000000E-03 0.  1.
         12    1    3    3    0    0 -0.34601055441E+02  0.54833284924E+01 -0.23193962934E+02  0.42014995485E+02  0.00000000000E+00 0. -1.
</event>
<event>
 7    1  0.3032584E-015  0.9000772E+02  0.7816164E-02  0.1186339E+00
        -11   -1    0    0    0    0  0.00000000000E+00  0.00000000000E+00  0.45593999997E+02  0.45594000000E+02  0.51100000000E-03 0. -1.
         11   -1    0    0    0    0 -0.00000000000E+00 -0.00000000000E+00 -0.45593999997E+02  0.45594000000E+02  0.51100000000E-03 0.  1.
    9900012    2    1    2    0    0  0.43962756542E+00  0.98942872110E+00 -0.46991165699E+00  0.90007720984E+02  0.89999982101E+02 0.  0.
         12    1    1    2    0    0 -0.43962756542E+00 -0.98942872110E+00  0.46991165699E+00  0.11802790161E+01  0.00000000000E+00 0. -1.
         11    1    3    3    0    0  0.19825382585E+02 -0.14260743176E+02  0.28631450143E+02  0.37632094390E+02  0.51100000000E-03 0. -1.
        -11    1    3    3    0    0 -0.63888487840E+01 -0.70354068002E+01  0.40824218586E+01  0.10343138118E+02  0.51100000000E-03 0.  1.
        -12    1    3    3    0    0 -0.12996906236E+02  0.22285578698E+02 -0.33183783659E+02  0.42032488476E+02  0.00000000000E+00 0.  1.
</event>
<event>
 7    1  0.3032584E-015  0.9000749E+02  0.7816164E-02  0.1186340E+00
        -11   -1    0    0    0    0  0.00000000000E+00  0.00000000000E+00  0.45593999997E+02  0.45594000000E+02  0.51100000000E-03 0.  1.
         11   -1    0    0    0    0 -0.00000000000E+00 -0.00000000000E+00 -0.45593999997E+02  0.45594000000E+02  0.51100000000E-03 0. -1.
    9900012    2    1    2    0    0 -0.68114578792E+00 -0.74642878937E+00  0.61031134235E+00  0.90007493559E+02  0.89999751674E+02 0.  0.
         12    1    1    2    0    0  0.68114578792E+00  0.74642878937E+00 -0.61031134235E+00  0.11805064407E+01  0.00000000000E+00 0. -1.
         11    1    3    3    0    0 -0.29466869669E+02  0.22953760325E+02  0.14442794239E+01  0.37379907229E+02  0.51100000000E-03 0. -1.
        -11    1    3    3    0    0 -0.68275160378E+01 -0.26487369001E+01  0.74387563819E+01  0.10438672290E+02  0.51100000000E-03 0.  1.
        -12    1    3    3    0    0  0.35613239919E+02 -0.21051452214E+02 -0.82727244634E+01  0.42188914040E+02  0.00000000000E+00 0.  1.
</event>
<event>
 7    1  0.3784595E-015  0.9000782E+02  0.7816164E-02  0.1186339E+00
        -11   -1    0    0    0    0  0.00000000000E+00  0.00000000000E+00  0.45593999997E+02  0.45594000000E+02  0.51100000000E-03 0. -1.
         11   -1    0    0    0    0 -0.00000000000E+00 -0.00000000000E+00 -0.45593999997E+02  0.45594000000E+02  0.51100000000E-03 0.  1.
    9900012    2    1    2    0    0  0.21180957771E+00  0.90186728492E+00 -0.73116064228E+00  0.90007820445E+02  0.90000082875E+02 0.  0.
         12    1    1    2    0    0 -0.21180957771E+00 -0.90186728492E+00  0.73116064228E+00  0.11801795548E+01  0.00000000000E+00 0. -1.
         11    1    3    3    0    0 -0.39948682442E+01 -0.76463872352E+01  0.35493643303E+02  0.36527043751E+02  0.51100000000E-03 0. -1.
        -11    1    3    3    0    0 -0.72649460950E+01 -0.65433084935E+01  0.27361284132E+01  0.10152867908E+02  0.51100000000E-03 0.  1.
        -12    1    3    3    0    0  0.11471623917E+02  0.15091563014E+02 -0.38960932359E+02  0.43327908786E+02  0.00000000000E+00 0.  1.
</event>
<event>
 7    1  0.3032584E-015  0.9000772E+02  0.7816164E-02  0.1186339E+00
        -11   -1    0    0    0    0  0.00000000000E+00  0.00000000000E+00  0.45593999997E+02  0.45594000000E+02  0.51100000000E-03 0.  1.
         11   -1    0    0    0    0 -0.00000000000E+00 -0.00000000000E+00 -0.45593999997E+02  0.45594000000E+02  0.51100000000E-03 0. -1.
    9900012    2    1    2    0    0 -0.85203434257E+00 -0.37759231161E+00  0.72424302918E+00  0.90007717644E+02  0.89999978717E+02 0.  0.
         12    1    1    2    0    0  0.85203434257E+00  0.37759231161E+00 -0.72424302918E+00  0.11802823561E+01  0.00000000000E+00 0. -1.
         11    1    3    3    0    0 -0.14350890169E+02 -0.13118822664E+01  0.84606610948E+01  0.16710830923E+02  0.51100000000E-03 0. -1.
        -11    1    3    3    0    0  0.14116869873E+02 -0.22405169287E+02  0.22739853936E+02  0.34905280161E+02  0.51100000000E-03 0.  1.
         12    1    3    3    0    0 -0.61801404636E+00  0.23339459242E+02 -0.30476272002E+02  0.38391606560E+02  0.00000000000E+00 0. -1.
</event>
<event>
 7    1  0.3032584E-015  0.9000761E+02  0.7816164E-02  0.1186339E+00
        -11   -1    0    0    0    0  0.00000000000E+00  0.00000000000E+00  0.45593999997E+02  0.45594000000E+02  0.51100000000E-03 0. -1.
         11   -1    0    0    0    0 -0.00000000000E+00 -0.00000000000E+00 -0.45593999997E+02  0.45594000000E+02  0.51100000000E-03 0.  1.
    9900012    2    1    2    0    0  0.10196623094E+01  0.51811904809E+00  0.29182826861E+00  0.90007609255E+02  0.89999868897E+02 0.  0.
         12    1    1    2    0    0 -0.10196623094E+01 -0.51811904809E+00 -0.29182826861E+00  0.11803907453E+01  0.00000000000E+00 0. -1.
         11    1    3    3    0    0 -0.21975004903E+01 -0.66545530630E+01 -0.52277442511E+01  0.87430769806E+01  0.51100000000E-03 0. -1.
        -11    1    3    3    0    0 -0.71147870644E+01  0.31419140935E+02 -0.25118529999E+02  0.40850008098E+02  0.51100000000E-03 0.  1.
         12    1    3    3    0    0  0.10331949864E+02 -0.24246468824E+02  0.30638102519E+02  0.40414524176E+02  0.00000000000E+00 0. -1.
</event>
<event>
 7    1  0.3032584E-015  0.9000771E+02  0.7816164E-02  0.1186339E+00
        -11   -1    0    0    0    0  0.00000000000E+00  0.00000000000E+00  0.45593999997E+02  0.45594000000E+02  0.51100000000E-03 0.  1.
         11   -1    0    0    0    0 -0.00000000000E+00 -0.00000000000E+00 -0.45593999997E+02  0.45594000000E+02  0.51100000000E-03 0. -1.
    9900012    2    1    2    0    0  0.42248557719E+00 -0.50579095309E+00  0.97917159848E+00  0.90007705304E+02  0.89999966214E+02 0.  0.
         12    1    1    2    0    0 -0.42248557719E+00  0.50579095309E+00 -0.97917159848E+00  0.11802946964E+01  0.00000000000E+00 0. -1.
         11    1    3    3    0    0  0.23131041604E+02  0.17186130308E+02  0.17067997590E+02  0.33492158823E+02  0.51100000000E-03 0. -1.
        -11    1    3    3    0    0  0.47905105649E+01  0.78536289243E+01  0.77691430789E+01  0.12041098920E+02  0.51100000000E-03 0.  1.
        -12    1    3    3    0    0 -0.27499066591E+02 -0.25545550185E+02 -0.23857969071E+02  0.44474447561E+02  0.00000000000E+00 0.  1.
</event>
<event>
 7    1  0.3032584E-015  0.9000785E+02  0.7816164E-02  0.1186339E+00
        -11   -1    0    0    0    0  0.00000000000E+00  0.00000000000E+00  0.45593999997E+02  0.45594000000E+02  0.51100000000E-03 0.  1.
         11   -1    0    0    0    0 -0.00000000000E+00 -0.00000000000E+00 -0.45593999997E+02  0.45594000000E+02  0.51100000000E-03 0. -1.
    9900012    2    1    2    0    0  0.11060457159E+01  0.34254197855E+00  0.22821104666E+00  0.90007850681E+02  0.90000113510E+02 0.  0.
         12    1    1    2    0    0 -0.11060457159E+01 -0.34254197855E+00 -0.22821104666E+00  0.11801493188E+01  0.00000000000E+00 0. -1.
         11    1    3    3    0    0  0.17210469961E+01  0.48050176818E+01 -0.35933979595E+02  0.36294642683E+02  0.51100000000E-03 0. -1.
        -11    1    3    3    0    0  0.82241521471E+01  0.55780439868E+01 -0.44988299540E+01  0.10908286963E+02  0.51100000000E-03 0.  1.
        -12    1    3    3    0    0 -0.88391534273E+01 -0.10040519690E+02  0.40661020596E+02  0.42804921035E+02  0.00000000000E+00 0.  1.
</event>
<event>
 7    1  0.3032584E-015  0.9000763E+02  0.7816164E-02  0.1186339E+00
        -11   -1    0    0    0    0  0.00000000000E+00  0.00000000000E+00  0.45593999997E+02  0.45594000000E+02  0.51100000000E-03 0. -1.
         11   -1    0    0    0    0 -0.00000000000E+00 -0.00000000000E+00 -0.45593999997E+02  0.45594000000E+02  0.51100000000E-03 0.  1.
    9900012    2    1    2    0    0 -0.11389698026E+01  0.20066510160E+00  0.23612175994E+00  0.90007630490E+02  0.89999890413E+02 0.  0.
         12    1    1    2    0    0  0.11389698026E+01 -0.20066510160E+00 -0.23612175994E+00  0.11803695098E+01  0.00000000000E+00 0. -1.
         11    1    3    3    0    0 -0.21600341107E+01 -0.64005275373E+01  0.38302895712E+02  0.38894013939E+02  0.51100000000E-03 0. -1.
        -11    1    3    3    0    0 -0.76008469686E+01 -0.41795911298E+01  0.18568863700E+01  0.88707318698E+01  0.51100000000E-03 0.  1.
        -12    1    3    3    0    0  0.86219112767E+01  0.10780783769E+02 -0.39923660322E+02  0.42242884682E+02  0.00000000000E+00 0.  1.
</event>
<event>
 7    1  0.3032584E-015  0.9000777E+02  0.7816164E-02  0.1186339E+00
        -11   -1    0    0    0    0  0.00000000000E+00  0.00000000000E+00  0.45593999997E+02  0.45594000000E+02  0.51100000000E-03 0. -1.
         11   -1    0    0    0    0 -0.00000000000E+00 -0.00000000000E+00 -0.45593999997E+02  0.45594000000E+02  0.51100000000E-03 0.  1.
    9900012    2    1    2    0    0 -0.89164484896E+00  0.62248455604E+00 -0.45872933642E+00  0.90007766903E+02  0.90000028626E+02 0.  0.
         12    1    1    2    0    0  0.89164484896E+00 -0.62248455604E+00  0.45872933642E+00  0.11802330970E+01  0.00000000000E+00 0. -1.
         11    1    3    3    0    0  0.72412869694E+01  0.13118984446E+02  0.13680277682E+01  0.15047109028E+02  0.51100000000E-03 0. -1.
        -11    1    3    3    0    0 -0.32217366845E+02 -0.23981635953E+02 -0.17725200501E+02  0.43900573146E+02  0.51100000000E-03 0.  1.
         12    1    3    3    0    0  0.24084435027E+02  0.11485136063E+02  0.15898443396E+02  0.31060084729E+02  0.00000000000E+00 0. -1.
</event>
<event>
 7    1  0.3032584E-015  0.9000773E+02  0.7816164E-02  0.1186339E+00
        -11   -1    0    0    0    0  0.00000000000E+00  0.00000000000E+00  0.45593999997E+02  0.45594000000E+02  0.51100000000E-03 0.  1.
         11   -1    0    0    0    0 -0.00000000000E+00 -0.00000000000E+00 -0.45593999997E+02  0.45594000000E+02  0.51100000000E-03 0. -1.
    9900012    2    1    2    0    0  0.22773683092E+00 -0.10308512016E+01  0.52773834909E+00  0.90007734763E+02  0.89999996062E+02 0.  0.
         12    1    1    2    0    0 -0.22773683092E+00  0.10308512016E+01 -0.52773834909E+00  0.11802652368E+01  0.00000000000E+00 0. -1.
         11    1    3    3    0    0  0.24101728493E+00  0.83825531736E+01  0.34773973660E+01  0.90784128427E+01  0.51100000000E-03 0. -1.
        -11    1    3    3    0    0  0.41249813677E+01 -0.26887211360E+02  0.31780013769E+02  0.41831888332E+02  0.51100000000E-03 0.  1.
         12    1    3    3    0    0 -0.41382618217E+01  0.17473806985E+02 -0.34729672785E+02  0.39097433589E+02  0.00000000000E+00 0. -1.
</event>
<event>
 7    1  0.3032584E-015  0.9000837E+02  0.7816164E-02  0.1186338E+00
        -11   -1    0    0    0    0  0.00000000000E+00  0.00000000000E+00  0.45593999997E+02  0.45594000000E+02  0.51100000000E-03 0.  1.
         11   -1    0    0    0    0 -0.00000000000E+00 -0.00000000000E+00 -0.45593999997E+02  0.45594000000E+02  0.51100000000E-03 0. -1.
    9900012    2    1    2    0    0  0.83111338349E+00  0.67336083455E+00 -0.49735377335E+00  0.90008370802E+02  0.90000640494E+02 0.  0.
         12    1    1    2    0    0 -0.83111338349E+00 -0.67336083455E+00  0.49735377335E+00  0.11796291983E+01  0.00000000000E+00 0. -1.
         11    1    3    3    0    0 -0.75916450264E+00  0.10091710440E+01 -0.24344578526E+01  0.27425065607E+01  0.51100000000E-03 0. -1.
        -11    1    3    3    0    0  0.25492164100E+01  0.41474712740E+02 -0.11885276029E+02  0.43219325396E+02  0.51100000000E-03 0.  1.
         12    1    3    3    0    0 -0.95893852390E+00 -0.41810522949E+02  0.13822380108E+02  0.44046538845E+02  0.00000000000E+00 0. -1.
</event>
<event>
 7    1  0.3032584E-015  0.9000766E+02  0.7816164E-02  0.1186339E+00
        -11   -1    0    0    0    0  0.00000000000E+00  0.00000000000E+00  0.45593999997E+02  0.45594000000E+02  0.51100000000E-03 0. -1.
         11   -1    0    0    0    0 -0.00000000000E+00 -0.00000000000E+00 -0.45593999997E+02  0.45594000000E+02  0.51100000000E-03 0.  1.
    9900012    2    1    2    0    0 -0.38870951512E+00  0.88499140522E+00 -0.67741852922E+00  0.90007660753E+02  0.89999921075E+02 0.  0.
         12    1    1    2    0    0  0.38870951512E+00 -0.88499140522E+00  0.67741852922E+00  0.11803392471E+01  0.00000000000E+00 0. -1.
         11    1    3    3    0    0  0.30377701597E+01  0.89199908080E+01 -0.12862894053E+01  0.95104586774E+01  0.51100000000E-03 0. -1.
        -11    1    3    3    0    0  0.23144194030E+00  0.97548900811E+01 -0.37250247691E+02  0.38507043501E+02  0.51100000000E-03 0.  1.
         12    1    3    3    0    0 -0.36579216152E+01 -0.17789889484E+02  0.37859118567E+02  0.41990158574E+02  0.00000000000E+00 0. -1.
</event>
<event>
 7    1  0.3032584E-015  0.9000771E+02  0.7816164E-02  0.1186339E+00
        -11   -1    0    0    0    0  0.00000000000E+00  0.00000000000E+00  0.45593999997E+02  0.45594000000E+02  0.51100000000E-03 0.  1.
         11   -1    0    0    0    0 -0.00000000000E+00 -0.00000000000E+00 -0.45593999997E+02  0.45594000000E+02  0.51100000000E-03 0. -1.
    9900012    2    1    2    0    0  0.34379794714E+00 -0.58455440932E+00  0.96601272464E+00  0.90007711277E+02  0.89999972266E+02 0.  0.
         12    1    1    2    0    0 -0.34379794714E+00  0.58455440932E+00 -0.96601272464E+00  0.11802887232E+01  0.00000000000E+00 0. -1.
         11    1    3    3    0    0  0.68484901414E+01  0.39578310335E+02 -0.96390873370E+01  0.41306857435E+02  0.51100000000E-03 0. -1.
        -11    1    3    3    0    0  0.56553047811E+01 -0.58664078273E+01 -0.44924570959E+01  0.93048043496E+01  0.51100000000E-03 0.  1.
        -12    1    3    3    0    0 -0.12159996975E+02 -0.34296456917E+02  0.15097557158E+02  0.39396049493E+02  0.00000000000E+00 0.  1.
</event>
<event>
 7    1  0.3032584E-015  0.9000811E+02  0.7816164E-02  0.1186338E+00
        -11   -1    0    0    0    0  0.00000000000E+00  0.00000000000E+00  0.45593999997E+02  0.45594000000E+02  0.51100000000E-03 0.  1.
         11   -1    0    0    0    0 -0.00000000000E+00 -0.00000000000E+00 -0.45593999997E+02  0.45594000000E+02  0.51100000000E-03 0. -1.
    9900012    2    1    2    0    0  0.39897929387E+00 -0.11008016516E+01  0.14557947632E+00  0.90008109269E+02  0.90000375511E+02 0.  0.
         12    1    1    2    0    0 -0.39897929387E+00  0.11008016516E+01 -0.14557947632E+00  0.11798907310E+01  0.00000000000E+00 0. -1.
         11    1    3    3    0    0  0.21442801807E+01  0.24379314797E+01 -0.61351217169E+01  0.69412654564E+01  0.51100000000E-03 0. -1.
        -11    1    3    3    0    0  0.11274083564E+02  0.33894771576E+02  0.20229236328E+02  0.41050974447E+02  0.51100000000E-03 0.  1.
         12    1    3    3    0    0 -0.13019384451E+02 -0.37433504707E+02 -0.13948535134E+02  0.42015869366E+02  0.00000000000E+00 0. -1.
</event>
<event>
 7    1  0.3032584E-015  0.9000774E+02  0.7816164E-02  0.1186339E+00
        -11   -1    0    0    0    0  0.00000000000E+00  0.00000000000E+00  0.45593999997E+02  0.45594000000E+02  0.51100000000E-03 0.  1.
         11   -1    0    0    0    0 -0.00000000000E+00 -0.00000000000E+00 -0.45593999997E+02  0.45594000000E+02  0.51100000000E-03 0. -1.
    9900012    2    1    2    0    0  0.17096850242E+00 -0.11497305730E+01 -0.20470309991E+00  0.90007739868E+02  0.90000001235E+02 0.  0.
         12    1    1    2    0    0 -0.17096850242E+00  0.11497305730E+01  0.20470309991E+00  0.11802601317E+01  0.00000000000E+00 0. -1.
         11    1    3    3    0    0 -0.29841195258E+02 -0.11963967460E+02 -0.12844710649E+02  0.34621092469E+02  0.51100000000E-03 0. -1.
        -11    1    3    3    0    0 -0.97587063418E+01  0.12582244306E+01 -0.47676203759E+01  0.10933694823E+02  0.51100000000E-03 0.  1.
        -12    1    3    3    0    0  0.39770870102E+02  0.95560124558E+01  0.17407627925E+02  0.44452952576E+02  0.00000000000E+00 0.  1.
</event>
<event>
 7    1  0.3032584E-015  0.9000775E+02  0.7816164E-02  0.1186339E+00
        -11   -1    0    0    0    0  0.00000000000E+00  0.00000000000E+00  0.45593999997E+02  0.45594000000E+02  0.51100000000E-03 0.  1.
         11   -1    0    0    0    0 -0.00000000000E+00 -0.00000000000E+00 -0.45593999997E+02  0.45594000000E+02  0.51100000000E-03 0. -1.
    9900012    2    1    2    0    0 -0.54627049765E+00  0.62078314424E+00  0.84214118576E+00  0.90007752168E+02  0.90000013696E+02 0.  0.
         12    1    1    2    0    0  0.54627049765E+00 -0.62078314424E+00 -0.84214118576E+00  0.11802478322E+01  0.00000000000E+00 0. -1.
         11    1    3    3    0    0 -0.23397126069E+01 -0.86592830654E+01  0.40592917195E+01  0.98455719903E+01  0.51100000000E-03 0. -1.
        -11    1    3    3    0    0 -0.19455819916E+02 -0.14223838197E+02  0.27129616375E+02  0.36288601331E+02  0.51100000000E-03 0.  1.
         12    1    3    3    0    0  0.21249262026E+02  0.23503904406E+02 -0.30346766909E+02  0.43873578846E+02  0.00000000000E+00 0. -1.
</event>
<event>
 7    1  0.3032584E-015  0.9000771E+02  0.7816164E-02  0.1186339E+00
        -11   -1    0    0    0    0  0.00000000000E+00  0.00000000000E+00  0.45593999997E+02  0.45594000000E+02  0.51100000000E-03 0.  1.
         11   -1    0    0    0    0 -0.00000000000E+00 -0.00000000000E+00 -0.45593999997E+02  0.45594000000E+02  0.51100000000E-03 0. -1.
    9900012    2    1    2    0    0  0.56147057509E+00  0.97873884922E+00  0.34627248102E+00  0.90007710386E+02  0.89999971363E+02 0.  0.
         12    1    1    2    0    0 -0.56147057509E+00 -0.97873884922E+00 -0.34627248102E+00  0.11802896139E+01  0.00000000000E+00 0. -1.
         11    1    3    3    0    0 -0.60716201899E+01 -0.17792821030E+01 -0.54001830485E+01  0.83181965444E+01  0.51100000000E-03 0. -1.
        -11    1    3    3    0    0 -0.83737198315E+01 -0.34950176946E+02 -0.11294685288E+02  0.37672323639E+02  0.51100000000E-03 0.  1.
         12    1    3    3    0    0  0.15006810597E+02  0.37708197898E+02  0.17041140817E+02  0.44017190203E+02  0.00000000000E+00 0. -1.
</event>
<event>
 7    1  0.3032584E-015  0.9000773E+02  0.7816164E-02  0.1186339E+00
        -11   -1    0    0    0    0  0.00000000000E+00  0.00000000000E+00  0.45593999997E+02  0.45594000000E+02  0.51100000000E-03 0. -1.
         11   -1    0    0    0    0 -0.00000000000E+00 -0.00000000000E+00 -0.45593999997E+02  0.45594000000E+02  0.51100000000E-03 0.  1.
    9900012    2    1    2    0    0 -0.10640266660E+01  0.15960972387E+00 -0.48518435590E+00  0.90007732289E+02  0.89999993555E+02 0.  0.
         12    1    1    2    0    0  0.10640266660E+01 -0.15960972387E+00  0.48518435590E+00  0.11802677108E+01  0.00000000000E+00 0. -1.
         11    1    3    3    0    0  0.34695008676E+00  0.94336286140E+01 -0.35898715914E+00  0.94468299038E+01  0.51100000000E-03 0. -1.
        -11    1    3    3    0    0  0.31360303435E+02  0.99026802607E+01 -0.19187887876E+02  0.38075014764E+02  0.51100000000E-03 0.  1.
         12    1    3    3    0    0 -0.32771280188E+02 -0.19176699151E+02  0.19061690679E+02  0.42485887622E+02  0.00000000000E+00 0. -1.
</event>
<event>
 7    1  0.3032584E-015  0.9000780E+02  0.7816164E-02  0.1186339E+00
        -11   -1    0    0    0    0  0.00000000000E+00  0.00000000000E+00  0.45593999997E+02  0.45594000000E+02  0.51100000000E-03 0. -1.
         11   -1    0    0    0    0 -0.00000000000E+00 -0.00000000000E+00 -0.45593999997E+02  0.45594000000E+02  0.51100000000E-03 0.  1.
    9900012    2    1    2    0    0  0.11588993618E+01  0.16781527438E+00 -0.14717231544E+00  0.90007801124E+02  0.90000063299E+02 0.  0.
         12    1    1    2    0    0 -0.11588993618E+01 -0.16781527438E+00  0.14717231544E+00  0.11801988762E+01  0.00000000000E+00 0. -1.
         11    1    3    3    0    0  0.26515353056E+01 -0.12492783242E+01  0.37230333606E+02  0.37345536233E+02  0.51100000000E-03 0. -1.
        -11    1    3    3    0    0 -0.13657578544E+01 -0.38376817106E+01  0.69329820008E+01  0.80411028543E+01  0.51100000000E-03 0.  1.
        -12    1    3    3    0    0 -0.12687808946E+00  0.52547753091E+01 -0.44310487922E+02  0.44621162037E+02  0.00000000000E+00 0.  1.
</event>
<event>
 7    1  0.3032584E-015  0.9000774E+02  0.7816164E-02  0.1186339E+00
        -11   -1    0    0    0    0  0.00000000000E+00  0.00000000000E+00  0.45593999997E+02  0.45594000000E+02  0.51100000000E-03 0.  1.
         11   -1    0    0    0    0 -0.00000000000E+00 -0.00000000000E+00 -0.45593999997E+02  0.45594000000E+02  0.51100000000E-03 0. -1.
    9900012    2    1    2    0    0 -0.11258883685E+01  0.21970351558E+00  0.27770795206E+00  0.90007739029E+02  0.90000000384E+02 0.  0.
         12    1    1    2    0    0  0.11258883685E+01 -0.21970351558E+00 -0.27770795206E+00  0.11802609710E+01  0.00000000000E+00 0. -1.
         11    1    3    3    0    0 -0.10720675121E+01  0.55353092665E+01  0.68152259447E+01  0.88451276059E+01  0.51100000000E-03 0. -1.
        -11    1    3    3    0    0 -0.27957633820E+02 -0.82014395229E+01  0.25400942452E+02  0.38653599790E+02  0.51100000000E-03 0.  1.
         12    1    3    3    0    0  0.27903812963E+02  0.28858337719E+01 -0.31938460444E+02  0.42509011633E+02  0.00000000000E+00 0. -1.
</event>
<event>
 7    1  0.3032584E-015  0.9000774E+02  0.7816164E-02  0.1186339E+00
        -11   -1    0    0    0    0  0.00000000000E+00  0.00000000000E+00  0.45593999997E+02  0.45594000000E+02  0.51100000000E-03 0.  1.
         11   -1    0    0    0    0 -0.00000000000E+00 -0.00000000000E+00 -0.45593999997E+02  0.45594000000E+02  0.51100000000E-03 0. -1.
    9900012    2    1    2    0    0 -0.11703172608E+01  0.14787062185E+00 -0.38762208895E-01  0.90007741249E+02  0.90000002633E+02 0.  0.
         12    1    1    2    0    0  0.11703172608E+01 -0.14787062185E+00  0.38762208895E-01  0.11802587515E+01  0.00000000000E+00 0. -1.
         11    1    3    3    0    0 -0.55150661155E-01 -0.94659363952E+01  0.16286134207E+01  0.96051744059E+01  0.51100000000E-03 0. -1.
        -11    1    3    3    0    0 -0.15946603791E+02 -0.21001086027E+02  0.25640129242E+02  0.36779831628E+02  0.51100000000E-03 0.  1.
         12    1    3    3    0    0  0.14831437191E+02  0.30614893044E+02 -0.27307504872E+02  0.43622735214E+02  0.00000000000E+00 0. -1.
</event>
<event>
 7    1  0.6458902E-015  0.9000783E+02  0.7816164E-02  0.1186339E+00
        -11   -1    0    0    0    0  0.00000000000E+00  0.00000000000E+00  0.45593999997E+02  0.45594000000E+02  0.51100000000E-03 0.  1.
         11   -1    0    0    0    0 -0.00000000000E+00 -0.00000000000E+00 -0.45593999997E+02  0.45594000000E+02  0.51100000000E-03 0. -1.
    9900012    2    1    2    0    0 -0.44003847922E+00 -0.10905807526E+01  0.98969912790E-01  0.90007832518E+02  0.90000095108E+02 0.  0.
         12    1    1    2    0    0  0.44003847922E+00  0.10905807526E+01 -0.98969912790E-01  0.11801674817E+01  0.00000000000E+00 0. -1.
         11    1    3    3    0    0  0.20297070027E+02 -0.32443895682E+02 -0.13441332470E+02  0.40561642441E+02  0.51100000000E-03 0. -1.
        -11    1    3    3    0    0 -0.80962622078E+01 -0.46214370288E+01  0.13855713774E+01  0.94248050511E+01  0.51100000000E-03 0.  1.
        -12    1    3    3    0    0 -0.12640846299E+02  0.35974751958E+02  0.12154731005E+02  0.40021385026E+02  0.00000000000E+00 0.  1.
</event>
<event>
 7    1  0.3032584E-015  0.9000774E+02  0.7816164E-02  0.1186339E+00
        -11   -1    0    0    0    0  0.00000000000E+00  0.00000000000E+00  0.45593999997E+02  0.45594000000E+02  0.51100000000E-03 0.  1.
         11   -1    0    0    0    0 -0.00000000000E+00 -0.00000000000E+00 -0.45593999997E+02  0.45594000000E+02  0.51100000000E-03 0. -1.
    9900012    2    1    2    0    0  0.10051608649E+01  0.61673492352E+00 -0.48032076902E-01  0.90007738414E+02  0.89999999761E+02 0.  0.
         12    1    1    2    0    0 -0.10051608649E+01 -0.61673492352E+00  0.48032076902E-01  0.11802615856E+01  0.00000000000E+00 0. -1.
         11    1    3    3    0    0  0.28306292354E+01 -0.59390751764E+01  0.47936521121E+01  0.81402811163E+01  0.51100000000E-03 0. -1.
        -11    1    3    3    0    0 -0.20993686832E+02 -0.32227667086E+02 -0.22798769925E+01  0.38529926706E+02  0.51100000000E-03 0.  1.
         12    1    3    3    0    0  0.19168218462E+02  0.38783477186E+02 -0.25618071965E+01  0.43337530592E+02  0.00000000000E+00 0. -1.
</event>
<event>
 7    1  0.3311958E-015  0.9000774E+02  0.7816164E-02  0.1186339E+00
        -11   -1    0    0    0    0  0.00000000000E+00  0.00000000000E+00  0.45593999997E+02  0.45594000000E+02  0.51100000000E-03 0. -1.
         11   -1    0    0    0    0 -0.00000000000E+00 -0.00000000000E+00 -0.45593999997E+02  0.45594000000E+02  0.51100000000E-03 0.  1.
    9900012    2    1    2    0    0 -0.43697552206E+00 -0.57552650474E+00 -0.93318348047E+00  0.90007741650E+02  0.90000003040E+02 0.  0.
         12    1    1    2    0    0  0.43697552206E+00  0.57552650474E+00  0.93318348047E+00  0.11802583500E+01  0.00000000000E+00 0. -1.
         11    1    3    3    0    0 -0.21399621587E+02 -0.31345759676E+02 -0.86966932600E+01  0.38937551639E+02  0.51100000000E-03 0. -1.
        -11    1    3    3    0    0 -0.70916062323E+00  0.43535858253E+00 -0.98167969110E+01  0.98520022198E+01  0.51100000000E-03 0.  1.
        -12    1    3    3    0    0  0.21671806689E+02  0.30334874588E+02  0.17580306691E+02  0.41218187791E+02  0.00000000000E+00 0.  1.
</event>
<event>
 7    1  0.3944048E-015  0.9000773E+02  0.7816164E-02  0.1186339E+00
        -11   -1    0    0    0    0  0.00000000000E+00  0.00000000000E+00  0.45593999997E+02  0.45594000000E+02  0.51100000000E-03 0.  1.
         11   -1    0    0    0    0 -0.00000000000E+00 -0.00000000000E+00 -0.45593999997E+02  0.45594000000E+02  0.51100000000E-03 0. -1.
    9900012    2    1    2    0    0  0.32529517324E+00 -0.11034783902E+01  0.26374894314E+00  0.90007726721E+02  0.89999987914E+02 0.  0.
         12    1    1    2    0    0 -0.32529517324E+00  0.11034783902E+01 -0.26374894314E+00  0.11802732787E+01  0.00000000000E+00 0. -1.
         11    1    3    3    0    0 -0.89351719697E+01 -0.30861967499E+02 -0.18929332689E+02  0.37290990499E+02  0.51100000000E-03 0. -1.
        -11    1    3    3    0    0  0.28262776102E+01 -0.20939278531E+01 -0.90205297883E+01  0.96820626370E+01  0.51100000000E-03 0.  1.
        -12    1    3    3    0    0  0.64341895327E+01  0.31852416962E+02  0.28213611420E+02  0.43034673586E+02  0.00000000000E+00 0.  1.
</event>
<event>
 7    1  0.3032584E-015  0.9000771E+02  0.7816164E-02  0.1186339E+00
        -11   -1    0    0    0    0  0.00000000000E+00  0.00000000000E+00  0.45593999997E+02  0.45594000000E+02  0.51100000000E-03 0.  1.
         11   -1    0    0    0    0 -0.00000000000E+00 -0.00000000000E+00 -0.45593999997E+02  0.45594000000E+02  0.51100000000E-03 0. -1.
    9900012    2    1    2    0    0 -0.79587333288E+00 -0.36586418760E-01  0.87082739964E+00  0.90007706270E+02  0.89999967193E+02 0.  0.
         12    1    1    2    0    0  0.79587333288E+00  0.36586418760E-01 -0.87082739964E+00  0.11802937295E+01  0.00000000000E+00 0. -1.
         11    1    3    3    0    0 -0.48659810455E+01  0.86682175265E+01  0.48416133644E+01  0.11056988146E+02  0.51100000000E-03 0. -1.
        -11    1    3    3    0    0 -0.36750684812E+02 -0.22882775257E+00 -0.58639747451E+01  0.37216278647E+02  0.51100000000E-03 0.  1.
         12    1    3    3    0    0  0.40820792524E+02 -0.84759761927E+01  0.18931887804E+01  0.41734439478E+02  0.00000000000E+00 0. -1.
</event>
<event>
 7    1  0.3032584E-015  0.9000767E+02  0.7816164E-02  0.1186339E+00
        -11   -1    0    0    0    0  0.00000000000E+00  0.00000000000E+00  0.45593999997E+02  0.45594000000E+02  0.51100000000E-03 0. -1.
         11   -1    0    0    0    0 -0.00000000000E+00 -0.00000000000E+00 -0.45593999997E+02  0.45594000000E+02  0.51100000000E-03 0.  1.
    9900012    2    1    2    0    0  0.38414130974E+00 -0.10781254607E+01  0.28856589436E+00  0.90007665585E+02  0.89999925971E+02 0.  0.
         12    1    1    2    0    0 -0.38414130974E+00  0.10781254607E+01 -0.28856589436E+00  0.11803344146E+01  0.00000000000E+00 0. -1.
         11    1    3    3    0    0  0.63815286942E+01 -0.73589721011E+00  0.71383446564E+01  0.96031983148E+01  0.51100000000E-03 0. -1.
        -11    1    3    3    0    0  0.34606621408E+02 -0.30683394819E+00 -0.16989867937E+02  0.38553443493E+02  0.51100000000E-03 0.  1.
         12    1    3    3    0    0 -0.40604008793E+02 -0.35394302410E-01  0.10140089175E+02  0.41851023778E+02  0.00000000000E+00 0. -1.
</event>
<event>
 7    1  0.3032584E-015  0.9000771E+02  0.7816164E-02  0.1186339E+00
        -11   -1    0    0    0    0  0.00000000000E+00  0.00000000000E+00  0.45593999997E+02  0.45594000000E+02  0.51100000000E-03 0.  1.
         11   -1    0    0    0    0 -0.00000000000E+00 -0.00000000000E+00 -0.45593999997E+02  0.45594000000E+02  0.51100000000E-03 0. -1.
    9900012    2    1    2    0    0 -0.74471508259E+00 -0.89049643249E+00 -0.21328415189E+00  0.90007714196E+02  0.89999975223E+02 0.  0.
         12    1    1    2    0    0  0.74471508259E+00  0.89049643249E+00  0.21328415189E+00  0.11802858044E+01  0.00000000000E+00 0. -1.
         11    1    3    3    0    0 -0.35071640969E+01 -0.21690991443E+02 -0.29202122120E+02  0.36545358752E+02  0.51100000000E-03 0. -1.
        -11    1    3    3    0    0 -0.20913144396E+01 -0.12994454998E+01 -0.89533433781E+01  0.92857155136E+01  0.51100000000E-03 0.  1.
        -12    1    3    3    0    0  0.48537634538E+01  0.22099940510E+02  0.37942181346E+02  0.44176639930E+02  0.00000000000E+00 0.  1.
</event>
<event>
 7    1  0.3153492E-015  0.9000771E+02  0.7816164E-02  0.1186339E+00
        -11   -1    0    0    0    0  0.00000000000E+00  0.00000000000E+00  0.45593999997E+02  0.45594000000E+02  0.51100000000E-03 0. -1.
         11   -1    0    0    0    0 -0.00000000000E+00 -0.00000000000E+00 -0.45593999997E+02  0.45594000000E+02  0.51100000000E-03 0.  1.
    9900012    2    1    2    0    0 -0.68833856876E-02 -0.87844325801E+00  0.78827432548E+00  0.90007709209E+02  0.89999970171E+02 0.  0.
         12    1    1    2    0    0  0.68833856876E-02  0.87844325801E+00 -0.78827432548E+00  0.11802907908E+01  0.00000000000E+00 0. -1.
         11    1    3    3    0    0  0.28622746260E+02  0.27529135997E+02 -0.22220325505E+01  0.39775021825E+02  0.51100000000E-03 0. -1.
        -11    1    3    3    0    0  0.44724948054E+01 -0.62989381339E+01 -0.55551803987E+01  0.95152436081E+01  0.51100000000E-03 0.  1.
        -12    1    3    3    0    0 -0.33102124451E+02 -0.22108641121E+02  0.85654872747E+01  0.40717443776E+02  0.00000000000E+00 0.  1.
</event>
<event>
 7    1  0.3032584E-015  0.9000776E+02  0.7816164E-02  0.1186339E+00
        -11   -1    0    0    0    0  0.00000000000E+00  0.00000000000E+00  0.45593999997E+02  0.45594000000E+02  0.51100000000E-03 0.  1.
         11   -1    0    0    0    0 -0.00000000000E+00 -0.00000000000E+00 -0.45593999997E+02  0.45594000000E+02  0.51100000000E-03 0. -1.
    9900012    2    1    2    0    0  0.63263768165E-01 -0.94300494954E+00  0.70690470661E+00  0.90007756422E+02  0.90000018007E+02 0.  0.
         12    1    1    2    0    0 -0.63263768165E-01  0.94300494954E+00 -0.70690470661E+00  0.11802435780E+01  0.00000000000E+00 0. -1.
         11    1    3    3    0    0 -0.21112681867E+01  0.14766369858E+01 -0.90155623720E+01  0.93764745661E+01  0.51100000000E-03 0. -1.
        -11    1    3    3    0    0 -0.12765318059E+02  0.25900911778E+02 -0.21428931018E+02  0.35958443527E+02  0.51100000000E-03 0.  1.
         12    1    3    3    0    0  0.14939850014E+02 -0.28320553713E+02  0.31151398096E+02  0.44672838329E+02  0.00000000000E+00 0. -1.
</event>
<event>
 7    1  0.3032584E-015  0.9000772E+02  0.7816164E-02  0.1186339E+00
        -11   -1    0    0    0    0  0.00000000000E+00  0.00000000000E+00  0.45593999997E+02  0.45594000000E+02  0.51100000000E-03 0. -1.
         11   -1    0    0    0    0 -0.00000000000E+00 -0.00000000000E+00 -0.45593999997E+02  0.45594000000E+02  0.51100000000E-03 0.  1.
    9900012    2    1    2    0    0 -0.25617217470E+00 -0.11025959654E+01 -0.33423002722E+00  0.90007723864E+02  0.89999985019E+02 0.  0.
         12    1    1    2    0    0  0.25617217470E+00  0.11025959654E+01  0.33423002722E+00  0.11802761359E+01  0.00000000000E+00 0. -1.
         11    1    3    3    0    0  0.20969201582E+02  0.28003048486E+02  0.14266227236E+02  0.37780992302E+02  0.51100000000E-03 0. -1.
        -11    1    3    3    0    0  0.47432206303E+01 -0.82305344803E+01  0.76201294360E+01  0.12178103820E+02  0.51100000000E-03 0.  1.
        -12    1    3    3    0    0 -0.25968594387E+02 -0.20875109971E+02 -0.22220586699E+02  0.40048627742E+02  0.00000000000E+00 0.  1.
</event>
<event>
 7    1  0.3381879E-015  0.9000778E+02  0.7816164E-02  0.1186339E+00
        -11   -1    0    0    0    0  0.00000000000E+00  0.00000000000E+00  0.45593999997E+02  0.45594000000E+02  0.51100000000E-03 0. -1.
         11   -1    0    0    0    0 -0.00000000000E+00 -0.00000000000E+00 -0.45593999997E+02  0.45594000000E+02  0.51100000000E-03 0.  1.
    9900012    2    1    2    0    0  0.10663856616E+01 -0.48845679143E+00 -0.13096875118E+00  0.90007779160E+02  0.90000041045E+02 0.  0.
         12    1    1    2    0    0 -0.10663856616E+01  0.48845679143E+00  0.13096875118E+00  0.11802208396E+01  0.00000000000E+00 0. -1.
         11    1    3    3    0    0  0.35191619194E+02  0.18177101547E+02 -0.96863707472E+01  0.40776008396E+02  0.51100000000E-03 0. -1.
        -11    1    3    3    0    0  0.58992165803E+00  0.67193823068E+00  0.94517865043E+01  0.94939863563E+01  0.51100000000E-03 0.  1.
        -12    1    3    3    0    0 -0.34715155191E+02 -0.19337496569E+02  0.10361549170E+00  0.39737784408E+02  0.00000000000E+00 0.  1.
</event>
<event>
 7    1  0.3032584E-015  0.9000776E+02  0.7816164E-02  0.1186339E+00
        -11   -1    0    0    0    0  0.00000000000E+00  0.00000000000E+00  0.45593999997E+02  0.45594000000E+02  0.51100000000E-03 0. -1.
         11   -1    0    0    0    0 -0.00000000000E+00 -0.00000000000E+00 -0.45593999997E+02  0.45594000000E+02  0.51100000000E-03 0.  1.
    9900012    2    1    2    0    0  0.23090137640E+00 -0.15306608756E+00 -0.11472711712E+01  0.90007756037E+02  0.90000017616E+02 0.  0.
         12    1    1    2    0    0 -0.23090137640E+00  0.15306608756E+00  0.11472711712E+01  0.11802439634E+01  0.00000000000E+00 0. -1.
         11    1    3    3    0    0  0.65743085834E+01 -0.61050567260E+01  0.41671593168E+02  0.42626458080E+02  0.51100000000E-03 0. -1.
        -11    1    3    3    0    0  0.44400330830E+01 -0.32201586580E+01 -0.71916433722E+01  0.90445038679E+01  0.51100000000E-03 0.  1.
        -12    1    3    3    0    0 -0.10783440290E+02  0.91721492964E+01 -0.35627220967E+02  0.38336794089E+02  0.00000000000E+00 0.  1.
</event>
<event>
 7    1  0.3032584E-015  0.9000773E+02  0.7816164E-02  0.1186339E+00
        -11   -1    0    0    0    0  0.00000000000E+00  0.00000000000E+00  0.45593999997E+02  0.45594000000E+02  0.51100000000E-03 0.  1.
         11   -1    0    0    0    0 -0.00000000000E+00 -0.00000000000E+00 -0.45593999997E+02  0.45594000000E+02  0.51100000000E-03 0. -1.
    9900012    2    1    2    0    0  0.30898550004E+00  0.11286633479E+01  0.15389834086E+00  0.90007729823E+02  0.89999991056E+02 0.  0.
         12    1    1    2    0    0 -0.30898550004E+00 -0.11286633479E+01 -0.15389834086E+00  0.11802701773E+01  0.00000000000E+00 0. -1.
         11    1    3    3    0    0  0.30708442886E+02  0.19715470545E+02  0.15949757566E+02  0.39825908778E+02  0.51100000000E-03 0. -1.
        -11    1    3    3    0    0  0.92002670812E+00  0.54962364088E+01 -0.82556465774E+01  0.99604600535E+01  0.51100000000E-03 0.  1.
        -12    1    3    3    0    0 -0.31319484094E+02 -0.24083043606E+02 -0.75402126481E+01  0.40221360991E+02  0.00000000000E+00 0.  1.
</event>
<event>
 7    1  0.3032584E-015  0.9000652E+02  0.7816164E-02  0.1186341E+00
        -11   -1    0    0    0    0  0.00000000000E+00  0.00000000000E+00  0.45593999997E+02  0.45594000000E+02  0.51100000000E-03 0.  1.
         11   -1    0    0    0    0 -0.00000000000E+00 -0.00000000000E+00 -0.45593999997E+02  0.45594000000E+02  0.51100000000E-03 0. -1.
    9900012    2    1    2    0    0  0.11621885903E+00 -0.10849444829E+01  0.45307933516E+00  0.90006521165E+02  0.89998766436E+02 0.  0.
         12    1    1    2    0    0 -0.11621885903E+00  0.10849444829E+01 -0.45307933516E+00  0.11814788352E+01  0.00000000000E+00 0. -1.
         11    1    3    3    0    0 -0.81488331695E+01  0.58799780038E+01  0.34901438852E+01  0.10637609128E+02  0.51100000000E-03 0. -1.
        -11    1    3    3    0    0  0.77053381519E+00  0.31412235106E+02 -0.19458204425E+02  0.36958679040E+02  0.51100000000E-03 0.  1.
         12    1    3    3    0    0  0.74945182134E+01 -0.38377157592E+02  0.16421139875E+02  0.42410232997E+02  0.00000000000E+00 0. -1.
</event>
<event>
 7    1  0.3032584E-015  0.9000798E+02  0.7816164E-02  0.1186339E+00
        -11   -1    0    0    0    0  0.00000000000E+00  0.00000000000E+00  0.45593999997E+02  0.45594000000E+02  0.51100000000E-03 0.  1.
         11   -1    0    0    0    0 -0.00000000000E+00 -0.00000000000E+00 -0.45593999997E+02  0.45594000000E+02  0.51100000000E-03 0. -1.
    9900012    2    1    2    0    0 -0.19278858772E+00  0.73688251166E+00  0.90127372632E+00  0.90007975591E+02  0.90000240069E+02 0.  0.
         12    1    1    2    0    0  0.19278858772E+00 -0.73688251166E+00 -0.90127372632E+00  0.11800244088E+01  0.00000000000E+00 0. -1.
         11    1    3    3    0    0  0.71323887355E+01 -0.33799101715E+00  0.88438227118E+01  0.11366547735E+02  0.51100000000E-03 0. -1.
        -11    1    3    3    0    0 -0.42244970541E+02 -0.58229523141E+01 -0.42087195652E+01  0.42851576754E+02  0.51100000000E-03 0.  1.
         12    1    3    3    0    0  0.34919793218E+02  0.68978258429E+01 -0.37338294203E+01  0.35789851102E+02  0.00000000000E+00 0. -1.
</event>
<event>
 7    1  0.3032584E-015  0.9000761E+02  0.7816164E-02  0.1186339E+00
        -11   -1    0    0    0    0  0.00000000000E+00  0.00000000000E+00  0.45593999997E+02  0.45594000000E+02  0.51100000000E-03 0. -1.
         11   -1    0    0    0    0 -0.00000000000E+00 -0.00000000000E+00 -0.45593999997E+02  0.45594000000E+02  0.51100000000E-03 0.  1.
    9900012    2    1    2    0    0 -0.97414248681E+00 -0.14896503549E+00  0.64975677088E+00  0.90007606833E+02  0.89999866444E+02 0.  0.
         12    1    1    2    0    0  0.97414248681E+00  0.14896503549E+00 -0.64975677088E+00  0.11803931666E+01  0.00000000000E+00 0. -1.
         11    1    3    3    0    0 -0.77874712019E+01 -0.17021600075E+02 -0.70721805439E+01  0.20009880428E+02  0.51100000000E-03 0. -1.
        -11    1    3    3    0    0 -0.18670865156E+01 -0.13225128279E+02 -0.22696101446E+02  0.26334446096E+02  0.51100000000E-03 0.  1.
         12    1    3    3    0    0  0.86804152307E+01  0.30097763319E+02  0.30418038761E+02  0.43663280310E+02  0.00000000000E+00 0. -1.
</event>
<event>
 7    1  0.3032584E-015  0.9000771E+02  0.7816164E-02  0.1186339E+00
        -11   -1    0    0    0    0  0.00000000000E+00  0.00000000000E+00  0.45593999997E+02  0.45594000000E+02  0.51100000000E-03 0.  1.
         11   -1    0    0    0    0 -0.00000000000E+00 -0.00000000000E+00 -0.45593999997E+02  0.45594000000E+02  0.51100000000E-03 0. -1.
    9900012    2    1    2    0    0 -0.87336614077E+00  0.74568584396E+00  0.27250908628E+00  0.90007713172E+02  0.89999974186E+02 0.  0.
         12    1    1    2    0    0  0.87336614077E+00 -0.74568584396E+00 -0.27250908628E+00  0.11802868278E+01  0.00000000000E+00 0. -1.
         11    1    3    3    0    0 -0.34928884453E+01 -0.58320235334E+01 -0.21014138531E+01  0.71153853465E+01  0.51100000000E-03 0. -1.
        -11    1    3    3    0    0 -0.23692406010E+02 -0.12460128658E+02  0.30034452711E+02  0.40232490087E+02  0.51100000000E-03 0.  1.
         12    1    3    3    0    0  0.26311928314E+02  0.19037838035E+02 -0.27660529771E+02  0.42659837739E+02  0.00000000000E+00 0. -1.
</event>
<event>
 7    1  0.3032584E-015  0.9000777E+02  0.7816164E-02  0.1186339E+00
        -11   -1    0    0    0    0  0.00000000000E+00  0.00000000000E+00  0.45593999997E+02  0.45594000000E+02  0.51100000000E-03 0.  1.
         11   -1    0    0    0    0 -0.00000000000E+00 -0.00000000000E+00 -0.45593999997E+02  0.45594000000E+02  0.51100000000E-03 0. -1.
    9900012    2    1    2    0    0  0.10069659959E+01  0.25312211981E+00 -0.56114416029E+00  0.90007773711E+02  0.90000035524E+02 0.  0.
         12    1    1    2    0    0 -0.10069659959E+01 -0.25312211981E+00  0.56114416029E+00  0.11802262889E+01  0.00000000000E+00 0. -1.
         11    1    3    3    0    0  0.51583882411E+01  0.79880887820E+00  0.82495692877E+01  0.97622978116E+01  0.51100000000E-03 0. -1.
        -11    1    3    3    0    0 -0.34105283691E+02 -0.10044611099E+02  0.17160314397E+02  0.39478360886E+02  0.51100000000E-03 0.  1.
         12    1    3    3    0    0  0.29953861446E+02  0.94989243411E+01 -0.25971027845E+02  0.40767115013E+02  0.00000000000E+00 0. -1.
</event>
<event>
 7    1  0.3032584E-015  0.9000772E+02  0.7816164E-02  0.1186339E+00
        -11   -1    0    0    0    0  0.00000000000E+00  0.00000000000E+00  0.45593999997E+02  0.45594000000E+02  0.51100000000E-03 0. -1.
         11   -1    0    0    0    0 -0.00000000000E+00 -0.00000000000E+00 -0.45593999997E+02  0.45594000000E+02  0.51100000000E-03 0.  1.
    9900012    2    1    2    0    0 -0.24981562737E+00  0.11045505970E+01 -0.33257972611E+00  0.90007724971E+02  0.89999986141E+02 0.  0.
         12    1    1    2    0    0  0.24981562737E+00 -0.11045505970E+01  0.33257972611E+00  0.11802750287E+01  0.00000000000E+00 0. -1.
         11    1    3    3    0    0  0.74479867263E+01  0.75278880388E+01  0.65420181751E+01  0.12447473907E+02  0.51100000000E-03 0. -1.
        -11    1    3    3    0    0 -0.65239928298E+01  0.34128650782E+02 -0.11794969609E+02  0.36693985815E+02  0.51100000000E-03 0.  1.
         12    1    3    3    0    0 -0.11738095239E+01 -0.40551988224E+02  0.49203717074E+01  0.40866265250E+02  0.00000000000E+00 0. -1.
</event>
<event>
 7    1  0.3032584E-015  0.9000782E+02  0.7816164E-02  0.1186339E+00
        -11   -1    0    0    0    0  0.00000000000E+00  0.00000000000E+00  0.45593999997E+02  0.45594000000E+02  0.51100000000E-03 0. -1.
         11   -1    0    0    0    0 -0.00000000000E+00 -0.00000000000E+00 -0.45593999997E+02  0.45594000000E+02  0.51100000000E-03 0.  1.
    9900012    2    1    2    0    0  0.21997456004E+00  0.83047646961E+00 -0.80915904328E+00  0.90007822754E+02  0.90000085215E+02 0.  0.
         12    1    1    2    0    0 -0.21997456004E+00 -0.83047646961E+00  0.80915904328E+00  0.11801772456E+01  0.00000000000E+00 0. -1.
         11    1    3    3    0    0 -0.58387182748E+01 -0.65848336255E+01 -0.71636109341E+01  0.11347598285E+02  0.51100000000E-03 0. -1.
        -11    1    3    3    0    0 -0.16039126898E+02  0.93764275598E+01 -0.30459539891E+02  0.35678488702E+02  0.51100000000E-03 0.  1.
         12    1    3    3    0    0  0.22097819733E+02 -0.19611174647E+01  0.36813991782E+02  0.42981735767E+02  0.00000000000E+00 0. -1.
</event>
<event>
 7    1  0.3032584E-015  0.9000684E+02  0.7816164E-02  0.1186341E+00
        -11   -1    0    0    0    0  0.00000000000E+00  0.00000000000E+00  0.45593999997E+02  0.45594000000E+02  0.51100000000E-03 0. -1.
         11   -1    0    0    0    0 -0.00000000000E+00 -0.00000000000E+00 -0.45593999997E+02  0.45594000000E+02  0.51100000000E-03 0.  1.
    9900012    2    1    2    0    0  0.40806167442E+00  0.88479600514E+00 -0.66764450662E+00  0.90006844850E+02  0.89999094398E+02 0.  0.
         12    1    1    2    0    0 -0.40806167442E+00 -0.88479600514E+00  0.66764450662E+00  0.11811551499E+01  0.00000000000E+00 0. -1.
         11    1    3    3    0    0 -0.26617900162E+02 -0.17457347344E+02  0.15221572990E+02  0.35284102226E+02  0.51100000000E-03 0. -1.
        -11    1    3    3    0    0 -0.71703633906E+01  0.15043487219E+01  0.71061560029E+01  0.10206597358E+02  0.51100000000E-03 0.  1.
        -12    1    3    3    0    0  0.34196325228E+02  0.16837794627E+02 -0.22995373499E+02  0.44516145266E+02  0.00000000000E+00 0.  1.
</event>
<event>
 7    1  0.3032584E-015  0.9000763E+02  0.7816164E-02  0.1186339E+00
        -11   -1    0    0    0    0  0.00000000000E+00  0.00000000000E+00  0.45593999997E+02  0.45594000000E+02  0.51100000000E-03 0.  1.
         11   -1    0    0    0    0 -0.00000000000E+00 -0.00000000000E+00 -0.45593999997E+02  0.45594000000E+02  0.51100000000E-03 0. -1.
    9900012    2    1    2    0    0 -0.10224780844E+01  0.13013955556E-01  0.58962157705E+00  0.90007625314E+02  0.89999885168E+02 0.  0.
         12    1    1    2    0    0  0.10224780844E+01 -0.13013955556E-01 -0.58962157705E+00  0.11803746864E+01  0.00000000000E+00 0. -1.
         11    1    3    3    0    0  0.36557709929E+01 -0.21841622803E+02  0.17861661193E+02  0.28451012092E+02  0.51100000000E-03 0. -1.
        -11    1    3    3    0    0  0.24843978459E+01 -0.85262853938E+01  0.14508681821E+02  0.17010926598E+02  0.51100000000E-03 0.  1.
        -12    1    3    3    0    0 -0.71626469231E+01  0.30380922152E+02 -0.31780721437E+02  0.44545686624E+02  0.00000000000E+00 0.  1.
</event>
<event>
 7    1  0.3032584E-015  0.9000770E+02  0.7816164E-02  0.1186339E+00
        -11   -1    0    0    0    0  0.00000000000E+00  0.00000000000E+00  0.45593999997E+02  0.45594000000E+02  0.51100000000E-03 0.  1.
         11   -1    0    0    0    0 -0.00000000000E+00 -0.00000000000E+00 -0.45593999997E+02  0.45594000000E+02  0.51100000000E-03 0. -1.
    9900012    2    1    2    0    0  0.10764107898E+01  0.45590550873E+00  0.16310977049E+00  0.90007697150E+02  0.89999957952E+02 0.  0.
         12    1    1    2    0    0 -0.10764107898E+01 -0.45590550873E+00 -0.16310977049E+00  0.11803028503E+01  0.00000000000E+00 0. -1.
         11    1    3    3    0    0 -0.32778456580E+02  0.19555237129E+01  0.24783037428E+02  0.41139400010E+02  0.51100000000E-03 0. -1.
        -11    1    3    3    0    0  0.69646423128E+01  0.32086036735E+01  0.45501036193E+01  0.89165477224E+01  0.51100000000E-03 0.  1.
        -12    1    3    3    0    0  0.26890225057E+02 -0.47082218777E+01 -0.29170031277E+02  0.39951749418E+02  0.00000000000E+00 0.  1.
</event>
<event>
 7    1  0.3032584E-015  0.9000771E+02  0.7816164E-02  0.1186339E+00
        -11   -1    0    0    0    0  0.00000000000E+00  0.00000000000E+00  0.45593999997E+02  0.45594000000E+02  0.51100000000E-03 0. -1.
         11   -1    0    0    0    0 -0.00000000000E+00 -0.00000000000E+00 -0.45593999997E+02  0.45594000000E+02  0.51100000000E-03 0.  1.
    9900012    2    1    2    0    0  0.33075557390E-01 -0.94864746469E+00 -0.70147352529E+00  0.90007707192E+02  0.89999968127E+02 0.  0.
         12    1    1    2    0    0 -0.33075557390E-01  0.94864746469E+00  0.70147352529E+00  0.11802928075E+01  0.00000000000E+00 0. -1.
         11    1    3    3    0    0 -0.10906795480E+01  0.74134100786E+01 -0.65939536182E+01  0.99814054847E+01  0.51100000000E-03 0. -1.
        -11    1    3    3    0    0 -0.14842296745E+02 -0.25062452709E+02 -0.27075631146E+02  0.39768204770E+02  0.51100000000E-03 0.  1.
         12    1    3    3    0    0  0.15966051851E+02  0.16700395165E+02  0.32968111239E+02  0.40258096937E+02  0.00000000000E+00 0. -1.
</event>
<event>
 7    1  0.3032584E-015  0.9000764E+02  0.7816164E-02  0.1186339E+00
        -11   -1    0    0    0    0  0.00000000000E+00  0.00000000000E+00  0.45593999997E+02  0.45594000000E+02  0.51100000000E-03 0.  1.
         11   -1    0    0    0    0 -0.00000000000E+00 -0.00000000000E+00 -0.45593999997E+02  0.45594000000E+02  0.51100000000E-03 0. -1.
    9900012    2    1    2    0    0  0.51203556071E+00 -0.31299635725E+00  0.10164204732E+01  0.90007636618E+02  0.89999896621E+02 0.  0.
         12    1    1    2    0    0 -0.51203556071E+00  0.31299635725E+00 -0.10164204732E+01  0.11803633819E+01  0.00000000000E+00 0. -1.
         11    1    3    3    0    0 -0.71629541437E-01  0.78373632196E+01 -0.65040785950E+01  0.10184911961E+02  0.51100000000E-03 0. -1.
        -11    1    3    3    0    0  0.28578378774E+02  0.23643829479E+02  0.27612050284E+01  0.37193798667E+02  0.51100000000E-03 0.  1.
         12    1    3    3    0    0 -0.27994713672E+02 -0.31794189056E+02  0.47592940398E+01  0.42628925990E+02  0.00000000000E+00 0. -1.
</event>
<event>
 7    1  0.3032584E-015  0.9000771E+02  0.7816164E-02  0.1186339E+00
        -11   -1    0    0    0    0  0.00000000000E+00  0.00000000000E+00  0.45593999997E+02  0.45594000000E+02  0.51100000000E-03 0.  1.
         11   -1    0    0    0    0 -0.00000000000E+00 -0.00000000000E+00 -0.45593999997E+02  0.45594000000E+02  0.51100000000E-03 0. -1.
    9900012    2    1    2    0    0 -0.16081191483E+00  0.86765385944E+00  0.78383935124E+00  0.90007708587E+02  0.89999969540E+02 0.  0.
         12    1    1    2    0    0  0.16081191483E+00 -0.86765385944E+00 -0.78383935124E+00  0.11802914133E+01  0.00000000000E+00 0. -1.
         11    1    3    3    0    0 -0.26614622792E+02  0.34359084980E+02 -0.18375005651E+01  0.43500129605E+02  0.51100000000E-03 0. -1.
        -11    1    3    3    0    0  0.31389158936E+01 -0.34331745320E+01 -0.59109621731E+01  0.75218983260E+01  0.51100000000E-03 0.  1.
        -12    1    3    3    0    0  0.23314894984E+02 -0.30058256589E+02  0.85323020894E+01  0.38985680656E+02  0.00000000000E+00 0.  1.
</event>
<event>
 7    1  0.3458102E-015  0.9000784E+02  0.7816164E-02  0.1186339E+00
        -11   -1    0    0    0    0  0.00000000000E+00  0.00000000000E+00  0.45593999997E+02  0.45594000000E+02  0.51100000000E-03 0.  1.
         11   -1    0    0    0    0 -0.00000000000E+00 -0.00000000000E+00 -0.45593999997E+02  0.45594000000E+02  0.51100000000E-03 0. -1.
    9900012    2    1    2    0    0  0.82927066309E+00  0.48250299918E+00  0.68722128289E+00  0.90007842354E+02  0.90000105073E+02 0.  0.
         12    1    1    2    0    0 -0.82927066309E+00 -0.48250299918E+00 -0.68722128289E+00  0.11801576456E+01  0.00000000000E+00 0. -1.
         11    1    3    3    0    0 -0.46156674729E+00  0.33240977697E+02 -0.12598148865E+02  0.35551216536E+02  0.51100000000E-03 0. -1.
        -11    1    3    3    0    0 -0.13681353155E+01  0.99094627993E+01  0.15356313286E+01  0.10120642818E+02  0.51100000000E-03 0.  1.
        -12    1    3    3    0    0  0.26589727259E+01 -0.42667937498E+02  0.11749738819E+02  0.44335983000E+02  0.00000000000E+00 0.  1.
</event>
<event>
 7    1  0.3032584E-015  0.9000773E+02  0.7816164E-02  0.1186339E+00
        -11   -1    0    0    0    0  0.00000000000E+00  0.00000000000E+00  0.45593999997E+02  0.45594000000E+02  0.51100000000E-03 0.  1.
         11   -1    0    0    0    0 -0.00000000000E+00 -0.00000000000E+00 -0.45593999997E+02  0.45594000000E+02  0.51100000000E-03 0. -1.
    9900012    2    1    2    0    0  0.87891205557E+00 -0.39384298817E+00  0.68222471536E+00  0.90007733393E+02  0.89999994674E+02 0.  0.
         12    1    1    2    0    0 -0.87891205557E+00  0.39384298817E+00 -0.68222471536E+00  0.11802666067E+01  0.00000000000E+00 0. -1.
         11    1    3    3    0    0 -0.15697520840E+02 -0.14541179347E+02 -0.29105625982E+02  0.36124721748E+02  0.51100000000E-03 0. -1.
        -11    1    3    3    0    0 -0.71355387968E+01  0.42834062648E+01 -0.56927160638E+01  0.10083179042E+02  0.51100000000E-03 0.  1.
        -12    1    3    3    0    0  0.23711971692E+02  0.98639300941E+01  0.35480566761E+02  0.43799832603E+02  0.00000000000E+00 0.  1.
</event>
<event>
 7    1  0.3032584E-015  0.9000747E+02  0.7816164E-02  0.1186340E+00
        -11   -1    0    0    0    0  0.00000000000E+00  0.00000000000E+00  0.45593999997E+02  0.45594000000E+02  0.51100000000E-03 0.  1.
         11   -1    0    0    0    0 -0.00000000000E+00 -0.00000000000E+00 -0.45593999997E+02  0.45594000000E+02  0.51100000000E-03 0. -1.
    9900012    2    1    2    0    0 -0.93899604240E+00 -0.58816289942E+00  0.40742472387E+00  0.90007472970E+02  0.89999730812E+02 0.  0.
         12    1    1    2    0    0  0.93899604240E+00  0.58816289942E+00 -0.40742472387E+00  0.11805270304E+01  0.00000000000E+00 0. -1.
         11    1    3    3    0    0 -0.18306827593E+02  0.96050921379E+01  0.35735782844E+02  0.41284911375E+02  0.51100000000E-03 0. -1.
        -11    1    3    3    0    0 -0.22169066518E+01  0.70819945212E+01 -0.71846430054E+01  0.10329008514E+02  0.51100000000E-03 0.  1.
        -12    1    3    3    0    0  0.19584738202E+02 -0.17275249558E+02 -0.28143715114E+02  0.38393553081E+02  0.00000000000E+00 0.  1.
</event>
<event>
 7    1  0.3032584E-015  0.9000775E+02  0.7816164E-02  0.1186339E+00
        -11   -1    0    0    0    0  0.00000000000E+00  0.00000000000E+00  0.45593999997E+02  0.45594000000E+02  0.51100000000E-03 0.  1.
         11   -1    0    0    0    0 -0.00000000000E+00 -0.00000000000E+00 -0.45593999997E+02  0.45594000000E+02  0.51100000000E-03 0. -1.
    9900012    2    1    2    0    0 -0.15773675102E+00  0.38417798543E+00  0.11047655583E+01  0.90007754032E+02  0.90000015585E+02 0.  0.
         12    1    1    2    0    0  0.15773675102E+00 -0.38417798543E+00 -0.11047655583E+01  0.11802459684E+01  0.00000000000E+00 0. -1.
         11    1    3    3    0    0 -0.39905402041E+01 -0.13874620523E+02 -0.11111572060E+02  0.18218027876E+02  0.51100000000E-03 0. -1.
        -11    1    3    3    0    0  0.13832064945E+02 -0.15339882331E+02  0.29556102780E+02  0.36058303099E+02  0.51100000000E-03 0.  1.
        -12    1    3    3    0    0 -0.99992614923E+01  0.29598680840E+02 -0.17339765162E+02  0.35731423057E+02  0.00000000000E+00 0.  1.
</event>
<event>
 7    1  0.3032584E-015  0.9000783E+02  0.7816164E-02  0.1186339E+00
        -11   -1    0    0    0    0  0.00000000000E+00  0.00000000000E+00  0.45593999997E+02  0.45594000000E+02  0.51100000000E-03 0.  1.
         11   -1    0    0    0    0 -0.00000000000E+00 -0.00000000000E+00 -0.45593999997E+02  0.45594000000E+02  0.51100000000E-03 0. -1.
    9900012    2    1    2    0    0 -0.75506593677E+00  0.82755870815E+00  0.37122995426E+00  0.90007834900E+02  0.90000097521E+02 0.  0.
         12    1    1    2    0    0  0.75506593677E+00 -0.82755870815E+00 -0.37122995426E+00  0.11801651000E+01  0.00000000000E+00 0. -1.
         11    1    3    3    0    0 -0.50711635442E+01  0.39142128993E+01  0.44292424415E+01  0.77881930626E+01  0.51100000000E-03 0. -1.
        -11    1    3    3    0    0 -0.30701298094E+02  0.22529802997E+02  0.32586540472E+01  0.38220159003E+02  0.51100000000E-03 0.  1.
         12    1    3    3    0    0  0.35017395701E+02 -0.25616457188E+02 -0.73166665344E+01  0.43999482835E+02  0.00000000000E+00 0. -1.
</event>
<event>
 7    1  0.3032584E-015  0.9000758E+02  0.7816164E-02  0.1186339E+00
        -11   -1    0    0    0    0  0.00000000000E+00  0.00000000000E+00  0.45593999997E+02  0.45594000000E+02  0.51100000000E-03 0. -1.
         11   -1    0    0    0    0 -0.00000000000E+00 -0.00000000000E+00 -0.45593999997E+02  0.45594000000E+02  0.51100000000E-03 0.  1.
    9900012    2    1    2    0    0 -0.22246394102E+00  0.48884152800E+00 -0.10511589220E+01  0.90007580022E+02  0.89999839278E+02 0.  0.
         12    1    1    2    0    0  0.22246394102E+00 -0.48884152800E+00  0.10511589220E+01  0.11804199778E+01  0.00000000000E+00 0. -1.
         11    1    3    3    0    0  0.23528846080E+02  0.27261768151E+02  0.26357212743E+00  0.36012221135E+02  0.51100000000E-03 0. -1.
        -11    1    3    3    0    0  0.91733384784E+01  0.20341256612E+01 -0.38949117518E+01  0.10171437650E+02  0.51100000000E-03 0.  1.
        -12    1    3    3    0    0 -0.32924648500E+02 -0.28807052284E+02  0.25801807024E+01  0.43823921237E+02  0.00000000000E+00 0.  1.
</event>
<event>
 7    1  0.3032584E-015  0.9000772E+02  0.7816164E-02  0.1186339E+00
        -11   -1    0    0    0    0  0.00000000000E+00  0.00000000000E+00  0.45593999997E+02  0.45594000000E+02  0.51100000000E-03 0.  1.
         11   -1    0    0    0    0 -0.00000000000E+00 -0.00000000000E+00 -0.45593999997E+02  0.45594000000E+02  0.51100000000E-03 0. -1.
    9900012    2    1    2    0    0  0.39030807749E+00 -0.11137987101E+01  0.13185657008E-01  0.90007719600E+02  0.89999980698E+02 0.  0.
         12    1    1    2    0    0 -0.39030807749E+00  0.11137987101E+01 -0.13185657008E-01  0.11802804004E+01  0.00000000000E+00 0. -1.
         11    1    3    3    0    0  0.49133505078E+01  0.10532692287E+02  0.20695468979E+01  0.11805153309E+02  0.51100000000E-03 0. -1.
        -11    1    3    3    0    0 -0.17346192116E+01  0.19629061582E+02  0.28328697335E+02  0.34508318640E+02  0.51100000000E-03 0.  1.
         12    1    3    3    0    0 -0.27884232187E+01 -0.31275552579E+02 -0.30385058576E+02  0.43694247651E+02  0.00000000000E+00 0. -1.
</event>
<event>
 7    1  0.3032584E-015  0.9000776E+02  0.7816164E-02  0.1186339E+00
        -11   -1    0    0    0    0  0.00000000000E+00  0.00000000000E+00  0.45593999997E+02  0.45594000000E+02  0.51100000000E-03 0. -1.
         11   -1    0    0    0    0 -0.00000000000E+00 -0.00000000000E+00 -0.45593999997E+02  0.45594000000E+02  0.51100000000E-03 0.  1.
    9900012    2    1    2    0    0 -0.11585942343E+01  0.20462782085E+00  0.93513545232E-01  0.90007763614E+02  0.90000025293E+02 0.  0.
         12    1    1    2    0    0  0.11585942343E+01 -0.20462782085E+00 -0.93513545232E-01  0.11802363864E+01  0.00000000000E+00 0. -1.
         11    1    3    3    0    0  0.21897970572E+02 -0.97160616449E+01 -0.23617575671E+02  0.33640940087E+02  0.51100000000E-03 0. -1.
        -11    1    3    3    0    0  0.10720698638E+02 -0.59610349382E+01  0.22662289411E+00  0.12268605260E+02  0.51100000000E-03 0.  1.
        -12    1    3    3    0    0 -0.33777263445E+02  0.15881724404E+02  0.23484466322E+02  0.44098218267E+02  0.00000000000E+00 0.  1.
</event>
<event>
 7    1  0.3032584E-015  0.9000780E+02  0.7816164E-02  0.1186339E+00
        -11   -1    0    0    0    0  0.00000000000E+00  0.00000000000E+00  0.45593999997E+02  0.45594000000E+02  0.51100000000E-03 0.  1.
         11   -1    0    0    0    0 -0.00000000000E+00 -0.00000000000E+00 -0.45593999997E+02  0.45594000000E+02  0.51100000000E-03 0. -1.
    9900012    2    1    2    0    0  0.48643755353E+00 -0.39106083309E+00  0.10016540275E+01  0.90007804737E+02  0.90000066959E+02 0.  0.
         12    1    1    2    0    0 -0.48643755353E+00  0.39106083309E+00 -0.10016540275E+01  0.11801952633E+01  0.00000000000E+00 0. -1.
         11    1    3    3    0    0 -0.33219062004E+00  0.11376423750E+02 -0.37294589593E+02  0.38992560587E+02  0.51100000000E-03 0. -1.
        -11    1    3    3    0    0  0.52827820354E+01  0.77955296500E+01  0.21290792878E+01  0.96545868597E+01  0.51100000000E-03 0.  1.
        -12    1    3    3    0    0 -0.44641538619E+01 -0.19563014233E+02  0.36167164333E+02  0.41360657290E+02  0.00000000000E+00 0.  1.
</event>
<event>
 7    1  0.3032584E-015  0.9000783E+02  0.7816164E-02  0.1186339E+00
        -11   -1    0    0    0    0  0.00000000000E+00  0.00000000000E+00  0.45593999997E+02  0.45594000000E+02  0.51100000000E-03 0.  1.
         11   -1    0    0    0    0 -0.00000000000E+00 -0.00000000000E+00 -0.45593999997E+02  0.45594000000E+02  0.51100000000E-03 0. -1.
    9900012    2    1    2    0    0  0.10176434973E+00 -0.10161563768E+00  0.11713705660E+01  0.90007834451E+02  0.90000097066E+02 0.  0.
         12    1    1    2    0    0 -0.10176434973E+00  0.10161563768E+00 -0.11713705660E+01  0.11801655492E+01  0.00000000000E+00 0. -1.
         11    1    3    3    0    0 -0.30175132821E+02 -0.14387414181E+02 -0.80166366326E+01  0.34377358694E+02  0.51100000000E-03 0. -1.
        -11    1    3    3    0    0 -0.10755646409E+02 -0.10306475183E+01 -0.33108953005E+00  0.10809985408E+02  0.51100000000E-03 0.  1.
        -12    1    3    3    0    0  0.41032543580E+02  0.15316446062E+02  0.95190967286E+01  0.44820490349E+02  0.00000000000E+00 0.  1.
</event>
<event>
 7    1  0.3032584E-015  0.9000778E+02  0.7816164E-02  0.1186339E+00
        -11   -1    0    0    0    0  0.00000000000E+00  0.00000000000E+00  0.45593999997E+02  0.45594000000E+02  0.51100000000E-03 0.  1.
         11   -1    0    0    0    0 -0.00000000000E+00 -0.00000000000E+00 -0.45593999997E+02  0.45594000000E+02  0.51100000000E-03 0. -1.
    9900012    2    1    2    0    0  0.50859155945E+00  0.87147085816E+00  0.61220886746E+00  0.90007776916E+02  0.90000038771E+02 0.  0.
         12    1    1    2    0    0 -0.50859155945E+00 -0.87147085816E+00 -0.61220886746E+00  0.11802230841E+01  0.00000000000E+00 0. -1.
         11    1    3    3    0    0 -0.34893646672E+02  0.10480252470E+01  0.31319955374E+01  0.35049598162E+02  0.51100000000E-03 0. -1.
        -11    1    3    3    0    0 -0.93005055179E+01  0.22103787190E+01 -0.35024268981E+01  0.10180971044E+02  0.51100000000E-03 0.  1.
        -12    1    3    3    0    0  0.44702743750E+02 -0.23869331078E+01  0.98264022813E+00  0.44777207709E+02  0.00000000000E+00 0.  1.
</event>
<event>
 7    1  0.3032584E-015  0.9000765E+02  0.7816164E-02  0.1186339E+00
        -11   -1    0    0    0    0  0.00000000000E+00  0.00000000000E+00  0.45593999997E+02  0.45594000000E+02  0.51100000000E-03 0. -1.
         11   -1    0    0    0    0 -0.00000000000E+00 -0.00000000000E+00 -0.45593999997E+02  0.45594000000E+02  0.51100000000E-03 0.  1.
    9900012    2    1    2    0    0  0.23806726444E+00 -0.11520551024E+01 -0.96555439366E-01  0.90007648385E+02  0.89999908544E+02 0.  0.
         12    1    1    2    0    0 -0.23806726444E+00  0.11520551024E+01  0.96555439366E-01  0.11803516147E+01  0.00000000000E+00 0. -1.
         11    1    3    3    0    0 -0.27475403170E+00 -0.18057872712E+02  0.29454310366E+02  0.34550233806E+02  0.51100000000E-03 0. -1.
        -11    1    3    3    0    0  0.57011545572E+00 -0.63136752713E+01  0.86674951326E+01  0.10738389041E+02  0.51100000000E-03 0.  1.
        -12    1    3    3    0    0 -0.57294159582E-01  0.23219492881E+02 -0.38218360938E+02  0.44719025538E+02  0.00000000000E+00 0.  1.
</event>
<event>
 7    1  0.3032584E-015  0.9000777E+02  0.7816164E-02  0.1186339E+00
        -11   -1    0    0    0    0  0.00000000000E+00  0.00000000000E+00  0.45593999997E+02  0.45594000000E+02  0.51100000000E-03 0.  1.
         11   -1    0    0    0    0 -0.00000000000E+00 -0.00000000000E+00 -0.45593999997E+02  0.45594000000E+02  0.51100000000E-03 0. -1.
    9900012    2    1    2    0    0  0.30324232205E+00 -0.69888332371E+00  0.90141741470E+00  0.90007768175E+02  0.90000029915E+02 0.  0.
         12    1    1    2    0    0 -0.30324232205E+00  0.69888332371E+00 -0.90141741470E+00  0.11802318254E+01  0.00000000000E+00 0. -1.
         11    1    3    3    0    0 -0.31070786349E+02 -0.74956709041E+01 -0.21163137896E+02  0.38333500395E+02  0.51100000000E-03 0. -1.
        -11    1    3    3    0    0 -0.68861053529E+01  0.44740471147E+01  0.57015738486E+01  0.99971740571E+01  0.51100000000E-03 0.  1.
        -12    1    3    3    0    0  0.38260134024E+02  0.23227404656E+01  0.16362981463E+02  0.41677093722E+02  0.00000000000E+00 0.  1.
</event>
<event>
 7    1  0.3032584E-015  0.9000777E+02  0.7816164E-02  0.1186339E+00
        -11   -1    0    0    0    0  0.00000000000E+00  0.00000000000E+00  0.45593999997E+02  0.45594000000E+02  0.51100000000E-03 0.  1.
         11   -1    0    0    0    0 -0.00000000000E+00 -0.00000000000E+00 -0.45593999997E+02  0.45594000000E+02  0.51100000000E-03 0. -1.
    9900012    2    1    2    0    0 -0.18525638375E+00 -0.87782450584E+00  0.76683519379E+00  0.90007774596E+02  0.90000036420E+02 0.  0.
         12    1    1    2    0    0  0.18525638375E+00  0.87782450584E+00 -0.76683519379E+00  0.11802254044E+01  0.00000000000E+00 0. -1.
         11    1    3    3    0    0  0.34814043264E+02 -0.43586262035E+01  0.12458024670E+02  0.37231943405E+02  0.51100000000E-03 0. -1.
        -11    1    3    3    0    0  0.37747451967E+01  0.45258871527E+01  0.74684802072E+01  0.95137034159E+01  0.51100000000E-03 0.  1.
        -12    1    3    3    0    0 -0.38774044845E+02 -0.10450854550E+01 -0.19159669683E+02  0.43262127775E+02  0.00000000000E+00 0.  1.
</event>
<event>
 7    1  0.3032584E-015  0.9000832E+02  0.7816164E-02  0.1186338E+00
        -11   -1    0    0    0    0  0.00000000000E+00  0.00000000000E+00  0.45593999997E+02  0.45594000000E+02  0.51100000000E-03 0. -1.
         11   -1    0    0    0    0 -0.00000000000E+00 -0.00000000000E+00 -0.45593999997E+02  0.45594000000E+02  0.51100000000E-03 0.  1.
    9900012    2    1    2    0    0  0.59998526278E-01 -0.11550931237E+01 -0.23197506090E+00  0.90008316832E+02  0.90000585812E+02 0.  0.
         12    1    1    2    0    0 -0.59998526278E-01  0.11550931237E+01  0.23197506090E+00  0.11796831678E+01  0.00000000000E+00 0. -1.
         11    1    3    3    0    0 -0.25814734551E+02 -0.13396103945E+02  0.18686072802E+02  0.34569139964E+02  0.51100000000E-03 0. -1.
        -11    1    3    3    0    0 -0.58412416683E+01 -0.84178311137E+01  0.42148587813E+01  0.11079035143E+02  0.51100000000E-03 0.  1.
        -12    1    3    3    0    0  0.31715974745E+02  0.20658841935E+02 -0.23132906644E+02  0.44360141726E+02  0.00000000000E+00 0.  1.
</event>
<event>
 7    1  0.3032584E-015  0.9000773E+02  0.7816164E-02  0.1186339E+00
        -11   -1    0    0    0    0  0.00000000000E+00  0.00000000000E+00  0.45593999997E+02  0.45594000000E+02  0.51100000000E-03 0.  1.
         11   -1    0    0    0    0 -0.00000000000E+00 -0.00000000000E+00 -0.45593999997E+02  0.45594000000E+02  0.51100000000E-03 0. -1.
    9900012    2    1    2    0    0 -0.66706564191E+00 -0.61868664008E+00  0.75186253119E+00  0.90007725881E+02  0.89999987063E+02 0.  0.
         12    1    1    2    0    0  0.66706564191E+00  0.61868664008E+00 -0.75186253119E+00  0.11802741186E+01  0.00000000000E+00 0. -1.
         11    1    3    3    0    0 -0.35978028095E+02 -0.74346916638E+01  0.57625218284E+00  0.36742689240E+02  0.51100000000E-03 0. -1.
        -11    1    3    3    0    0 -0.86844433155E+01  0.25930083068E+01  0.27018375790E+00  0.90673175362E+01  0.51100000000E-03 0.  1.
        -12    1    3    3    0    0  0.43995405768E+02  0.42229967169E+01 -0.94573409549E-01  0.44197719105E+02  0.00000000000E+00 0.  1.
</event>
<event>
 7    1  0.3032584E-015  0.9000765E+02  0.7816164E-02  0.1186339E+00
        -11   -1    0    0    0    0  0.00000000000E+00  0.00000000000E+00  0.45593999997E+02  0.45594000000E+02  0.51100000000E-03 0.  1.
         11   -1    0    0    0    0 -0.00000000000E+00 -0.00000000000E+00 -0.45593999997E+02  0.45594000000E+02  0.51100000000E-03 0. -1.
    9900012    2    1    2    0    0 -0.50254716216E+00  0.10276547253E+01  0.29087041222E+00  0.90007646883E+02  0.89999907022E+02 0.  0.
         12    1    1    2    0    0  0.50254716216E+00 -0.10276547253E+01 -0.29087041222E+00  0.11803531172E+01  0.00000000000E+00 0. -1.
         11    1    3    3    0    0  0.21019473079E+02  0.27660883552E+02  0.18630472885E+02  0.39421279122E+02  0.51100000000E-03 0. -1.
        -11    1    3    3    0    0 -0.86642449960E+01  0.60918852671E+01 -0.97409276968E+01  0.14389783880E+02  0.51100000000E-03 0.  1.
        -12    1    3    3    0    0 -0.12857775245E+02 -0.32725114094E+02 -0.85986747764E+01  0.36196583881E+02  0.00000000000E+00 0.  1.
</event>
<event>
 7    1  0.3032584E-015  0.9000767E+02  0.7816164E-02  0.1186339E+00
        -11   -1    0    0    0    0  0.00000000000E+00  0.00000000000E+00  0.45593999997E+02  0.45594000000E+02  0.51100000000E-03 0.  1.
         11   -1    0    0    0    0 -0.00000000000E+00 -0.00000000000E+00 -0.45593999997E+02  0.45594000000E+02  0.51100000000E-03 0. -1.
    9900012    2    1    2    0    0 -0.86188054205E+00  0.65960017128E+00  0.46397759048E+00  0.90007667141E+02  0.89999927547E+02 0.  0.
         12    1    1    2    0    0  0.86188054205E+00 -0.65960017128E+00 -0.46397759048E+00  0.11803328595E+01  0.00000000000E+00 0. -1.
         11    1    3    3    0    0 -0.16673762486E+02  0.30326673932E+02 -0.17968340601E+01  0.34654727241E+02  0.51100000000E-03 0. -1.
        -11    1    3    3    0    0 -0.48439852492E-01  0.11312498548E+02  0.14368895753E+01  0.11403491647E+02  0.51100000000E-03 0.  1.
        -12    1    3    3    0    0  0.15860321797E+02 -0.40979572309E+02  0.82392207525E+00  0.43949448253E+02  0.00000000000E+00 0.  1.
</event>
<event>
 7    1  0.3032584E-015  0.9000762E+02  0.7816164E-02  0.1186339E+00
        -11   -1    0    0    0    0  0.00000000000E+00  0.00000000000E+00  0.45593999997E+02  0.45594000000E+02  0.51100000000E-03 0.  1.
         11   -1    0    0    0    0 -0.00000000000E+00 -0.00000000000E+00 -0.45593999997E+02  0.45594000000E+02  0.51100000000E-03 0. -1.
    9900012    2    1    2    0    0 -0.79627653891E+00  0.70371297387E+00  0.51383525635E+00  0.90007620846E+02  0.89999880641E+02 0.  0.
         12    1    1    2    0    0  0.79627653891E+00 -0.70371297387E+00 -0.51383525635E+00  0.11803791538E+01  0.00000000000E+00 0. -1.
         11    1    3    3    0    0 -0.76481469031E+01 -0.43315007506E+01  0.38986379610E+01  0.96153745645E+01  0.51100000000E-03 0. -1.
        -11    1    3    3    0    0 -0.91433617336E+00  0.21388270271E+02  0.33240145322E+02  0.39537341553E+02  0.51100000000E-03 0.  1.
         12    1    3    3    0    0  0.77662065376E+01 -0.16353056546E+02 -0.36624948027E+02  0.40854904728E+02  0.00000000000E+00 0. -1.
</event>
<event>
 7    1  0.3032584E-015  0.9000780E+02  0.7816164E-02  0.1186339E+00
        -11   -1    0    0    0    0  0.00000000000E+00  0.00000000000E+00  0.45593999997E+02  0.45594000000E+02  0.51100000000E-03 0.  1.
         11   -1    0    0    0    0 -0.00000000000E+00 -0.00000000000E+00 -0.45593999997E+02  0.45594000000E+02  0.51100000000E-03 0. -1.
    9900012    2    1    2    0    0 -0.63005025910E+00 -0.16656765624E+00  0.98394761108E+00  0.90007804671E+02  0.90000066893E+02 0.  0.
         12    1    1    2    0    0  0.63005025910E+00  0.16656765624E+00 -0.98394761108E+00  0.11801953289E+01  0.00000000000E+00 0. -1.
         11    1    3    3    0    0  0.11115840902E+02  0.36187656240E+02  0.33983700924E+01  0.38008647735E+02  0.51100000000E-03 0. -1.
        -11    1    3    3    0    0  0.23066612060E+01  0.26427279666E+01  0.84485106617E+01  0.91477882401E+01  0.51100000000E-03 0.  1.
        -12    1    3    3    0    0 -0.14052552367E+02 -0.38996951863E+02 -0.10862933143E+02  0.42851368696E+02  0.00000000000E+00 0.  1.
</event>
<event>
 7    1  0.3032584E-015  0.9000790E+02  0.7816164E-02  0.1186339E+00
        -11   -1    0    0    0    0  0.00000000000E+00  0.00000000000E+00  0.45593999997E+02  0.45594000000E+02  0.51100000000E-03 0. -1.
         11   -1    0    0    0    0 -0.00000000000E+00 -0.00000000000E+00 -0.45593999997E+02  0.45594000000E+02  0.51100000000E-03 0.  1.
    9900012    2    1    2    0    0 -0.72189401972E+00 -0.30143610265E+00 -0.88354440760E+00  0.90007896013E+02  0.90000159440E+02 0.  0.
         12    1    1    2    0    0  0.72189401972E+00  0.30143610265E+00  0.88354440760E+00  0.11801039869E+01  0.00000000000E+00 0. -1.
         11    1    3    3    0    0  0.21681627994E+02  0.60178942125E+01  0.29773182203E+02  0.37319571567E+02  0.51100000000E-03 0. -1.
        -11    1    3    3    0    0 -0.43599005861E+01  0.99936296288E+01  0.28627829563E+01  0.11272838719E+02  0.51100000000E-03 0.  1.
        -12    1    3    3    0    0 -0.18043621428E+02 -0.16312959944E+02 -0.33519509567E+02  0.41415485726E+02  0.00000000000E+00 0.  1.
</event>
<event>
 7    1  0.3032584E-015  0.9000776E+02  0.7816164E-02  0.1186339E+00
        -11   -1    0    0    0    0  0.00000000000E+00  0.00000000000E+00  0.45593999997E+02  0.45594000000E+02  0.51100000000E-03 0.  1.
         11   -1    0    0    0    0 -0.00000000000E+00 -0.00000000000E+00 -0.45593999997E+02  0.45594000000E+02  0.51100000000E-03 0. -1.
    9900012    2    1    2    0    0  0.10373038029E+01 -0.49660580741E+00  0.26524496019E+00  0.90007757908E+02  0.90000019512E+02 0.  0.
         12    1    1    2    0    0 -0.10373038029E+01  0.49660580741E+00 -0.26524496019E+00  0.11802420923E+01  0.00000000000E+00 0. -1.
         11    1    3    3    0    0 -0.75854495189E+01 -0.31301115745E+01 -0.52047498538E+01  0.97173074550E+01  0.51100000000E-03 0. -1.
        -11    1    3    3    0    0  0.16052776984E+02 -0.36559975336E+02  0.61101788324E+01  0.40393783322E+02  0.51100000000E-03 0.  1.
         12    1    3    3    0    0 -0.74300236621E+01  0.39193481103E+02 -0.64018401837E+00  0.39896667131E+02  0.00000000000E+00 0. -1.
</event>
<event>
 7    1  0.3032584E-015  0.9000780E+02  0.7816164E-02  0.1186339E+00
        -11   -1    0    0    0    0  0.00000000000E+00  0.00000000000E+00  0.45593999997E+02  0.45594000000E+02  0.51100000000E-03 0. -1.
         11   -1    0    0    0    0 -0.00000000000E+00 -0.00000000000E+00 -0.45593999997E+02  0.45594000000E+02  0.51100000000E-03 0.  1.
    9900012    2    1    2    0    0 -0.99042600391E+00  0.64176232007E+00 -0.87694219359E-02  0.90007796862E+02  0.90000058980E+02 0.  0.
         12    1    1    2    0    0  0.99042600391E+00 -0.64176232007E+00  0.87694219359E-02  0.11802031382E+01  0.00000000000E+00 0. -1.
         11    1    3    3    0    0  0.19019761025E+02  0.28306035669E+02  0.92085200968E+01  0.35323926839E+02  0.51100000000E-03 0. -1.
        -11    1    3    3    0    0  0.37349656559E+01  0.79881476710E+01 -0.78814532289E+01  0.11826993571E+02  0.51100000000E-03 0.  1.
        -12    1    3    3    0    0 -0.23745152685E+02 -0.35652421020E+02 -0.13358362899E+01  0.42856876451E+02  0.00000000000E+00 0.  1.
</event>
<event>
 7    1  0.3032584E-015  0.9000774E+02  0.7816164E-02  0.1186339E+00
        -11   -1    0    0    0    0  0.00000000000E+00  0.00000000000E+00  0.45593999997E+02  0.45594000000E+02  0.51100000000E-03 0.  1.
         11   -1    0    0    0    0 -0.00000000000E+00 -0.00000000000E+00 -0.45593999997E+02  0.45594000000E+02  0.51100000000E-03 0. -1.
    9900012    2    1    2    0    0 -0.98488581961E+00  0.44122758668E+00  0.47784489289E+00  0.90007738333E+02  0.89999999679E+02 0.  0.
         12    1    1    2    0    0  0.98488581961E+00 -0.44122758668E+00 -0.47784489289E+00  0.11802616670E+01  0.00000000000E+00 0. -1.
         11    1    3    3    0    0  0.31326861918E+02  0.22503717618E+01  0.13626136673E+01  0.31437130386E+02  0.51100000000E-03 0. -1.
        -11    1    3    3    0    0  0.12344361636E+02  0.44898908052E+01 -0.28044844204E+01  0.13431586532E+02  0.51100000000E-03 0.  1.
        -12    1    3    3    0    0 -0.44656109374E+02 -0.62990349804E+01  0.19197156460E+01  0.45139021414E+02  0.00000000000E+00 0.  1.
</event>
<event>
 7    1  0.3032584E-015  0.9000760E+02  0.7816164E-02  0.1186339E+00
        -11   -1    0    0    0    0  0.00000000000E+00  0.00000000000E+00  0.45593999997E+02  0.45594000000E+02  0.51100000000E-03 0. -1.
         11   -1    0    0    0    0 -0.00000000000E+00 -0.00000000000E+00 -0.45593999997E+02  0.45594000000E+02  0.51100000000E-03 0.  1.
    9900012    2    1    2    0    0 -0.55185659554E+00  0.10413651242E+01 -0.65976058430E-01  0.90007601820E+02  0.89999861364E+02 0.  0.
         12    1    1    2    0    0  0.55185659554E+00 -0.10413651242E+01  0.65976058430E-01  0.11803981804E+01  0.00000000000E+00 0. -1.
         11    1    3    3    0    0 -0.12865334313E+02 -0.18799036264E+01 -0.20995307936E+02  0.24695218570E+02  0.51100000000E-03 0. -1.
        -11    1    3    3    0    0 -0.19093876277E+02  0.49524338500E+01 -0.91793388259E+01  0.21756906349E+02  0.51100000000E-03 0.  1.
         12    1    3    3    0    0  0.31407353994E+02 -0.20311650993E+01  0.30108670703E+02  0.43555476901E+02  0.00000000000E+00 0. -1.
</event>
<event>
 7    1  0.3032584E-015  0.9000802E+02  0.7816164E-02  0.1186338E+00
        -11   -1    0    0    0    0  0.00000000000E+00  0.00000000000E+00  0.45593999997E+02  0.45594000000E+02  0.51100000000E-03 0. -1.
         11   -1    0    0    0    0 -0.00000000000E+00 -0.00000000000E+00 -0.45593999997E+02  0.45594000000E+02  0.51100000000E-03 0.  1.
    9900012    2    1    2    0    0  0.74181978835E+00 -0.72307714219E+00 -0.56499679629E+00  0.90008017571E+02  0.90000282603E+02 0.  0.
         12    1    1    2    0    0 -0.74181978835E+00  0.72307714219E+00  0.56499679629E+00  0.11799824286E+01  0.00000000000E+00 0. -1.
         11    1    3    3    0    0 -0.87306861750E+01 -0.92371967149E+01  0.33484875284E+02  0.35816023750E+02  0.51100000000E-03 0. -1.
        -11    1    3    3    0    0 -0.93600282469E+00 -0.54518604899E+01  0.73954503453E+01  0.92353435323E+01  0.51100000000E-03 0.  1.
        -12    1    3    3    0    0  0.10408508788E+02  0.13965980063E+02 -0.41445322425E+02  0.44956650289E+02  0.00000000000E+00 0.  1.
</event>
<event>
 7    1  0.3032584E-015  0.9000774E+02  0.7816164E-02  0.1186339E+00
        -11   -1    0    0    0    0  0.00000000000E+00  0.00000000000E+00  0.45593999997E+02  0.45594000000E+02  0.51100000000E-03 0.  1.
         11   -1    0    0    0    0 -0.00000000000E+00 -0.00000000000E+00 -0.45593999997E+02  0.45594000000E+02  0.51100000000E-03 0. -1.
    9900012    2    1    2    0    0 -0.31793274936E+00  0.11271307924E+01 -0.14662363457E+00  0.90007744288E+02  0.90000005712E+02 0.  0.
         12    1    1    2    0    0  0.31793274936E+00 -0.11271307924E+01  0.14662363457E+00  0.11802557123E+01  0.00000000000E+00 0. -1.
         11    1    3    3    0    0  0.54464006464E+01 -0.49364024872E+01  0.68718854181E+01  0.10062512558E+02  0.51100000000E-03 0. -1.
        -11    1    3    3    0    0  0.11430148138E+02 -0.22381785624E+02  0.23803870939E+02  0.34615269551E+02  0.51100000000E-03 0.  1.
         12    1    3    3    0    0 -0.17194481534E+02  0.28445318904E+02 -0.30822379991E+02  0.45329962178E+02  0.00000000000E+00 0. -1.
</event>
<event>
 7    1  0.3032584E-015  0.9000776E+02  0.7816164E-02  0.1186339E+00
        -11   -1    0    0    0    0  0.00000000000E+00  0.00000000000E+00  0.45593999997E+02  0.45594000000E+02  0.51100000000E-03 0.  1.
         11   -1    0    0    0    0 -0.00000000000E+00 -0.00000000000E+00 -0.45593999997E+02  0.45594000000E+02  0.51100000000E-03 0. -1.
    9900012    2    1    2    0    0  0.32067194056E+00  0.92165169984E+00  0.66385492670E+00  0.90007756079E+02  0.90000017659E+02 0.  0.
         12    1    1    2    0    0 -0.32067194056E+00 -0.92165169984E+00 -0.66385492670E+00  0.11802439210E+01  0.00000000000E+00 0. -1.
         11    1    3    3    0    0 -0.30590718988E+02 -0.25512518686E+01 -0.25075248048E+02  0.39636713274E+02  0.51100000000E-03 0. -1.
        -11    1    3    3    0    0  0.22177689878E+01 -0.83154478180E+01 -0.19113637705E+01  0.88158087219E+01  0.51100000000E-03 0.  1.
        -12    1    3    3    0    0  0.28693621940E+02  0.11788351386E+02  0.27650466745E+02  0.41555234083E+02  0.00000000000E+00 0.  1.
</event>
<event>
 7    1  0.3032584E-015  0.9000782E+02  0.7816164E-02  0.1186339E+00
        -11   -1    0    0    0    0  0.00000000000E+00  0.00000000000E+00  0.45593999997E+02  0.45594000000E+02  0.51100000000E-03 0.  1.
         11   -1    0    0    0    0 -0.00000000000E+00 -0.00000000000E+00 -0.45593999997E+02  0.45594000000E+02  0.51100000000E-03 0. -1.
    9900012    2    1    2    0    0  0.18041659625E+00  0.11035076248E+01  0.37755956514E+00  0.90007817619E+02  0.90000080012E+02 0.  0.
         12    1    1    2    0    0 -0.18041659625E+00 -0.11035076248E+01 -0.37755956514E+00  0.11801823806E+01  0.00000000000E+00 0. -1.
         11    1    3    3    0    0  0.17603672245E+01  0.68987166080E-01 -0.12447560996E+02  0.12571611949E+02  0.51100000000E-03 0. -1.
        -11    1    3    3    0    0 -0.29703433686E+02 -0.54120310496E+01 -0.18051149592E+02  0.35177095597E+02  0.51100000000E-03 0.  1.
         12    1    3    3    0    0  0.28123483058E+02  0.64465515083E+01  0.30876270153E+02  0.42259110073E+02  0.00000000000E+00 0. -1.
</event>
<event>
 7    1  0.3032584E-015  0.9000726E+02  0.7816164E-02  0.1186340E+00
        -11   -1    0    0    0    0  0.00000000000E+00  0.00000000000E+00  0.45593999997E+02  0.45594000000E+02  0.51100000000E-03 0.  1.
         11   -1    0    0    0    0 -0.00000000000E+00 -0.00000000000E+00 -0.45593999997E+02  0.45594000000E+02  0.51100000000E-03 0. -1.
    9900012    2    1    2    0    0  0.83545914107E+00 -0.43776994043E+00  0.71029205146E+00  0.90007259006E+02  0.89999514023E+02 0.  0.
         12    1    1    2    0    0 -0.83545914107E+00  0.43776994043E+00 -0.71029205146E+00  0.11807409943E+01  0.00000000000E+00 0. -1.
         11    1    3    3    0    0  0.10997373463E+02  0.93496452247E+01  0.14355752903E+01  0.14505825230E+02  0.51100000000E-03 0. -1.
        -11    1    3    3    0    0  0.16347347620E+02  0.24112427607E+02  0.10603167575E+02  0.31001162917E+02  0.51100000000E-03 0.  1.
         12    1    3    3    0    0 -0.26509261943E+02 -0.33899842772E+02 -0.11328450814E+02  0.44500270859E+02  0.00000000000E+00 0. -1.
</event>
<event>
 7    1  0.3032584E-015  0.9000773E+02  0.7816164E-02  0.1186339E+00
        -11   -1    0    0    0    0  0.00000000000E+00  0.00000000000E+00  0.45593999997E+02  0.45594000000E+02  0.51100000000E-03 0.  1.
         11   -1    0    0    0    0 -0.00000000000E+00 -0.00000000000E+00 -0.45593999997E+02  0.45594000000E+02  0.51100000000E-03 0. -1.
    9900012    2    1    2    0    0  0.88129300799E+00  0.14305415772E+00  0.77193579693E+00  0.90007734465E+02  0.89999995760E+02 0.  0.
         12    1    1    2    0    0 -0.88129300799E+00 -0.14305415772E+00 -0.77193579693E+00  0.11802655348E+01  0.00000000000E+00 0. -1.
         11    1    3    3    0    0  0.11930735604E+02 -0.72521262082E+01 -0.96505319921E+01  0.16972582437E+02  0.51100000000E-03 0. -1.
        -11    1    3    3    0    0 -0.27804513774E+01 -0.31215794224E+02 -0.26243283363E+01  0.31449067051E+02  0.51100000000E-03 0.  1.
        -12    1    3    3    0    0 -0.82689912188E+01  0.38610974590E+02  0.13046796125E+02  0.41586084977E+02  0.00000000000E+00 0.  1.
</event>
<event>
 7    1  0.3032584E-015  0.9000770E+02  0.7816164E-02  0.1186339E+00
        -11   -1    0    0    0    0  0.00000000000E+00  0.00000000000E+00  0.45593999997E+02  0.45594000000E+02  0.51100000000E-03 0.  1.
         11   -1    0    0    0    0 -0.00000000000E+00 -0.00000000000E+00 -0.45593999997E+02  0.45594000000E+02  0.51100000000E-03 0. -1.
    9900012    2    1    2    0    0  0.34560445151E+00  0.80465789707E+00  0.79132368780E+00  0.90007699213E+02  0.89999960043E+02 0.  0.
         12    1    1    2    0    0 -0.34560445151E+00 -0.80465789707E+00 -0.79132368780E+00  0.11803007867E+01  0.00000000000E+00 0. -1.
         11    1    3    3    0    0 -0.73400628660E+01 -0.25284988722E+02 -0.32277066866E+02  0.41653525941E+02  0.51100000000E-03 0. -1.
        -11    1    3    3    0    0 -0.54167398267E+01 -0.46302338400E+00  0.73008631104E+01  0.91026404643E+01  0.51100000000E-03 0.  1.
        -12    1    3    3    0    0  0.13102407144E+02  0.26552670004E+02  0.25767527443E+02  0.39251532808E+02  0.00000000000E+00 0.  1.
</event>
<event>
 7    1  0.3045015E-015  0.9000798E+02  0.7816164E-02  0.1186339E+00
        -11   -1    0    0    0    0  0.00000000000E+00  0.00000000000E+00  0.45593999997E+02  0.45594000000E+02  0.51100000000E-03 0.  1.
         11   -1    0    0    0    0 -0.00000000000E+00 -0.00000000000E+00 -0.45593999997E+02  0.45594000000E+02  0.51100000000E-03 0. -1.
    9900012    2    1    2    0    0 -0.10361356553E+01 -0.89759738916E-01  0.55751135348E+00  0.90007977620E+02  0.90000242125E+02 0.  0.
         12    1    1    2    0    0  0.10361356553E+01  0.89759738916E-01 -0.55751135348E+00  0.11800223795E+01  0.00000000000E+00 0. -1.
         11    1    3    3    0    0  0.10206014831E+02  0.27358938407E+02 -0.24467270529E+02  0.38096214732E+02  0.51100000000E-03 0. -1.
        -11    1    3    3    0    0 -0.41381293560E+01 -0.21944565115E+01 -0.82814127176E+01  0.95142814132E+01  0.51100000000E-03 0.  1.
        -12    1    3    3    0    0 -0.71040211303E+01 -0.25254241635E+02  0.33306194600E+02  0.42397481476E+02  0.00000000000E+00 0.  1.
</event>
<event>
 7    1  0.3032584E-015  0.9000784E+02  0.7816164E-02  0.1186339E+00
        -11   -1    0    0    0    0  0.00000000000E+00  0.00000000000E+00  0.45593999997E+02  0.45594000000E+02  0.51100000000E-03 0. -1.
         11   -1    0    0    0    0 -0.00000000000E+00 -0.00000000000E+00 -0.45593999997E+02  0.45594000000E+02  0.51100000000E-03 0.  1.
    9900012    2    1    2    0    0  0.34781994600E+00  0.78930468660E+00 -0.80547522065E+00  0.90007842835E+02  0.90000105560E+02 0.  0.
         12    1    1    2    0    0 -0.34781994600E+00 -0.78930468660E+00  0.80547522065E+00  0.11801571650E+01  0.00000000000E+00 0. -1.
         11    1    3    3    0    0  0.15841337349E+02 -0.15803086020E+01  0.31707675588E+01  0.16232655712E+02  0.51100000000E-03 0. -1.
        -11    1    3    3    0    0  0.21196387739E+02  0.90037904884E+01  0.19106495493E+02  0.29923456796E+02  0.51100000000E-03 0.  1.
         12    1    3    3    0    0 -0.36689905143E+02 -0.66341771999E+01 -0.23082738272E+02  0.43851730327E+02  0.00000000000E+00 0. -1.
</event>
<event>
 7    1  0.3032584E-015  0.9000775E+02  0.7816164E-02  0.1186339E+00
        -11   -1    0    0    0    0  0.00000000000E+00  0.00000000000E+00  0.45593999997E+02  0.45594000000E+02  0.51100000000E-03 0.  1.
         11   -1    0    0    0    0 -0.00000000000E+00 -0.00000000000E+00 -0.45593999997E+02  0.45594000000E+02  0.51100000000E-03 0. -1.
    9900012    2    1    2    0    0 -0.46737334191E+00  0.10177175732E+01  0.37255416154E+00  0.90007752779E+02  0.90000014316E+02 0.  0.
         12    1    1    2    0    0  0.46737334191E+00 -0.10177175732E+01 -0.37255416154E+00  0.11802472211E+01  0.00000000000E+00 0. -1.
         11    1    3    3    0    0 -0.60554043650E+00 -0.12659290262E+01  0.85054940256E+01  0.86204805202E+01  0.51100000000E-03 0. -1.
        -11    1    3    3    0    0  0.51002288525E+01 -0.39028777438E+02 -0.33166343560E+01  0.39500099574E+02  0.51100000000E-03 0.  1.
         12    1    3    3    0    0 -0.49620617579E+01  0.41312424038E+02 -0.48163055081E+01  0.41887172684E+02  0.00000000000E+00 0. -1.
</event>
<event>
 7    1  0.3032584E-015  0.9000778E+02  0.7816164E-02  0.1186339E+00
        -11   -1    0    0    0    0  0.00000000000E+00  0.00000000000E+00  0.45593999997E+02  0.45594000000E+02  0.51100000000E-03 0.  1.
         11   -1    0    0    0    0 -0.00000000000E+00 -0.00000000000E+00 -0.45593999997E+02  0.45594000000E+02  0.51100000000E-03 0. -1.
    9900012    2    1    2    0    0  0.72257063824E-01  0.31288914272E+00  0.11356923449E+01  0.90007780613E+02  0.90000042517E+02 0.  0.
         12    1    1    2    0    0 -0.72257063824E-01 -0.31288914272E+00 -0.11356923449E+01  0.11802193869E+01  0.00000000000E+00 0. -1.
         11    1    3    3    0    0 -0.98586811332E+01 -0.31472274040E+01 -0.39214652893E+02  0.40557214349E+02  0.51100000000E-03 0. -1.
        -11    1    3    3    0    0 -0.78937469440E+01  0.46835776262E+01  0.67433023961E+01  0.11389436670E+02  0.51100000000E-03 0.  1.
        -12    1    3    3    0    0  0.17824685141E+02 -0.12234610794E+01  0.33607042842E+02  0.38061129594E+02  0.00000000000E+00 0.  1.
</event>
<event>
 7    1  0.3032584E-015  0.9000772E+02  0.7816164E-02  0.1186339E+00
        -11   -1    0    0    0    0  0.00000000000E+00  0.00000000000E+00  0.45593999997E+02  0.45594000000E+02  0.51100000000E-03 0. -1.
         11   -1    0    0    0    0 -0.00000000000E+00 -0.00000000000E+00 -0.45593999997E+02  0.45594000000E+02  0.51100000000E-03 0.  1.
    9900012    2    1    2    0    0 -0.11039363476E+01  0.24548296350E+00 -0.33783516413E+00  0.90007716160E+02  0.89999977213E+02 0.  0.
         12    1    1    2    0    0  0.11039363476E+01 -0.24548296350E+00  0.33783516413E+00  0.11802838400E+01  0.00000000000E+00 0. -1.
         11    1    3    3    0    0  0.21017476583E+02 -0.24564134534E+02  0.20162925013E+02  0.38100847401E+02  0.51100000000E-03 0. -1.
        -11    1    3    3    0    0 -0.50494123459E+01 -0.19548831495E+00  0.85597054112E+01  0.99399868063E+01  0.51100000000E-03 0.  1.
        -12    1    3    3    0    0 -0.17072000585E+02  0.25005105812E+02 -0.29060465588E+02  0.41966881953E+02  0.00000000000E+00 0.  1.
</event>
<event>
 7    1  0.3032584E-015  0.9000773E+02  0.7816164E-02  0.1186339E+00
        -11   -1    0    0    0    0  0.00000000000E+00  0.00000000000E+00  0.45593999997E+02  0.45594000000E+02  0.51100000000E-03 0.  1.
         11   -1    0    0    0    0 -0.00000000000E+00 -0.00000000000E+00 -0.45593999997E+02  0.45594000000E+02  0.51100000000E-03 0. -1.
    9900012    2    1    2    0    0  0.20447106980E+00  0.96672668601E+00  0.64550660807E+00  0.90007725589E+02  0.89999986767E+02 0.  0.
         12    1    1    2    0    0 -0.20447106980E+00 -0.96672668601E+00 -0.64550660807E+00  0.11802744108E+01  0.00000000000E+00 0. -1.
         11    1    3    3    0    0  0.11885687602E+02  0.12041970327E+02 -0.17509055706E+02  0.24348421943E+02  0.51100000000E-03 0. -1.
        -11    1    3    3    0    0  0.14466157554E+02  0.18590165067E+02  0.68342126570E+01  0.24526932431E+02  0.51100000000E-03 0.  1.
         12    1    3    3    0    0 -0.26147374086E+02 -0.29665408708E+02  0.11320349657E+02  0.41132371215E+02  0.00000000000E+00 0. -1.
</event>
<event>
 7    1  0.3032584E-015  0.9000783E+02  0.7816164E-02  0.1186339E+00
        -11   -1    0    0    0    0  0.00000000000E+00  0.00000000000E+00  0.45593999997E+02  0.45594000000E+02  0.51100000000E-03 0.  1.
         11   -1    0    0    0    0 -0.00000000000E+00 -0.00000000000E+00 -0.45593999997E+02  0.45594000000E+02  0.51100000000E-03 0. -1.
    9900012    2    1    2    0    0 -0.55987552828E+00 -0.62412895460E+00  0.83053751205E+00  0.90007834707E+02  0.90000097325E+02 0.  0.
         12    1    1    2    0    0  0.55987552828E+00  0.62412895460E+00 -0.83053751205E+00  0.11801652927E+01  0.00000000000E+00 0. -1.
         11    1    3    3    0    0 -0.23375858299E+02 -0.14924991507E+02 -0.22160303286E+01  0.27822597172E+02  0.51100000000E-03 0. -1.
        -11    1    3    3    0    0 -0.17736195247E+02 -0.30603917857E+01  0.88467150009E+00  0.18020023963E+02  0.51100000000E-03 0.  1.
        -12    1    3    3    0    0  0.40552178017E+02  0.17361254338E+02  0.21618963406E+01  0.44165213573E+02  0.00000000000E+00 0.  1.
</event>
<event>
 7    1  0.3032584E-015  0.9000761E+02  0.7816164E-02  0.1186339E+00
        -11   -1    0    0    0    0  0.00000000000E+00  0.00000000000E+00  0.45593999997E+02  0.45594000000E+02  0.51100000000E-03 0.  1.
         11   -1    0    0    0    0 -0.00000000000E+00 -0.00000000000E+00 -0.45593999997E+02  0.45594000000E+02  0.51100000000E-03 0. -1.
    9900012    2    1    2    0    0 -0.10880909336E+01  0.17231537271E+00  0.42389244536E+00  0.90007610542E+02  0.89999870201E+02 0.  0.
         12    1    1    2    0    0  0.10880909336E+01 -0.17231537271E+00 -0.42389244536E+00  0.11803894581E+01  0.00000000000E+00 0. -1.
         11    1    3    3    0    0  0.59587246294E+01 -0.26455339345E+01  0.14214668222E+02  0.15638479527E+02  0.51100000000E-03 0. -1.
        -11    1    3    3    0    0 -0.29114732853E+02 -0.96553936973E+01  0.16532819930E+02  0.34845780687E+02  0.51100000000E-03 0.  1.
         12    1    3    3    0    0  0.22067917290E+02  0.12473243005E+02 -0.30323595707E+02  0.39523350328E+02  0.00000000000E+00 0. -1.
</event>
<event>
 7    1  0.3032584E-015  0.9000817E+02  0.7816164E-02  0.1186338E+00
        -11   -1    0    0    0    0  0.00000000000E+00  0.00000000000E+00  0.45593999997E+02  0.45594000000E+02  0.51100000000E-03 0.  1.
         11   -1    0    0    0    0 -0.00000000000E+00 -0.00000000000E+00 -0.45593999997E+02  0.45594000000E+02  0.51100000000E-03 0. -1.
    9900012    2    1    2    0    0 -0.20913238184E+00 -0.24077186984E+00  0.11359123841E+01  0.90008167643E+02  0.90000434655E+02 0.  0.
         12    1    1    2    0    0  0.20913238184E+00  0.24077186984E+00 -0.11359123841E+01  0.11798323571E+01  0.00000000000E+00 0. -1.
         11    1    3    3    0    0  0.37415011306E+00  0.34207597517E+01  0.81924967815E+01  0.88858645815E+01  0.51100000000E-03 0. -1.
        -11    1    3    3    0    0  0.22163410073E+02 -0.27045171753E+02  0.18612780624E+02  0.39611786933E+02  0.51100000000E-03 0.  1.
         12    1    3    3    0    0 -0.22746692568E+02  0.23383640132E+02 -0.25669365022E+02  0.41510516128E+02  0.00000000000E+00 0. -1.
</event>
<event>
 7    1  0.3032584E-015  0.9000776E+02  0.7816164E-02  0.1186339E+00
        -11   -1    0    0    0    0  0.00000000000E+00  0.00000000000E+00  0.45593999997E+02  0.45594000000E+02  0.51100000000E-03 0.  1.
         11   -1    0    0    0    0 -0.00000000000E+00 -0.00000000000E+00 -0.45593999997E+02  0.45594000000E+02  0.51100000000E-03 0. -1.
    9900012    2    1    2    0    0  0.73235286600E+00  0.28490263365E+00 -0.88059857043E+00  0.90007761010E+02  0.90000022655E+02 0.  0.
         12    1    1    2    0    0 -0.73235286600E+00 -0.28490263365E+00  0.88059857043E+00  0.11802389899E+01  0.00000000000E+00 0. -1.
         11    1    3    3    0    0 -0.16725092406E+02  0.25965658974E+01 -0.33260732024E+02  0.37319527937E+02  0.51100000000E-03 0. -1.
        -11    1    3    3    0    0 -0.21075600688E+01  0.19945821691E+01 -0.75094934502E+01  0.80506310071E+01  0.51100000000E-03 0.  1.
        -12    1    3    3    0    0  0.19565005341E+02 -0.43062454328E+01  0.39889626903E+02  0.44637602066E+02  0.00000000000E+00 0.  1.
</event>
<event>
 7    1  0.3032584E-015  0.9000770E+02  0.7816164E-02  0.1186339E+00
        -11   -1    0    0    0    0  0.00000000000E+00  0.00000000000E+00  0.45593999997E+02  0.45594000000E+02  0.51100000000E-03 0.  1.
         11   -1    0    0    0    0 -0.00000000000E+00 -0.00000000000E+00 -0.45593999997E+02  0.45594000000E+02  0.51100000000E-03 0. -1.
    9900012    2    1    2    0    0 -0.19257068360E+00  0.82514781943E+00  0.82167666357E+00  0.90007701338E+02  0.89999962196E+02 0.  0.
         12    1    1    2    0    0  0.19257068360E+00 -0.82514781943E+00 -0.82167666357E+00  0.11802986620E+01  0.00000000000E+00 0. -1.
         11    1    3    3    0    0  0.32748585371E+02 -0.17129938663E+02 -0.11502061963E+02  0.38706615353E+02  0.51100000000E-03 0. -1.
        -11    1    3    3    0    0  0.27043525765E+01  0.65394377221E+00 -0.67690240098E+01  0.73185279683E+01  0.51100000000E-03 0.  1.
        -12    1    3    3    0    0 -0.35645508631E+02  0.17301142710E+02  0.19092762637E+02  0.43982558017E+02  0.00000000000E+00 0.  1.
</event>
<event>
 7    1  0.3032584E-015  0.9000774E+02  0.7816164E-02  0.1186339E+00
        -11   -1    0    0    0    0  0.00000000000E+00  0.00000000000E+00  0.45593999997E+02  0.45594000000E+02  0.51100000000E-03 0.  1.
         11   -1    0    0    0    0 -0.00000000000E+00 -0.00000000000E+00 -0.45593999997E+02  0.45594000000E+02  0.51100000000E-03 0. -1.
    9900012    2    1    2    0    0  0.26042093956E+00 -0.13989926459E+00  0.11426351365E+01  0.90007743280E+02  0.90000004691E+02 0.  0.
         12    1    1    2    0    0 -0.26042093956E+00  0.13989926459E+00 -0.11426351365E+01  0.11802567201E+01  0.00000000000E+00 0. -1.
         11    1    3    3    0    0 -0.28750128874E+01  0.32917374854E+01  0.11524759702E+02  0.12325636748E+02  0.51100000000E-03 0. -1.
        -11    1    3    3    0    0 -0.14336445735E+02  0.13847232407E+02  0.26625324666E+02  0.33259396198E+02  0.51100000000E-03 0.  1.
         12    1    3    3    0    0  0.17471879562E+02 -0.17278869157E+02 -0.37007449232E+02  0.44422710334E+02  0.00000000000E+00 0. -1.
</event>
<event>
 7    1  0.3032584E-015  0.9000775E+02  0.7816164E-02  0.1186339E+00
        -11   -1    0    0    0    0  0.00000000000E+00  0.00000000000E+00  0.45593999997E+02  0.45594000000E+02  0.51100000000E-03 0.  1.
         11   -1    0    0    0    0 -0.00000000000E+00 -0.00000000000E+00 -0.45593999997E+02  0.45594000000E+02  0.51100000000E-03 0. -1.
    9900012    2    1    2    0    0 -0.81384636049E+00 -0.63653203357E+00 -0.57049765516E+00  0.90007751508E+02  0.90000013028E+02 0.  0.
         12    1    1    2    0    0  0.81384636049E+00  0.63653203357E+00  0.57049765516E+00  0.11802484920E+01  0.00000000000E+00 0. -1.
         11    1    3    3    0    0 -0.57886656876E+01 -0.80674380319E+01  0.71259593496E+00  0.99548982952E+01  0.51100000000E-03 0. -1.
        -11    1    3    3    0    0  0.40381160676E+02  0.16278423976E+02 -0.10825361436E+00  0.43538912984E+02  0.51100000000E-03 0.  1.
         12    1    3    3    0    0 -0.35406341349E+02 -0.88475179782E+01 -0.11748399758E+01  0.36513940229E+02  0.00000000000E+00 0. -1.
</event>
<event>
 7    1  0.3032584E-015  0.9000767E+02  0.7816164E-02  0.1186339E+00
        -11   -1    0    0    0    0  0.00000000000E+00  0.00000000000E+00  0.45593999997E+02  0.45594000000E+02  0.51100000000E-03 0.  1.
         11   -1    0    0    0    0 -0.00000000000E+00 -0.00000000000E+00 -0.45593999997E+02  0.45594000000E+02  0.51100000000E-03 0. -1.
    9900012    2    1    2    0    0 -0.87745053075E+00  0.12327567539E+00  0.77978969245E+00  0.90007666026E+02  0.89999926417E+02 0.  0.
         12    1    1    2    0    0  0.87745053075E+00 -0.12327567539E+00 -0.77978969245E+00  0.11803339741E+01  0.00000000000E+00 0. -1.
         11    1    3    3    0    0  0.62595486267E+01  0.50714146897E+01  0.80813552845E+01  0.11410937712E+02  0.51100000000E-03 0. -1.
        -11    1    3    3    0    0 -0.19115835655E+02 -0.12610968546E+02  0.30539422326E+02  0.38172084260E+02  0.51100000000E-03 0.  1.
         12    1    3    3    0    0  0.11978836497E+02  0.76628295316E+01 -0.37840987919E+02  0.40424644054E+02  0.00000000000E+00 0. -1.
</event>
<event>
 7    1  0.3032584E-015  0.9000778E+02  0.7816164E-02  0.1186339E+00
        -11   -1    0    0    0    0  0.00000000000E+00  0.00000000000E+00  0.45593999997E+02  0.45594000000E+02  0.51100000000E-03 0.  1.
         11   -1    0    0    0    0 -0.00000000000E+00 -0.00000000000E+00 -0.45593999997E+02  0.45594000000E+02  0.51100000000E-03 0. -1.
    9900012    2    1    2    0    0  0.18833837822E+00  0.62088354169E+00 -0.98588072170E+00  0.90007776074E+02  0.90000037919E+02 0.  0.
         12    1    1    2    0    0 -0.18833837822E+00 -0.62088354169E+00  0.98588072170E+00  0.11802239256E+01  0.00000000000E+00 0. -1.
         11    1    3    3    0    0  0.22914155539E+01 -0.70512261351E+01  0.57384314651E+01  0.93754984502E+01  0.51100000000E-03 0. -1.
        -11    1    3    3    0    0  0.25464520082E+02  0.12753211556E+02  0.25284505461E+02  0.38084017706E+02  0.51100000000E-03 0.  1.
         12    1    3    3    0    0 -0.27567597258E+02 -0.50811018789E+01 -0.32008817648E+02  0.42548259918E+02  0.00000000000E+00 0. -1.
</event>
<event>
 7    1  0.3032584E-015  0.9000742E+02  0.7816164E-02  0.1186340E+00
        -11   -1    0    0    0    0  0.00000000000E+00  0.00000000000E+00  0.45593999997E+02  0.45594000000E+02  0.51100000000E-03 0. -1.
         11   -1    0    0    0    0 -0.00000000000E+00 -0.00000000000E+00 -0.45593999997E+02  0.45594000000E+02  0.51100000000E-03 0.  1.
    9900012    2    1    2    0    0  0.10470856132E+01 -0.50594646158E+00 -0.20345031738E+00  0.90007422965E+02  0.89999680148E+02 0.  0.
         12    1    1    2    0    0 -0.10470856132E+01  0.50594646158E+00  0.20345031738E+00  0.11805770347E+01  0.00000000000E+00 0. -1.
         11    1    3    3    0    0 -0.99728301935E+01 -0.16157630401E+01  0.20843883559E+01  0.10315653511E+02  0.51100000000E-03 0. -1.
        -11    1    3    3    0    0  0.11131154750E+02  0.39045522136E+02 -0.78416892845E+01  0.41351511411E+02  0.51100000000E-03 0.  1.
         12    1    3    3    0    0 -0.11123894319E+00 -0.37935705557E+02  0.55538506112E+01  0.38340258043E+02  0.00000000000E+00 0. -1.
</event>
<event>
 7    1  0.3032584E-015  0.9000772E+02  0.7816164E-02  0.1186339E+00
        -11   -1    0    0    0    0  0.00000000000E+00  0.00000000000E+00  0.45593999997E+02  0.45594000000E+02  0.51100000000E-03 0.  1.
         11   -1    0    0    0    0 -0.00000000000E+00 -0.00000000000E+00 -0.45593999997E+02  0.45594000000E+02  0.51100000000E-03 0. -1.
    9900012    2    1    2    0    0  0.56845939827E+00  0.55203678165E+00 -0.87474014236E+00  0.90007719943E+02  0.89999981046E+02 0.  0.
         12    1    1    2    0    0 -0.56845939827E+00 -0.55203678165E+00  0.87474014236E+00  0.11802800568E+01  0.00000000000E+00 0. -1.
         11    1    3    3    0    0 -0.55731102787E+01 -0.13277052086E+01 -0.12277623602E+02  0.13548520246E+02  0.51100000000E-03 0. -1.
        -11    1    3    3    0    0 -0.20159039100E+02  0.30890130287E+01  0.35387691052E+02  0.40843818837E+02  0.51100000000E-03 0.  1.
         12    1    3    3    0    0  0.26300608777E+02 -0.12092710384E+01 -0.23984807593E+02  0.35615380860E+02  0.00000000000E+00 0. -1.
</event>
<event>
 7    1  0.3164056E-015  0.9000777E+02  0.7816164E-02  0.1186339E+00
        -11   -1    0    0    0    0  0.00000000000E+00  0.00000000000E+00  0.45593999997E+02  0.45594000000E+02  0.51100000000E-03 0. -1.
         11   -1    0    0    0    0 -0.00000000000E+00 -0.00000000000E+00 -0.45593999997E+02  0.45594000000E+02  0.51100000000E-03 0.  1.
    9900012    2    1    2    0    0  0.11170523767E+01  0.23960141801E+00 -0.29619799836E+00  0.90007767775E+02  0.90000029509E+02 0.  0.
         12    1    1    2    0    0 -0.11170523767E+01 -0.23960141801E+00  0.29619799836E+00  0.11802322254E+01  0.00000000000E+00 0. -1.
         11    1    3    3    0    0 -0.10918507276E+02  0.23157488199E+02  0.29006696759E+02  0.38689423851E+02  0.51100000000E-03 0. -1.
        -11    1    3    3    0    0 -0.86414214802E+01  0.22743943973E+01 -0.29636839392E+01  0.94143750629E+01  0.51100000000E-03 0.  1.
        -12    1    3    3    0    0  0.20676981133E+02 -0.25192281179E+02 -0.26339210818E+02  0.41903968860E+02  0.00000000000E+00 0.  1.
</event>
<event>
 7    1  0.3032584E-015  0.9000773E+02  0.7816164E-02  0.1186339E+00
        -11   -1    0    0    0    0  0.00000000000E+00  0.00000000000E+00  0.45593999997E+02  0.45594000000E+02  0.51100000000E-03 0. -1.
         11   -1    0    0    0    0 -0.00000000000E+00 -0.00000000000E+00 -0.45593999997E+02  0.45594000000E+02  0.51100000000E-03 0.  1.
    9900012    2    1    2    0    0  0.90602509505E+00  0.60997946785E+00  0.44731271362E+00  0.90007726689E+02  0.89999987882E+02 0.  0.
         12    1    1    2    0    0 -0.90602509505E+00 -0.60997946785E+00 -0.44731271362E+00  0.11802733107E+01  0.00000000000E+00 0. -1.
         11    1    3    3    0    0  0.10104137290E+02 -0.25429821474E+01  0.72767708961E+01  0.12708727061E+02  0.51100000000E-03 0. -1.
        -11    1    3    3    0    0  0.15467987824E+02 -0.30944162190E+02  0.41009873217E+00  0.34597225354E+02  0.51100000000E-03 0.  1.
         12    1    3    3    0    0 -0.24666100019E+02  0.34097123805E+02 -0.72395569146E+01  0.42701774275E+02  0.00000000000E+00 0. -1.
</event>
<event>
 7    1  0.3032584E-015  0.9000775E+02  0.7816164E-02  0.1186339E+00
        -11   -1    0    0    0    0  0.00000000000E+00  0.00000000000E+00  0.45593999997E+02  0.45594000000E+02  0.51100000000E-03 0. -1.
         11   -1    0    0    0    0 -0.00000000000E+00 -0.00000000000E+00 -0.45593999997E+02  0.45594000000E+02  0.51100000000E-03 0.  1.
    9900012    2    1    2    0    0  0.10776112415E+01  0.45299175142E-01  0.47926376716E+00  0.90007749280E+02  0.90000010771E+02 0.  0.
         12    1    1    2    0    0 -0.10776112415E+01 -0.45299175142E-01 -0.47926376716E+00  0.11802507198E+01  0.00000000000E+00 0. -1.
         11    1    3    3    0    0 -0.19861835094E+01 -0.78567324281E+01 -0.53139376457E+01  0.96907741148E+01  0.51100000000E-03 0. -1.
        -11    1    3    3    0    0 -0.36290787446E+02  0.16403038450E+02  0.37752660166E+01  0.40004169253E+02  0.51100000000E-03 0.  1.
         12    1    3    3    0    0  0.39354582197E+02 -0.85010068464E+01  0.20179353963E+01  0.40312805913E+02  0.00000000000E+00 0. -1.
</event>
<event>
 7    1  0.3032584E-015  0.9000774E+02  0.7816164E-02  0.1186339E+00
        -11   -1    0    0    0    0  0.00000000000E+00  0.00000000000E+00  0.45593999997E+02  0.45594000000E+02  0.51100000000E-03 0. -1.
         11   -1    0    0    0    0 -0.00000000000E+00 -0.00000000000E+00 -0.45593999997E+02  0.45594000000E+02  0.51100000000E-03 0.  1.
    9900012    2    1    2    0    0  0.10111002641E+01 -0.31901606317E+00  0.51857836998E+00  0.90007737945E+02  0.89999999286E+02 0.  0.
         12    1    1    2    0    0 -0.10111002641E+01  0.31901606317E+00 -0.51857836998E+00  0.11802620550E+01  0.00000000000E+00 0. -1.
         11    1    3    3    0    0 -0.47258701307E+01  0.26675205662E+02 -0.19833320163E+02  0.33574708257E+02  0.51100000000E-03 0. -1.
        -11    1    3    3    0    0 -0.11325634196E+02  0.77257042046E+01  0.30015983373E+01  0.14034460739E+02  0.51100000000E-03 0.  1.
        -12    1    3    3    0    0  0.17062604591E+02 -0.34719925930E+02  0.17350300195E+02  0.42398568949E+02  0.00000000000E+00 0.  1.
</event>
<event>
 7    1  0.3032584E-015  0.9000777E+02  0.7816164E-02  0.1186339E+00
        -11   -1    0    0    0    0  0.00000000000E+00  0.00000000000E+00  0.45593999997E+02  0.45594000000E+02  0.51100000000E-03 0. -1.
         11   -1    0    0    0    0 -0.00000000000E+00 -0.00000000000E+00 -0.45593999997E+02  0.45594000000E+02  0.51100000000E-03 0.  1.
    9900012    2    1    2    0    0 -0.94198852819E+00 -0.92971758107E-01 -0.70494445836E+00  0.90007774249E+02  0.90000036069E+02 0.  0.
         12    1    1    2    0    0  0.94198852819E+00  0.92971758107E-01  0.70494445836E+00  0.11802257515E+01  0.00000000000E+00 0. -1.
         11    1    3    3    0    0 -0.68201577549E+01 -0.45319102953E+01  0.11001200857E+01  0.82621442247E+01  0.51100000000E-03 0. -1.
        -11    1    3    3    0    0 -0.12134818697E+02  0.19800854768E+02 -0.34372704141E+02  0.41482652574E+02  0.51100000000E-03 0.  1.
         12    1    3    3    0    0  0.18012987924E+02 -0.15361916231E+02  0.32567639597E+02  0.40262977450E+02  0.00000000000E+00 0. -1.
</event>
<event>
 7    1  0.3032584E-015  0.9000774E+02  0.7816164E-02  0.1186339E+00
        -11   -1    0    0    0    0  0.00000000000E+00  0.00000000000E+00  0.45593999997E+02  0.45594000000E+02  0.51100000000E-03 0. -1.
         11   -1    0    0    0    0 -0.00000000000E+00 -0.00000000000E+00 -0.45593999997E+02  0.45594000000E+02  0.51100000000E-03 0.  1.
    9900012    2    1    2    0    0  0.93196401870E+00 -0.61847629350E+00 -0.37675354201E+00  0.90007740245E+02  0.90000001616E+02 0.  0.
         12    1    1    2    0    0 -0.93196401870E+00  0.61847629350E+00  0.37675354201E+00  0.11802597550E+01  0.00000000000E+00 0. -1.
         11    1    3    3    0    0  0.18812211896E+02 -0.18046309722E+02 -0.21800562697E+02  0.33982836038E+02  0.51100000000E-03 0. -1.
        -11    1    3    3    0    0 -0.25452388715E+01  0.83760404446E+01 -0.13922698229E+02  0.16446209918E+02  0.51100000000E-03 0.  1.
        -12    1    3    3    0    0 -0.15335009006E+02  0.90517929840E+01  0.35346507383E+02  0.39578694289E+02  0.00000000000E+00 0.  1.
</event>
<event>
 7    1  0.3032584E-015  0.9000773E+02  0.7816164E-02  0.1186339E+00
        -11   -1    0    0    0    0  0.00000000000E+00  0.00000000000E+00  0.45593999997E+02  0.45594000000E+02  0.51100000000E-03 0.  1.
         11   -1    0    0    0    0 -0.00000000000E+00 -0.00000000000E+00 -0.45593999997E+02  0.45594000000E+02  0.51100000000E-03 0. -1.
    9900012    2    1    2    0    0  0.10453441536E+01  0.54184780824E+00 -0.81772063449E-01  0.90007733031E+02  0.89999994307E+02 0.  0.
         12    1    1    2    0    0 -0.10453441536E+01 -0.54184780824E+00  0.81772063449E-01  0.11802669686E+01  0.00000000000E+00 0. -1.
         11    1    3    3    0    0 -0.40064439923E+01  0.43492793229E+01  0.86269809475E+01  0.10459092916E+02  0.51100000000E-03 0. -1.
        -11    1    3    3    0    0 -0.30018213980E+02 -0.17560993472E+02  0.11715086186E+02  0.36697750706E+02  0.51100000000E-03 0.  1.
         12    1    3    3    0    0  0.35070002126E+02  0.13753561957E+02 -0.20423839197E+02  0.42850889410E+02  0.00000000000E+00 0. -1.
</event>
<event>
 7    1  0.3032584E-015  0.9000786E+02  0.7816164E-02  0.1186339E+00
        -11   -1    0    0    0    0  0.00000000000E+00  0.00000000000E+00  0.45593999997E+02  0.45594000000E+02  0.51100000000E-03 0. -1.
         11   -1    0    0    0    0 -0.00000000000E+00 -0.00000000000E+00 -0.45593999997E+02  0.45594000000E+02  0.51100000000E-03 0.  1.
    9900012    2    1    2    0    0  0.47612989809E+00 -0.57400436762E+00 -0.91462970481E+00  0.90007860944E+02  0.90000123909E+02 0.  0.
         12    1    1    2    0    0 -0.47612989809E+00  0.57400436762E+00  0.91462970481E+00  0.11801390557E+01  0.00000000000E+00 0. -1.
         11    1    3    3    0    0 -0.37346419520E+02  0.38652169838E+01 -0.17615549888E+02  0.41472913466E+02  0.51100000000E-03 0. -1.
        -11    1    3    3    0    0  0.16996729786E+00 -0.77250104441E+01  0.36874774297E+01  0.85616683713E+01  0.51100000000E-03 0.  1.
        -12    1    3    3    0    0  0.37652582120E+02  0.32857890926E+01  0.13013442753E+02  0.39973279107E+02  0.00000000000E+00 0.  1.
</event>
<event>
 7    1  0.3033781E-015  0.9000766E+02  0.7816164E-02  0.1186339E+00
        -11   -1    0    0    0    0  0.00000000000E+00  0.00000000000E+00  0.45593999997E+02  0.45594000000E+02  0.51100000000E-03 0.  1.
         11   -1    0    0    0    0 -0.00000000000E+00 -0.00000000000E+00 -0.45593999997E+02  0.45594000000E+02  0.51100000000E-03 0. -1.
    9900012    2    1    2    0    0 -0.81239140662E+00 -0.56543865203E+00  0.64304359926E+00  0.90007658635E+02  0.89999918929E+02 0.  0.
         12    1    1    2    0    0  0.81239140662E+00  0.56543865203E+00 -0.64304359926E+00  0.11803413647E+01  0.00000000000E+00 0. -1.
         11    1    3    3    0    0  0.11820551975E+02  0.17344545254E+01 -0.37891918452E+02  0.39730734523E+02  0.51100000000E-03 0. -1.
        -11    1    3    3    0    0  0.19769792532E+01 -0.88659799269E+01  0.60533056894E+00  0.91038712859E+01  0.51100000000E-03 0.  1.
        -12    1    3    3    0    0 -0.14609922635E+02  0.65660867494E+01  0.37929631483E+02  0.41173052826E+02  0.00000000000E+00 0.  1.
</event>
<event>
 7    1  0.3032584E-015  0.9000777E+02  0.7816164E-02  0.1186339E+00
        -11   -1    0    0    0    0  0.00000000000E+00  0.00000000000E+00  0.45593999997E+02  0.45594000000E+02  0.51100000000E-03 0.  1.
         11   -1    0    0    0    0 -0.00000000000E+00 -0.00000000000E+00 -0.45593999997E+02  0.45594000000E+02  0.51100000000E-03 0. -1.
    9900012    2    1    2    0    0  0.55981745877E-01  0.30618590383E+00  0.11384508167E+01  0.90007765267E+02  0.90000026968E+02 0.  0.
         12    1    1    2    0    0 -0.55981745877E-01 -0.30618590383E+00 -0.11384508167E+01  0.11802347333E+01  0.00000000000E+00 0. -1.
         11    1    3    3    0    0 -0.22833233682E+02 -0.21488363462E+02 -0.30092540487E+02  0.43458800235E+02  0.51100000000E-03 0. -1.
        -11    1    3    3    0    0  0.55747291798E+01  0.87552674889E+01  0.27119109744E+01  0.10727850466E+02  0.51100000000E-03 0.  1.
        -12    1    3    3    0    0  0.17314486248E+02  0.13039281877E+02  0.28519080329E+02  0.35821114566E+02  0.00000000000E+00 0.  1.
</event>
<event>
 7    1  0.3032584E-015  0.9000789E+02  0.7816164E-02  0.1186339E+00
        -11   -1    0    0    0    0  0.00000000000E+00  0.00000000000E+00  0.45593999997E+02  0.45594000000E+02  0.51100000000E-03 0. -1.
         11   -1    0    0    0    0 -0.00000000000E+00 -0.00000000000E+00 -0.45593999997E+02  0.45594000000E+02  0.51100000000E-03 0.  1.
    9900012    2    1    2    0    0 -0.58930682604E+00  0.84323216967E+00 -0.57820852845E+00  0.90007894865E+02  0.90000158277E+02 0.  0.
         12    1    1    2    0    0  0.58930682604E+00 -0.84323216967E+00  0.57820852845E+00  0.11801051350E+01  0.00000000000E+00 0. -1.
         11    1    3    3    0    0  0.11849156067E+02 -0.35804833685E+01  0.22901785263E+01  0.12588378712E+02  0.51100000000E-03 0. -1.
        -11    1    3    3    0    0  0.28323394581E+02  0.18935818059E+02 -0.22981227374E+01  0.34147639077E+02  0.51100000000E-03 0.  1.
         12    1    3    3    0    0 -0.40761857474E+02 -0.14512102521E+02 -0.57026431730E+00  0.43271877076E+02  0.00000000000E+00 0. -1.
</event>
<event>
 7    1  0.3032584E-015  0.9000758E+02  0.7816164E-02  0.1186339E+00
        -11   -1    0    0    0    0  0.00000000000E+00  0.00000000000E+00  0.45593999997E+02  0.45594000000E+02  0.51100000000E-03 0. -1.
         11   -1    0    0    0    0 -0.00000000000E+00 -0.00000000000E+00 -0.45593999997E+02  0.45594000000E+02  0.51100000000E-03 0.  1.
    9900012    2    1    2    0    0  0.11337626483E+01  0.13515359302E+00 -0.29950640521E+00  0.90007581293E+02  0.89999840566E+02 0.  0.
         12    1    1    2    0    0 -0.11337626483E+01 -0.13515359302E+00  0.29950640521E+00  0.11804187067E+01  0.00000000000E+00 0. -1.
         11    1    3    3    0    0 -0.30906912004E+01 -0.87170823691E+01 -0.18594866511E+01  0.94338532951E+01  0.51100000000E-03 0. -1.
        -11    1    3    3    0    0 -0.25212881500E+02 -0.21699909834E+02 -0.13004923829E+02  0.35716992096E+02  0.51100000000E-03 0.  1.
         12    1    3    3    0    0  0.29437335348E+02  0.30552145796E+02  0.14564904075E+02  0.44856735903E+02  0.00000000000E+00 0. -1.
</event>
<event>
 7    1  0.3032584E-015  0.9000774E+02  0.7816164E-02  0.1186339E+00
        -11   -1    0    0    0    0  0.00000000000E+00  0.00000000000E+00  0.45593999997E+02  0.45594000000E+02  0.51100000000E-03 0.  1.
         11   -1    0    0    0    0 -0.00000000000E+00 -0.00000000000E+00 -0.45593999997E+02  0.45594000000E+02  0.51100000000E-03 0. -1.
    9900012    2    1    2    0    0  0.11685705257E-01  0.57519287462E+00  0.10305516381E+01  0.90007737285E+02  0.89999998617E+02 0.  0.
         12    1    1    2    0    0 -0.11685705257E-01 -0.57519287462E+00 -0.10305516381E+01  0.11802627154E+01  0.00000000000E+00 0. -1.
         11    1    3    3    0    0  0.18384951135E+02  0.24021645759E+02  0.30879878936E+02  0.43227454430E+02  0.51100000000E-03 0. -1.
        -11    1    3    3    0    0 -0.77501000749E+01  0.10659396048E+01 -0.17664137262E+01  0.80200059929E+01  0.51100000000E-03 0.  1.
        -12    1    3    3    0    0 -0.10623165355E+02 -0.24512392489E+02 -0.28082913571E+02  0.38760276861E+02  0.00000000000E+00 0.  1.
</event>
<event>
 7    1  0.3032584E-015  0.9000790E+02  0.7816164E-02  0.1186339E+00
        -11   -1    0    0    0    0  0.00000000000E+00  0.00000000000E+00  0.45593999997E+02  0.45594000000E+02  0.51100000000E-03 0. -1.
         11   -1    0    0    0    0 -0.00000000000E+00 -0.00000000000E+00 -0.45593999997E+02  0.45594000000E+02  0.51100000000E-03 0.  1.
    9900012    2    1    2    0    0  0.15396656432E+00  0.10163145359E+01 -0.57968826878E+00  0.90007898552E+02  0.90000162013E+02 0.  0.
         12    1    1    2    0    0 -0.15396656432E+00 -0.10163145359E+01  0.57968826878E+00  0.11801014481E+01  0.00000000000E+00 0. -1.
         11    1    3    3    0    0 -0.10614311106E+02  0.27854576758E+02 -0.30377991785E+02  0.42560115505E+02  0.51100000000E-03 0. -1.
        -11    1    3    3    0    0 -0.71494803167E+01 -0.65730598714E+01  0.59774191658E+01  0.11403934629E+02  0.51100000000E-03 0.  1.
        -12    1    3    3    0    0  0.17917757987E+02 -0.20265202351E+02  0.23820884350E+02  0.36043848419E+02  0.00000000000E+00 0.  1.
</event>
<event>
 7    1  0.3032584E-015  0.9000763E+02  0.7816164E-02  0.1186339E+00
        -11   -1    0    0    0    0  0.00000000000E+00  0.00000000000E+00  0.45593999997E+02  0.45594000000E+02  0.51100000000E-03 0. -1.
         11   -1    0    0    0    0 -0.00000000000E+00 -0.00000000000E+00 -0.45593999997E+02  0.45594000000E+02  0.51100000000E-03 0.  1.
    9900012    2    1    2    0    0  0.11828146446E+00 -0.74391170879E+00 -0.90877308630E+00  0.90007634100E+02  0.89999894070E+02 0.  0.
         12    1    1    2    0    0 -0.11828146446E+00  0.74391170879E+00  0.90877308630E+00  0.11803658999E+01  0.00000000000E+00 0. -1.
         11    1    3    3    0    0  0.13752405564E+02  0.12165589313E+01 -0.32546084569E+01  0.14184539150E+02  0.51100000000E-03 0. -1.
        -11    1    3    3    0    0  0.64374314016E+01  0.11890130849E+02 -0.31400321822E+02  0.34187657794E+02  0.51100000000E-03 0.  1.
         12    1    3    3    0    0 -0.20071555501E+02 -0.13850601489E+02  0.33746157193E+02  0.41635437156E+02  0.00000000000E+00 0. -1.
</event>
<event>
 7    1  0.3032584E-015  0.9000770E+02  0.7816164E-02  0.1186339E+00
        -11   -1    0    0    0    0  0.00000000000E+00  0.00000000000E+00  0.45593999997E+02  0.45594000000E+02  0.51100000000E-03 0.  1.
         11   -1    0    0    0    0 -0.00000000000E+00 -0.00000000000E+00 -0.45593999997E+02  0.45594000000E+02  0.51100000000E-03 0. -1.
    9900012    2    1    2    0    0 -0.10594450391E+01 -0.51834550859E+00  0.44866235113E-01  0.90007695448E+02  0.89999956228E+02 0.  0.
         12    1    1    2    0    0  0.10594450391E+01  0.51834550859E+00 -0.44866235113E-01  0.11803045523E+01  0.00000000000E+00 0. -1.
         11    1    3    3    0    0  0.28140302012E+01  0.80940740454E+00 -0.36449546807E+02  0.36566971012E+02  0.51100000000E-03 0. -1.
        -11    1    3    3    0    0 -0.25940505037E+01  0.30758097274E+01 -0.78705413669E+01  0.88394075120E+01  0.51100000000E-03 0.  1.
        -12    1    3    3    0    0 -0.12794247365E+01 -0.44035626405E+01  0.44364954409E+02  0.44601316923E+02  0.00000000000E+00 0.  1.
</event>
<event>
 7    1  0.3032584E-015  0.9000762E+02  0.7816164E-02  0.1186339E+00
        -11   -1    0    0    0    0  0.00000000000E+00  0.00000000000E+00  0.45593999997E+02  0.45594000000E+02  0.51100000000E-03 0.  1.
         11   -1    0    0    0    0 -0.00000000000E+00 -0.00000000000E+00 -0.45593999997E+02  0.45594000000E+02  0.51100000000E-03 0. -1.
    9900012    2    1    2    0    0 -0.55987008963E+00 -0.95756283686E+00 -0.40362543593E+00  0.90007620995E+02  0.89999880792E+02 0.  0.
         12    1    1    2    0    0  0.55987008963E+00  0.95756283686E+00  0.40362543593E+00  0.11803790054E+01  0.00000000000E+00 0. -1.
         11    1    3    3    0    0 -0.80814062318E+01 -0.22429871682E+02 -0.38135982460E+02  0.44975120109E+02  0.51100000000E-03 0. -1.
        -11    1    3    3    0    0 -0.15399151876E+01  0.25631016537E+01  0.88489960741E+01  0.93405332103E+01  0.51100000000E-03 0.  1.
        -12    1    3    3    0    0  0.90614513297E+01  0.18909207191E+02  0.28883360950E+02  0.35691967676E+02  0.00000000000E+00 0.  1.
</event>
<event>
 7    1  0.3032584E-015  0.9000774E+02  0.7816164E-02  0.1186339E+00
        -11   -1    0    0    0    0  0.00000000000E+00  0.00000000000E+00  0.45593999997E+02  0.45594000000E+02  0.51100000000E-03 0. -1.
         11   -1    0    0    0    0 -0.00000000000E+00 -0.00000000000E+00 -0.45593999997E+02  0.45594000000E+02  0.51100000000E-03 0.  1.
    9900012    2    1    2    0    0 -0.11303359748E+01  0.24422795368E+00 -0.23601109246E+00  0.90007742424E+02  0.90000003824E+02 0.  0.
         12    1    1    2    0    0  0.11303359748E+01 -0.24422795368E+00  0.23601109246E+00  0.11802575757E+01  0.00000000000E+00 0. -1.
         11    1    3    3    0    0 -0.28496846521E+02  0.23821177906E+02  0.12884417016E+02  0.39313190923E+02  0.51100000000E-03 0. -1.
        -11    1    3    3    0    0 -0.35356748910E+01  0.19438461313E+01 -0.96582600506E+01  0.10467163999E+02  0.51100000000E-03 0.  1.
        -12    1    3    3    0    0  0.30902185437E+02 -0.25520796084E+02 -0.34621680578E+01  0.40227387502E+02  0.00000000000E+00 0.  1.
</event>
<event>
 7    1  0.3032584E-015  0.9000760E+02  0.7816164E-02  0.1186339E+00
        -11   -1    0    0    0    0  0.00000000000E+00  0.00000000000E+00  0.45593999997E+02  0.45594000000E+02  0.51100000000E-03 0. -1.
         11   -1    0    0    0    0 -0.00000000000E+00 -0.00000000000E+00 -0.45593999997E+02  0.45594000000E+02  0.51100000000E-03 0.  1.
    9900012    2    1    2    0    0 -0.73012418175E+00 -0.15971761802E+00 -0.91364854469E+00  0.90007599771E+02  0.89999859287E+02 0.  0.
         12    1    1    2    0    0  0.73012418175E+00  0.15971761802E+00  0.91364854469E+00  0.11804002294E+01  0.00000000000E+00 0. -1.
         11    1    3    3    0    0 -0.14316368300E+02 -0.36040695956E+02  0.14123097950E+02  0.41271685963E+02  0.51100000000E-03 0. -1.
        -11    1    3    3    0    0 -0.51795070943E+01 -0.43804402336E+00 -0.34722828366E+01  0.62510738809E+01  0.51100000000E-03 0.  1.
        -12    1    3    3    0    0  0.18765751213E+02  0.36319022361E+02 -0.11564463658E+02  0.42484839926E+02  0.00000000000E+00 0.  1.
</event>
<event>
 7    1  0.3032584E-015  0.9000771E+02  0.7816164E-02  0.1186339E+00
        -11   -1    0    0    0    0  0.00000000000E+00  0.00000000000E+00  0.45593999997E+02  0.45594000000E+02  0.51100000000E-03 0. -1.
         11   -1    0    0    0    0 -0.00000000000E+00 -0.00000000000E+00 -0.45593999997E+02  0.45594000000E+02  0.51100000000E-03 0.  1.
    9900012    2    1    2    0    0  0.48068642754E+00  0.69416964806E+00 -0.82470905722E+00  0.90007713606E+02  0.89999974626E+02 0.  0.
         12    1    1    2    0    0 -0.48068642754E+00 -0.69416964806E+00  0.82470905722E+00  0.11802863936E+01  0.00000000000E+00 0. -1.
         11    1    3    3    0    0  0.86716984337E+01  0.49020322638E+01 -0.16582878346E+01  0.10098425266E+02  0.51100000000E-03 0. -1.
        -11    1    3    3    0    0  0.89737005187E+01  0.29840280714E+02 -0.19437403083E+02  0.36725771510E+02  0.51100000000E-03 0.  1.
         12    1    3    3    0    0 -0.17164712525E+02 -0.34048143330E+02  0.20270981861E+02  0.43183516831E+02  0.00000000000E+00 0. -1.
</event>
<event>
 7    1  0.3032584E-015  0.9000771E+02  0.7816164E-02  0.1186339E+00
        -11   -1    0    0    0    0  0.00000000000E+00  0.00000000000E+00  0.45593999997E+02  0.45594000000E+02  0.51100000000E-03 0.  1.
         11   -1    0    0    0    0 -0.00000000000E+00 -0.00000000000E+00 -0.45593999997E+02  0.45594000000E+02  0.51100000000E-03 0. -1.
    9900012    2    1    2    0    0 -0.85444546022E+00 -0.78653375328E+00 -0.21065248855E+00  0.90007708993E+02  0.89999969952E+02 0.  0.
         12    1    1    2    0    0  0.85444546022E+00  0.78653375328E+00  0.21065248855E+00  0.11802910067E+01  0.00000000000E+00 0. -1.
         11    1    3    3    0    0  0.61308310787E+01  0.51786784985E+00  0.76689952830E+01  0.98320275497E+01  0.51100000000E-03 0. -1.
        -11    1    3    3    0    0 -0.39111993145E+02 -0.17762204757E+02  0.11308637505E+01  0.42971185446E+02  0.51100000000E-03 0.  1.
         12    1    3    3    0    0  0.32126716606E+02  0.16457803154E+02 -0.90105115220E+01  0.37204495997E+02  0.00000000000E+00 0. -1.
</event>
<event>
 7    1  0.3032584E-015  0.9000779E+02  0.7816164E-02  0.1186339E+00
        -11   -1    0    0    0    0  0.00000000000E+00  0.00000000000E+00  0.45593999997E+02  0.45594000000E+02  0.51100000000E-03 0.  1.
         11   -1    0    0    0    0 -0.00000000000E+00 -0.00000000000E+00 -0.45593999997E+02  0.45594000000E+02  0.51100000000E-03 0. -1.
    9900012    2    1    2    0    0  0.56628899878E+00 -0.10308299696E+01  0.97992700525E-01  0.90007789754E+02  0.90000051778E+02 0.  0.
         12    1    1    2    0    0 -0.56628899878E+00  0.10308299696E+01 -0.97992700525E-01  0.11802102464E+01  0.00000000000E+00 0. -1.
         11    1    3    3    0    0 -0.28519641629E+00 -0.19870887041E+01  0.89116772251E+01  0.91349794602E+01  0.51100000000E-03 0. -1.
        -11    1    3    3    0    0 -0.10226202110E+02  0.20389404519E+02  0.29025810405E+02  0.36916130568E+02  0.51100000000E-03 0.  1.
         12    1    3    3    0    0  0.11077687525E+02 -0.19433145784E+02 -0.37839494929E+02  0.43956679725E+02  0.00000000000E+00 0. -1.
</event>
<event>
 7    1  0.3032584E-015  0.9000774E+02  0.7816164E-02  0.1186339E+00
        -11   -1    0    0    0    0  0.00000000000E+00  0.00000000000E+00  0.45593999997E+02  0.45594000000E+02  0.51100000000E-03 0. -1.
         11   -1    0    0    0    0 -0.00000000000E+00 -0.00000000000E+00 -0.45593999997E+02  0.45594000000E+02  0.51100000000E-03 0.  1.
    9900012    2    1    2    0    0  0.33312915911E+00 -0.11212574213E+01 -0.15753178909E+00  0.90007741763E+02  0.90000003154E+02 0.  0.
         12    1    1    2    0    0 -0.33312915911E+00  0.11212574213E+01  0.15753178909E+00  0.11802582370E+01  0.00000000000E+00 0. -1.
         11    1    3    3    0    0 -0.11021452217E+02 -0.54317697194E+01 -0.30058322321E+00  0.12290926807E+02  0.51100000000E-03 0. -1.
        -11    1    3    3    0    0 -0.15002147727E+02 -0.29482623363E+02 -0.81415706652E+01  0.34067208426E+02  0.51100000000E-03 0.  1.
         12    1    3    3    0    0  0.26356729103E+02  0.33793135661E+02  0.82846220993E+01  0.43649606529E+02  0.00000000000E+00 0. -1.
</event>
<event>
 7    1  0.3032584E-015  0.9000776E+02  0.7816164E-02  0.1186339E+00
        -11   -1    0    0    0    0  0.00000000000E+00  0.00000000000E+00  0.45593999997E+02  0.45594000000E+02  0.51100000000E-03 0.  1.
         11   -1    0    0    0    0 -0.00000000000E+00 -0.00000000000E+00 -0.45593999997E+02  0.45594000000E+02  0.51100000000E-03 0. -1.
    9900012    2    1    2    0    0 -0.98590359034E+00 -0.30197009961E+00 -0.57425329098E+00  0.90007763298E+02  0.90000024974E+02 0.  0.
         12    1    1    2    0    0  0.98590359034E+00  0.30197009961E+00  0.57425329098E+00  0.11802367020E+01  0.00000000000E+00 0. -1.
         11    1    3    3    0    0  0.10312228474E+01 -0.51938490527E+01 -0.18339925757E+01  0.56038395384E+01  0.51100000000E-03 0. -1.
        -11    1    3    3    0    0 -0.19687372487E+02 -0.31759979390E+02 -0.15426890608E+02  0.40426202893E+02  0.51100000000E-03 0.  1.
         12    1    3    3    0    0  0.17670246049E+02  0.36651858343E+02  0.16686629893E+02  0.43977720866E+02  0.00000000000E+00 0. -1.
</event>
<event>
 7    1  0.3032584E-015  0.9000780E+02  0.7816164E-02  0.1186339E+00
        -11   -1    0    0    0    0  0.00000000000E+00  0.00000000000E+00  0.45593999997E+02  0.45594000000E+02  0.51100000000E-03 0.  1.
         11   -1    0    0    0    0 -0.00000000000E+00 -0.00000000000E+00 -0.45593999997E+02  0.45594000000E+02  0.51100000000E-03 0. -1.
    9900012    2    1    2    0    0  0.76031262663E+00 -0.90255371522E+00 -0.14249472511E-01  0.90007795972E+02  0.90000058079E+02 0.  0.
         12    1    1    2    0    0 -0.76031262663E+00  0.90255371522E+00  0.14249472511E-01  0.11802040275E+01  0.00000000000E+00 0. -1.
         11    1    3    3    0    0  0.22905552540E+02 -0.55254410784E+00 -0.30210548147E+02  0.37916313926E+02  0.51100000000E-03 0. -1.
        -11    1    3    3    0    0 -0.46321948191E+01  0.91521525430E+00 -0.84295920700E+01  0.96619289239E+01  0.51100000000E-03 0.  1.
        -12    1    3    3    0    0 -0.17513045094E+02 -0.12652248617E+01  0.38625890744E+02  0.42429553123E+02  0.00000000000E+00 0.  1.
</event>
<event>
 7    1  0.3032584E-015  0.9000769E+02  0.7816164E-02  0.1186339E+00
        -11   -1    0    0    0    0  0.00000000000E+00  0.00000000000E+00  0.45593999997E+02  0.45594000000E+02  0.51100000000E-03 0. -1.
         11   -1    0    0    0    0 -0.00000000000E+00 -0.00000000000E+00 -0.45593999997E+02  0.45594000000E+02  0.51100000000E-03 0.  1.
    9900012    2    1    2    0    0 -0.63017373156E-02  0.13646761819E+00 -0.11723756171E+01  0.90007691688E+02  0.89999952419E+02 0.  0.
         12    1    1    2    0    0  0.63017373156E-02 -0.13646761819E+00  0.11723756171E+01  0.11803083115E+01  0.00000000000E+00 0. -1.
         11    1    3    3    0    0  0.29109273100E+02 -0.18451692814E+02  0.11264160414E+02  0.36258737681E+02  0.51100000000E-03 0. -1.
        -11    1    3    3    0    0  0.47147952744E+01 -0.56002363016E+01  0.47746520893E+01  0.87400940469E+01  0.51100000000E-03 0.  1.
        -12    1    3    3    0    0 -0.33830370112E+02  0.24188396734E+02 -0.17211188120E+02  0.45008859961E+02  0.00000000000E+00 0.  1.
</event>
<event>
 7    1  0.3032584E-015  0.9000726E+02  0.7816164E-02  0.1186340E+00
        -11   -1    0    0    0    0  0.00000000000E+00  0.00000000000E+00  0.45593999997E+02  0.45594000000E+02  0.51100000000E-03 0. -1.
         11   -1    0    0    0    0 -0.00000000000E+00 -0.00000000000E+00 -0.45593999997E+02  0.45594000000E+02  0.51100000000E-03 0.  1.
    9900012    2    1    2    0    0 -0.10197006362E+01  0.47044019717E+00 -0.36476051183E+00  0.90007257184E+02  0.89999512177E+02 0.  0.
         12    1    1    2    0    0  0.10197006362E+01 -0.47044019717E+00  0.36476051183E+00  0.11807428160E+01  0.00000000000E+00 0. -1.
         11    1    3    3    0    0  0.35461023743E+02  0.31304282604E+01  0.23846589445E+02  0.42847912602E+02  0.51100000000E-03 0. -1.
        -11    1    3    3    0    0 -0.41625238318E+01 -0.66937258955E+01 -0.52900969759E+01  0.94930341457E+01  0.51100000000E-03 0.  1.
        -12    1    3    3    0    0 -0.32318200547E+02  0.40337378323E+01 -0.18921252981E+02  0.37666310436E+02  0.00000000000E+00 0.  1.
</event>
<event>
 7    1  0.3032584E-015  0.9000783E+02  0.7816164E-02  0.1186339E+00
        -11   -1    0    0    0    0  0.00000000000E+00  0.00000000000E+00  0.45593999997E+02  0.45594000000E+02  0.51100000000E-03 0.  1.
         11   -1    0    0    0    0 -0.00000000000E+00 -0.00000000000E+00 -0.45593999997E+02  0.45594000000E+02  0.51100000000E-03 0. -1.
    9900012    2    1    2    0    0 -0.81505650959E+00  0.70103270503E+00  0.48686332576E+00  0.90007830578E+02  0.90000093141E+02 0.  0.
         12    1    1    2    0    0  0.81505650959E+00 -0.70103270503E+00 -0.48686332576E+00  0.11801694223E+01  0.00000000000E+00 0. -1.
         11    1    3    3    0    0  0.75600340506E+01  0.74895463056E+01 -0.42145517939E+00  0.10650119410E+02  0.51100000000E-03 0. -1.
        -11    1    3    3    0    0  0.30431798866E+02 -0.14302480064E+02  0.15755764930E+02  0.37133535341E+02  0.51100000000E-03 0.  1.
         12    1    3    3    0    0 -0.38806889426E+02  0.75139664631E+01 -0.14847446425E+02  0.42224175827E+02  0.00000000000E+00 0. -1.
</event>
<event>
 7    1  0.3032584E-015  0.9000785E+02  0.7816164E-02  0.1186339E+00
        -11   -1    0    0    0    0  0.00000000000E+00  0.00000000000E+00  0.45593999997E+02  0.45594000000E+02  0.51100000000E-03 0.  1.
         11   -1    0    0    0    0 -0.00000000000E+00 -0.00000000000E+00 -0.45593999997E+02  0.45594000000E+02  0.51100000000E-03 0. -1.
    9900012    2    1    2    0    0  0.66557206308E+00  0.85898651287E+00  0.46032634704E+00  0.90007854100E+02  0.90000116974E+02 0.  0.
         12    1    1    2    0    0 -0.66557206308E+00 -0.85898651287E+00 -0.46032634704E+00  0.11801459004E+01  0.00000000000E+00 0. -1.
         11    1    3    3    0    0  0.25495349118E+02  0.26088351274E+02 -0.14040682285E+01  0.36504606650E+02  0.51100000000E-03 0. -1.
        -11    1    3    3    0    0 -0.34410487310E+00  0.96655384821E+01  0.47537375872E+01  0.10776783547E+02  0.51100000000E-03 0.  1.
        -12    1    3    3    0    0 -0.24485672181E+02 -0.34894903243E+02 -0.28893430117E+01  0.42726463902E+02  0.00000000000E+00 0.  1.
</event>
<event>
 7    1  0.3032584E-015  0.9000760E+02  0.7816164E-02  0.1186339E+00
        -11   -1    0    0    0    0  0.00000000000E+00  0.00000000000E+00  0.45593999997E+02  0.45594000000E+02  0.51100000000E-03 0. -1.
         11   -1    0    0    0    0 -0.00000000000E+00 -0.00000000000E+00 -0.45593999997E+02  0.45594000000E+02  0.51100000000E-03 0.  1.
    9900012    2    1    2    0    0 -0.70817084008E+00  0.22986952154E+00 -0.91597138648E+00  0.90007597731E+02  0.89999857221E+02 0.  0.
         12    1    1    2    0    0  0.70817084008E+00 -0.22986952154E+00  0.91597138648E+00  0.11804022689E+01  0.00000000000E+00 0. -1.
         11    1    3    3    0    0  0.29526212697E+02 -0.83314440668E+01  0.16060738762E+02  0.34628853956E+02  0.51100000000E-03 0. -1.
        -11    1    3    3    0    0  0.10005214616E+02 -0.25793690481E+01 -0.70624167181E-01  0.10332591748E+02  0.51100000000E-03 0.  1.
        -12    1    3    3    0    0 -0.40239598154E+02  0.11140682637E+02 -0.16906085981E+02  0.45046152026E+02  0.00000000000E+00 0.  1.
</event>
<event>
 8    1  0.3032584E-015  0.9000781E+02  0.7816164E-02  0.1186339E+00
        -11   -1    0    0    0    0  0.00000000000E+00  0.00000000000E+00  0.45593999997E+02  0.45594000000E+02  0.51100000000E-03 0.  1.
         11   -1    0    0    0    0 -0.00000000000E+00 -0.00000000000E+00 -0.45593999997E+02  0.45594000000E+02  0.51100000000E-03 0. -1.
    9900012    2    1    2    0    0 -0.77938565338E+00 -0.50571268767E+00  0.72778017965E+00  0.90007808783E+02  0.90000071059E+02 0.  0.
         23    2    3    3    0    0 -0.20160093942E+02  0.31366975090E+01  0.81402628560E+01  0.68940680235E+02  0.65347419635E+02 0.  0.
         12    1    1    2    0    0  0.77938565338E+00  0.50571268767E+00 -0.72778017965E+00  0.11801912172E+01  0.00000000000E+00 0. -1.
         11    1    4    4    0    0  0.13672129559E+02  0.16684810987E+02 -0.14541560127E+02  0.26014746117E+02  0.51100000000E-03 0. -1.
        -11    1    4    4    0    0 -0.33832223501E+02 -0.13548113478E+02  0.22681822983E+02  0.42925934118E+02  0.51100000000E-03 0.  1.
         12    1    3    3    0    0  0.19380708289E+02 -0.36424101967E+01 -0.74124826763E+01  0.21067128548E+02  0.00000000000E+00 0. -1.
</event>
<event>
 7    1  0.3032584E-015  0.9000780E+02  0.7816164E-02  0.1186339E+00
        -11   -1    0    0    0    0  0.00000000000E+00  0.00000000000E+00  0.45593999997E+02  0.45594000000E+02  0.51100000000E-03 0.  1.
         11   -1    0    0    0    0 -0.00000000000E+00 -0.00000000000E+00 -0.45593999997E+02  0.45594000000E+02  0.51100000000E-03 0. -1.
    9900012    2    1    2    0    0 -0.77539967688E+00  0.83739063115E+00 -0.30066797985E+00  0.90007801304E+02  0.90000063481E+02 0.  0.
         12    1    1    2    0    0  0.77539967688E+00 -0.83739063115E+00  0.30066797985E+00  0.11801986960E+01  0.00000000000E+00 0. -1.
         11    1    3    3    0    0  0.33781192684E+02 -0.16106874440E+02 -0.16346373952E+02  0.40838760082E+02  0.51100000000E-03 0. -1.
        -11    1    3    3    0    0 -0.87309120806E+01 -0.53356138251E+01  0.10413205996E+02  0.14599056820E+02  0.51100000000E-03 0.  1.
        -12    1    3    3    0    0 -0.25825680280E+02  0.22279878897E+02  0.56324999760E+01  0.34569984402E+02  0.00000000000E+00 0.  1.
</event>
<event>
 7    1  0.3032584E-015  0.9000798E+02  0.7816164E-02  0.1186339E+00
        -11   -1    0    0    0    0  0.00000000000E+00  0.00000000000E+00  0.45593999997E+02  0.45594000000E+02  0.51100000000E-03 0. -1.
         11   -1    0    0    0    0 -0.00000000000E+00 -0.00000000000E+00 -0.45593999997E+02  0.45594000000E+02  0.51100000000E-03 0.  1.
    9900012    2    1    2    0    0 -0.66841131297E+00 -0.94871580787E+00 -0.21357353190E+00  0.90007979229E+02  0.90000243754E+02 0.  0.
         12    1    1    2    0    0  0.66841131297E+00  0.94871580787E+00  0.21357353190E+00  0.11800207714E+01  0.00000000000E+00 0. -1.
         11    1    3    3    0    0 -0.35173260299E+00 -0.71759420005E+01 -0.54561642302E+01  0.90215069576E+01  0.51100000000E-03 0. -1.
        -11    1    3    3    0    0 -0.11394684219E+02 -0.32980849085E+02 -0.11782508646E+02  0.36829373400E+02  0.51100000000E-03 0.  1.
         12    1    3    3    0    0  0.11078005509E+02  0.39208075277E+02  0.17025099345E+02  0.44157098871E+02  0.00000000000E+00 0. -1.
</event>
<event>
 7    1  0.3032584E-015  0.9000771E+02  0.7816164E-02  0.1186339E+00
        -11   -1    0    0    0    0  0.00000000000E+00  0.00000000000E+00  0.45593999997E+02  0.45594000000E+02  0.51100000000E-03 0.  1.
         11   -1    0    0    0    0 -0.00000000000E+00 -0.00000000000E+00 -0.45593999997E+02  0.45594000000E+02  0.51100000000E-03 0. -1.
    9900012    2    1    2    0    0 -0.11385804324E+01 -0.28437641928E+00 -0.12587512425E+00  0.90007711944E+02  0.89999972941E+02 0.  0.
         12    1    1    2    0    0  0.11385804324E+01  0.28437641928E+00  0.12587512425E+00  0.11802880563E+01  0.00000000000E+00 0. -1.
         11    1    3    3    0    0 -0.24514133314E+02  0.30791009912E+02 -0.26306443026E+01  0.39445523361E+02  0.51100000000E-03 0. -1.
        -11    1    3    3    0    0 -0.75433774111E+01 -0.71724091657E+01  0.46970530942E+01  0.11419645530E+02  0.51100000000E-03 0.  1.
        -12    1    3    3    0    0  0.30918930293E+02 -0.23902977165E+02 -0.21922839158E+01  0.39142543052E+02  0.00000000000E+00 0.  1.
</event>
<event>
 7    1  0.3032584E-015  0.9000737E+02  0.7816164E-02  0.1186340E+00
        -11   -1    0    0    0    0  0.00000000000E+00  0.00000000000E+00  0.45593999997E+02  0.45594000000E+02  0.51100000000E-03 0. -1.
         11   -1    0    0    0    0 -0.00000000000E+00 -0.00000000000E+00 -0.45593999997E+02  0.45594000000E+02  0.51100000000E-03 0.  1.
    9900012    2    1    2    0    0  0.23632570921E+00  0.91583412479E+00 -0.70659859975E+00  0.90007371538E+02  0.89999628041E+02 0.  0.
         12    1    1    2    0    0 -0.23632570921E+00 -0.91583412479E+00  0.70659859975E+00  0.11806284624E+01  0.00000000000E+00 0. -1.
         11    1    3    3    0    0  0.66565516002E+00  0.54272162769E+01 -0.28235107929E+01  0.61538595017E+01  0.51100000000E-03 0. -1.
        -11    1    3    3    0    0  0.33410421629E+01  0.34849661655E+02 -0.18135118741E+02  0.39427706150E+02  0.51100000000E-03 0.  1.
         12    1    3    3    0    0 -0.37703716137E+01 -0.39361043807E+02  0.20252030934E+02  0.44425805886E+02  0.00000000000E+00 0. -1.
</event>
<event>
 8    1  0.3032584E-015  0.9000778E+02  0.7816164E-02  0.1186339E+00
        -11   -1    0    0    0    0  0.00000000000E+00  0.00000000000E+00  0.45593999997E+02  0.45594000000E+02  0.51100000000E-03 0.  1.
         11   -1    0    0    0    0 -0.00000000000E+00 -0.00000000000E+00 -0.45593999997E+02  0.45594000000E+02  0.51100000000E-03 0. -1.
    9900012    2    1    2    0    0 -0.29721601955E+00  0.10947855757E+01  0.32559956815E+00  0.90007784809E+02  0.90000046768E+02 0.  0.
         23    2    3    3    0    0  0.23805172806E+02 -0.12746196883E+02  0.59408141183E+01  0.61652387140E+02  0.55105097590E+02 0.  0.
         12    1    1    2    0    0  0.29721601955E+00 -0.10947855757E+01 -0.32559956815E+00  0.11802151913E+01  0.00000000000E+00 0. -1.
         11    1    4    4    0    0  0.21611991202E+01 -0.28110321133E+02  0.16973125023E+02  0.32908173896E+02  0.51100000000E-03 0. -1.
        -11    1    4    4    0    0  0.21643973686E+02  0.15364124250E+02 -0.11032310905E+02  0.28744213244E+02  0.51100000000E-03 0.  1.
        -12    1    3    3    0    0 -0.24102388825E+02  0.13840982459E+02 -0.56152145501E+01  0.28355397669E+02  0.00000000000E+00 0.  1.
</event>
<event>
 7    1  0.3032584E-015  0.9000776E+02  0.7816164E-02  0.1186339E+00
        -11   -1    0    0    0    0  0.00000000000E+00  0.00000000000E+00  0.45593999997E+02  0.45594000000E+02  0.51100000000E-03 0.  1.
         11   -1    0    0    0    0 -0.00000000000E+00 -0.00000000000E+00 -0.45593999997E+02  0.45594000000E+02  0.51100000000E-03 0. -1.
    9900012    2    1    2    0    0  0.31626141464E+00  0.98102741697E+00 -0.57492420601E+00  0.90007756840E+02  0.90000018430E+02 0.  0.
         12    1    1    2    0    0 -0.31626141464E+00 -0.98102741697E+00  0.57492420601E+00  0.11802431605E+01  0.00000000000E+00 0. -1.
         11    1    3    3    0    0 -0.58691452172E+01 -0.32675860167E+01  0.67221675406E+01  0.95032373779E+01  0.51100000000E-03 0. -1.
        -11    1    3    3    0    0 -0.94730281876E+01 -0.73544454271E+01  0.33342398179E+02  0.35433623117E+02  0.51100000000E-03 0.  1.
         12    1    3    3    0    0  0.15658434819E+02  0.11603058861E+02 -0.40639489926E+02  0.45070896345E+02  0.00000000000E+00 0. -1.
</event>
<event>
 7    1  0.3032584E-015  0.9000777E+02  0.7816164E-02  0.1186339E+00
        -11   -1    0    0    0    0  0.00000000000E+00  0.00000000000E+00  0.45593999997E+02  0.45594000000E+02  0.51100000000E-03 0. -1.
         11   -1    0    0    0    0 -0.00000000000E+00 -0.00000000000E+00 -0.45593999997E+02  0.45594000000E+02  0.51100000000E-03 0.  1.
    9900012    2    1    2    0    0  0.78690077796E+00  0.87561050504E+00  0.83949145158E-01  0.90007765256E+02  0.90000026958E+02 0.  0.
         12    1    1    2    0    0 -0.78690077796E+00 -0.87561050504E+00 -0.83949145158E-01  0.11802347435E+01  0.00000000000E+00 0. -1.
         11    1    3    3    0    0  0.21550015299E+02  0.22002237643E+02 -0.23381052995E+02  0.38667496170E+02  0.51100000000E-03 0. -1.
        -11    1    3    3    0    0  0.83262993039E+01 -0.75106131854E+01 -0.56513128824E+00  0.11227463834E+02  0.51100000000E-03 0.  1.
        -12    1    3    3    0    0 -0.29089413825E+02 -0.13616013952E+02  0.24030133428E+02  0.40112805252E+02  0.00000000000E+00 0.  1.
</event>
<event>
 7    1  0.3032584E-015  0.9000774E+02  0.7816164E-02  0.1186339E+00
        -11   -1    0    0    0    0  0.00000000000E+00  0.00000000000E+00  0.45593999997E+02  0.45594000000E+02  0.51100000000E-03 0. -1.
         11   -1    0    0    0    0 -0.00000000000E+00 -0.00000000000E+00 -0.45593999997E+02  0.45594000000E+02  0.51100000000E-03 0.  1.
    9900012    2    1    2    0    0 -0.65684158627E-01 -0.87107042092E+00 -0.79367890321E+00  0.90007743973E+02  0.90000005394E+02 0.  0.
         12    1    1    2    0    0  0.65684158627E-01  0.87107042092E+00  0.79367890321E+00  0.11802560266E+01  0.00000000000E+00 0. -1.
         11    1    3    3    0    0  0.79302350925E+01  0.30026245133E+02  0.21118226539E+02  0.37555871949E+02  0.51100000000E-03 0. -1.
        -11    1    3    3    0    0  0.63154997352E+01  0.45619795678E+01  0.10308287624E+01  0.78587405277E+01  0.51100000000E-03 0.  1.
        -12    1    3    3    0    0 -0.14311418986E+02 -0.35459295122E+02 -0.22942734205E+02  0.44593131497E+02  0.00000000000E+00 0.  1.
</event>
<event>
 7    1  0.3032584E-015  0.9000769E+02  0.7816164E-02  0.1186339E+00
        -11   -1    0    0    0    0  0.00000000000E+00  0.00000000000E+00  0.45593999997E+02  0.45594000000E+02  0.51100000000E-03 0.  1.
         11   -1    0    0    0    0 -0.00000000000E+00 -0.00000000000E+00 -0.45593999997E+02  0.45594000000E+02  0.51100000000E-03 0. -1.
    9900012    2    1    2    0    0  0.68698606535E+00  0.80711694636E+00 -0.51937938683E+00  0.90007685395E+02  0.89999946042E+02 0.  0.
         12    1    1    2    0    0 -0.68698606535E+00 -0.80711694636E+00  0.51937938683E+00  0.11803146049E+01  0.00000000000E+00 0. -1.
         11    1    3    3    0    0 -0.28406548608E+01  0.23730717949E+01  0.77666344767E+01  0.86035690929E+01  0.51100000000E-03 0. -1.
        -11    1    3    3    0    0 -0.12063208848E+02  0.11392408475E+01  0.34085047803E+02  0.36174706100E+02  0.51100000000E-03 0.  1.
         12    1    3    3    0    0  0.15590849775E+02 -0.27051956960E+01 -0.42371061667E+02  0.45229410202E+02  0.00000000000E+00 0. -1.
</event>
<event>
 7    1  0.4809625E-015  0.9000785E+02  0.7816164E-02  0.1186339E+00
        -11   -1    0    0    0    0  0.00000000000E+00  0.00000000000E+00  0.45593999997E+02  0.45594000000E+02  0.51100000000E-03 0. -1.
         11   -1    0    0    0    0 -0.00000000000E+00 -0.00000000000E+00 -0.45593999997E+02  0.45594000000E+02  0.51100000000E-03 0.  1.
    9900012    2    1    2    0    0 -0.95131671597E-01 -0.59054157502E+00 -0.10173338583E+01  0.90007848499E+02  0.90000111299E+02 0.  0.
         12    1    1    2    0    0  0.95131671597E-01  0.59054157502E+00  0.10173338583E+01  0.11801515013E+01  0.00000000000E+00 0. -1.
         11    1    3    3    0    0  0.59051628080E+01  0.38612470619E+02  0.98445468307E+01  0.40282861587E+02  0.51100000000E-03 0. -1.
        -11    1    3    3    0    0  0.79076558669E+01 -0.34777563006E+01  0.27144788847E+01  0.90550652163E+01  0.51100000000E-03 0.  1.
        -12    1    3    3    0    0 -0.13907950347E+02 -0.35725255893E+02 -0.13576359574E+02  0.40669921696E+02  0.00000000000E+00 0.  1.
</event>
<event>
 7    1  0.3032584E-015  0.9000774E+02  0.7816164E-02  0.1186339E+00
        -11   -1    0    0    0    0  0.00000000000E+00  0.00000000000E+00  0.45593999997E+02  0.45594000000E+02  0.51100000000E-03 0. -1.
         11   -1    0    0    0    0 -0.00000000000E+00 -0.00000000000E+00 -0.45593999997E+02  0.45594000000E+02  0.51100000000E-03 0.  1.
    9900012    2    1    2    0    0 -0.11345175402E+01  0.21210504252E+00  0.24676846457E+00  0.90007740167E+02  0.90000001537E+02 0.  0.
         12    1    1    2    0    0  0.11345175402E+01 -0.21210504252E+00 -0.24676846457E+00  0.11802598329E+01  0.00000000000E+00 0. -1.
         11    1    3    3    0    0 -0.87853180930E+01  0.11509864023E+02  0.33653925366E+02  0.36636668470E+02  0.51100000000E-03 0. -1.
        -11    1    3    3    0    0 -0.34598000432E+01  0.12661014130E+01  0.79392643932E+01  0.87524367175E+01  0.51100000000E-03 0.  1.
        -12    1    3    3    0    0  0.11110600596E+02 -0.12563860393E+02 -0.41346421294E+02  0.44618634979E+02  0.00000000000E+00 0.  1.
</event>
<event>
 7    1  0.3032584E-015  0.9000768E+02  0.7816164E-02  0.1186339E+00
        -11   -1    0    0    0    0  0.00000000000E+00  0.00000000000E+00  0.45593999997E+02  0.45594000000E+02  0.51100000000E-03 0. -1.
         11   -1    0    0    0    0 -0.00000000000E+00 -0.00000000000E+00 -0.45593999997E+02  0.45594000000E+02  0.51100000000E-03 0.  1.
    9900012    2    1    2    0    0 -0.59133285299E+00  0.27932414024E+00 -0.98257945281E+00  0.90007678476E+02  0.89999939032E+02 0.  0.
         12    1    1    2    0    0  0.59133285299E+00 -0.27932414024E+00  0.98257945281E+00  0.11803215238E+01  0.00000000000E+00 0. -1.
         11    1    3    3    0    0  0.19401608492E+02 -0.14332017716E+02  0.31487146467E+02  0.39664461887E+02  0.51100000000E-03 0. -1.
        -11    1    3    3    0    0 -0.35797895718E+01 -0.75439215839E+01 -0.85479071875E+00  0.83938259260E+01  0.51100000000E-03 0.  1.
        -12    1    3    3    0    0 -0.16413151773E+02  0.22155263440E+02 -0.31614935201E+02  0.41949390663E+02  0.00000000000E+00 0.  1.
</event>
<event>
 7    1  0.3032584E-015  0.9000781E+02  0.7816164E-02  0.1186339E+00
        -11   -1    0    0    0    0  0.00000000000E+00  0.00000000000E+00  0.45593999997E+02  0.45594000000E+02  0.51100000000E-03 0.  1.
         11   -1    0    0    0    0 -0.00000000000E+00 -0.00000000000E+00 -0.45593999997E+02  0.45594000000E+02  0.51100000000E-03 0. -1.
    9900012    2    1    2    0    0 -0.56172941779E+00  0.10318495253E+01  0.11226780551E+00  0.90007806185E+02  0.90000068426E+02 0.  0.
         12    1    1    2    0    0  0.56172941779E+00 -0.10318495253E+01 -0.11226780551E+00  0.11801938154E+01  0.00000000000E+00 0. -1.
         11    1    3    3    0    0  0.10569674958E+02  0.16989544537E+01 -0.22734120562E+01  0.10944079568E+02  0.51100000000E-03 0. -1.
        -11    1    3    3    0    0 -0.48446595413E+00 -0.19514207634E+02  0.34908647238E+02  0.39995658003E+02  0.51100000000E-03 0.  1.
         12    1    3    3    0    0 -0.10646938422E+02  0.18847102706E+02 -0.32522967377E+02  0.39068068613E+02  0.00000000000E+00 0. -1.
</event>
<event>
 7    1  0.3032584E-015  0.9000773E+02  0.7816164E-02  0.1186339E+00
        -11   -1    0    0    0    0  0.00000000000E+00  0.00000000000E+00  0.45593999997E+02  0.45594000000E+02  0.51100000000E-03 0.  1.
         11   -1    0    0    0    0 -0.00000000000E+00 -0.00000000000E+00 -0.45593999997E+02  0.45594000000E+02  0.51100000000E-03 0. -1.
    9900012    2    1    2    0    0 -0.79929981678E+00  0.78130806912E+00  0.37910656438E+00  0.90007727030E+02  0.89999988227E+02 0.  0.
         12    1    1    2    0    0  0.79929981678E+00 -0.78130806912E+00 -0.37910656438E+00  0.11802729698E+01  0.00000000000E+00 0. -1.
         11    1    3    3    0    0 -0.23765347710E+02  0.33435991180E+02 -0.11794840715E+02  0.42683433856E+02  0.51100000000E-03 0. -1.
        -11    1    3    3    0    0  0.89032956109E+01 -0.34761391874E+00 -0.23475842400E+01  0.92141554250E+01  0.51100000000E-03 0.  1.
        -12    1    3    3    0    0  0.14062752283E+02 -0.32307069192E+02  0.14521531519E+02  0.38110137749E+02  0.00000000000E+00 0.  1.
</event>
<event>
 7    1  0.3032584E-015  0.9000779E+02  0.7816164E-02  0.1186339E+00
        -11   -1    0    0    0    0  0.00000000000E+00  0.00000000000E+00  0.45593999997E+02  0.45594000000E+02  0.51100000000E-03 0.  1.
         11   -1    0    0    0    0 -0.00000000000E+00 -0.00000000000E+00 -0.45593999997E+02  0.45594000000E+02  0.51100000000E-03 0. -1.
    9900012    2    1    2    0    0 -0.11634362062E+01 -0.18325904375E+00  0.75663835500E-01  0.90007791248E+02  0.90000053292E+02 0.  0.
         12    1    1    2    0    0  0.11634362062E+01  0.18325904375E+00 -0.75663835500E-01  0.11802087523E+01  0.00000000000E+00 0. -1.
         11    1    3    3    0    0 -0.29866671754E+02  0.17415330789E+02 -0.22980609148E+02  0.41514096705E+02  0.51100000000E-03 0. -1.
        -11    1    3    3    0    0  0.37988732111E+01  0.67939529049E+01  0.47595935765E+01  0.91237582729E+01  0.51100000000E-03 0.  1.
        -12    1    3    3    0    0  0.24904362337E+02 -0.24392542738E+02  0.18296679407E+02  0.39369936270E+02  0.00000000000E+00 0.  1.
</event>
<event>
 7    1  0.3032584E-015  0.9000774E+02  0.7816164E-02  0.1186339E+00
        -11   -1    0    0    0    0  0.00000000000E+00  0.00000000000E+00  0.45593999997E+02  0.45594000000E+02  0.51100000000E-03 0.  1.
         11   -1    0    0    0    0 -0.00000000000E+00 -0.00000000000E+00 -0.45593999997E+02  0.45594000000E+02  0.51100000000E-03 0. -1.
    9900012    2    1    2    0    0 -0.95406199691E+00  0.68470962808E+00  0.11814596579E+00  0.90007737301E+02  0.89999998634E+02 0.  0.
         12    1    1    2    0    0  0.95406199691E+00 -0.68470962808E+00 -0.11814596579E+00  0.11802626987E+01  0.00000000000E+00 0. -1.
         11    1    3    3    0    0  0.13887438592E+02  0.17495312558E+02 -0.30243998445E+02  0.37598488724E+02  0.51100000000E-03 0. -1.
        -11    1    3    3    0    0  0.77737507690E+00 -0.21254901519E+01 -0.80812887727E+01  0.83922135867E+01  0.51100000000E-03 0.  1.
        -12    1    3    3    0    0 -0.15618875666E+02 -0.14685112778E+02  0.38443433184E+02  0.44017034990E+02  0.00000000000E+00 0.  1.
</event>
<event>
 7    1  0.3032584E-015  0.9000778E+02  0.7816164E-02  0.1186339E+00
        -11   -1    0    0    0    0  0.00000000000E+00  0.00000000000E+00  0.45593999997E+02  0.45594000000E+02  0.51100000000E-03 0. -1.
         11   -1    0    0    0    0 -0.00000000000E+00 -0.00000000000E+00 -0.45593999997E+02  0.45594000000E+02  0.51100000000E-03 0.  1.
    9900012    2    1    2    0    0  0.22081332433E+00 -0.22827883319E+00 -0.11366859010E+01  0.90007777738E+02  0.90000039604E+02 0.  0.
         12    1    1    2    0    0 -0.22081332433E+00  0.22827883319E+00  0.11366859010E+01  0.11802222619E+01  0.00000000000E+00 0. -1.
         11    1    3    3    0    0  0.73725645236E+01  0.16175133130E+01  0.54238812419E+01  0.92945976222E+01  0.51100000000E-03 0. -1.
        -11    1    3    3    0    0  0.35569838559E+02 -0.33581997933E+01  0.58408955978E+01  0.36202306316E+02  0.51100000000E-03 0.  1.
         12    1    3    3    0    0 -0.42721589758E+02  0.15124076471E+01 -0.12401462741E+02  0.44510873800E+02  0.00000000000E+00 0. -1.
</event>
<event>
 7    1  0.3032584E-015  0.9000777E+02  0.7816164E-02  0.1186339E+00
        -11   -1    0    0    0    0  0.00000000000E+00  0.00000000000E+00  0.45593999997E+02  0.45594000000E+02  0.51100000000E-03 0. -1.
         11   -1    0    0    0    0 -0.00000000000E+00 -0.00000000000E+00 -0.45593999997E+02  0.45594000000E+02  0.51100000000E-03 0.  1.
    9900012    2    1    2    0    0  0.31222705988E+00 -0.11255434422E+01 -0.16911810640E+00  0.90007773449E+02  0.90000035259E+02 0.  0.
         12    1    1    2    0    0 -0.31222705988E+00  0.11255434422E+01  0.16911810640E+00  0.11802265508E+01  0.00000000000E+00 0. -1.
         11    1    3    3    0    0 -0.29959611915E-01 -0.35096190089E+01 -0.64715788845E+01  0.73620416112E+01  0.51100000000E-03 0. -1.
        -11    1    3    3    0    0  0.19133497576E+02  0.11471825057E+02 -0.32009412053E+02  0.39016611332E+02  0.51100000000E-03 0.  1.
         12    1    3    3    0    0 -0.18791310904E+02 -0.90877494900E+01  0.38311872831E+02  0.43629120506E+02  0.00000000000E+00 0. -1.
</event>
<event>
 7    1  0.3032584E-015  0.9000776E+02  0.7816164E-02  0.1186339E+00
        -11   -1    0    0    0    0  0.00000000000E+00  0.00000000000E+00  0.45593999997E+02  0.45594000000E+02  0.51100000000E-03 0. -1.
         11   -1    0    0    0    0 -0.00000000000E+00 -0.00000000000E+00 -0.45593999997E+02  0.45594000000E+02  0.51100000000E-03 0.  1.
    9900012    2    1    2    0    0  0.89093733528E+00 -0.20725065410E+00  0.74581914830E+00  0.90007759189E+02  0.90000020811E+02 0.  0.
         12    1    1    2    0    0 -0.89093733528E+00  0.20725065410E+00 -0.74581914830E+00  0.11802408106E+01  0.00000000000E+00 0. -1.
         11    1    3    3    0    0 -0.45821566482E+01  0.85799976393E+01 -0.11914686792E+01  0.97995977935E+01  0.51100000000E-03 0. -1.
        -11    1    3    3    0    0 -0.26006822172E+02  0.20359468715E+02  0.13648527837E+02  0.35737166623E+02  0.51100000000E-03 0.  1.
         12    1    3    3    0    0  0.31479916156E+02 -0.29146717008E+02 -0.11711240010E+02  0.44470994773E+02  0.00000000000E+00 0. -1.
</event>
<event>
 7    1  0.3032584E-015  0.9000772E+02  0.7816164E-02  0.1186339E+00
        -11   -1    0    0    0    0  0.00000000000E+00  0.00000000000E+00  0.45593999997E+02  0.45594000000E+02  0.51100000000E-03 0. -1.
         11   -1    0    0    0    0 -0.00000000000E+00 -0.00000000000E+00 -0.45593999997E+02  0.45594000000E+02  0.51100000000E-03 0.  1.
    9900012    2    1    2    0    0 -0.35977774550E+00  0.96630448368E+00 -0.57435342877E+00  0.90007717728E+02  0.89999978802E+02 0.  0.
         12    1    1    2    0    0  0.35977774550E+00 -0.96630448368E+00  0.57435342877E+00  0.11802822724E+01  0.00000000000E+00 0. -1.
         11    1    3    3    0    0  0.18916663933E+01 -0.35656439835E+02 -0.84365264149E+01  0.36689713567E+02  0.51100000000E-03 0. -1.
        -11    1    3    3    0    0  0.77774808759E+01 -0.65774223178E+00 -0.83645039517E+01  0.11440575171E+02  0.51100000000E-03 0.  1.
        -12    1    3    3    0    0 -0.10028925015E+02  0.37280486550E+02  0.16226676938E+02  0.41877428990E+02  0.00000000000E+00 0.  1.
</event>
<event>
 7    1  0.3032584E-015  0.9000776E+02  0.7816164E-02  0.1186339E+00
        -11   -1    0    0    0    0  0.00000000000E+00  0.00000000000E+00  0.45593999997E+02  0.45594000000E+02  0.51100000000E-03 0.  1.
         11   -1    0    0    0    0 -0.00000000000E+00 -0.00000000000E+00 -0.45593999997E+02  0.45594000000E+02  0.51100000000E-03 0. -1.
    9900012    2    1    2    0    0 -0.31961710309E+00 -0.35439334031E+00  0.10794514273E+01  0.90007760568E+02  0.90000022208E+02 0.  0.
         12    1    1    2    0    0  0.31961710309E+00  0.35439334031E+00 -0.10794514273E+01  0.11802394317E+01  0.00000000000E+00 0. -1.
         11    1    3    3    0    0  0.61912805157E+01  0.30018085243E+00  0.48673635011E+01  0.78811985562E+01  0.51100000000E-03 0. -1.
        -11    1    3    3    0    0  0.20979508208E+02  0.20880767187E+02  0.23511311439E+02  0.37801163590E+02  0.51100000000E-03 0.  1.
         12    1    3    3    0    0 -0.27490405826E+02 -0.21535341379E+02 -0.27299223513E+02  0.44325398422E+02  0.00000000000E+00 0. -1.
</event>
<event>
 7    1  0.3032584E-015  0.9000780E+02  0.7816164E-02  0.1186339E+00
        -11   -1    0    0    0    0  0.00000000000E+00  0.00000000000E+00  0.45593999997E+02  0.45594000000E+02  0.51100000000E-03 0.  1.
         11   -1    0    0    0    0 -0.00000000000E+00 -0.00000000000E+00 -0.45593999997E+02  0.45594000000E+02  0.51100000000E-03 0. -1.
    9900012    2    1    2    0    0  0.47040652336E+00  0.31648732171E+00  0.10350931492E+01  0.90007803258E+02  0.90000065461E+02 0.  0.
         12    1    1    2    0    0 -0.47040652336E+00 -0.31648732171E+00 -0.10350931492E+01  0.11801967419E+01  0.00000000000E+00 0. -1.
         11    1    3    3    0    0  0.15205074038E+01 -0.26698423525E+01 -0.10067407849E+02  0.10525811228E+02  0.51100000000E-03 0. -1.
        -11    1    3    3    0    0 -0.75281915411E+01 -0.35154108448E+02  0.17967409356E+02  0.40190954305E+02  0.51100000000E-03 0.  1.
         12    1    3    3    0    0  0.64780906607E+01  0.38140438123E+02 -0.68649083583E+01  0.39291037726E+02  0.00000000000E+00 0. -1.
</event>
<event>
 7    1  0.3032584E-015  0.9000763E+02  0.7816164E-02  0.1186339E+00
        -11   -1    0    0    0    0  0.00000000000E+00  0.00000000000E+00  0.45593999997E+02  0.45594000000E+02  0.51100000000E-03 0.  1.
         11   -1    0    0    0    0 -0.00000000000E+00 -0.00000000000E+00 -0.45593999997E+02  0.45594000000E+02  0.51100000000E-03 0. -1.
    9900012    2    1    2    0    0  0.11243726741E+01  0.57761579394E-01 -0.35456496186E+00  0.90007632844E+02  0.89999892798E+02 0.  0.
         12    1    1    2    0    0 -0.11243726741E+01 -0.57761579394E-01  0.35456496186E+00  0.11803671558E+01  0.00000000000E+00 0. -1.
         11    1    3    3    0    0  0.62551788857E-01  0.94926629985E+01  0.19321873391E+01  0.96875131847E+01  0.51100000000E-03 0. -1.
        -11    1    3    3    0    0 -0.11562511645E+02 -0.36577925814E+02  0.19750953606E+02  0.43147844685E+02  0.51100000000E-03 0.  1.
         12    1    3    3    0    0  0.12624332530E+02  0.27143024395E+02 -0.22037705907E+02  0.37172274974E+02  0.00000000000E+00 0. -1.
</event>
<event>
 7    1  0.3032584E-015  0.9000773E+02  0.7816164E-02  0.1186339E+00
        -11   -1    0    0    0    0  0.00000000000E+00  0.00000000000E+00  0.45593999997E+02  0.45594000000E+02  0.51100000000E-03 0. -1.
         11   -1    0    0    0    0 -0.00000000000E+00 -0.00000000000E+00 -0.45593999997E+02  0.45594000000E+02  0.51100000000E-03 0.  1.
    9900012    2    1    2    0    0  0.90431919084E+00 -0.53537487314E+00 -0.53723599662E+00  0.90007728010E+02  0.89999989220E+02 0.  0.
         12    1    1    2    0    0 -0.90431919084E+00  0.53537487314E+00  0.53723599662E+00  0.11802719897E+01  0.00000000000E+00 0. -1.
         11    1    3    3    0    0  0.97537722059E+01 -0.10770533507E+02  0.24860195045E+01  0.14741803062E+02  0.51100000000E-03 0. -1.
        -11    1    3    3    0    0  0.15870821209E+02  0.12722512883E+02 -0.31486028225E+02  0.37484867261E+02  0.51100000000E-03 0.  1.
         12    1    3    3    0    0 -0.24720274224E+02 -0.24873542488E+01  0.28462772724E+02  0.37781057688E+02  0.00000000000E+00 0. -1.
</event>
<event>
 7    1  0.3032584E-015  0.9000774E+02  0.7816164E-02  0.1186339E+00
        -11   -1    0    0    0    0  0.00000000000E+00  0.00000000000E+00  0.45593999997E+02  0.45594000000E+02  0.51100000000E-03 0.  1.
         11   -1    0    0    0    0 -0.00000000000E+00 -0.00000000000E+00 -0.45593999997E+02  0.45594000000E+02  0.51100000000E-03 0. -1.
    9900012    2    1    2    0    0  0.17886088870E-01 -0.11494606843E+01  0.26725725685E+00  0.90007743156E+02  0.90000004565E+02 0.  0.
         12    1    1    2    0    0 -0.17886088870E-01  0.11494606843E+01 -0.26725725685E+00  0.11802568442E+01  0.00000000000E+00 0. -1.
         11    1    3    3    0    0  0.21109333317E+02 -0.32550812504E+02 -0.11348308010E+01  0.38812977069E+02  0.51100000000E-03 0. -1.
        -11    1    3    3    0    0  0.66426506845E+01 -0.21600462084E+01 -0.26453107499E+01  0.74691550368E+01  0.51100000000E-03 0.  1.
        -12    1    3    3    0    0 -0.27734097913E+02  0.33561398028E+02  0.40473988078E+01  0.43725611050E+02  0.00000000000E+00 0.  1.
</event>
<event>
 7    1  0.3032584E-015  0.9000774E+02  0.7816164E-02  0.1186339E+00
        -11   -1    0    0    0    0  0.00000000000E+00  0.00000000000E+00  0.45593999997E+02  0.45594000000E+02  0.51100000000E-03 0. -1.
         11   -1    0    0    0    0 -0.00000000000E+00 -0.00000000000E+00 -0.45593999997E+02  0.45594000000E+02  0.51100000000E-03 0.  1.
    9900012    2    1    2    0    0 -0.32625138833E+00 -0.84480469042E+00 -0.75688562854E+00  0.90007741220E+02  0.90000002604E+02 0.  0.
         12    1    1    2    0    0  0.32625138833E+00  0.84480469042E+00  0.75688562854E+00  0.11802587801E+01  0.00000000000E+00 0. -1.
         11    1    3    3    0    0 -0.55919615094E+01 -0.12839416188E+02 -0.40705145217E+01  0.14583885981E+02  0.51100000000E-03 0. -1.
        -11    1    3    3    0    0  0.89172069949E+01  0.32585109984E+02 -0.23696001909E+02  0.41265075790E+02  0.51100000000E-03 0.  1.
         12    1    3    3    0    0 -0.36514968739E+01 -0.20590498487E+02  0.27009630802E+02  0.34158779449E+02  0.00000000000E+00 0. -1.
</event>
<event>
 7    1  0.3032584E-015  0.9000772E+02  0.7816164E-02  0.1186339E+00
        -11   -1    0    0    0    0  0.00000000000E+00  0.00000000000E+00  0.45593999997E+02  0.45594000000E+02  0.51100000000E-03 0.  1.
         11   -1    0    0    0    0 -0.00000000000E+00 -0.00000000000E+00 -0.45593999997E+02  0.45594000000E+02  0.51100000000E-03 0. -1.
    9900012    2    1    2    0    0 -0.31565023874E+00 -0.82882572136E+00  0.77875695487E+00  0.90007724801E+02  0.89999985969E+02 0.  0.
         12    1    1    2    0    0  0.31565023874E+00  0.82882572136E+00 -0.77875695487E+00  0.11802751986E+01  0.00000000000E+00 0. -1.
         11    1    3    3    0    0 -0.11333705823E+00 -0.43699427792E+01 -0.78608422977E+01  0.89945587481E+01  0.51100000000E-03 0. -1.
        -11    1    3    3    0    0  0.10628900807E+02 -0.19593135182E+02 -0.28348061214E+02  0.36062127690E+02  0.51100000000E-03 0.  1.
         12    1    3    3    0    0 -0.10831213988E+02  0.23134252240E+02  0.36987660467E+02  0.44951038364E+02  0.00000000000E+00 0. -1.
</event>
<event>
 7    1  0.3032584E-015  0.9000774E+02  0.7816164E-02  0.1186339E+00
        -11   -1    0    0    0    0  0.00000000000E+00  0.00000000000E+00  0.45593999997E+02  0.45594000000E+02  0.51100000000E-03 0. -1.
         11   -1    0    0    0    0 -0.00000000000E+00 -0.00000000000E+00 -0.45593999997E+02  0.45594000000E+02  0.51100000000E-03 0.  1.
    9900012    2    1    2    0    0  0.70304445341E+00 -0.92479662940E+00 -0.20855599899E+00  0.90007739048E+02  0.90000000404E+02 0.  0.
         12    1    1    2    0    0 -0.70304445341E+00  0.92479662940E+00  0.20855599899E+00  0.11802609516E+01  0.00000000000E+00 0. -1.
         11    1    3    3    0    0  0.56696323060E+01  0.91679058742E+01  0.11289776089E+02  0.15609428977E+02  0.51100000000E-03 0. -1.
        -11    1    3    3    0    0  0.21691491600E+02  0.22360337991E+02 -0.85075030504E+01  0.32293701109E+02  0.51100000000E-03 0.  1.
         12    1    3    3    0    0 -0.26658079453E+02 -0.32453040495E+02 -0.29908290373E+01  0.42104608962E+02  0.00000000000E+00 0. -1.
</event>
<event>
 7    1  0.3032584E-015  0.9000777E+02  0.7816164E-02  0.1186339E+00
        -11   -1    0    0    0    0  0.00000000000E+00  0.00000000000E+00  0.45593999997E+02  0.45594000000E+02  0.51100000000E-03 0.  1.
         11   -1    0    0    0    0 -0.00000000000E+00 -0.00000000000E+00 -0.45593999997E+02  0.45594000000E+02  0.51100000000E-03 0. -1.
    9900012    2    1    2    0    0 -0.80097765563E+00  0.83559962303E+00 -0.23055791405E+00  0.90007767444E+02  0.90000029174E+02 0.  0.
         12    1    1    2    0    0  0.80097765563E+00 -0.83559962303E+00  0.23055791405E+00  0.11802325561E+01  0.00000000000E+00 0. -1.
         11    1    3    3    0    0 -0.22042734946E+02  0.16788617967E+02 -0.29728519867E+02  0.40638956075E+02  0.51100000000E-03 0. -1.
        -11    1    3    3    0    0 -0.73170510228E+01 -0.18010946493E+01  0.38739463280E+01  0.84729356199E+01  0.51100000000E-03 0.  1.
        -12    1    3    3    0    0  0.28558808313E+02 -0.14151923695E+02  0.25624015624E+02  0.40895875749E+02  0.00000000000E+00 0.  1.
</event>
<event>
 7    1  0.3032584E-015  0.9000773E+02  0.7816164E-02  0.1186339E+00
        -11   -1    0    0    0    0  0.00000000000E+00  0.00000000000E+00  0.45593999997E+02  0.45594000000E+02  0.51100000000E-03 0.  1.
         11   -1    0    0    0    0 -0.00000000000E+00 -0.00000000000E+00 -0.45593999997E+02  0.45594000000E+02  0.51100000000E-03 0. -1.
    9900012    2    1    2    0    0 -0.11216569608E+00  0.11566698110E+01  0.20630955851E+00  0.90007733153E+02  0.89999994431E+02 0.  0.
         12    1    1    2    0    0  0.11216569608E+00 -0.11566698110E+01 -0.20630955851E+00  0.11802668465E+01  0.00000000000E+00 0. -1.
         11    1    3    3    0    0  0.29113241455E+01 -0.61476941109E+01  0.45333644367E+01  0.81744323680E+01  0.51100000000E-03 0. -1.
        -11    1    3    3    0    0 -0.46606015599E+01  0.97557738251E+01  0.37946687527E+02  0.39456905915E+02  0.51100000000E-03 0.  1.
         12    1    3    3    0    0  0.16371117183E+01 -0.24514099032E+01 -0.42273742405E+02  0.42376394871E+02  0.00000000000E+00 0. -1.
</event>
<event>
 7    1  0.3032584E-015  0.9000747E+02  0.7816164E-02  0.1186340E+00
        -11   -1    0    0    0    0  0.00000000000E+00  0.00000000000E+00  0.45593999997E+02  0.45594000000E+02  0.51100000000E-03 0. -1.
         11   -1    0    0    0    0 -0.00000000000E+00 -0.00000000000E+00 -0.45593999997E+02  0.45594000000E+02  0.51100000000E-03 0.  1.
    9900012    2    1    2    0    0 -0.51801278163E+00  0.79960093862E-01 -0.10577922908E+01  0.90007468175E+02  0.89999725955E+02 0.  0.
         12    1    1    2    0    0  0.51801278163E+00 -0.79960093862E-01  0.10577922908E+01  0.11805318246E+01  0.00000000000E+00 0. -1.
         11    1    3    3    0    0  0.31790397965E+02  0.10596116807E+02  0.14385962778E+02  0.36467286977E+02  0.51100000000E-03 0. -1.
        -11    1    3    3    0    0  0.25385241794E+01 -0.31652884941E+01  0.93186500035E+01  0.10163680161E+02  0.51100000000E-03 0.  1.
        -12    1    3    3    0    0 -0.34846934926E+02 -0.73508682187E+01 -0.24762405073E+02  0.43376501038E+02  0.00000000000E+00 0.  1.
</event>
<event>
 7    1  0.3032584E-015  0.9000765E+02  0.7816164E-02  0.1186339E+00
        -11   -1    0    0    0    0  0.00000000000E+00  0.00000000000E+00  0.45593999997E+02  0.45594000000E+02  0.51100000000E-03 0. -1.
         11   -1    0    0    0    0 -0.00000000000E+00 -0.00000000000E+00 -0.45593999997E+02  0.45594000000E+02  0.51100000000E-03 0.  1.
    9900012    2    1    2    0    0 -0.25767377388E+00 -0.92131496309E+00 -0.69138023238E+00  0.90007651043E+02  0.89999911237E+02 0.  0.
         12    1    1    2    0    0  0.25767377388E+00  0.92131496309E+00  0.69138023238E+00  0.11803489572E+01  0.00000000000E+00 0. -1.
         11    1    3    3    0    0 -0.13985022038E+02  0.36886896664E+02  0.68133853487E+01  0.40033063923E+02  0.51100000000E-03 0. -1.
        -11    1    3    3    0    0 -0.82310194357E+01 -0.49703423192E+01 -0.36464214618E+01  0.10283500059E+02  0.51100000000E-03 0.  1.
        -12    1    3    3    0    0  0.21958367700E+02 -0.32837869308E+02 -0.38583441193E+01  0.39691087061E+02  0.00000000000E+00 0.  1.
</event>
<event>
 7    1  0.3032584E-015  0.9000768E+02  0.7816164E-02  0.1186339E+00
        -11   -1    0    0    0    0  0.00000000000E+00  0.00000000000E+00  0.45593999997E+02  0.45594000000E+02  0.51100000000E-03 0.  1.
         11   -1    0    0    0    0 -0.00000000000E+00 -0.00000000000E+00 -0.45593999997E+02  0.45594000000E+02  0.51100000000E-03 0. -1.
    9900012    2    1    2    0    0 -0.42974606813E+00  0.71586972585E-01  0.10969759836E+01  0.90007676872E+02  0.89999937407E+02 0.  0.
         12    1    1    2    0    0  0.42974606813E+00 -0.71586972585E-01 -0.10969759836E+01  0.11803231279E+01  0.00000000000E+00 0. -1.
         11    1    3    3    0    0  0.15218681784E+02 -0.11322428531E+02 -0.30783151078E+02  0.36158098037E+02  0.51100000000E-03 0. -1.
        -11    1    3    3    0    0  0.32858048796E+01 -0.67386340193E+01 -0.46974744629E+01  0.88471446661E+01  0.51100000000E-03 0.  1.
        -12    1    3    3    0    0 -0.18934232732E+02  0.18132649523E+02  0.36577601524E+02  0.45002434169E+02  0.00000000000E+00 0.  1.
</event>
<event>
 7    1  0.3032584E-015  0.9000711E+02  0.7816164E-02  0.1186340E+00
        -11   -1    0    0    0    0  0.00000000000E+00  0.00000000000E+00  0.45593999997E+02  0.45594000000E+02  0.51100000000E-03 0. -1.
         11   -1    0    0    0    0 -0.00000000000E+00 -0.00000000000E+00 -0.45593999997E+02  0.45594000000E+02  0.51100000000E-03 0.  1.
    9900012    2    1    2    0    0 -0.46381981734E+00  0.22027593984E+00 -0.10634153654E+01  0.90007109424E+02  0.89999362466E+02 0.  0.
         12    1    1    2    0    0  0.46381981734E+00 -0.22027593984E+00  0.10634153654E+01  0.11808905758E+01  0.00000000000E+00 0. -1.
         11    1    3    3    0    0  0.18324834057E+02  0.29434259505E+02 -0.23073804381E+01  0.34749088918E+02  0.51100000000E-03 0. -1.
        -11    1    3    3    0    0 -0.27445234258E+01  0.11212531466E+02 -0.16838946093E+01  0.11665709238E+02  0.51100000000E-03 0.  1.
        -12    1    3    3    0    0 -0.16044130449E+02 -0.40426515031E+02  0.29278596820E+01  0.43592311269E+02  0.00000000000E+00 0.  1.
</event>
<event>
 7    1  0.3032584E-015  0.9000789E+02  0.7816164E-02  0.1186339E+00
        -11   -1    0    0    0    0  0.00000000000E+00  0.00000000000E+00  0.45593999997E+02  0.45594000000E+02  0.51100000000E-03 0.  1.
         11   -1    0    0    0    0 -0.00000000000E+00 -0.00000000000E+00 -0.45593999997E+02  0.45594000000E+02  0.51100000000E-03 0. -1.
    9900012    2    1    2    0    0 -0.11562231818E+01 -0.18019640558E+00 -0.15272998580E+00  0.90007894395E+02  0.90000157801E+02 0.  0.
         12    1    1    2    0    0  0.11562231818E+01  0.18019640558E+00  0.15272998580E+00  0.11801056051E+01  0.00000000000E+00 0. -1.
         11    1    3    3    0    0  0.25577405728E+02  0.16720981333E+02 -0.26033603005E+02  0.40144033008E+02  0.51100000000E-03 0. -1.
        -11    1    3    3    0    0  0.31189547210E+01 -0.66083009706E+01 -0.21742329044E+01  0.76239628313E+01  0.51100000000E-03 0.  1.
        -12    1    3    3    0    0 -0.29852583631E+02 -0.10292876768E+02  0.28055105923E+02  0.42239898555E+02  0.00000000000E+00 0.  1.
</event>
<event>
 7    1  0.3032584E-015  0.9000771E+02  0.7816164E-02  0.1186339E+00
        -11   -1    0    0    0    0  0.00000000000E+00  0.00000000000E+00  0.45593999997E+02  0.45594000000E+02  0.51100000000E-03 0. -1.
         11   -1    0    0    0    0 -0.00000000000E+00 -0.00000000000E+00 -0.45593999997E+02  0.45594000000E+02  0.51100000000E-03 0.  1.
    9900012    2    1    2    0    0 -0.10338638643E-01  0.54068898393E+00 -0.10491142165E+01  0.90007706772E+02  0.89999967701E+02 0.  0.
         12    1    1    2    0    0  0.10338638643E-01 -0.54068898393E+00  0.10491142165E+01  0.11802932280E+01  0.00000000000E+00 0. -1.
         11    1    3    3    0    0 -0.31472160708E+02  0.89918934105E+01 -0.18262508846E+02  0.37481599170E+02  0.51100000000E-03 0. -1.
        -11    1    3    3    0    0 -0.52230129093E+01 -0.42434477123E+01 -0.59115116643E+01  0.89572698271E+01  0.51100000000E-03 0.  1.
        -12    1    3    3    0    0  0.36684834979E+02 -0.42077567143E+01  0.23124906294E+02  0.43568837775E+02  0.00000000000E+00 0.  1.
</event>
<event>
 7    1  0.3032584E-015  0.9000765E+02  0.7816164E-02  0.1186339E+00
        -11   -1    0    0    0    0  0.00000000000E+00  0.00000000000E+00  0.45593999997E+02  0.45594000000E+02  0.51100000000E-03 0. -1.
         11   -1    0    0    0    0 -0.00000000000E+00 -0.00000000000E+00 -0.45593999997E+02  0.45594000000E+02  0.51100000000E-03 0.  1.
    9900012    2    1    2    0    0 -0.82899379194E+00  0.42561940918E+00 -0.72445499438E+00  0.90007653599E+02  0.89999913826E+02 0.  0.
         12    1    1    2    0    0  0.82899379194E+00 -0.42561940918E+00  0.72445499438E+00  0.11803464015E+01  0.00000000000E+00 0. -1.
         11    1    3    3    0    0  0.37771927114E+01 -0.24942392011E+01 -0.10126994183E+02  0.11092539178E+02  0.51100000000E-03 0. -1.
        -11    1    3    3    0    0 -0.35278692960E+02 -0.12421537060E+02 -0.11030564101E+02  0.38994282972E+02  0.51100000000E-03 0.  1.
         12    1    3    3    0    0  0.30672506457E+02  0.15341395670E+02  0.20433103289E+02  0.39920831448E+02  0.00000000000E+00 0. -1.
</event>
<event>
 7    1  0.3032584E-015  0.9000786E+02  0.7816164E-02  0.1186339E+00
        -11   -1    0    0    0    0  0.00000000000E+00  0.00000000000E+00  0.45593999997E+02  0.45594000000E+02  0.51100000000E-03 0. -1.
         11   -1    0    0    0    0 -0.00000000000E+00 -0.00000000000E+00 -0.45593999997E+02  0.45594000000E+02  0.51100000000E-03 0.  1.
    9900012    2    1    2    0    0 -0.82248201159E+00 -0.51989574389E+00 -0.66780212847E+00  0.90007861056E+02  0.90000124022E+02 0.  0.
         12    1    1    2    0    0  0.82248201159E+00  0.51989574389E+00  0.66780212847E+00  0.11801389438E+01  0.00000000000E+00 0. -1.
         11    1    3    3    0    0 -0.38820411059E+00  0.30223883032E+01 -0.88344225023E+01  0.93451888529E+01  0.51100000000E-03 0. -1.
        -11    1    3    3    0    0 -0.34702177781E+02 -0.21436157848E+02 -0.14901625668E+01  0.40816303002E+02  0.51100000000E-03 0.  1.
         12    1    3    3    0    0  0.34267899880E+02  0.17893873801E+02  0.96567829407E+01  0.39846369201E+02  0.00000000000E+00 0. -1.
</event>
<event>
 7    1  0.3032584E-015  0.9000782E+02  0.7816164E-02  0.1186339E+00
        -11   -1    0    0    0    0  0.00000000000E+00  0.00000000000E+00  0.45593999997E+02  0.45594000000E+02  0.51100000000E-03 0.  1.
         11   -1    0    0    0    0 -0.00000000000E+00 -0.00000000000E+00 -0.45593999997E+02  0.45594000000E+02  0.51100000000E-03 0. -1.
    9900012    2    1    2    0    0  0.66962428399E+00 -0.29715744299E+00  0.92526698766E+00  0.90007822799E+02  0.90000085260E+02 0.  0.
         12    1    1    2    0    0 -0.66962428399E+00  0.29715744299E+00 -0.92526698766E+00  0.11801772011E+01  0.00000000000E+00 0. -1.
         11    1    3    3    0    0 -0.25498127495E+02 -0.21527471979E+02 -0.17471216514E+02  0.37667359375E+02  0.51100000000E-03 0. -1.
        -11    1    3    3    0    0  0.13107196161E+02 -0.27736224620E+00 -0.84089196206E+01  0.15575154910E+02  0.51100000000E-03 0.  1.
        -12    1    3    3    0    0  0.13060555618E+02  0.21507676782E+02  0.26805403122E+02  0.36765308514E+02  0.00000000000E+00 0.  1.
</event>
<event>
 7    1  0.3032584E-015  0.9000773E+02  0.7816164E-02  0.1186339E+00
        -11   -1    0    0    0    0  0.00000000000E+00  0.00000000000E+00  0.45593999997E+02  0.45594000000E+02  0.51100000000E-03 0. -1.
         11   -1    0    0    0    0 -0.00000000000E+00 -0.00000000000E+00 -0.45593999997E+02  0.45594000000E+02  0.51100000000E-03 0.  1.
    9900012    2    1    2    0    0  0.79989701991E+00 -0.86727210243E+00 -0.32140418035E-01  0.90007733442E+02  0.89999994723E+02 0.  0.
         12    1    1    2    0    0 -0.79989701991E+00  0.86727210243E+00  0.32140418035E-01  0.11802665583E+01  0.00000000000E+00 0. -1.
         11    1    3    3    0    0  0.91193886454E+01  0.20979996278E+02 -0.23043574222E+01  0.22992032456E+02  0.51100000000E-03 0. -1.
        -11    1    3    3    0    0  0.37604597528E+01  0.21328442554E+02  0.45261203229E+01  0.22125308693E+02  0.51100000000E-03 0.  1.
        -12    1    3    3    0    0 -0.12079951378E+02 -0.43175710934E+02 -0.22539033187E+01  0.44890392292E+02  0.00000000000E+00 0.  1.
</event>
<event>
 7    1  0.3032584E-015  0.9000792E+02  0.7816164E-02  0.1186339E+00
        -11   -1    0    0    0    0  0.00000000000E+00  0.00000000000E+00  0.45593999997E+02  0.45594000000E+02  0.51100000000E-03 0.  1.
         11   -1    0    0    0    0 -0.00000000000E+00 -0.00000000000E+00 -0.45593999997E+02  0.45594000000E+02  0.51100000000E-03 0. -1.
    9900012    2    1    2    0    0  0.11422903669E+01  0.24414574222E-01  0.29522787603E+00  0.90007922523E+02  0.90000186300E+02 0.  0.
         12    1    1    2    0    0 -0.11422903669E+01 -0.24414574222E-01 -0.29522787603E+00  0.11800774774E+01  0.00000000000E+00 0. -1.
         11    1    3    3    0    0  0.69517795617E+01 -0.38442552859E+01  0.60387931350E+01  0.99786051412E+01  0.51100000000E-03 0. -1.
        -11    1    3    3    0    0 -0.25243003441E+02 -0.24393244052E+02  0.16870251396E+02  0.38946693833E+02  0.51100000000E-03 0.  1.
         12    1    3    3    0    0  0.19433514246E+02  0.28261913912E+02 -0.22613816655E+02  0.41082623548E+02  0.00000000000E+00 0. -1.
</event>
<event>
 7    1  0.3032584E-015  0.9000778E+02  0.7816164E-02  0.1186339E+00
        -11   -1    0    0    0    0  0.00000000000E+00  0.00000000000E+00  0.45593999997E+02  0.45594000000E+02  0.51100000000E-03 0.  1.
         11   -1    0    0    0    0 -0.00000000000E+00 -0.00000000000E+00 -0.45593999997E+02  0.45594000000E+02  0.51100000000E-03 0. -1.
    9900012    2    1    2    0    0 -0.22843681224E+00  0.50412817077E+00  0.10423934832E+01  0.90007782747E+02  0.90000044680E+02 0.  0.
         12    1    1    2    0    0  0.22843681224E+00 -0.50412817077E+00 -0.10423934832E+01  0.11802172527E+01  0.00000000000E+00 0. -1.
         11    1    3    3    0    0 -0.75431256740E+01  0.36278415204E+02  0.53355943213E+01  0.37436489174E+02  0.51100000000E-03 0. -1.
        -11    1    3    3    0    0 -0.34598765058E+01  0.71215349324E+01 -0.25146134023E+01  0.83072429874E+01  0.51100000000E-03 0.  1.
        -12    1    3    3    0    0  0.10774565367E+02 -0.42895821966E+02 -0.17785874358E+01  0.44264050586E+02  0.00000000000E+00 0.  1.
</event>
<event>
 7    1  0.3032584E-015  0.9000767E+02  0.7816164E-02  0.1186339E+00
        -11   -1    0    0    0    0  0.00000000000E+00  0.00000000000E+00  0.45593999997E+02  0.45594000000E+02  0.51100000000E-03 0.  1.
         11   -1    0    0    0    0 -0.00000000000E+00 -0.00000000000E+00 -0.45593999997E+02  0.45594000000E+02  0.51100000000E-03 0. -1.
    9900012    2    1    2    0    0 -0.60855381480E+00 -0.46590350074E+00  0.89765610001E+00  0.90007665178E+02  0.89999925559E+02 0.  0.
         12    1    1    2    0    0  0.60855381480E+00  0.46590350074E+00 -0.89765610001E+00  0.11803348217E+01  0.00000000000E+00 0. -1.
         11    1    3    3    0    0 -0.12290667904E+01 -0.90130806790E+01  0.14644514390E+01  0.92136228912E+01  0.51100000000E-03 0. -1.
        -11    1    3    3    0    0  0.14794477687E+02 -0.33377523304E+02  0.77931919858E+00  0.36517707631E+02  0.51100000000E-03 0.  1.
         12    1    3    3    0    0 -0.14173964712E+02  0.41924700483E+02 -0.13461145376E+01  0.44276334656E+02  0.00000000000E+00 0. -1.
</event>
<event>
 7    1  0.3032584E-015  0.9000772E+02  0.7816164E-02  0.1186339E+00
        -11   -1    0    0    0    0  0.00000000000E+00  0.00000000000E+00  0.45593999997E+02  0.45594000000E+02  0.51100000000E-03 0.  1.
         11   -1    0    0    0    0 -0.00000000000E+00 -0.00000000000E+00 -0.45593999997E+02  0.45594000000E+02  0.51100000000E-03 0. -1.
    9900012    2    1    2    0    0  0.31752237434E+00  0.11012365945E+01  0.28198729132E+00  0.90007720657E+02  0.89999981770E+02 0.  0.
         12    1    1    2    0    0 -0.31752237434E+00 -0.11012365945E+01 -0.28198729132E+00  0.11802793431E+01  0.00000000000E+00 0. -1.
         11    1    3    3    0    0 -0.84089612696E+01  0.34950500867E+01 -0.36273235747E+00  0.91135931316E+01  0.51100000000E-03 0. -1.
        -11    1    3    3    0    0 -0.35721938404E+02  0.38069345231E+01  0.21664053171E+01  0.35989483826E+02  0.51100000000E-03 0.  1.
         12    1    3    3    0    0  0.44448422048E+02 -0.62007480153E+01 -0.15216856683E+01  0.44904643699E+02  0.00000000000E+00 0. -1.
</event>
<event>
 7    1  0.3032584E-015  0.9000778E+02  0.7816164E-02  0.1186339E+00
        -11   -1    0    0    0    0  0.00000000000E+00  0.00000000000E+00  0.45593999997E+02  0.45594000000E+02  0.51100000000E-03 0.  1.
         11   -1    0    0    0    0 -0.00000000000E+00 -0.00000000000E+00 -0.45593999997E+02  0.45594000000E+02  0.51100000000E-03 0. -1.
    9900012    2    1    2    0    0  0.61773129122E+00 -0.98616092893E+00  0.19704026554E+00  0.90007775364E+02  0.90000037198E+02 0.  0.
         12    1    1    2    0    0 -0.61773129122E+00  0.98616092893E+00 -0.19704026554E+00  0.11802246363E+01  0.00000000000E+00 0. -1.
         11    1    3    3    0    0  0.30280167108E+02 -0.19796373221E+02 -0.26749388852E+02  0.44992385100E+02  0.51100000000E-03 0. -1.
        -11    1    3    3    0    0 -0.85246029940E+01  0.13617758033E+01  0.70612476265E+01  0.11152780274E+02  0.51100000000E-03 0.  1.
        -12    1    3    3    0    0 -0.21137832823E+02  0.17448436488E+02  0.19885181491E+02  0.33862609989E+02  0.00000000000E+00 0.  1.
</event>
<event>
 7    1  0.3032584E-015  0.9000781E+02  0.7816164E-02  0.1186339E+00
        -11   -1    0    0    0    0  0.00000000000E+00  0.00000000000E+00  0.45593999997E+02  0.45594000000E+02  0.51100000000E-03 0. -1.
         11   -1    0    0    0    0 -0.00000000000E+00 -0.00000000000E+00 -0.45593999997E+02  0.45594000000E+02  0.51100000000E-03 0.  1.
    9900012    2    1    2    0    0  0.23062223068E+00 -0.87840496290E+00 -0.75369932465E+00  0.90007811640E+02  0.90000073954E+02 0.  0.
         12    1    1    2    0    0 -0.23062223068E+00  0.87840496290E+00  0.75369932465E+00  0.11801883596E+01  0.00000000000E+00 0. -1.
         11    1    3    3    0    0  0.49804233568E+01 -0.55276631037E+01  0.78043571848E+01  0.10782748607E+02  0.51100000000E-03 0. -1.
        -11    1    3    3    0    0  0.95096168644E+01  0.19553617797E+01 -0.41821685437E+02  0.42933781870E+02  0.51100000000E-03 0.  1.
         12    1    3    3    0    0 -0.14259417991E+02  0.26938963611E+01  0.33263628928E+02  0.36291281163E+02  0.00000000000E+00 0. -1.
</event>
<event>
 7    1  0.3032584E-015  0.9000772E+02  0.7816164E-02  0.1186339E+00
        -11   -1    0    0    0    0  0.00000000000E+00  0.00000000000E+00  0.45593999997E+02  0.45594000000E+02  0.51100000000E-03 0. -1.
         11   -1    0    0    0    0 -0.00000000000E+00 -0.00000000000E+00 -0.45593999997E+02  0.45594000000E+02  0.51100000000E-03 0.  1.
    9900012    2    1    2    0    0 -0.11069429638E+01  0.37992741612E+00  0.15291992203E+00  0.90007723732E+02  0.89999984885E+02 0.  0.
         12    1    1    2    0    0  0.11069429638E+01 -0.37992741612E+00 -0.15291992203E+00  0.11802762681E+01  0.00000000000E+00 0. -1.
         11    1    3    3    0    0  0.16534490246E+02  0.24206733817E+02  0.21618457761E+02  0.36424072343E+02  0.51100000000E-03 0. -1.
        -11    1    3    3    0    0 -0.11803024189E+01  0.89047026944E+00  0.10121359989E+02  0.10228781912E+02  0.51100000000E-03 0.  1.
        -12    1    3    3    0    0 -0.16461130791E+02 -0.24717276671E+02 -0.31586897829E+02  0.43354869477E+02  0.00000000000E+00 0.  1.
</event>
<event>
 7    1  0.3032584E-015  0.9000785E+02  0.7816164E-02  0.1186339E+00
        -11   -1    0    0    0    0  0.00000000000E+00  0.00000000000E+00  0.45593999997E+02  0.45594000000E+02  0.51100000000E-03 0.  1.
         11   -1    0    0    0    0 -0.00000000000E+00 -0.00000000000E+00 -0.45593999997E+02  0.45594000000E+02  0.51100000000E-03 0. -1.
    9900012    2    1    2    0    0 -0.66297940051E+00 -0.91621442957E+00 -0.33730558250E+00  0.90007845085E+02  0.90000107840E+02 0.  0.
         12    1    1    2    0    0  0.66297940051E+00  0.91621442957E+00  0.33730558250E+00  0.11801549146E+01  0.00000000000E+00 0. -1.
         11    1    3    3    0    0  0.13072514926E+02 -0.18684827368E+01  0.69215978610E+01  0.14909406140E+02  0.51100000000E-03 0. -1.
        -11    1    3    3    0    0 -0.29450517123E+02  0.10015271090E+02  0.23774376145E+02  0.39151750601E+02  0.51100000000E-03 0.  1.
         12    1    3    3    0    0  0.15715022796E+02 -0.90630027825E+01 -0.31033279588E+02  0.35946688344E+02  0.00000000000E+00 0. -1.
</event>
<event>
 7    1  0.3032584E-015  0.9000775E+02  0.7816164E-02  0.1186339E+00
        -11   -1    0    0    0    0  0.00000000000E+00  0.00000000000E+00  0.45593999997E+02  0.45594000000E+02  0.51100000000E-03 0. -1.
         11   -1    0    0    0    0 -0.00000000000E+00 -0.00000000000E+00 -0.45593999997E+02  0.45594000000E+02  0.51100000000E-03 0.  1.
    9900012    2    1    2    0    0 -0.58061305468E+00  0.56332937591E+00 -0.85938915465E+00  0.90007745271E+02  0.90000006709E+02 0.  0.
         12    1    1    2    0    0  0.58061305468E+00 -0.56332937591E+00  0.85938915465E+00  0.11802547285E+01  0.00000000000E+00 0. -1.
         11    1    3    3    0    0 -0.23360008232E+01  0.12591201872E+01 -0.83519219104E+01  0.87633830996E+01  0.51100000000E-03 0. -1.
        -11    1    3    3    0    0  0.40201779706E+02  0.29584946761E+01 -0.50809539222E+01  0.40629445914E+02  0.51100000000E-03 0.  1.
         12    1    3    3    0    0 -0.38446391937E+02 -0.36542854874E+01  0.12573486678E+02  0.40614916258E+02  0.00000000000E+00 0. -1.
</event>
<event>
 7    1  0.3032584E-015  0.9000766E+02  0.7816164E-02  0.1186339E+00
        -11   -1    0    0    0    0  0.00000000000E+00  0.00000000000E+00  0.45593999997E+02  0.45594000000E+02  0.51100000000E-03 0.  1.
         11   -1    0    0    0    0 -0.00000000000E+00 -0.00000000000E+00 -0.45593999997E+02  0.45594000000E+02  0.51100000000E-03 0. -1.
    9900012    2    1    2    0    0  0.40488350701E+00 -0.10405923715E+01 -0.38267840864E+00  0.90007658565E+02  0.89999918858E+02 0.  0.
         12    1    1    2    0    0 -0.40488350701E+00  0.10405923715E+01  0.38267840864E+00  0.11803414346E+01  0.00000000000E+00 0. -1.
         11    1    3    3    0    0 -0.21300564314E+01  0.16045671301E+02 -0.35116607059E+02  0.38667516077E+02  0.51100000000E-03 0. -1.
        -11    1    3    3    0    0 -0.60637391043E+01  0.63315828482E+01  0.23939082176E+00  0.87701300740E+01  0.51100000000E-03 0.  1.
        -12    1    3    3    0    0  0.85986790427E+01 -0.23417846521E+02  0.34494537829E+02  0.42570012415E+02  0.00000000000E+00 0.  1.
</event>
<event>
 7    1  0.3032584E-015  0.9000764E+02  0.7816164E-02  0.1186339E+00
        -11   -1    0    0    0    0  0.00000000000E+00  0.00000000000E+00  0.45593999997E+02  0.45594000000E+02  0.51100000000E-03 0.  1.
         11   -1    0    0    0    0 -0.00000000000E+00 -0.00000000000E+00 -0.45593999997E+02  0.45594000000E+02  0.51100000000E-03 0. -1.
    9900012    2    1    2    0    0  0.70618088424E+00  0.85970561850E+00 -0.39429499422E+00  0.90007638304E+02  0.89999898329E+02 0.  0.
         12    1    1    2    0    0 -0.70618088424E+00 -0.85970561850E+00  0.39429499422E+00  0.11803616964E+01  0.00000000000E+00 0. -1.
         11    1    3    3    0    0 -0.53707802166E+01  0.10401363902E+02  0.14285561585E+01  0.11792981986E+02  0.51100000000E-03 0. -1.
        -11    1    3    3    0    0  0.11443484072E+02  0.84807918578E+01  0.34493506155E+02  0.37318616338E+02  0.51100000000E-03 0.  1.
         12    1    3    3    0    0 -0.53665229716E+01 -0.18022450142E+02 -0.36316357308E+02  0.40896039980E+02  0.00000000000E+00 0. -1.
</event>
<event>
 7    1  0.3032584E-015  0.9000785E+02  0.7816164E-02  0.1186339E+00
        -11   -1    0    0    0    0  0.00000000000E+00  0.00000000000E+00  0.45593999997E+02  0.45594000000E+02  0.51100000000E-03 0. -1.
         11   -1    0    0    0    0 -0.00000000000E+00 -0.00000000000E+00 -0.45593999997E+02  0.45594000000E+02  0.51100000000E-03 0.  1.
    9900012    2    1    2    0    0 -0.87753741245E+00 -0.47776435392E+00 -0.62803223324E+00  0.90007849512E+02  0.90000112326E+02 0.  0.
         12    1    1    2    0    0  0.87753741245E+00  0.47776435392E+00  0.62803223324E+00  0.11801504879E+01  0.00000000000E+00 0. -1.
         11    1    3    3    0    0 -0.78135951644E+01 -0.47340661133E+01 -0.25979903029E+01  0.94980632359E+01  0.51100000000E-03 0. -1.
        -11    1    3    3    0    0 -0.77719456959E+01  0.40170636298E+02  0.65303554264E+01  0.41433424946E+02  0.51100000000E-03 0.  1.
         12    1    3    3    0    0  0.14708003448E+02 -0.35914334539E+02 -0.45603973567E+01  0.39076361330E+02  0.00000000000E+00 0. -1.
</event>
<event>
 7    1  0.3032584E-015  0.9000783E+02  0.7816164E-02  0.1186339E+00
        -11   -1    0    0    0    0  0.00000000000E+00  0.00000000000E+00  0.45593999997E+02  0.45594000000E+02  0.51100000000E-03 0. -1.
         11   -1    0    0    0    0 -0.00000000000E+00 -0.00000000000E+00 -0.45593999997E+02  0.45594000000E+02  0.51100000000E-03 0.  1.
    9900012    2    1    2    0    0  0.71327566717E-01  0.11468037338E+01  0.26936492355E+00  0.90007828874E+02  0.90000091415E+02 0.  0.
         12    1    1    2    0    0 -0.71327566717E-01 -0.11468037338E+01 -0.26936492355E+00  0.11801711264E+01  0.00000000000E+00 0. -1.
         11    1    3    3    0    0 -0.35302103332E+02  0.75684765508E+01  0.86729083108E+00  0.36114713492E+02  0.51100000000E-03 0. -1.
        -11    1    3    3    0    0 -0.70723599795E+01  0.46850444763E+01 -0.49183751597E+01  0.98060354832E+01  0.51100000000E-03 0.  1.
        -12    1    3    3    0    0  0.42445790878E+02 -0.11106717293E+02  0.43204492522E+01  0.44087079899E+02  0.00000000000E+00 0.  1.
</event>
<event>
 7    1  0.3032584E-015  0.9000775E+02  0.7816164E-02  0.1186339E+00
        -11   -1    0    0    0    0  0.00000000000E+00  0.00000000000E+00  0.45593999997E+02  0.45594000000E+02  0.51100000000E-03 0.  1.
         11   -1    0    0    0    0 -0.00000000000E+00 -0.00000000000E+00 -0.45593999997E+02  0.45594000000E+02  0.51100000000E-03 0. -1.
    9900012    2    1    2    0    0 -0.18280602126E+00  0.19495462364E+00  0.11495929463E+01  0.90007750328E+02  0.90000011832E+02 0.  0.
         12    1    1    2    0    0  0.18280602126E+00 -0.19495462364E+00 -0.11495929463E+01  0.11802496723E+01  0.00000000000E+00 0. -1.
         11    1    3    3    0    0  0.30372258521E+02  0.18186122465E+02 -0.14767011851E+02  0.38357186774E+02  0.51100000000E-03 0. -1.
        -11    1    3    3    0    0 -0.47328773441E+01  0.84935302693E+01 -0.29049415012E+01  0.10147850500E+02  0.51100000000E-03 0.  1.
        -12    1    3    3    0    0 -0.25822187198E+02 -0.26484698111E+02  0.18821546298E+02  0.41502713053E+02  0.00000000000E+00 0.  1.
</event>
<event>
 7    1  0.3032584E-015  0.9000745E+02  0.7816164E-02  0.1186340E+00
        -11   -1    0    0    0    0  0.00000000000E+00  0.00000000000E+00  0.45593999997E+02  0.45594000000E+02  0.51100000000E-03 0.  1.
         11   -1    0    0    0    0 -0.00000000000E+00 -0.00000000000E+00 -0.45593999997E+02  0.45594000000E+02  0.51100000000E-03 0. -1.
    9900012    2    1    2    0    0 -0.10145110388E+01  0.82100920111E-01  0.59809219940E+00  0.90007454580E+02  0.89999712180E+02 0.  0.
         12    1    1    2    0    0  0.10145110388E+01 -0.82100920111E-01 -0.59809219940E+00  0.11805454197E+01  0.00000000000E+00 0. -1.
         11    1    3    3    0    0  0.40318419813E+01 -0.53833374737E+01 -0.69614298351E+01  0.96797509125E+01  0.51100000000E-03 0. -1.
        -11    1    3    3    0    0  0.15572293278E+02 -0.90016193850E+01 -0.30074332871E+02  0.35042702056E+02  0.51100000000E-03 0.  1.
         12    1    3    3    0    0 -0.20618646298E+02  0.14467057779E+02  0.37633854906E+02  0.45285001612E+02  0.00000000000E+00 0. -1.
</event>
<event>
 7    1  0.3032584E-015  0.9000773E+02  0.7816164E-02  0.1186339E+00
        -11   -1    0    0    0    0  0.00000000000E+00  0.00000000000E+00  0.45593999997E+02  0.45594000000E+02  0.51100000000E-03 0.  1.
         11   -1    0    0    0    0 -0.00000000000E+00 -0.00000000000E+00 -0.45593999997E+02  0.45594000000E+02  0.51100000000E-03 0. -1.
    9900012    2    1    2    0    0 -0.34914181531E+00 -0.12805033416E-01  0.11273737490E+01  0.90007730732E+02  0.89999991977E+02 0.  0.
         12    1    1    2    0    0  0.34914181531E+00  0.12805033416E-01 -0.11273737490E+01  0.11802692684E+01  0.00000000000E+00 0. -1.
         11    1    3    3    0    0 -0.27666601382E+02  0.31259624068E+02  0.31451843662E+01  0.41862836906E+02  0.51100000000E-03 0. -1.
        -11    1    3    3    0    0 -0.12308498323E+01 -0.76054887972E+01  0.65188165955E+01  0.10092245598E+02  0.51100000000E-03 0.  1.
        -12    1    3    3    0    0  0.28548309399E+02 -0.23666940304E+02 -0.85366272127E+01  0.38052648227E+02  0.00000000000E+00 0.  1.
</event>
<event>
 7    1  0.3032584E-015  0.9000772E+02  0.7816164E-02  0.1186339E+00
        -11   -1    0    0    0    0  0.00000000000E+00  0.00000000000E+00  0.45593999997E+02  0.45594000000E+02  0.51100000000E-03 0. -1.
         11   -1    0    0    0    0 -0.00000000000E+00 -0.00000000000E+00 -0.45593999997E+02  0.45594000000E+02  0.51100000000E-03 0.  1.
    9900012    2    1    2    0    0 -0.80706852883E+00 -0.81620168838E+00  0.27479656153E+00  0.90007721238E+02  0.89999982358E+02 0.  0.
         12    1    1    2    0    0  0.80706852883E+00  0.81620168838E+00 -0.27479656153E+00  0.11802787622E+01  0.00000000000E+00 0. -1.
         11    1    3    3    0    0  0.65694587988E+01  0.36640580375E+02 -0.26830610333E+01  0.37321424623E+02  0.51100000000E-03 0. -1.
        -11    1    3    3    0    0 -0.62280797723E+01  0.54202634596E+01  0.51620091018E+01  0.97372774352E+01  0.51100000000E-03 0.  1.
        -12    1    3    3    0    0 -0.11484475553E+01 -0.42877045523E+02 -0.22041515070E+01  0.42949019179E+02  0.00000000000E+00 0.  1.
</event>
<event>
 7    1  0.3032584E-015  0.9000781E+02  0.7816164E-02  0.1186339E+00
        -11   -1    0    0    0    0  0.00000000000E+00  0.00000000000E+00  0.45593999997E+02  0.45594000000E+02  0.51100000000E-03 0.  1.
         11   -1    0    0    0    0 -0.00000000000E+00 -0.00000000000E+00 -0.45593999997E+02  0.45594000000E+02  0.51100000000E-03 0. -1.
    9900012    2    1    2    0    0 -0.60376910248E+00  0.21445469119E+00  0.99112615408E+00  0.90007805526E+02  0.90000067759E+02 0.  0.
         12    1    1    2    0    0  0.60376910248E+00 -0.21445469119E+00 -0.99112615408E+00  0.11801944742E+01  0.00000000000E+00 0. -1.
         11    1    3    3    0    0  0.94521543097E+01 -0.21113214802E+01  0.34630742384E+01  0.10285610479E+02  0.51100000000E-03 0. -1.
        -11    1    3    3    0    0  0.28759295722E+02 -0.50764656073E+01  0.18911701898E+02  0.34792528830E+02  0.51100000000E-03 0.  1.
         12    1    3    3    0    0 -0.38815219134E+02  0.74022417787E+01 -0.21383649982E+02  0.44929666216E+02  0.00000000000E+00 0. -1.
</event>
<event>
 7    1  0.3032584E-015  0.9000775E+02  0.7816164E-02  0.1186339E+00
        -11   -1    0    0    0    0  0.00000000000E+00  0.00000000000E+00  0.45593999997E+02  0.45594000000E+02  0.51100000000E-03 0. -1.
         11   -1    0    0    0    0 -0.00000000000E+00 -0.00000000000E+00 -0.45593999997E+02  0.45594000000E+02  0.51100000000E-03 0.  1.
    9900012    2    1    2    0    0  0.34893791692E+00 -0.44696785780E+00 -0.10351105954E+01  0.90007749230E+02  0.90000010720E+02 0.  0.
         12    1    1    2    0    0 -0.34893791692E+00  0.44696785780E+00  0.10351105954E+01  0.11802507702E+01  0.00000000000E+00 0. -1.
         11    1    3    3    0    0  0.43067221362E+01  0.92215161817E+01 -0.14302764314E+01  0.10277641129E+02  0.51100000000E-03 0. -1.
        -11    1    3    3    0    0  0.26869304267E+02  0.22525367182E+02 -0.17474269667E+01  0.35105628889E+02  0.51100000000E-03 0.  1.
         12    1    3    3    0    0 -0.30827088486E+02 -0.32193851221E+02  0.21425928027E+01  0.44624479211E+02  0.00000000000E+00 0. -1.
</event>
<event>
 7    1  0.3032584E-015  0.9000776E+02  0.7816164E-02  0.1186339E+00
        -11   -1    0    0    0    0  0.00000000000E+00  0.00000000000E+00  0.45593999997E+02  0.45594000000E+02  0.51100000000E-03 0.  1.
         11   -1    0    0    0    0 -0.00000000000E+00 -0.00000000000E+00 -0.45593999997E+02  0.45594000000E+02  0.51100000000E-03 0. -1.
    9900012    2    1    2    0    0  0.87131417352E+00  0.78907890429E+00  0.10547909023E+00  0.90007762844E+02  0.90000024513E+02 0.  0.
         12    1    1    2    0    0 -0.87131417352E+00 -0.78907890429E+00 -0.10547909023E+00  0.11802371561E+01  0.00000000000E+00 0. -1.
         11    1    3    3    0    0 -0.14734023781E+01 -0.10543754122E+02  0.45130801841E+00  0.10655765797E+02  0.51100000000E-03 0. -1.
        -11    1    3    3    0    0 -0.32444967051E+02  0.23929104317E+02 -0.91035935721E+01  0.41329811717E+02  0.51100000000E-03 0.  1.
         12    1    3    3    0    0  0.34789683603E+02 -0.12596271292E+02  0.87577646439E+01  0.38022185329E+02  0.00000000000E+00 0. -1.
</event>
<event>
 7    1  0.3032584E-015  0.9000779E+02  0.7816164E-02  0.1186339E+00
        -11   -1    0    0    0    0  0.00000000000E+00  0.00000000000E+00  0.45593999997E+02  0.45594000000E+02  0.51100000000E-03 0. -1.
         11   -1    0    0    0    0 -0.00000000000E+00 -0.00000000000E+00 -0.45593999997E+02  0.45594000000E+02  0.51100000000E-03 0.  1.
    9900012    2    1    2    0    0  0.52191872806E+00  0.10400105408E+01  0.19716863380E+00  0.90007789615E+02  0.90000051637E+02 0.  0.
         12    1    1    2    0    0 -0.52191872806E+00 -0.10400105408E+01 -0.19716863380E+00  0.11802103854E+01  0.00000000000E+00 0. -1.
         11    1    3    3    0    0 -0.32667554295E+01  0.54327476542E+01  0.72229471843E+01  0.96102759793E+01  0.51100000000E-03 0. -1.
        -11    1    3    3    0    0 -0.13467227354E+02 -0.28253878588E+00 -0.40408504080E+02  0.42594521279E+02  0.51100000000E-03 0.  1.
         12    1    3    3    0    0  0.17255901511E+02 -0.41101983275E+01  0.33382725530E+02  0.37802992356E+02  0.00000000000E+00 0. -1.
</event>
<event>
 7    1  0.3032584E-015  0.9000760E+02  0.7816164E-02  0.1186339E+00
        -11   -1    0    0    0    0  0.00000000000E+00  0.00000000000E+00  0.45593999997E+02  0.45594000000E+02  0.51100000000E-03 0. -1.
         11   -1    0    0    0    0 -0.00000000000E+00 -0.00000000000E+00 -0.45593999997E+02  0.45594000000E+02  0.51100000000E-03 0.  1.
    9900012    2    1    2    0    0  0.81102931515E+00 -0.69628830124E+00 -0.50076755259E+00  0.90007595794E+02  0.89999855258E+02 0.  0.
         12    1    1    2    0    0 -0.81102931515E+00  0.69628830124E+00  0.50076755259E+00  0.11804042063E+01  0.00000000000E+00 0. -1.
         11    1    3    3    0    0 -0.27982472883E+01 -0.32774048462E+01 -0.80145996522E+01  0.90997460546E+01  0.51100000000E-03 0. -1.
        -11    1    3    3    0    0 -0.26953719163E+02  0.17740462573E+02 -0.19225848582E+02  0.37561419608E+02  0.51100000000E-03 0.  1.
         12    1    3    3    0    0  0.30562995766E+02 -0.15159346028E+02  0.26739680681E+02  0.43346430131E+02  0.00000000000E+00 0. -1.
</event>
<event>
 7    1  0.3032584E-015  0.9000777E+02  0.7816164E-02  0.1186339E+00
        -11   -1    0    0    0    0  0.00000000000E+00  0.00000000000E+00  0.45593999997E+02  0.45594000000E+02  0.51100000000E-03 0. -1.
         11   -1    0    0    0    0 -0.00000000000E+00 -0.00000000000E+00 -0.45593999997E+02  0.45594000000E+02  0.51100000000E-03 0.  1.
    9900012    2    1    2    0    0  0.33897453877E+00  0.11267295683E+01 -0.92258206218E-01  0.90007773397E+02  0.90000035206E+02 0.  0.
         12    1    1    2    0    0 -0.33897453877E+00 -0.11267295683E+01  0.92258206218E-01  0.11802266031E+01  0.00000000000E+00 0. -1.
         11    1    3    3    0    0 -0.35532003505E+02  0.19524112499E+02  0.69891771359E+00  0.40548769749E+02  0.51100000000E-03 0. -1.
        -11    1    3    3    0    0  0.79695545341E+00  0.64294399607E+01 -0.26922993150E+00  0.64842363637E+01  0.51100000000E-03 0.  1.
        -12    1    3    3    0    0  0.35074022590E+02 -0.24826822891E+02 -0.52194598831E+00  0.42974767284E+02  0.00000000000E+00 0.  1.
</event>
<event>
 7    1  0.3032584E-015  0.9000770E+02  0.7816164E-02  0.1186339E+00
        -11   -1    0    0    0    0  0.00000000000E+00  0.00000000000E+00  0.45593999997E+02  0.45594000000E+02  0.51100000000E-03 0.  1.
         11   -1    0    0    0    0 -0.00000000000E+00 -0.00000000000E+00 -0.45593999997E+02  0.45594000000E+02  0.51100000000E-03 0. -1.
    9900012    2    1    2    0    0  0.32106685806E-01 -0.10480547789E+01  0.54190313903E+00  0.90007699754E+02  0.89999960591E+02 0.  0.
         12    1    1    2    0    0 -0.32106685806E-01  0.10480547789E+01 -0.54190313903E+00  0.11803002461E+01  0.00000000000E+00 0. -1.
         11    1    3    3    0    0 -0.10484849194E+02  0.79866143228E+01  0.11166965257E+01  0.13227436727E+02  0.51100000000E-03 0. -1.
        -11    1    3    3    0    0  0.30583808272E+02 -0.40972161030E+01 -0.28523829317E+02  0.42021010785E+02  0.51100000000E-03 0.  1.
         12    1    3    3    0    0 -0.20066852392E+02 -0.49374529988E+01  0.27949035930E+02  0.34759252243E+02  0.00000000000E+00 0. -1.
</event>
<event>
 7    1  0.3032584E-015  0.9000645E+02  0.7816164E-02  0.1186342E+00
        -11   -1    0    0    0    0  0.00000000000E+00  0.00000000000E+00  0.45593999997E+02  0.45594000000E+02  0.51100000000E-03 0.  1.
         11   -1    0    0    0    0 -0.00000000000E+00 -0.00000000000E+00 -0.45593999997E+02  0.45594000000E+02  0.51100000000E-03 0. -1.
    9900012    2    1    2    0    0  0.71648649082E+00  0.53677214641E+00  0.77108489274E+00  0.90006454766E+02  0.89998699159E+02 0.  0.
         12    1    1    2    0    0 -0.71648649082E+00 -0.53677214641E+00 -0.77108489274E+00  0.11815452342E+01  0.00000000000E+00 0. -1.
         11    1    3    3    0    0  0.57760561013E+01  0.55200727068E+01  0.41778079806E+01  0.90159917123E+01  0.51100000000E-03 0. -1.
        -11    1    3    3    0    0  0.18817806253E+02 -0.26317241811E+02  0.22827941874E+02  0.39595731830E+02  0.51100000000E-03 0.  1.
         12    1    3    3    0    0 -0.23877375863E+02  0.21333941251E+02 -0.26234664961E+02  0.41394731223E+02  0.00000000000E+00 0. -1.
</event>
<event>
 7    1  0.3032584E-015  0.9000815E+02  0.7816164E-02  0.1186338E+00
        -11   -1    0    0    0    0  0.00000000000E+00  0.00000000000E+00  0.45593999997E+02  0.45594000000E+02  0.51100000000E-03 0. -1.
         11   -1    0    0    0    0 -0.00000000000E+00 -0.00000000000E+00 -0.45593999997E+02  0.45594000000E+02  0.51100000000E-03 0.  1.
    9900012    2    1    2    0    0 -0.97314611074E+00  0.44520135659E+00  0.49682421322E+00  0.90008147509E+02  0.90000414256E+02 0.  0.
         12    1    1    2    0    0  0.97314611074E+00 -0.44520135659E+00 -0.49682421322E+00  0.11798524906E+01  0.00000000000E+00 0. -1.
         11    1    3    3    0    0 -0.11166698867E+02 -0.80208031201E+00  0.38752836219E+02  0.40337585596E+02  0.51100000000E-03 0. -1.
        -11    1    3    3    0    0  0.51752667361E+01 -0.32214713782E+01  0.37323958655E+01  0.71478698077E+01  0.51100000000E-03 0.  1.
        -12    1    3    3    0    0  0.50182860202E+01  0.44687530468E+01 -0.41988407871E+02  0.42522692106E+02  0.00000000000E+00 0.  1.
</event>
<event>
 7    1  0.3032584E-015  0.9000798E+02  0.7816164E-02  0.1186339E+00
        -11   -1    0    0    0    0  0.00000000000E+00  0.00000000000E+00  0.45593999997E+02  0.45594000000E+02  0.51100000000E-03 0.  1.
         11   -1    0    0    0    0 -0.00000000000E+00 -0.00000000000E+00 -0.45593999997E+02  0.45594000000E+02  0.51100000000E-03 0. -1.
    9900012    2    1    2    0    0 -0.70247801006E+00  0.20073905904E+00  0.92664990995E+00  0.90007978144E+02  0.90000242655E+02 0.  0.
         12    1    1    2    0    0  0.70247801006E+00 -0.20073905904E+00 -0.92664990995E+00  0.11800218558E+01  0.00000000000E+00 0. -1.
         11    1    3    3    0    0  0.61650877770E+00  0.91399819446E+01 -0.20964668688E+01  0.93975808915E+01  0.51100000000E-03 0. -1.
        -11    1    3    3    0    0 -0.10414869059E+01  0.30468966189E+02 -0.18546099225E+02  0.35684736126E+02  0.51100000000E-03 0.  1.
         12    1    3    3    0    0 -0.27749988182E+00 -0.39408209075E+02  0.21569216004E+02  0.44925661127E+02  0.00000000000E+00 0. -1.
</event>
<event>
 7    1  0.3032584E-015  0.9000778E+02  0.7816164E-02  0.1186339E+00
        -11   -1    0    0    0    0  0.00000000000E+00  0.00000000000E+00  0.45593999997E+02  0.45594000000E+02  0.51100000000E-03 0.  1.
         11   -1    0    0    0    0 -0.00000000000E+00 -0.00000000000E+00 -0.45593999997E+02  0.45594000000E+02  0.51100000000E-03 0. -1.
    9900012    2    1    2    0    0 -0.62872850706E+00  0.98125140657E-01  0.99398328354E+00  0.90007775086E+02  0.90000036917E+02 0.  0.
         12    1    1    2    0    0  0.62872850706E+00 -0.98125140657E-01 -0.99398328354E+00  0.11802249136E+01  0.00000000000E+00 0. -1.
         11    1    3    3    0    0  0.77162942619E+01 -0.56650731186E+01  0.19637115862E+01  0.97719196697E+01  0.51100000000E-03 0. -1.
        -11    1    3    3    0    0  0.30602581393E+02  0.91905848781E+01  0.18112733759E+02  0.36729497176E+02  0.51100000000E-03 0.  1.
         12    1    3    3    0    0 -0.38947604162E+02 -0.34273866188E+01 -0.19082462061E+02  0.43506358240E+02  0.00000000000E+00 0. -1.
</event>
<event>
 7    1  0.3032584E-015  0.9000805E+02  0.7816164E-02  0.1186338E+00
        -11   -1    0    0    0    0  0.00000000000E+00  0.00000000000E+00  0.45593999997E+02  0.45594000000E+02  0.51100000000E-03 0. -1.
         11   -1    0    0    0    0 -0.00000000000E+00 -0.00000000000E+00 -0.45593999997E+02  0.45594000000E+02  0.51100000000E-03 0.  1.
    9900012    2    1    2    0    0  0.38083741780E+00 -0.11125294025E+01 -0.97568873215E-01  0.90008051486E+02  0.90000316965E+02 0.  0.
         12    1    1    2    0    0 -0.38083741780E+00  0.11125294025E+01  0.97568873215E-01  0.11799485138E+01  0.00000000000E+00 0. -1.
         11    1    3    3    0    0  0.30201065896E+01  0.65198621279E+01  0.34348685410E+02  0.35092190522E+02  0.51100000000E-03 0. -1.
        -11    1    3    3    0    0  0.39826603348E+01  0.23766307311E+01  0.88475409400E+01  0.99894413218E+01  0.51100000000E-03 0.  1.
        -12    1    3    3    0    0 -0.66219295067E+01 -0.10009022261E+02 -0.43293795223E+02  0.44926419642E+02  0.00000000000E+00 0.  1.
</event>
<event>
 7    1  0.3032584E-015  0.9000785E+02  0.7816164E-02  0.1186339E+00
        -11   -1    0    0    0    0  0.00000000000E+00  0.00000000000E+00  0.45593999997E+02  0.45594000000E+02  0.51100000000E-03 0. -1.
         11   -1    0    0    0    0 -0.00000000000E+00 -0.00000000000E+00 -0.45593999997E+02  0.45594000000E+02  0.51100000000E-03 0.  1.
    9900012    2    1    2    0    0 -0.11538643433E+01  0.24414592570E+00 -0.41671425435E-01  0.90007853118E+02  0.90000115979E+02 0.  0.
         12    1    1    2    0    0  0.11538643433E+01 -0.24414592570E+00  0.41671425435E-01  0.11801468821E+01  0.00000000000E+00 0. -1.
         11    1    3    3    0    0 -0.93191129236E+01 -0.19241973403E+01 -0.24663828364E+01  0.98301294826E+01  0.51100000000E-03 0. -1.
        -11    1    3    3    0    0 -0.16709390823E+02 -0.12401733881E+02 -0.30178746764E+02  0.36657379904E+02  0.51100000000E-03 0.  1.
         12    1    3    3    0    0  0.24874639404E+02  0.14570077147E+02  0.32603458175E+02  0.43520343731E+02  0.00000000000E+00 0. -1.
</event>
<event>
 7    1  0.3032584E-015  0.9000708E+02  0.7816164E-02  0.1186340E+00
        -11   -1    0    0    0    0  0.00000000000E+00  0.00000000000E+00  0.45593999997E+02  0.45594000000E+02  0.51100000000E-03 0.  1.
         11   -1    0    0    0    0 -0.00000000000E+00 -0.00000000000E+00 -0.45593999997E+02  0.45594000000E+02  0.51100000000E-03 0. -1.
    9900012    2    1    2    0    0  0.63223287771E+00  0.53524688900E+00  0.84164237600E+00  0.90007081064E+02  0.89999333732E+02 0.  0.
         12    1    1    2    0    0 -0.63223287771E+00 -0.53524688900E+00 -0.84164237600E+00  0.11809189358E+01  0.00000000000E+00 0. -1.
         11    1    3    3    0    0 -0.87049273184E+01 -0.54149450150E+01 -0.56212568890E+01  0.11691702973E+02  0.51100000000E-03 0. -1.
        -11    1    3    3    0    0  0.11099021996E+02  0.17189076159E+02 -0.32123816403E+02  0.38086640821E+02  0.51100000000E-03 0.  1.
         12    1    3    3    0    0 -0.17618618001E+01 -0.11238884255E+02  0.38586715668E+02  0.40228737270E+02  0.00000000000E+00 0. -1.
</event>
<event>
 7    1  0.3032584E-015  0.9000773E+02  0.7816164E-02  0.1186339E+00
        -11   -1    0    0    0    0  0.00000000000E+00  0.00000000000E+00  0.45593999997E+02  0.45594000000E+02  0.51100000000E-03 0.  1.
         11   -1    0    0    0    0 -0.00000000000E+00 -0.00000000000E+00 -0.45593999997E+02  0.45594000000E+02  0.51100000000E-03 0. -1.
    9900012    2    1    2    0    0 -0.85653386543E+00  0.72720899940E+00 -0.36132852682E+00  0.90007728211E+02  0.89999989423E+02 0.  0.
         12    1    1    2    0    0  0.85653386543E+00 -0.72720899940E+00  0.36132852682E+00  0.11802717889E+01  0.00000000000E+00 0. -1.
         11    1    3    3    0    0 -0.80413851101E+01 -0.77132770552E+00  0.48061207035E+01  0.93998732649E+01  0.51100000000E-03 0. -1.
        -11    1    3    3    0    0  0.24583956917E+02  0.10326905260E+01  0.31528380173E+02  0.39993451264E+02  0.51100000000E-03 0.  1.
         12    1    3    3    0    0 -0.17399105673E+02  0.46584617893E+00 -0.36695829403E+02  0.40614403682E+02  0.00000000000E+00 0. -1.
</event>
<event>
 7    1  0.3032584E-015  0.9000773E+02  0.7816164E-02  0.1186339E+00
        -11   -1    0    0    0    0  0.00000000000E+00  0.00000000000E+00  0.45593999997E+02  0.45594000000E+02  0.51100000000E-03 0.  1.
         11   -1    0    0    0    0 -0.00000000000E+00 -0.00000000000E+00 -0.45593999997E+02  0.45594000000E+02  0.51100000000E-03 0. -1.
    9900012    2    1    2    0    0 -0.30579612272E-01  0.31633946216E+00  0.11366777305E+01  0.90007727984E+02  0.89999989194E+02 0.  0.
         12    1    1    2    0    0  0.30579612272E-01 -0.31633946216E+00 -0.11366777305E+01  0.11802720157E+01  0.00000000000E+00 0. -1.
         11    1    3    3    0    0  0.33668166656E+01  0.23795015093E+00  0.99333348029E+01  0.10491101720E+02  0.51100000000E-03 0. -1.
        -11    1    3    3    0    0 -0.93457396446E-01  0.24334557819E+02  0.26873520465E+02  0.36254179635E+02  0.51100000000E-03 0.  1.
         12    1    3    3    0    0 -0.33039388815E+01 -0.24256168508E+02 -0.35670177537E+02  0.43262446629E+02  0.00000000000E+00 0. -1.
</event>
<event>
 7    1  0.3032584E-015  0.9000767E+02  0.7816164E-02  0.1186339E+00
        -11   -1    0    0    0    0  0.00000000000E+00  0.00000000000E+00  0.45593999997E+02  0.45594000000E+02  0.51100000000E-03 0. -1.
         11   -1    0    0    0    0 -0.00000000000E+00 -0.00000000000E+00 -0.45593999997E+02  0.45594000000E+02  0.51100000000E-03 0.  1.
    9900012    2    1    2    0    0  0.10186650838E+01 -0.51377980257E+00  0.30254145668E+00  0.90007669719E+02  0.89999930160E+02 0.  0.
         12    1    1    2    0    0 -0.10186650838E+01  0.51377980257E+00 -0.30254145668E+00  0.11803302806E+01  0.00000000000E+00 0. -1.
         11    1    3    3    0    0 -0.13960130085E+01  0.54949920619E+01  0.87929114013E+01  0.10462269412E+02  0.51100000000E-03 0. -1.
        -11    1    3    3    0    0  0.10416642520E+02  0.35362326029E+02 -0.20856153980E+01  0.36923574250E+02  0.51100000000E-03 0.  1.
         12    1    3    3    0    0 -0.80019644281E+01 -0.41371097893E+02 -0.64047545466E+01  0.42621826057E+02  0.00000000000E+00 0. -1.
</event>
<event>
 7    1  0.3032584E-015  0.9000774E+02  0.7816164E-02  0.1186339E+00
        -11   -1    0    0    0    0  0.00000000000E+00  0.00000000000E+00  0.45593999997E+02  0.45594000000E+02  0.51100000000E-03 0. -1.
         11   -1    0    0    0    0 -0.00000000000E+00 -0.00000000000E+00 -0.45593999997E+02  0.45594000000E+02  0.51100000000E-03 0.  1.
    9900012    2    1    2    0    0 -0.96514434933E+00  0.28083841181E+00 -0.61858607999E+00  0.90007736230E+02  0.89999997548E+02 0.  0.
         12    1    1    2    0    0  0.96514434933E+00 -0.28083841181E+00  0.61858607999E+00  0.11802637701E+01  0.00000000000E+00 0. -1.
         11    1    3    3    0    0 -0.37492367529E+02  0.11879737466E+01  0.41211312674E+01  0.37736886832E+02  0.51100000000E-03 0. -1.
        -11    1    3    3    0    0 -0.45991830707E+01  0.83978214527E+01  0.13429486277E+01  0.96684746133E+01  0.51100000000E-03 0.  1.
        -12    1    3    3    0    0  0.41126406251E+02 -0.93049567875E+01 -0.60826659751E+01  0.42602374785E+02  0.00000000000E+00 0.  1.
</event>
<event>
 7    1  0.3032584E-015  0.9000817E+02  0.7816164E-02  0.1186338E+00
        -11   -1    0    0    0    0  0.00000000000E+00  0.00000000000E+00  0.45593999997E+02  0.45594000000E+02  0.51100000000E-03 0.  1.
         11   -1    0    0    0    0 -0.00000000000E+00 -0.00000000000E+00 -0.45593999997E+02  0.45594000000E+02  0.51100000000E-03 0. -1.
    9900012    2    1    2    0    0  0.88017594602E+00  0.59696573548E+00  0.51079348631E+00  0.90008174686E+02  0.90000441791E+02 0.  0.
         12    1    1    2    0    0 -0.88017594602E+00 -0.59696573548E+00 -0.51079348631E+00  0.11798253137E+01  0.00000000000E+00 0. -1.
         11    1    3    3    0    0  0.28676350655E+02  0.57264926596E+01 -0.14761690340E+02  0.32757187105E+02  0.51100000000E-03 0. -1.
        -11    1    3    3    0    0 -0.10488291595E+02 -0.94671032564E+01 -0.15938594403E+02  0.21299509301E+02  0.51100000000E-03 0.  1.
        -12    1    3    3    0    0 -0.17307883114E+02  0.43375763323E+01  0.31211078230E+02  0.35951478281E+02  0.00000000000E+00 0.  1.
</event>
<event>
 7    1  0.3032584E-015  0.9000771E+02  0.7816164E-02  0.1186339E+00
        -11   -1    0    0    0    0  0.00000000000E+00  0.00000000000E+00  0.45593999997E+02  0.45594000000E+02  0.51100000000E-03 0. -1.
         11   -1    0    0    0    0 -0.00000000000E+00 -0.00000000000E+00 -0.45593999997E+02  0.45594000000E+02  0.51100000000E-03 0.  1.
    9900012    2    1    2    0    0  0.54913796973E+00  0.76686971262E+00 -0.70953342668E+00  0.90007712175E+02  0.89999973176E+02 0.  0.
         12    1    1    2    0    0 -0.54913796973E+00 -0.76686971262E+00  0.70953342668E+00  0.11802878249E+01  0.00000000000E+00 0. -1.
         11    1    3    3    0    0 -0.12535358452E+02 -0.32802200582E+02 -0.90137767989E+01  0.36254210059E+02  0.51100000000E-03 0. -1.
        -11    1    3    3    0    0 -0.18325530547E+01 -0.81360208400E+01  0.40082710476E+01  0.92530709961E+01  0.51100000000E-03 0.  1.
        -12    1    3    3    0    0  0.14917049476E+02  0.41705091135E+02  0.42959723247E+01  0.44500431120E+02  0.00000000000E+00 0.  1.
</event>
<event>
 7    1  0.3032584E-015  0.9000761E+02  0.7816164E-02  0.1186339E+00
        -11   -1    0    0    0    0  0.00000000000E+00  0.00000000000E+00  0.45593999997E+02  0.45594000000E+02  0.51100000000E-03 0.  1.
         11   -1    0    0    0    0 -0.00000000000E+00 -0.00000000000E+00 -0.45593999997E+02  0.45594000000E+02  0.51100000000E-03 0. -1.
    9900012    2    1    2    0    0  0.96655853572E+00  0.24545712803E-01  0.67711543991E+00  0.90007608872E+02  0.89999868509E+02 0.  0.
         12    1    1    2    0    0 -0.96655853572E+00 -0.24545712803E-01 -0.67711543991E+00  0.11803911275E+01  0.00000000000E+00 0. -1.
         11    1    3    3    0    0  0.44368521525E+01  0.52016299390E+01  0.13224419561E+01  0.69635812650E+01  0.51100000000E-03 0. -1.
        -11    1    3    3    0    0 -0.19091856159E+02  0.34108528686E+02  0.79826915869E+01  0.39895038112E+02  0.51100000000E-03 0.  1.
         12    1    3    3    0    0  0.15621562542E+02 -0.39285612912E+02 -0.86280181031E+01  0.43148989496E+02  0.00000000000E+00 0. -1.
</event>
<event>
 7    1  0.3032584E-015  0.9000771E+02  0.7816164E-02  0.1186339E+00
        -11   -1    0    0    0    0  0.00000000000E+00  0.00000000000E+00  0.45593999997E+02  0.45594000000E+02  0.51100000000E-03 0.  1.
         11   -1    0    0    0    0 -0.00000000000E+00 -0.00000000000E+00 -0.45593999997E+02  0.45594000000E+02  0.51100000000E-03 0. -1.
    9900012    2    1    2    0    0 -0.23678359452E+00  0.83207981932E+00  0.80290441052E+00  0.90007712413E+02  0.89999973417E+02 0.  0.
         12    1    1    2    0    0  0.23678359452E+00 -0.83207981932E+00 -0.80290441052E+00  0.11802875873E+01  0.00000000000E+00 0. -1.
         11    1    3    3    0    0  0.93787693786E+01 -0.11572544303E+01  0.32030620527E+01  0.99779837467E+01  0.51100000000E-03 0. -1.
        -11    1    3    3    0    0 -0.23938109612E+02  0.25785076215E+02  0.23292048683E+02  0.42195056337E+02  0.51100000000E-03 0.  1.
         12    1    3    3    0    0  0.14322556639E+02 -0.23795741965E+02 -0.25692206325E+02  0.37834672329E+02  0.00000000000E+00 0. -1.
</event>
<event>
 7    1  0.3032584E-015  0.9000768E+02  0.7816164E-02  0.1186339E+00
        -11   -1    0    0    0    0  0.00000000000E+00  0.00000000000E+00  0.45593999997E+02  0.45594000000E+02  0.51100000000E-03 0.  1.
         11   -1    0    0    0    0 -0.00000000000E+00 -0.00000000000E+00 -0.45593999997E+02  0.45594000000E+02  0.51100000000E-03 0. -1.
    9900012    2    1    2    0    0  0.51385941309E+00  0.10168450444E+01 -0.30843424649E+00  0.90007679270E+02  0.89999939837E+02 0.  0.
         12    1    1    2    0    0 -0.51385941309E+00 -0.10168450444E+01  0.30843424649E+00  0.11803207298E+01  0.00000000000E+00 0. -1.
         11    1    3    3    0    0  0.83267265864E+01 -0.82377769602E+01 -0.44515704735E+00  0.11721497769E+02  0.51100000000E-03 0. -1.
        -11    1    3    3    0    0  0.53200641559E+01  0.16815290508E+02  0.35595369944E+02  0.39725148699E+02  0.51100000000E-03 0.  1.
         12    1    3    3    0    0 -0.13132931329E+02 -0.75606685032E+01 -0.35458647143E+02  0.38561032802E+02  0.00000000000E+00 0. -1.
</event>
<event>
 8    1  0.3032584E-015  0.9000800E+02  0.7816164E-02  0.1186339E+00
        -11   -1    0    0    0    0  0.00000000000E+00  0.00000000000E+00  0.45593999997E+02  0.45594000000E+02  0.51100000000E-03 0. -1.
         11   -1    0    0    0    0 -0.00000000000E+00 -0.00000000000E+00 -0.45593999997E+02  0.45594000000E+02  0.51100000000E-03 0.  1.
    9900012    2    1    2    0    0  0.58024712141E+00 -0.29203731339E+00 -0.98510772867E+00  0.90007995868E+02  0.90000260613E+02 0.  0.
         23    2    3    3    0    0  0.73642691850E+01  0.22657387005E+02  0.11106620533E+02  0.63195518843E+02  0.57469356492E+02 0.  0.
         12    1    1    2    0    0 -0.58024712141E+00  0.29203731339E+00  0.98510772867E+00  0.11800041319E+01  0.00000000000E+00 0. -1.
         11    1    4    4    0    0  0.16513851283E+02  0.93431391987E+01  0.31746928231E+02  0.36984712878E+02  0.51100000000E-03 0. -1.
        -11    1    4    4    0    0 -0.91495820976E+01  0.13314247806E+02 -0.20640307698E+02  0.26210805965E+02  0.51100000000E-03 0.  1.
        -12    1    3    3    0    0 -0.67840220635E+01 -0.22949424318E+02 -0.12091728261E+02  0.26812477025E+02  0.00000000000E+00 0.  1.
</event>
<event>
 7    1  0.3032584E-015  0.9000777E+02  0.7816164E-02  0.1186339E+00
        -11   -1    0    0    0    0  0.00000000000E+00  0.00000000000E+00  0.45593999997E+02  0.45594000000E+02  0.51100000000E-03 0. -1.
         11   -1    0    0    0    0 -0.00000000000E+00 -0.00000000000E+00 -0.45593999997E+02  0.45594000000E+02  0.51100000000E-03 0.  1.
    9900012    2    1    2    0    0  0.17710299974E+00 -0.36503580280E+00 -0.11082988457E+01  0.90007769963E+02  0.90000031726E+02 0.  0.
         12    1    1    2    0    0 -0.17710299974E+00  0.36503580280E+00  0.11082988457E+01  0.11802300374E+01  0.00000000000E+00 0. -1.
         11    1    3    3    0    0 -0.46686888614E+01  0.52109646629E+01 -0.62163756136E+01  0.93591738115E+01  0.51100000000E-03 0. -1.
        -11    1    3    3    0    0 -0.31512807824E+02  0.74479690096E+01  0.21313160964E+02  0.38765708169E+02  0.51100000000E-03 0.  1.
         12    1    3    3    0    0  0.36358599685E+02 -0.13023969475E+02 -0.16205084196E+02  0.41882887982E+02  0.00000000000E+00 0. -1.
</event>
<event>
 7    1  0.3397571E-015  0.9000769E+02  0.7816164E-02  0.1186339E+00
        -11   -1    0    0    0    0  0.00000000000E+00  0.00000000000E+00  0.45593999997E+02  0.45594000000E+02  0.51100000000E-03 0.  1.
         11   -1    0    0    0    0 -0.00000000000E+00 -0.00000000000E+00 -0.45593999997E+02  0.45594000000E+02  0.51100000000E-03 0. -1.
    9900012    2    1    2    0    0 -0.59277511827E+00 -0.10196452952E+01  0.45448377554E-01  0.90007693081E+02  0.89999953829E+02 0.  0.
         12    1    1    2    0    0  0.59277511827E+00  0.10196452952E+01 -0.45448377554E-01  0.11803069194E+01  0.00000000000E+00 0. -1.
         11    1    3    3    0    0  0.13189324958E+02 -0.29945787601E+01 -0.37007425792E+02  0.39401463917E+02  0.51100000000E-03 0. -1.
        -11    1    3    3    0    0  0.64931931165E+01  0.65488560831E+01  0.13869863789E+01  0.93259210978E+01  0.51100000000E-03 0.  1.
        -12    1    3    3    0    0 -0.20275293192E+02 -0.45739226182E+01  0.35665887790E+02  0.41280308066E+02  0.00000000000E+00 0.  1.
</event>
<event>
 7    1  0.3032584E-015  0.9000771E+02  0.7816164E-02  0.1186339E+00
        -11   -1    0    0    0    0  0.00000000000E+00  0.00000000000E+00  0.45593999997E+02  0.45594000000E+02  0.51100000000E-03 0. -1.
         11   -1    0    0    0    0 -0.00000000000E+00 -0.00000000000E+00 -0.45593999997E+02  0.45594000000E+02  0.51100000000E-03 0.  1.
    9900012    2    1    2    0    0  0.30346377661E+00  0.73323524896E-01 -0.11382536968E+01  0.90007708476E+02  0.89999969428E+02 0.  0.
         12    1    1    2    0    0 -0.30346377661E+00 -0.73323524896E-01  0.11382536968E+01  0.11802915239E+01  0.00000000000E+00 0. -1.
         11    1    3    3    0    0 -0.37850307045E+01 -0.16383147170E+00 -0.98874267039E+01  0.10588413728E+02  0.51100000000E-03 0. -1.
        -11    1    3    3    0    0 -0.16553536521E+02  0.31849771466E+02 -0.10004789253E+02  0.37262894708E+02  0.51100000000E-03 0.  1.
         12    1    3    3    0    0  0.20642031002E+02 -0.31612616469E+02  0.18753962260E+02  0.42156400040E+02  0.00000000000E+00 0. -1.
</event>
<event>
 7    1  0.3032584E-015  0.9000774E+02  0.7816164E-02  0.1186339E+00
        -11   -1    0    0    0    0  0.00000000000E+00  0.00000000000E+00  0.45593999997E+02  0.45594000000E+02  0.51100000000E-03 0.  1.
         11   -1    0    0    0    0 -0.00000000000E+00 -0.00000000000E+00 -0.45593999997E+02  0.45594000000E+02  0.51100000000E-03 0. -1.
    9900012    2    1    2    0    0  0.62908323760E+00 -0.66823637323E-01  0.99639080748E+00  0.90007743350E+02  0.90000004762E+02 0.  0.
         12    1    1    2    0    0 -0.62908323760E+00  0.66823637323E-01 -0.99639080748E+00  0.11802566499E+01  0.00000000000E+00 0. -1.
         11    1    3    3    0    0  0.26602540946E+02  0.49873583342E+01  0.29423248072E+02  0.39978700020E+02  0.51100000000E-03 0. -1.
        -11    1    3    3    0    0  0.73374045046E+01 -0.25723664934E+00 -0.34111995770E+01  0.80956752883E+01  0.51100000000E-03 0.  1.
        -12    1    3    3    0    0 -0.33310862213E+02 -0.47969453222E+01 -0.25015657688E+02  0.41933368042E+02  0.00000000000E+00 0.  1.
</event>
<event>
 7    1  0.3032584E-015  0.9000777E+02  0.7816164E-02  0.1186339E+00
        -11   -1    0    0    0    0  0.00000000000E+00  0.00000000000E+00  0.45593999997E+02  0.45594000000E+02  0.51100000000E-03 0.  1.
         11   -1    0    0    0    0 -0.00000000000E+00 -0.00000000000E+00 -0.45593999997E+02  0.45594000000E+02  0.51100000000E-03 0. -1.
    9900012    2    1    2    0    0 -0.12011921577E+00 -0.11598623622E+01  0.18230351425E+00  0.90007769558E+02  0.90000031316E+02 0.  0.
         12    1    1    2    0    0  0.12011921577E+00  0.11598623622E+01 -0.18230351425E+00  0.11802304422E+01  0.00000000000E+00 0. -1.
         11    1    3    3    0    0 -0.20513182872E+02 -0.66786658997E+01 -0.28185209410E+02  0.35493679430E+02  0.51100000000E-03 0. -1.
        -11    1    3    3    0    0 -0.22952534486E+01  0.13420304598E+02 -0.40129756762E+01  0.14194250172E+02  0.51100000000E-03 0.  1.
        -12    1    3    3    0    0  0.22688317105E+02 -0.79015010605E+01  0.32380488601E+02  0.40319839956E+02  0.00000000000E+00 0.  1.
</event>
<event>
 7    1  0.3032584E-015  0.9000777E+02  0.7816164E-02  0.1186339E+00
        -11   -1    0    0    0    0  0.00000000000E+00  0.00000000000E+00  0.45593999997E+02  0.45594000000E+02  0.51100000000E-03 0.  1.
         11   -1    0    0    0    0 -0.00000000000E+00 -0.00000000000E+00 -0.45593999997E+02  0.45594000000E+02  0.51100000000E-03 0. -1.
    9900012    2    1    2    0    0  0.10319112656E+01  0.33727792375E+00  0.46298376974E+00  0.90007766452E+02  0.90000028169E+02 0.  0.
         12    1    1    2    0    0 -0.10319112656E+01 -0.33727792375E+00 -0.46298376974E+00  0.11802335485E+01  0.00000000000E+00 0. -1.
         11    1    3    3    0    0 -0.54281979145E+01 -0.95556352134E+01  0.25776430331E+01  0.11288035294E+02  0.51100000000E-03 0. -1.
        -11    1    3    3    0    0  0.85116807947E+01  0.38647579336E+02  0.18094096887E+02  0.43514140700E+02  0.51100000000E-03 0.  1.
         12    1    3    3    0    0 -0.20515716146E+01 -0.28754666199E+02 -0.20208756151E+02  0.35205590457E+02  0.00000000000E+00 0. -1.
</event>
<event>
 7    1  0.3032584E-015  0.9000797E+02  0.7816164E-02  0.1186339E+00
        -11   -1    0    0    0    0  0.00000000000E+00  0.00000000000E+00  0.45593999997E+02  0.45594000000E+02  0.51100000000E-03 0.  1.
         11   -1    0    0    0    0 -0.00000000000E+00 -0.00000000000E+00 -0.45593999997E+02  0.45594000000E+02  0.51100000000E-03 0. -1.
    9900012    2    1    2    0    0 -0.79059711570E+00  0.96456583705E-01  0.87069843960E+00  0.90007973117E+02  0.90000237562E+02 0.  0.
         12    1    1    2    0    0  0.79059711570E+00 -0.96456583705E-01 -0.87069843960E+00  0.11800268830E+01  0.00000000000E+00 0. -1.
         11    1    3    3    0    0 -0.43539844014E+01 -0.42594164251E+01 -0.64720214981E+01  0.88874558217E+01  0.51100000000E-03 0. -1.
        -11    1    3    3    0    0  0.41166827571E+02  0.10973556748E+02  0.41503252508E+01  0.42805979021E+02  0.51100000000E-03 0.  1.
         12    1    3    3    0    0 -0.37603440285E+02 -0.66176837394E+01  0.31923946869E+01  0.38314538275E+02  0.00000000000E+00 0. -1.
</event>
<event>
 7    1  0.3032584E-015  0.9000790E+02  0.7816164E-02  0.1186339E+00
        -11   -1    0    0    0    0  0.00000000000E+00  0.00000000000E+00  0.45593999997E+02  0.45594000000E+02  0.51100000000E-03 0.  1.
         11   -1    0    0    0    0 -0.00000000000E+00 -0.00000000000E+00 -0.45593999997E+02  0.45594000000E+02  0.51100000000E-03 0. -1.
    9900012    2    1    2    0    0  0.97105453268E+00 -0.32850372685E+00  0.58460895257E+00  0.90007902872E+02  0.90000166390E+02 0.  0.
         12    1    1    2    0    0 -0.97105453268E+00  0.32850372685E+00 -0.58460895257E+00  0.11800971280E+01  0.00000000000E+00 0. -1.
         11    1    3    3    0    0  0.87976603108E+01  0.11769878302E+01 -0.40481553922E+00  0.88852688861E+01  0.51100000000E-03 0. -1.
        -11    1    3    3    0    0 -0.40134491150E+01 -0.24867691922E+02 -0.31871294174E+02  0.40623752509E+02  0.51100000000E-03 0.  1.
        -12    1    3    3    0    0 -0.38131566632E+01  0.23362200365E+02  0.32860718666E+02  0.40498881477E+02  0.00000000000E+00 0.  1.
</event>
<event>
 7    1  0.3032584E-015  0.9000772E+02  0.7816164E-02  0.1186339E+00
        -11   -1    0    0    0    0  0.00000000000E+00  0.00000000000E+00  0.45593999997E+02  0.45594000000E+02  0.51100000000E-03 0.  1.
         11   -1    0    0    0    0 -0.00000000000E+00 -0.00000000000E+00 -0.45593999997E+02  0.45594000000E+02  0.51100000000E-03 0. -1.
    9900012    2    1    2    0    0  0.74180386109E+00 -0.31098483909E+00  0.86376280805E+00  0.90007715828E+02  0.89999976877E+02 0.  0.
         12    1    1    2    0    0 -0.74180386109E+00  0.31098483909E+00 -0.86376280805E+00  0.11802841721E+01  0.00000000000E+00 0. -1.
         11    1    3    3    0    0 -0.62405749335E+01 -0.60391784149E+01 -0.34044418162E+01  0.93277369050E+01  0.51100000000E-03 0. -1.
        -11    1    3    3    0    0  0.27669691634E+01 -0.34863789105E+02 -0.11668155583E+02  0.36868492837E+02  0.51100000000E-03 0.  1.
         12    1    3    3    0    0  0.42154096311E+01  0.40591982681E+02  0.15936360207E+02  0.43811486085E+02  0.00000000000E+00 0. -1.
</event>
<event>
 7    1  0.3032584E-015  0.9000766E+02  0.7816164E-02  0.1186339E+00
        -11   -1    0    0    0    0  0.00000000000E+00  0.00000000000E+00  0.45593999997E+02  0.45594000000E+02  0.51100000000E-03 0. -1.
         11   -1    0    0    0    0 -0.00000000000E+00 -0.00000000000E+00 -0.45593999997E+02  0.45594000000E+02  0.51100000000E-03 0.  1.
    9900012    2    1    2    0    0 -0.26674152683E-01 -0.11439541937E+01  0.28958485639E+00  0.90007660177E+02  0.89999920492E+02 0.  0.
         12    1    1    2    0    0  0.26674152683E-01  0.11439541937E+01 -0.28958485639E+00  0.11803398226E+01  0.00000000000E+00 0. -1.
         11    1    3    3    0    0 -0.13154447819E+02  0.29049011395E+02  0.18901231429E+02  0.37069409359E+02  0.51100000000E-03 0. -1.
        -11    1    3    3    0    0 -0.14214007573E+01  0.57522307161E+01  0.48134987622E+01  0.76340231149E+01  0.51100000000E-03 0.  1.
        -12    1    3    3    0    0  0.14549174424E+02 -0.35945196305E+02 -0.23425145334E+02  0.45304227703E+02  0.00000000000E+00 0.  1.
</event>
<event>
 7    1  0.3032584E-015  0.9000775E+02  0.7816164E-02  0.1186339E+00
        -11   -1    0    0    0    0  0.00000000000E+00  0.00000000000E+00  0.45593999997E+02  0.45594000000E+02  0.51100000000E-03 0. -1.
         11   -1    0    0    0    0 -0.00000000000E+00 -0.00000000000E+00 -0.45593999997E+02  0.45594000000E+02  0.51100000000E-03 0.  1.
    9900012    2    1    2    0    0  0.94596581061E+00  0.27689622426E+00 -0.64921002880E+00  0.90007747275E+02  0.90000008739E+02 0.  0.
         12    1    1    2    0    0 -0.94596581061E+00 -0.27689622426E+00  0.64921002880E+00  0.11802527252E+01  0.00000000000E+00 0. -1.
         11    1    3    3    0    0 -0.24188809051E+00 -0.32168758300E+02  0.14850373185E+02  0.35431922110E+02  0.51100000000E-03 0. -1.
        -11    1    3    3    0    0  0.19101724621E+01 -0.91478405262E+01  0.18094568076E+01  0.95187120624E+01  0.51100000000E-03 0.  1.
        -12    1    3    3    0    0 -0.72231856095E+00  0.41593495051E+02 -0.17309040021E+02  0.45057113102E+02  0.00000000000E+00 0.  1.
</event>
<event>
 7    1  0.3032584E-015  0.9000778E+02  0.7816164E-02  0.1186339E+00
        -11   -1    0    0    0    0  0.00000000000E+00  0.00000000000E+00  0.45593999997E+02  0.45594000000E+02  0.51100000000E-03 0.  1.
         11   -1    0    0    0    0 -0.00000000000E+00 -0.00000000000E+00 -0.45593999997E+02  0.45594000000E+02  0.51100000000E-03 0. -1.
    9900012    2    1    2    0    0 -0.96103742343E+00  0.42270741184E+00 -0.53912016802E+00  0.90007777546E+02  0.90000039410E+02 0.  0.
         12    1    1    2    0    0  0.96103742343E+00 -0.42270741184E+00  0.53912016802E+00  0.11802224540E+01  0.00000000000E+00 0. -1.
         11    1    3    3    0    0  0.29391685222E+01 -0.15225300178E+01 -0.92714175014E+01  0.98445920181E+01  0.51100000000E-03 0. -1.
        -11    1    3    3    0    0  0.28443277933E+02 -0.24555457977E+02  0.68841079674E+00  0.37582768468E+02  0.51100000000E-03 0.  1.
         12    1    3    3    0    0 -0.32343483878E+02  0.26500695407E+02  0.80438865366E+01  0.42580417060E+02  0.00000000000E+00 0. -1.
</event>
<event>
 7    1  0.3032584E-015  0.9000775E+02  0.7816164E-02  0.1186339E+00
        -11   -1    0    0    0    0  0.00000000000E+00  0.00000000000E+00  0.45593999997E+02  0.45594000000E+02  0.51100000000E-03 0.  1.
         11   -1    0    0    0    0 -0.00000000000E+00 -0.00000000000E+00 -0.45593999997E+02  0.45594000000E+02  0.51100000000E-03 0. -1.
    9900012    2    1    2    0    0 -0.48306584586E+00  0.90300385662E+00  0.58670311013E+00  0.90007750401E+02  0.90000011906E+02 0.  0.
         12    1    1    2    0    0  0.48306584586E+00 -0.90300385662E+00 -0.58670311013E+00  0.11802495990E+01  0.00000000000E+00 0. -1.
         11    1    3    3    0    0  0.16834900710E+02  0.14769583997E+02 -0.27515894976E+02  0.35477865916E+02  0.51100000000E-03 0. -1.
        -11    1    3    3    0    0  0.12860910412E+02 -0.11065746723E+01  0.29967167094E+01  0.13251710660E+02  0.51100000000E-03 0.  1.
        -12    1    3    3    0    0 -0.30178876967E+02 -0.12760005468E+02  0.25105881377E+02  0.41278173825E+02  0.00000000000E+00 0.  1.
</event>
<event>
 7    1  0.3032584E-015  0.9000768E+02  0.7816164E-02  0.1186339E+00
        -11   -1    0    0    0    0  0.00000000000E+00  0.00000000000E+00  0.45593999997E+02  0.45594000000E+02  0.51100000000E-03 0.  1.
         11   -1    0    0    0    0 -0.00000000000E+00 -0.00000000000E+00 -0.45593999997E+02  0.45594000000E+02  0.51100000000E-03 0. -1.
    9900012    2    1    2    0    0  0.72579478831E+00 -0.73547603074E+00  0.57049219906E+00  0.90007676139E+02  0.89999936664E+02 0.  0.
         12    1    1    2    0    0 -0.72579478831E+00  0.73547603074E+00 -0.57049219906E+00  0.11803238605E+01  0.00000000000E+00 0. -1.
         11    1    3    3    0    0 -0.25633288771E+02 -0.26954041287E+02 -0.92384999704E+01  0.38326697182E+02  0.51100000000E-03 0. -1.
        -11    1    3    3    0    0 -0.71423824958E+01 -0.13263603089E+01  0.25934282703E+01  0.77135419776E+01  0.51100000000E-03 0.  1.
        -12    1    3    3    0    0  0.33501466055E+02  0.27544925565E+02  0.72155638992E+01  0.43967436980E+02  0.00000000000E+00 0.  1.
</event>
<event>
 7    1  0.3032584E-015  0.9000775E+02  0.7816164E-02  0.1186339E+00
        -11   -1    0    0    0    0  0.00000000000E+00  0.00000000000E+00  0.45593999997E+02  0.45594000000E+02  0.51100000000E-03 0. -1.
         11   -1    0    0    0    0 -0.00000000000E+00 -0.00000000000E+00 -0.45593999997E+02  0.45594000000E+02  0.51100000000E-03 0.  1.
    9900012    2    1    2    0    0 -0.11409752570E+01  0.29063171888E+00  0.81839379624E-01  0.90007750443E+02  0.90000011949E+02 0.  0.
         12    1    1    2    0    0  0.11409752570E+01 -0.29063171888E+00 -0.81839379624E-01  0.11802495572E+01  0.00000000000E+00 0. -1.
         11    1    3    3    0    0  0.33232574384E+01  0.84235813513E+01 -0.37850466968E+01  0.98146493336E+01  0.51100000000E-03 0. -1.
        -11    1    3    3    0    0 -0.21080677571E+02  0.11342671305E+02 -0.29592773732E+02  0.38062887655E+02  0.51100000000E-03 0.  1.
         12    1    3    3    0    0  0.16616444876E+02 -0.19475620937E+02  0.33459659809E+02  0.42130213454E+02  0.00000000000E+00 0. -1.
</event>
<event>
 7    1  0.3032584E-015  0.9000761E+02  0.7816164E-02  0.1186339E+00
        -11   -1    0    0    0    0  0.00000000000E+00  0.00000000000E+00  0.45593999997E+02  0.45594000000E+02  0.51100000000E-03 0.  1.
         11   -1    0    0    0    0 -0.00000000000E+00 -0.00000000000E+00 -0.45593999997E+02  0.45594000000E+02  0.51100000000E-03 0. -1.
    9900012    2    1    2    0    0  0.13298243757E+00  0.11673435784E+01  0.11381888465E+00  0.90007605957E+02  0.89999865555E+02 0.  0.
         12    1    1    2    0    0 -0.13298243757E+00 -0.11673435784E+01 -0.11381888465E+00  0.11803940432E+01  0.00000000000E+00 0. -1.
         11    1    3    3    0    0  0.20327741596E+02 -0.18853410153E+02 -0.31122223455E+02  0.41680462399E+02  0.51100000000E-03 0. -1.
        -11    1    3    3    0    0  0.45066963645E+01  0.71067882156E+00  0.80278805956E+00  0.46324772464E+01  0.51100000000E-03 0.  1.
        -12    1    3    3    0    0 -0.24701455523E+02  0.19310074910E+02  0.30433254280E+02  0.43694666311E+02  0.00000000000E+00 0.  1.
</event>
<event>
 7    1  0.3032584E-015  0.9000787E+02  0.7816164E-02  0.1186339E+00
        -11   -1    0    0    0    0  0.00000000000E+00  0.00000000000E+00  0.45593999997E+02  0.45594000000E+02  0.51100000000E-03 0.  1.
         11   -1    0    0    0    0 -0.00000000000E+00 -0.00000000000E+00 -0.45593999997E+02  0.45594000000E+02  0.51100000000E-03 0. -1.
    9900012    2    1    2    0    0 -0.24999136493E+00  0.12144458483E+00 -0.11469324016E+01  0.90007873565E+02  0.90000136696E+02 0.  0.
         12    1    1    2    0    0  0.24999136493E+00 -0.12144458483E+00  0.11469324016E+01  0.11801264354E+01  0.00000000000E+00 0. -1.
         11    1    3    3    0    0 -0.63525014791E+01  0.14350302917E+02 -0.34610532039E+02  0.38002294630E+02  0.51100000000E-03 0. -1.
        -11    1    3    3    0    0 -0.67487722162E+01 -0.39887459527E+01 -0.55949865114E+01  0.96311938525E+01  0.51100000000E-03 0.  1.
        -12    1    3    3    0    0  0.12851282330E+02 -0.10240112380E+02  0.39058586149E+02  0.42374385082E+02  0.00000000000E+00 0.  1.
</event>
<event>
 7    1  0.3032584E-015  0.9000739E+02  0.7816164E-02  0.1186340E+00
        -11   -1    0    0    0    0  0.00000000000E+00  0.00000000000E+00  0.45593999997E+02  0.45594000000E+02  0.51100000000E-03 0. -1.
         11   -1    0    0    0    0 -0.00000000000E+00 -0.00000000000E+00 -0.45593999997E+02  0.45594000000E+02  0.51100000000E-03 0.  1.
    9900012    2    1    2    0    0 -0.34497640319E+00  0.44975006932E+00  0.10356408293E+01  0.90007391779E+02  0.89999648550E+02 0.  0.
         12    1    1    2    0    0  0.34497640319E+00 -0.44975006932E+00 -0.10356408293E+01  0.11806082208E+01  0.00000000000E+00 0. -1.
         11    1    3    3    0    0 -0.25940029585E+02  0.27047607919E+01  0.29152439564E+02  0.39116052953E+02  0.51100000000E-03 0. -1.
        -11    1    3    3    0    0 -0.39401341002E+01  0.84626405946E+01 -0.10003803755E+01  0.93883813151E+01  0.51100000000E-03 0.  1.
        -12    1    3    3    0    0  0.29535187282E+02 -0.10717651317E+02 -0.27116418359E+02  0.41502957511E+02  0.00000000000E+00 0.  1.
</event>
<event>
 7    1  0.3032584E-015  0.9000769E+02  0.7816164E-02  0.1186339E+00
        -11   -1    0    0    0    0  0.00000000000E+00  0.00000000000E+00  0.45593999997E+02  0.45594000000E+02  0.51100000000E-03 0. -1.
         11   -1    0    0    0    0 -0.00000000000E+00 -0.00000000000E+00 -0.45593999997E+02  0.45594000000E+02  0.51100000000E-03 0.  1.
    9900012    2    1    2    0    0 -0.47687833732E+00 -0.77965333931E+00  0.74689225506E+00  0.90007694820E+02  0.89999955591E+02 0.  0.
         12    1    1    2    0    0  0.47687833732E+00  0.77965333931E+00 -0.74689225506E+00  0.11803051804E+01  0.00000000000E+00 0. -1.
         11    1    3    3    0    0  0.19117848610E+02  0.17263393107E+02  0.26713964246E+02  0.37110008933E+02  0.51100000000E-03 0. -1.
        -11    1    3    3    0    0  0.70456418125E+01  0.28058705248E+01  0.31998183750E+01  0.82312098653E+01  0.51100000000E-03 0.  1.
        -12    1    3    3    0    0 -0.26640368760E+02 -0.20848916971E+02 -0.29166890366E+02  0.44666476021E+02  0.00000000000E+00 0.  1.
</event>
<event>
 7    1  0.3032584E-015  0.9000782E+02  0.7816164E-02  0.1186339E+00
        -11   -1    0    0    0    0  0.00000000000E+00  0.00000000000E+00  0.45593999997E+02  0.45594000000E+02  0.51100000000E-03 0. -1.
         11   -1    0    0    0    0 -0.00000000000E+00 -0.00000000000E+00 -0.45593999997E+02  0.45594000000E+02  0.51100000000E-03 0.  1.
    9900012    2    1    2    0    0 -0.75106876368E+00 -0.42992988290E+00 -0.80242688099E+00  0.90007816586E+02  0.90000078965E+02 0.  0.
         12    1    1    2    0    0  0.75106876368E+00  0.42992988290E+00  0.80242688099E+00  0.11801834143E+01  0.00000000000E+00 0. -1.
         11    1    3    3    0    0  0.35222779533E+01  0.54120900714E+01 -0.93345191474E+01  0.11350348404E+02  0.51100000000E-03 0. -1.
        -11    1    3    3    0    0  0.35325465518E+02 -0.45135196583E+01  0.14759426106E+02  0.38549980973E+02  0.51100000000E-03 0.  1.
         12    1    3    3    0    0 -0.39598812235E+02 -0.13285002960E+01 -0.62273338394E+01  0.40107487209E+02  0.00000000000E+00 0. -1.
</event>
<event>
 7    1  0.3032584E-015  0.9000779E+02  0.7816164E-02  0.1186339E+00
        -11   -1    0    0    0    0  0.00000000000E+00  0.00000000000E+00  0.45593999997E+02  0.45594000000E+02  0.51100000000E-03 0. -1.
         11   -1    0    0    0    0 -0.00000000000E+00 -0.00000000000E+00 -0.45593999997E+02  0.45594000000E+02  0.51100000000E-03 0.  1.
    9900012    2    1    2    0    0  0.10330626166E+01 -0.47767865628E+00 -0.31223358619E+00  0.90007794475E+02  0.90000056562E+02 0.  0.
         12    1    1    2    0    0 -0.10330626166E+01  0.47767865628E+00  0.31223358619E+00  0.11802055248E+01  0.00000000000E+00 0. -1.
         11    1    3    3    0    0 -0.81819534949E+01  0.40971606060E+01  0.16151260469E+01  0.92919169407E+01  0.51100000000E-03 0. -1.
        -11    1    3    3    0    0  0.30644530326E+02  0.27339778468E+02  0.58884707374E+01  0.41487646517E+02  0.51100000000E-03 0.  1.
         12    1    3    3    0    0 -0.21429514215E+02 -0.31914617731E+02 -0.78158303705E+01  0.39228231018E+02  0.00000000000E+00 0. -1.
</event>
<event>
 7    1  0.3032584E-015  0.9000771E+02  0.7816164E-02  0.1186339E+00
        -11   -1    0    0    0    0  0.00000000000E+00  0.00000000000E+00  0.45593999997E+02  0.45594000000E+02  0.51100000000E-03 0.  1.
         11   -1    0    0    0    0 -0.00000000000E+00 -0.00000000000E+00 -0.45593999997E+02  0.45594000000E+02  0.51100000000E-03 0. -1.
    9900012    2    1    2    0    0 -0.18403293829E+00  0.29754760680E+00  0.11272503925E+01  0.90007705059E+02  0.89999965966E+02 0.  0.
         12    1    1    2    0    0  0.18403293829E+00 -0.29754760680E+00 -0.11272503925E+01  0.11802949411E+01  0.00000000000E+00 0. -1.
         11    1    3    3    0    0  0.10647884295E+02 -0.67942140824E+01  0.44500759442E+00  0.12638703137E+02  0.51100000000E-03 0. -1.
        -11    1    3    3    0    0 -0.34502557875E+01 -0.25552480702E+02  0.25065845797E+02  0.35960119032E+02  0.51100000000E-03 0.  1.
         12    1    3    3    0    0 -0.73816614462E+01  0.32644242391E+02 -0.24383602999E+02  0.41408882890E+02  0.00000000000E+00 0. -1.
</event>
<event>
 7    1  0.3032584E-015  0.9000754E+02  0.7816164E-02  0.1186339E+00
        -11   -1    0    0    0    0  0.00000000000E+00  0.00000000000E+00  0.45593999997E+02  0.45594000000E+02  0.51100000000E-03 0. -1.
         11   -1    0    0    0    0 -0.00000000000E+00 -0.00000000000E+00 -0.45593999997E+02  0.45594000000E+02  0.51100000000E-03 0.  1.
    9900012    2    1    2    0    0  0.53019217823E+00  0.85713512460E+00 -0.61457985980E+00  0.90007537052E+02  0.89999795741E+02 0.  0.
         12    1    1    2    0    0 -0.53019217823E+00 -0.85713512460E+00  0.61457985980E+00  0.11804629481E+01  0.00000000000E+00 0. -1.
         11    1    3    3    0    0  0.28812735970E+02  0.72382802697E+01  0.17862962622E+02  0.34664850919E+02  0.51100000000E-03 0. -1.
        -11    1    3    3    0    0  0.76200501522E+01 -0.13457931708E+01  0.74735657827E+01  0.10757811550E+02  0.51100000000E-03 0.  1.
        -12    1    3    3    0    0 -0.35902593944E+02 -0.50353519742E+01 -0.25951108265E+02  0.44584874583E+02  0.00000000000E+00 0.  1.
</event>
<event>
 7    1  0.3032584E-015  0.9000802E+02  0.7816164E-02  0.1186338E+00
        -11   -1    0    0    0    0  0.00000000000E+00  0.00000000000E+00  0.45593999997E+02  0.45594000000E+02  0.51100000000E-03 0. -1.
         11   -1    0    0    0    0 -0.00000000000E+00 -0.00000000000E+00 -0.45593999997E+02  0.45594000000E+02  0.51100000000E-03 0.  1.
    9900012    2    1    2    0    0 -0.53352567732E+00  0.21697291605E+00 -0.10298708001E+01  0.90008016627E+02  0.90000281646E+02 0.  0.
         12    1    1    2    0    0  0.53352567732E+00 -0.21697291605E+00  0.10298708001E+01  0.11799833726E+01  0.00000000000E+00 0. -1.
         11    1    3    3    0    0  0.93975892808E+01 -0.59828208612E+01  0.80301828479E-01  0.11140703676E+02  0.51100000000E-03 0. -1.
        -11    1    3    3    0    0  0.20271108179E+02 -0.24885459658E+02 -0.11851332349E+02  0.34214879919E+02  0.51100000000E-03 0.  1.
         12    1    3    3    0    0 -0.30202223137E+02  0.31085253435E+02  0.10741159721E+02  0.44652433032E+02  0.00000000000E+00 0. -1.
</event>
<event>
 7    1  0.3032584E-015  0.9000775E+02  0.7816164E-02  0.1186339E+00
        -11   -1    0    0    0    0  0.00000000000E+00  0.00000000000E+00  0.45593999997E+02  0.45594000000E+02  0.51100000000E-03 0. -1.
         11   -1    0    0    0    0 -0.00000000000E+00 -0.00000000000E+00 -0.45593999997E+02  0.45594000000E+02  0.51100000000E-03 0.  1.
    9900012    2    1    2    0    0 -0.17497041791E+00  0.56639162929E+00 -0.10205726943E+01  0.90007753098E+02  0.90000014639E+02 0.  0.
         12    1    1    2    0    0  0.17497041791E+00 -0.56639162929E+00  0.10205726943E+01  0.11802469018E+01  0.00000000000E+00 0. -1.
         11    1    3    3    0    0 -0.51211379952E+01 -0.54399803158E+01 -0.36387975191E+01  0.83102519727E+01  0.51100000000E-03 0. -1.
        -11    1    3    3    0    0 -0.20462814125E+02 -0.27108404711E+02 -0.14045783776E+02  0.36754270637E+02  0.51100000000E-03 0.  1.
         12    1    3    3    0    0  0.25408981702E+02  0.33114776657E+02  0.16664008601E+02  0.44943230489E+02  0.00000000000E+00 0. -1.
</event>
<event>
 7    1  0.3032584E-015  0.9000782E+02  0.7816164E-02  0.1186339E+00
        -11   -1    0    0    0    0  0.00000000000E+00  0.00000000000E+00  0.45593999997E+02  0.45594000000E+02  0.51100000000E-03 0. -1.
         11   -1    0    0    0    0 -0.00000000000E+00 -0.00000000000E+00 -0.45593999997E+02  0.45594000000E+02  0.51100000000E-03 0.  1.
    9900012    2    1    2    0    0 -0.51028543305E+00 -0.78686977790E+00 -0.71642732938E+00  0.90007820612E+02  0.90000083044E+02 0.  0.
         12    1    1    2    0    0  0.51028543305E+00  0.78686977790E+00  0.71642732938E+00  0.11801793884E+01  0.00000000000E+00 0. -1.
         11    1    3    3    0    0 -0.16630560016E+02 -0.73350286035E+01  0.37242123376E+02  0.41440969159E+02  0.51100000000E-03 0. -1.
        -11    1    3    3    0    0  0.48197893704E+00 -0.60909420956E+01 -0.59809448030E+00  0.61391853349E+01  0.51100000000E-03 0.  1.
        -12    1    3    3    0    0  0.15638295646E+02  0.12639100921E+02 -0.37360456225E+02  0.42427666117E+02  0.00000000000E+00 0.  1.
</event>
<event>
 7    1  0.3032584E-015  0.9000774E+02  0.7816164E-02  0.1186339E+00
        -11   -1    0    0    0    0  0.00000000000E+00  0.00000000000E+00  0.45593999997E+02  0.45594000000E+02  0.51100000000E-03 0.  1.
         11   -1    0    0    0    0 -0.00000000000E+00 -0.00000000000E+00 -0.45593999997E+02  0.45594000000E+02  0.51100000000E-03 0. -1.
    9900012    2    1    2    0    0  0.33325253374E-02 -0.73281216283E+00  0.92519549805E+00  0.90007740926E+02  0.90000002306E+02 0.  0.
         12    1    1    2    0    0 -0.33325253374E-02  0.73281216283E+00 -0.92519549805E+00  0.11802590738E+01  0.00000000000E+00 0. -1.
         11    1    3    3    0    0 -0.20742567654E+02 -0.19390845415E+02  0.22455799563E+02  0.36201131655E+02  0.51100000000E-03 0. -1.
        -11    1    3    3    0    0  0.59164453201E+01  0.10198103980E+02  0.11597414258E+02  0.16538006764E+02  0.51100000000E-03 0.  1.
        -12    1    3    3    0    0  0.14829454860E+02  0.84599292730E+01 -0.33128018324E+02  0.37268602507E+02  0.00000000000E+00 0.  1.
</event>
<event>
 7    1  0.3032584E-015  0.9000770E+02  0.7816164E-02  0.1186339E+00
        -11   -1    0    0    0    0  0.00000000000E+00  0.00000000000E+00  0.45593999997E+02  0.45594000000E+02  0.51100000000E-03 0.  1.
         11   -1    0    0    0    0 -0.00000000000E+00 -0.00000000000E+00 -0.45593999997E+02  0.45594000000E+02  0.51100000000E-03 0. -1.
    9900012    2    1    2    0    0 -0.29829954890E+00 -0.88500517392E+00  0.72172665428E+00  0.90007700825E+02  0.89999961676E+02 0.  0.
         12    1    1    2    0    0  0.29829954890E+00  0.88500517392E+00 -0.72172665428E+00  0.11802991749E+01  0.00000000000E+00 0. -1.
         11    1    3    3    0    0 -0.53542440234E+01  0.33527527389E+02 -0.10904693953E+02  0.35660557656E+02  0.51100000000E-03 0. -1.
        -11    1    3    3    0    0 -0.28078132481E+01  0.70654335147E+01 -0.48620675767E+01  0.90246256082E+01  0.51100000000E-03 0.  1.
        -12    1    3    3    0    0  0.78637577225E+01 -0.41477966078E+02  0.16488488184E+02  0.45322517561E+02  0.00000000000E+00 0.  1.
</event>
<event>
 7    1  0.3032584E-015  0.9000781E+02  0.7816164E-02  0.1186339E+00
        -11   -1    0    0    0    0  0.00000000000E+00  0.00000000000E+00  0.45593999997E+02  0.45594000000E+02  0.51100000000E-03 0.  1.
         11   -1    0    0    0    0 -0.00000000000E+00 -0.00000000000E+00 -0.45593999997E+02  0.45594000000E+02  0.51100000000E-03 0. -1.
    9900012    2    1    2    0    0  0.68648508674E+00  0.50319779205E+00  0.81754188183E+00  0.90007811659E+02  0.90000073973E+02 0.  0.
         12    1    1    2    0    0 -0.68648508674E+00 -0.50319779205E+00 -0.81754188183E+00  0.11801883412E+01  0.00000000000E+00 0. -1.
         11    1    3    3    0    0 -0.10587650501E+01 -0.25782899258E+01 -0.82638761819E+01  0.87212506089E+01  0.51100000000E-03 0. -1.
        -11    1    3    3    0    0  0.81253576789E+00  0.38651865471E+02 -0.11302799072E+02  0.40278780839E+02  0.51100000000E-03 0.  1.
         12    1    3    3    0    0  0.93271436897E+00 -0.35570377753E+02  0.20384217136E+02  0.41007780211E+02  0.00000000000E+00 0. -1.
</event>
<event>
 7    1  0.3032584E-015  0.9000772E+02  0.7816164E-02  0.1186339E+00
        -11   -1    0    0    0    0  0.00000000000E+00  0.00000000000E+00  0.45593999997E+02  0.45594000000E+02  0.51100000000E-03 0.  1.
         11   -1    0    0    0    0 -0.00000000000E+00 -0.00000000000E+00 -0.45593999997E+02  0.45594000000E+02  0.51100000000E-03 0. -1.
    9900012    2    1    2    0    0  0.32918049295E+00 -0.40985336014E-01  0.11327023059E+01  0.90007722868E+02  0.89999984010E+02 0.  0.
         12    1    1    2    0    0 -0.32918049295E+00  0.40985336014E-01 -0.11327023059E+01  0.11802771320E+01  0.00000000000E+00 0. -1.
         11    1    3    3    0    0  0.11057128936E+02  0.40979047607E+01 -0.33307942650E+02  0.35333722809E+02  0.51100000000E-03 0. -1.
        -11    1    3    3    0    0  0.36262892932E+01 -0.43193018918E+01 -0.80471233687E+01  0.98266239189E+01  0.51100000000E-03 0.  1.
        -12    1    3    3    0    0 -0.14354237736E+02  0.18041179514E+00  0.42487768325E+02  0.44847376140E+02  0.00000000000E+00 0.  1.
</event>
<event>
 7    1  0.3032584E-015  0.9000770E+02  0.7816164E-02  0.1186339E+00
        -11   -1    0    0    0    0  0.00000000000E+00  0.00000000000E+00  0.45593999997E+02  0.45594000000E+02  0.51100000000E-03 0. -1.
         11   -1    0    0    0    0 -0.00000000000E+00 -0.00000000000E+00 -0.45593999997E+02  0.45594000000E+02  0.51100000000E-03 0.  1.
    9900012    2    1    2    0    0  0.24141561339E+00  0.10690969915E+01 -0.43802429542E+00  0.90007697005E+02  0.89999957806E+02 0.  0.
         12    1    1    2    0    0 -0.24141561339E+00 -0.10690969915E+01  0.43802429542E+00  0.11803029946E+01  0.00000000000E+00 0. -1.
         11    1    3    3    0    0 -0.62118519017E+01  0.66247752930E+01 -0.60059060781E+01  0.10887867551E+02  0.51100000000E-03 0. -1.
        -11    1    3    3    0    0 -0.27274762494E+02  0.19460256893E+02 -0.89641168048E+01  0.34683852984E+02  0.51100000000E-03 0.  1.
         12    1    3    3    0    0  0.33728030009E+02 -0.25015935194E+02  0.14531998587E+02  0.44435976471E+02  0.00000000000E+00 0. -1.
</event>
<event>
 7    1  0.3032584E-015  0.9000772E+02  0.7816164E-02  0.1186339E+00
        -11   -1    0    0    0    0  0.00000000000E+00  0.00000000000E+00  0.45593999997E+02  0.45594000000E+02  0.51100000000E-03 0. -1.
         11   -1    0    0    0    0 -0.00000000000E+00 -0.00000000000E+00 -0.45593999997E+02  0.45594000000E+02  0.51100000000E-03 0.  1.
    9900012    2    1    2    0    0  0.45477431533E+00 -0.86391330688E+00 -0.66325364188E+00  0.90007715597E+02  0.89999976642E+02 0.  0.
         12    1    1    2    0    0 -0.45477431533E+00  0.86391330688E+00  0.66325364188E+00  0.11802844035E+01  0.00000000000E+00 0. -1.
         11    1    3    3    0    0 -0.32268105200E+01 -0.21775080685E+01 -0.95463202987E+01  0.10309514005E+02  0.51100000000E-03 0. -1.
        -11    1    3    3    0    0 -0.22512278585E+02 -0.86364732039E+01 -0.25665596935E+02  0.35215255540E+02  0.51100000000E-03 0.  1.
         12    1    3    3    0    0  0.26193863420E+02  0.99500679655E+01  0.34548663592E+02  0.44482946051E+02  0.00000000000E+00 0. -1.
</event>
<event>
 7    1  0.3032584E-015  0.9000770E+02  0.7816164E-02  0.1186339E+00
        -11   -1    0    0    0    0  0.00000000000E+00  0.00000000000E+00  0.45593999997E+02  0.45594000000E+02  0.51100000000E-03 0.  1.
         11   -1    0    0    0    0 -0.00000000000E+00 -0.00000000000E+00 -0.45593999997E+02  0.45594000000E+02  0.51100000000E-03 0. -1.
    9900012    2    1    2    0    0 -0.96490975983E+00  0.48176527434E+00  0.47954704064E+00  0.90007697501E+02  0.89999958308E+02 0.  0.
         12    1    1    2    0    0  0.96490975983E+00 -0.48176527434E+00 -0.47954704064E+00  0.11803024987E+01  0.00000000000E+00 0. -1.
         11    1    3    3    0    0  0.78600287134E+01  0.16445860386E+02 -0.72507562724E+01  0.19616825482E+02  0.51100000000E-03 0. -1.
        -11    1    3    3    0    0 -0.10679079987E+02  0.75979231146E+01 -0.26051225761E+02  0.29162262411E+02  0.51100000000E-03 0.  1.
        -12    1    3    3    0    0  0.18541415133E+01 -0.23562018226E+02  0.33781529074E+02  0.41228609608E+02  0.00000000000E+00 0.  1.
</event>
<event>
 7    1  0.3032584E-015  0.9000781E+02  0.7816164E-02  0.1186339E+00
        -11   -1    0    0    0    0  0.00000000000E+00  0.00000000000E+00  0.45593999997E+02  0.45594000000E+02  0.51100000000E-03 0. -1.
         11   -1    0    0    0    0 -0.00000000000E+00 -0.00000000000E+00 -0.45593999997E+02  0.45594000000E+02  0.51100000000E-03 0.  1.
    9900012    2    1    2    0    0  0.10044103948E-01  0.51359496178E+00 -0.10625317090E+01  0.90007807515E+02  0.90000069774E+02 0.  0.
         12    1    1    2    0    0 -0.10044103948E-01 -0.51359496178E+00  0.10625317090E+01  0.11801924849E+01  0.00000000000E+00 0. -1.
         11    1    3    3    0    0  0.35327023987E+00 -0.57545615509E+01  0.14569423884E+02  0.15668691429E+02  0.51100000000E-03 0. -1.
        -11    1    3    3    0    0  0.21294890846E+02  0.30268183658E+02  0.28407987798E+01  0.37117454871E+02  0.51100000000E-03 0.  1.
         12    1    3    3    0    0 -0.21638116982E+02 -0.24000027145E+02 -0.18472754373E+02  0.37221661216E+02  0.00000000000E+00 0. -1.
</event>
<event>
 7    1  0.3032584E-015  0.9000795E+02  0.7816164E-02  0.1186339E+00
        -11   -1    0    0    0    0  0.00000000000E+00  0.00000000000E+00  0.45593999997E+02  0.45594000000E+02  0.51100000000E-03 0. -1.
         11   -1    0    0    0    0 -0.00000000000E+00 -0.00000000000E+00 -0.45593999997E+02  0.45594000000E+02  0.51100000000E-03 0.  1.
    9900012    2    1    2    0    0  0.31282425167E+00 -0.91945130971E+00 -0.67027223089E+00  0.90007951447E+02  0.90000215606E+02 0.  0.
         12    1    1    2    0    0 -0.31282425167E+00  0.91945130971E+00  0.67027223089E+00  0.11800485528E+01  0.00000000000E+00 0. -1.
         11    1    3    3    0    0 -0.14805603621E+02  0.10603769081E+02  0.38059564487E+02  0.42192135126E+02  0.51100000000E-03 0. -1.
        -11    1    3    3    0    0  0.22413838412E+01 -0.94071264206E+01 -0.35632962390E+01  0.10306061778E+02  0.51100000000E-03 0.  1.
        -12    1    3    3    0    0  0.12877044032E+02 -0.21160939697E+01 -0.35166540479E+02  0.37509754544E+02  0.00000000000E+00 0.  1.
</event>
<event>
 7    1  0.3032584E-015  0.9000773E+02  0.7816164E-02  0.1186339E+00
        -11   -1    0    0    0    0  0.00000000000E+00  0.00000000000E+00  0.45593999997E+02  0.45594000000E+02  0.51100000000E-03 0. -1.
         11   -1    0    0    0    0 -0.00000000000E+00 -0.00000000000E+00 -0.45593999997E+02  0.45594000000E+02  0.51100000000E-03 0.  1.
    9900012    2    1    2    0    0 -0.16782708994E+00 -0.11099372917E+01  0.36455359347E+00  0.90007734756E+02  0.89999996055E+02 0.  0.
         12    1    1    2    0    0  0.16782708994E+00  0.11099372917E+01 -0.36455359347E+00  0.11802652440E+01  0.00000000000E+00 0. -1.
         11    1    3    3    0    0  0.46406884275E+01 -0.22721883394E+02  0.28639522905E+02  0.36851624748E+02  0.51100000000E-03 0. -1.
        -11    1    3    3    0    0  0.19022492405E+01 -0.10413101516E+02 -0.11375459145E+01  0.10646372450E+02  0.51100000000E-03 0.  1.
        -12    1    3    3    0    0 -0.67107647580E+01  0.32025047619E+02 -0.27137423397E+02  0.42509737558E+02  0.00000000000E+00 0.  1.
</event>
<event>
 7    1  0.3032584E-015  0.9000766E+02  0.7816164E-02  0.1186339E+00
        -11   -1    0    0    0    0  0.00000000000E+00  0.00000000000E+00  0.45593999997E+02  0.45594000000E+02  0.51100000000E-03 0.  1.
         11   -1    0    0    0    0 -0.00000000000E+00 -0.00000000000E+00 -0.45593999997E+02  0.45594000000E+02  0.51100000000E-03 0. -1.
    9900012    2    1    2    0    0 -0.21733041813E+00  0.13813848667E+00  0.11519051455E+01  0.90007660974E+02  0.89999921299E+02 0.  0.
         12    1    1    2    0    0  0.21733041813E+00 -0.13813848667E+00 -0.11519051455E+01  0.11803390260E+01  0.00000000000E+00 0. -1.
         11    1    3    3    0    0 -0.85783329789E+01  0.32695340486E+01  0.12100395443E+01  0.92596892795E+01  0.51100000000E-03 0. -1.
        -11    1    3    3    0    0 -0.33578219906E+02  0.12599920676E+02  0.18786690340E+01  0.35913566388E+02  0.51100000000E-03 0.  1.
         12    1    3    3    0    0  0.41939222466E+02 -0.15731316238E+02 -0.19368034328E+01  0.44834405307E+02  0.00000000000E+00 0. -1.
</event>
<event>
 7    1  0.3032584E-015  0.9000771E+02  0.7816164E-02  0.1186339E+00
        -11   -1    0    0    0    0  0.00000000000E+00  0.00000000000E+00  0.45593999997E+02  0.45594000000E+02  0.51100000000E-03 0.  1.
         11   -1    0    0    0    0 -0.00000000000E+00 -0.00000000000E+00 -0.45593999997E+02  0.45594000000E+02  0.51100000000E-03 0. -1.
    9900012    2    1    2    0    0 -0.10479562050E+01  0.53474121898E+00  0.94492524260E-01  0.90007707995E+02  0.89999968941E+02 0.  0.
         12    1    1    2    0    0  0.10479562050E+01 -0.53474121898E+00 -0.94492524260E-01  0.11802920046E+01  0.00000000000E+00 0. -1.
         11    1    3    3    0    0 -0.64668712148E-01  0.97713262675E-01  0.96772749448E+01  0.96779843223E+01  0.51100000000E-03 0. -1.
        -11    1    3    3    0    0 -0.33081006769E+02  0.58419141825E+01  0.17598429886E+02  0.37923418950E+02  0.51100000000E-03 0.  1.
         12    1    3    3    0    0  0.32097719276E+02 -0.54048862262E+01 -0.27181212306E+02  0.42406304723E+02  0.00000000000E+00 0. -1.
</event>
<event>
 7    1  0.3032584E-015  0.9000769E+02  0.7816164E-02  0.1186339E+00
        -11   -1    0    0    0    0  0.00000000000E+00  0.00000000000E+00  0.45593999997E+02  0.45594000000E+02  0.51100000000E-03 0.  1.
         11   -1    0    0    0    0 -0.00000000000E+00 -0.00000000000E+00 -0.45593999997E+02  0.45594000000E+02  0.51100000000E-03 0. -1.
    9900012    2    1    2    0    0 -0.12917856865E+00 -0.42628220186E+00  0.10930331492E+01  0.90007692801E+02  0.89999953546E+02 0.  0.
         12    1    1    2    0    0  0.12917856865E+00  0.42628220186E+00 -0.10930331492E+01  0.11803071987E+01  0.00000000000E+00 0. -1.
         11    1    3    3    0    0 -0.99798396577E+01 -0.33928759539E+01  0.45780679858E+01  0.11492063069E+02  0.51100000000E-03 0. -1.
        -11    1    3    3    0    0 -0.26995893646E+02 -0.15564996599E+02  0.13436532133E+02  0.33935052510E+02  0.51100000000E-03 0.  1.
         12    1    3    3    0    0  0.36846554735E+02  0.18531590351E+02 -0.16921566969E+02  0.44580577222E+02  0.00000000000E+00 0. -1.
</event>
<event>
 7    1  0.3032584E-015  0.9000775E+02  0.7816164E-02  0.1186339E+00
        -11   -1    0    0    0    0  0.00000000000E+00  0.00000000000E+00  0.45593999997E+02  0.45594000000E+02  0.51100000000E-03 0.  1.
         11   -1    0    0    0    0 -0.00000000000E+00 -0.00000000000E+00 -0.45593999997E+02  0.45594000000E+02  0.51100000000E-03 0. -1.
    9900012    2    1    2    0    0 -0.49132662003E-01 -0.14766980760E+00  0.11699424847E+01  0.90007751802E+02  0.90000013326E+02 0.  0.
         12    1    1    2    0    0  0.49132662003E-01  0.14766980760E+00 -0.11699424847E+01  0.11802481977E+01  0.00000000000E+00 0. -1.
         11    1    3    3    0    0  0.20762897193E+02 -0.33844291818E+02  0.28728821261E+01  0.39809388848E+02  0.51100000000E-03 0. -1.
        -11    1    3    3    0    0  0.72097923758E+01  0.44127666429E+01 -0.44901634719E+01  0.95715820956E+01  0.51100000000E-03 0.  1.
        -12    1    3    3    0    0 -0.28021822231E+02  0.29283855367E+02  0.27872238305E+01  0.40626780859E+02  0.00000000000E+00 0.  1.
</event>
<event>
 7    1  0.3032584E-015  0.9000774E+02  0.7816164E-02  0.1186339E+00
        -11   -1    0    0    0    0  0.00000000000E+00  0.00000000000E+00  0.45593999997E+02  0.45594000000E+02  0.51100000000E-03 0.  1.
         11   -1    0    0    0    0 -0.00000000000E+00 -0.00000000000E+00 -0.45593999997E+02  0.45594000000E+02  0.51100000000E-03 0. -1.
    9900012    2    1    2    0    0 -0.94551627584E+00  0.38617458855E+00 -0.59150508173E+00  0.90007741510E+02  0.90000002898E+02 0.  0.
         12    1    1    2    0    0  0.94551627584E+00 -0.38617458855E+00  0.59150508173E+00  0.11802584897E+01  0.00000000000E+00 0. -1.
         11    1    3    3    0    0  0.45820941541E+01 -0.57545138008E+01 -0.16078069457E+02  0.17680903078E+02  0.51100000000E-03 0. -1.
        -11    1    3    3    0    0  0.27639376210E+02 -0.13857508226E+02  0.86999077849E+00  0.30930931698E+02  0.51100000000E-03 0.  1.
         12    1    3    3    0    0 -0.33166986639E+02  0.19998196616E+02  0.14616573597E+02  0.41395906734E+02  0.00000000000E+00 0. -1.
</event>
<event>
 7    1  0.3032584E-015  0.9000772E+02  0.7816164E-02  0.1186339E+00
        -11   -1    0    0    0    0  0.00000000000E+00  0.00000000000E+00  0.45593999997E+02  0.45594000000E+02  0.51100000000E-03 0. -1.
         11   -1    0    0    0    0 -0.00000000000E+00 -0.00000000000E+00 -0.45593999997E+02  0.45594000000E+02  0.51100000000E-03 0.  1.
    9900012    2    1    2    0    0  0.24436719549E+00  0.58589992749E+00 -0.99501871894E+00  0.90007721939E+02  0.89999983068E+02 0.  0.
         12    1    1    2    0    0 -0.24436719549E+00 -0.58589992749E+00  0.99501871894E+00  0.11802780614E+01  0.00000000000E+00 0. -1.
         11    1    3    3    0    0  0.16083762789E+02 -0.20445814259E+02 -0.26797855737E+02  0.37347607936E+02  0.51100000000E-03 0. -1.
        -11    1    3    3    0    0  0.12006319870E+01 -0.75314583424E+01 -0.34459527664E+01  0.83689290032E+01  0.51100000000E-03 0.  1.
        -12    1    3    3    0    0 -0.17040027580E+02  0.28563172528E+02  0.29248789785E+02  0.44291185000E+02  0.00000000000E+00 0.  1.
</event>
<event>
 7    1  0.3032584E-015  0.9000775E+02  0.7816164E-02  0.1186339E+00
        -11   -1    0    0    0    0  0.00000000000E+00  0.00000000000E+00  0.45593999997E+02  0.45594000000E+02  0.51100000000E-03 0.  1.
         11   -1    0    0    0    0 -0.00000000000E+00 -0.00000000000E+00 -0.45593999997E+02  0.45594000000E+02  0.51100000000E-03 0. -1.
    9900012    2    1    2    0    0 -0.40424761286E+00 -0.10116754513E+01  0.45396783022E+00  0.90007749966E+02  0.90000011466E+02 0.  0.
         12    1    1    2    0    0  0.40424761286E+00  0.10116754513E+01 -0.45396783022E+00  0.11802500338E+01  0.00000000000E+00 0. -1.
         11    1    3    3    0    0  0.20569486341E+02  0.34782878311E+02  0.74314334160E+01  0.41087450576E+02  0.51100000000E-03 0. -1.
        -11    1    3    3    0    0 -0.61588434184E+01 -0.18655932775E+00  0.56284945911E+01  0.83454243905E+01  0.51100000000E-03 0.  1.
        -12    1    3    3    0    0 -0.14814890536E+02 -0.35607994435E+02 -0.12605960177E+02  0.40574875000E+02  0.00000000000E+00 0.  1.
</event>
<event>
 7    1  0.3032584E-015  0.9000806E+02  0.7816164E-02  0.1186338E+00
        -11   -1    0    0    0    0  0.00000000000E+00  0.00000000000E+00  0.45593999997E+02  0.45594000000E+02  0.51100000000E-03 0.  1.
         11   -1    0    0    0    0 -0.00000000000E+00 -0.00000000000E+00 -0.45593999997E+02  0.45594000000E+02  0.51100000000E-03 0. -1.
    9900012    2    1    2    0    0  0.25957343206E+00 -0.80384290839E+00  0.82384504270E+00  0.90008058289E+02  0.90000323857E+02 0.  0.
         12    1    1    2    0    0 -0.25957343206E+00  0.80384290839E+00 -0.82384504270E+00  0.11799417114E+01  0.00000000000E+00 0. -1.
         11    1    3    3    0    0  0.72653577556E+01  0.64369112281E+01 -0.17692230367E+02  0.20180046211E+02  0.51100000000E-03 0. -1.
        -11    1    3    3    0    0  0.30160461587E+01  0.28731085743E+02  0.14343517689E+02  0.32253810975E+02  0.51100000000E-03 0.  1.
         12    1    3    3    0    0 -0.10021830482E+02 -0.35971839880E+02  0.41725577202E+01  0.37574201103E+02  0.00000000000E+00 0. -1.
</event>
<event>
 7    1  0.3032584E-015  0.9000776E+02  0.7816164E-02  0.1186339E+00
        -11   -1    0    0    0    0  0.00000000000E+00  0.00000000000E+00  0.45593999997E+02  0.45594000000E+02  0.51100000000E-03 0.  1.
         11   -1    0    0    0    0 -0.00000000000E+00 -0.00000000000E+00 -0.45593999997E+02  0.45594000000E+02  0.51100000000E-03 0. -1.
    9900012    2    1    2    0    0  0.32620458342E-02 -0.19946384745E+00  0.11632541634E+01  0.90007764127E+02  0.90000025813E+02 0.  0.
         12    1    1    2    0    0 -0.32620458342E-02  0.19946384745E+00 -0.11632541634E+01  0.11802358731E+01  0.00000000000E+00 0. -1.
         11    1    3    3    0    0 -0.22644732388E+02  0.57600676604E+01 -0.29455219667E+02  0.37597503245E+02  0.51100000000E-03 0. -1.
        -11    1    3    3    0    0 -0.29637017795E+01 -0.62585264546E+01 -0.49981029723E+01  0.85401238400E+01  0.51100000000E-03 0.  1.
        -12    1    3    3    0    0  0.25611696213E+02  0.29899494673E+00  0.35616576803E+02  0.43870137042E+02  0.00000000000E+00 0.  1.
</event>
<event>
 7    1  0.3032584E-015  0.9000773E+02  0.7816164E-02  0.1186339E+00
        -11   -1    0    0    0    0  0.00000000000E+00  0.00000000000E+00  0.45593999997E+02  0.45594000000E+02  0.51100000000E-03 0. -1.
         11   -1    0    0    0    0 -0.00000000000E+00 -0.00000000000E+00 -0.45593999997E+02  0.45594000000E+02  0.51100000000E-03 0.  1.
    9900012    2    1    2    0    0 -0.17479118404E+00  0.27932640223E+00 -0.11333437689E+01  0.90007727449E+02  0.89999988651E+02 0.  0.
         12    1    1    2    0    0  0.17479118404E+00 -0.27932640223E+00  0.11333437689E+01  0.11802725514E+01  0.00000000000E+00 0. -1.
         11    1    3    3    0    0  0.29852161657E+01  0.13792902168E+01 -0.84111512602E+01  0.90311362984E+01  0.51100000000E-03 0. -1.
        -11    1    3    3    0    0 -0.33580274160E+02  0.23394729104E+02  0.89161114711E+01  0.41886098010E+02  0.51100000000E-03 0.  1.
         12    1    3    3    0    0  0.30420266810E+02 -0.24494692918E+02 -0.16383039798E+01  0.39090493140E+02  0.00000000000E+00 0. -1.
</event>
<event>
 7    1  0.3032584E-015  0.9000777E+02  0.7816164E-02  0.1186339E+00
        -11   -1    0    0    0    0  0.00000000000E+00  0.00000000000E+00  0.45593999997E+02  0.45594000000E+02  0.51100000000E-03 0.  1.
         11   -1    0    0    0    0 -0.00000000000E+00 -0.00000000000E+00 -0.45593999997E+02  0.45594000000E+02  0.51100000000E-03 0. -1.
    9900012    2    1    2    0    0  0.48305507149E+00 -0.51775416120E+00  0.94421040062E+00  0.90007769152E+02  0.90000030905E+02 0.  0.
         12    1    1    2    0    0 -0.48305507149E+00  0.51775416120E+00 -0.94421040062E+00  0.11802308478E+01  0.00000000000E+00 0. -1.
         11    1    3    3    0    0  0.33746161277E+02 -0.10914876783E+02 -0.20571114664E+02  0.41001325526E+02  0.51100000000E-03 0. -1.
        -11    1    3    3    0    0 -0.62883987769E+01  0.38970919185E+00 -0.63556470928E+01  0.89493062669E+01  0.51100000000E-03 0.  1.
        -12    1    3    3    0    0 -0.26974707428E+02  0.10007413430E+02  0.27870972157E+02  0.40057137359E+02  0.00000000000E+00 0.  1.
</event>
<event>
 7    1  0.3032584E-015  0.9000774E+02  0.7816164E-02  0.1186339E+00
        -11   -1    0    0    0    0  0.00000000000E+00  0.00000000000E+00  0.45593999997E+02  0.45594000000E+02  0.51100000000E-03 0. -1.
         11   -1    0    0    0    0 -0.00000000000E+00 -0.00000000000E+00 -0.45593999997E+02  0.45594000000E+02  0.51100000000E-03 0.  1.
    9900012    2    1    2    0    0  0.13455885757E+00  0.11721480931E+01 -0.31385627616E-01  0.90007736345E+02  0.89999997664E+02 0.  0.
         12    1    1    2    0    0 -0.13455885757E+00 -0.11721480931E+01  0.31385627616E-01  0.11802636553E+01  0.00000000000E+00 0. -1.
         11    1    3    3    0    0 -0.91913465331E+01 -0.29805913460E+00 -0.43900891708E+01  0.10190317636E+02  0.51100000000E-03 0. -1.
        -11    1    3    3    0    0 -0.25934454733E+02  0.13614005920E+02 -0.19825444015E+02  0.35369270987E+02  0.51100000000E-03 0.  1.
         12    1    3    3    0    0  0.35260360124E+02 -0.12143798693E+02  0.24184147558E+02  0.44448147721E+02  0.00000000000E+00 0. -1.
</event>
<event>
 7    1  0.3032584E-015  0.9000776E+02  0.7816164E-02  0.1186339E+00
        -11   -1    0    0    0    0  0.00000000000E+00  0.00000000000E+00  0.45593999997E+02  0.45594000000E+02  0.51100000000E-03 0.  1.
         11   -1    0    0    0    0 -0.00000000000E+00 -0.00000000000E+00 -0.45593999997E+02  0.45594000000E+02  0.51100000000E-03 0. -1.
    9900012    2    1    2    0    0 -0.15931633172E+00 -0.57238464974E+00  0.10197793368E+01  0.90007764525E+02  0.90000026217E+02 0.  0.
         12    1    1    2    0    0  0.15931633172E+00  0.57238464974E+00 -0.10197793368E+01  0.11802354750E+01  0.00000000000E+00 0. -1.
         11    1    3    3    0    0  0.20830707654E+02 -0.29489966307E+02  0.61268221719E+01  0.36621229422E+02  0.51100000000E-03 0. -1.
        -11    1    3    3    0    0  0.51833713668E+01 -0.60834373254E+01  0.36934836786E+01  0.88043949459E+01  0.51100000000E-03 0.  1.
        -12    1    3    3    0    0 -0.26173395353E+02  0.35001018983E+02 -0.88005265137E+01  0.44582140158E+02  0.00000000000E+00 0.  1.
</event>
<event>
 7    1  0.3032584E-015  0.9000771E+02  0.7816164E-02  0.1186339E+00
        -11   -1    0    0    0    0  0.00000000000E+00  0.00000000000E+00  0.45593999997E+02  0.45594000000E+02  0.51100000000E-03 0. -1.
         11   -1    0    0    0    0 -0.00000000000E+00 -0.00000000000E+00 -0.45593999997E+02  0.45594000000E+02  0.51100000000E-03 0.  1.
    9900012    2    1    2    0    0 -0.10324313319E+01 -0.47855620773E+00 -0.31328517554E+00  0.90007712704E+02  0.89999973712E+02 0.  0.
         12    1    1    2    0    0  0.10324313319E+01  0.47855620773E+00  0.31328517554E+00  0.11802872956E+01  0.00000000000E+00 0. -1.
         11    1    3    3    0    0 -0.58095244753E+00 -0.45571342392E+01 -0.84134105058E+01  0.95859509085E+01  0.51100000000E-03 0. -1.
        -11    1    3    3    0    0  0.32669111076E+02 -0.17148059850E+02 -0.82719138886E+01  0.37812052771E+02  0.51100000000E-03 0.  1.
         12    1    3    3    0    0 -0.33120589960E+02  0.21226637881E+02  0.16372039219E+02  0.42609709025E+02  0.00000000000E+00 0. -1.
</event>
<event>
 7    1  0.3032584E-015  0.9000771E+02  0.7816164E-02  0.1186339E+00
        -11   -1    0    0    0    0  0.00000000000E+00  0.00000000000E+00  0.45593999997E+02  0.45594000000E+02  0.51100000000E-03 0.  1.
         11   -1    0    0    0    0 -0.00000000000E+00 -0.00000000000E+00 -0.45593999997E+02  0.45594000000E+02  0.51100000000E-03 0. -1.
    9900012    2    1    2    0    0  0.79333036808E+00 -0.29132404766E+00 -0.82391967425E+00  0.90007709187E+02  0.89999970148E+02 0.  0.
         12    1    1    2    0    0 -0.79333036808E+00  0.29132404766E+00  0.82391967425E+00  0.11802908130E+01  0.00000000000E+00 0. -1.
         11    1    3    3    0    0 -0.20935637112E+02 -0.25315861560E+02  0.21684556043E+02  0.39362592888E+02  0.51100000000E-03 0. -1.
        -11    1    3    3    0    0  0.55242777722E+01 -0.31361438253E+01  0.49916937657E+01  0.80789881736E+01  0.51100000000E-03 0.  1.
        -12    1    3    3    0    0  0.16204689708E+02  0.28160681338E+02 -0.27500169483E+02  0.42566128125E+02  0.00000000000E+00 0.  1.
</event>
<event>
 7    1  0.3032584E-015  0.9000772E+02  0.7816164E-02  0.1186339E+00
        -11   -1    0    0    0    0  0.00000000000E+00  0.00000000000E+00  0.45593999997E+02  0.45594000000E+02  0.51100000000E-03 0. -1.
         11   -1    0    0    0    0 -0.00000000000E+00 -0.00000000000E+00 -0.45593999997E+02  0.45594000000E+02  0.51100000000E-03 0.  1.
    9900012    2    1    2    0    0 -0.79869144774E-01  0.11593143245E+01  0.20659963531E+00  0.90007715207E+02  0.89999976248E+02 0.  0.
         12    1    1    2    0    0  0.79869144774E-01 -0.11593143245E+01 -0.20659963531E+00  0.11802847930E+01  0.00000000000E+00 0. -1.
         11    1    3    3    0    0  0.17998619161E+02 -0.95082416209E+01 -0.23798616370E+02  0.31316626443E+02  0.51100000000E-03 0. -1.
        -11    1    3    3    0    0 -0.87253055743E+01 -0.55344016961E+01 -0.13368805672E+02  0.16896316902E+02  0.51100000000E-03 0.  1.
        -12    1    3    3    0    0 -0.93531827314E+01  0.16201957641E+02  0.37374021677E+02  0.41794771861E+02  0.00000000000E+00 0.  1.
</event>
<event>
 7    1  0.3497202E-015  0.9000782E+02  0.7816164E-02  0.1186339E+00
        -11   -1    0    0    0    0  0.00000000000E+00  0.00000000000E+00  0.45593999997E+02  0.45594000000E+02  0.51100000000E-03 0. -1.
         11   -1    0    0    0    0 -0.00000000000E+00 -0.00000000000E+00 -0.45593999997E+02  0.45594000000E+02  0.51100000000E-03 0.  1.
    9900012    2    1    2    0    0 -0.66839833706E+00 -0.96723540595E+00  0.10257845483E+00  0.90007820773E+02  0.90000083208E+02 0.  0.
         12    1    1    2    0    0  0.66839833706E+00  0.96723540595E+00 -0.10257845483E+00  0.11801792266E+01  0.00000000000E+00 0. -1.
         11    1    3    3    0    0 -0.19688693795E+02  0.18388397711E+02  0.24536465200E+02  0.36439209082E+02  0.51100000000E-03 0. -1.
        -11    1    3    3    0    0  0.13439887872E+01  0.91176185510E+01  0.35814084122E+01  0.98875558344E+01  0.51100000000E-03 0.  1.
        -12    1    3    3    0    0  0.17676306671E+02 -0.28473251668E+02 -0.28015295157E+02  0.43681055857E+02  0.00000000000E+00 0.  1.
</event>
<event>
 7    1  0.3032584E-015  0.9000853E+02  0.7816164E-02  0.1186337E+00
        -11   -1    0    0    0    0  0.00000000000E+00  0.00000000000E+00  0.45593999997E+02  0.45594000000E+02  0.51100000000E-03 0.  1.
         11   -1    0    0    0    0 -0.00000000000E+00 -0.00000000000E+00 -0.45593999997E+02  0.45594000000E+02  0.51100000000E-03 0. -1.
    9900012    2    1    2    0    0  0.10016833693E+01  0.28546844741E+00  0.55343542677E+00  0.90008528687E+02  0.90000800462E+02 0.  0.
         12    1    1    2    0    0 -0.10016833693E+01 -0.28546844741E+00 -0.55343542677E+00  0.11794713131E+01  0.00000000000E+00 0. -1.
         11    1    3    3    0    0  0.36978562960E+01 -0.31353811111E+02 -0.16249144423E+02  0.35507327513E+02  0.51100000000E-03 0. -1.
        -11    1    3    3    0    0  0.12754652859E+02 -0.11678699668E+01 -0.30402102091E+01  0.13163888794E+02  0.51100000000E-03 0.  1.
        -12    1    3    3    0    0 -0.15450825786E+02  0.32807149525E+02  0.19842790059E+02  0.41337312379E+02  0.00000000000E+00 0.  1.
</event>
<event>
 7    1  0.3032584E-015  0.9000768E+02  0.7816164E-02  0.1186339E+00
        -11   -1    0    0    0    0  0.00000000000E+00  0.00000000000E+00  0.45593999997E+02  0.45594000000E+02  0.51100000000E-03 0. -1.
         11   -1    0    0    0    0 -0.00000000000E+00 -0.00000000000E+00 -0.45593999997E+02  0.45594000000E+02  0.51100000000E-03 0.  1.
    9900012    2    1    2    0    0 -0.97231636967E+00  0.53606827996E+00 -0.40047022131E+00  0.90007684482E+02  0.89999945117E+02 0.  0.
         12    1    1    2    0    0  0.97231636967E+00 -0.53606827996E+00  0.40047022131E+00  0.11803155178E+01  0.00000000000E+00 0. -1.
         11    1    3    3    0    0 -0.17067687705E+02 -0.33409610379E+01  0.37514839210E+02  0.41350104540E+02  0.51100000000E-03 0. -1.
        -11    1    3    3    0    0  0.33705849943E+01  0.24654113253E+01  0.34119524749E+01  0.53926353630E+01  0.51100000000E-03 0.  1.
        -12    1    3    3    0    0  0.12724786341E+02  0.14116179926E+01 -0.41327261906E+02  0.43264944579E+02  0.00000000000E+00 0.  1.
</event>
<event>
 7    1  0.3032584E-015  0.9000793E+02  0.7816164E-02  0.1186339E+00
        -11   -1    0    0    0    0  0.00000000000E+00  0.00000000000E+00  0.45593999997E+02  0.45594000000E+02  0.51100000000E-03 0.  1.
         11   -1    0    0    0    0 -0.00000000000E+00 -0.00000000000E+00 -0.45593999997E+02  0.45594000000E+02  0.51100000000E-03 0. -1.
    9900012    2    1    2    0    0  0.22302052899E+00 -0.91326758528E+00 -0.71327609152E+00  0.90007932789E+02  0.90000196702E+02 0.  0.
         12    1    1    2    0    0 -0.22302052899E+00  0.91326758528E+00  0.71327609152E+00  0.11800672106E+01  0.00000000000E+00 0. -1.
         11    1    3    3    0    0  0.77832850114E+01 -0.60631968438E+01  0.18452985706E+01  0.10037280937E+02  0.51100000000E-03 0. -1.
        -11    1    3    3    0    0 -0.29933751625E+02 -0.46534546569E+01  0.27723686146E+02  0.41064423780E+02  0.51100000000E-03 0.  1.
         12    1    3    3    0    0  0.22373487143E+02  0.98033839154E+01 -0.30282260809E+02  0.38906228072E+02  0.00000000000E+00 0. -1.
</event>
<event>
 7    1  0.3032584E-015  0.9000775E+02  0.7816164E-02  0.1186339E+00
        -11   -1    0    0    0    0  0.00000000000E+00  0.00000000000E+00  0.45593999997E+02  0.45594000000E+02  0.51100000000E-03 0.  1.
         11   -1    0    0    0    0 -0.00000000000E+00 -0.00000000000E+00 -0.45593999997E+02  0.45594000000E+02  0.51100000000E-03 0. -1.
    9900012    2    1    2    0    0  0.66909977539E+00  0.63619635410E+00  0.73521823795E+00  0.90007751650E+02  0.90000013172E+02 0.  0.
         12    1    1    2    0    0 -0.66909977539E+00 -0.63619635410E+00 -0.73521823795E+00  0.11802483501E+01  0.00000000000E+00 0. -1.
         11    1    3    3    0    0 -0.20648720429E+01 -0.26276413899E+01 -0.57305262805E+01  0.66337868175E+01  0.51100000000E-03 0. -1.
        -11    1    3    3    0    0 -0.16049122270E+02  0.34690890158E+02 -0.14852107229E+02  0.41007527053E+02  0.51100000000E-03 0.  1.
         12    1    3    3    0    0  0.18783094088E+02 -0.31427052414E+02  0.21317851747E+02  0.42366437779E+02  0.00000000000E+00 0. -1.
</event>
<event>
 7    1  0.3032584E-015  0.9000772E+02  0.7816164E-02  0.1186339E+00
        -11   -1    0    0    0    0  0.00000000000E+00  0.00000000000E+00  0.45593999997E+02  0.45594000000E+02  0.51100000000E-03 0.  1.
         11   -1    0    0    0    0 -0.00000000000E+00 -0.00000000000E+00 -0.45593999997E+02  0.45594000000E+02  0.51100000000E-03 0. -1.
    9900012    2    1    2    0    0 -0.42438970141E+00 -0.10928785590E+01  0.13627447435E+00  0.90007719993E+02  0.89999981097E+02 0.  0.
         12    1    1    2    0    0  0.42438970141E+00  0.10928785590E+01 -0.13627447435E+00  0.11802800073E+01  0.00000000000E+00 0. -1.
         11    1    3    3    0    0 -0.35124951635E+02 -0.12876671814E+02  0.26586454091E+01  0.37505190308E+02  0.51100000000E-03 0. -1.
        -11    1    3    3    0    0 -0.13759534691E+01 -0.97300573387E+01  0.26580080084E+01  0.10179993644E+02  0.51100000000E-03 0.  1.
        -12    1    3    3    0    0  0.36076515402E+02  0.21513850594E+02 -0.51803789431E+01  0.42322536041E+02  0.00000000000E+00 0.  1.
</event>
<event>
 7    1  0.3032584E-015  0.9000772E+02  0.7816164E-02  0.1186339E+00
        -11   -1    0    0    0    0  0.00000000000E+00  0.00000000000E+00  0.45593999997E+02  0.45594000000E+02  0.51100000000E-03 0.  1.
         11   -1    0    0    0    0 -0.00000000000E+00 -0.00000000000E+00 -0.45593999997E+02  0.45594000000E+02  0.51100000000E-03 0. -1.
    9900012    2    1    2    0    0 -0.10622592602E+01  0.40079721056E+00  0.32252119512E+00  0.90007723312E+02  0.89999984459E+02 0.  0.
         12    1    1    2    0    0  0.10622592602E+01 -0.40079721056E+00 -0.32252119512E+00  0.11802766884E+01  0.00000000000E+00 0. -1.
         11    1    3    3    0    0 -0.81217787426E+01 -0.26463413540E+01 -0.48055246297E+00  0.85555446020E+01  0.51100000000E-03 0. -1.
        -11    1    3    3    0    0 -0.36869027472E+01 -0.34423073879E+02 -0.17034635524E+02  0.38583935450E+02  0.51100000000E-03 0.  1.
         12    1    3    3    0    0  0.10746422230E+02  0.37470212443E+02  0.17837709182E+02  0.42868243259E+02  0.00000000000E+00 0. -1.
</event>
<event>
 7    1  0.3032584E-015  0.9000758E+02  0.7816164E-02  0.1186339E+00
        -11   -1    0    0    0    0  0.00000000000E+00  0.00000000000E+00  0.45593999997E+02  0.45594000000E+02  0.51100000000E-03 0.  1.
         11   -1    0    0    0    0 -0.00000000000E+00 -0.00000000000E+00 -0.45593999997E+02  0.45594000000E+02  0.51100000000E-03 0. -1.
    9900012    2    1    2    0    0  0.24497099193E+00  0.75911593133E+00  0.87012487589E+00  0.90007582665E+02  0.89999841956E+02 0.  0.
         12    1    1    2    0    0 -0.24497099193E+00 -0.75911593133E+00 -0.87012487589E+00  0.11804173346E+01  0.00000000000E+00 0. -1.
         11    1    3    3    0    0 -0.68904875654E+01 -0.33677587397E+01  0.97378411413E+01  0.12395409157E+02  0.51100000000E-03 0. -1.
        -11    1    3    3    0    0 -0.53632749289E+01 -0.90758158589E+01  0.31565644354E+02  0.33279499023E+02  0.51100000000E-03 0.  1.
         12    1    3    3    0    0  0.12498733486E+02  0.13202690530E+02 -0.40433360620E+02  0.44332674485E+02  0.00000000000E+00 0. -1.
</event>
<event>
 7    1  0.3032584E-015  0.9000784E+02  0.7816164E-02  0.1186339E+00
        -11   -1    0    0    0    0  0.00000000000E+00  0.00000000000E+00  0.45593999997E+02  0.45594000000E+02  0.51100000000E-03 0. -1.
         11   -1    0    0    0    0 -0.00000000000E+00 -0.00000000000E+00 -0.45593999997E+02  0.45594000000E+02  0.51100000000E-03 0.  1.
    9900012    2    1    2    0    0  0.22368910278E+00 -0.69154330347E+00 -0.92979555101E+00  0.90007835299E+02  0.90000097925E+02 0.  0.
         12    1    1    2    0    0 -0.22368910278E+00  0.69154330347E+00  0.92979555101E+00  0.11801647012E+01  0.00000000000E+00 0. -1.
         11    1    3    3    0    0 -0.20089645703E+02  0.16448394571E+02  0.20647895077E+02  0.33173470120E+02  0.51100000000E-03 0. -1.
        -11    1    3    3    0    0 -0.90845805027E+01  0.53365887489E+01  0.46092667977E+01  0.11500179262E+02  0.51100000000E-03 0.  1.
        -12    1    3    3    0    0  0.29397915309E+02 -0.22476526623E+02 -0.26186957426E+02  0.45334185917E+02  0.00000000000E+00 0.  1.
</event>
<event>
 7    1  0.3414684E-015  0.9000784E+02  0.7816164E-02  0.1186339E+00
        -11   -1    0    0    0    0  0.00000000000E+00  0.00000000000E+00  0.45593999997E+02  0.45594000000E+02  0.51100000000E-03 0.  1.
         11   -1    0    0    0    0 -0.00000000000E+00 -0.00000000000E+00 -0.45593999997E+02  0.45594000000E+02  0.51100000000E-03 0. -1.
    9900012    2    1    2    0    0 -0.52358564849E+00  0.55889752713E-01 -0.10561757147E+01  0.90007842072E+02  0.90000104787E+02 0.  0.
         12    1    1    2    0    0  0.52358564849E+00 -0.55889752713E-01  0.10561757147E+01  0.11801579284E+01  0.00000000000E+00 0. -1.
         11    1    3    3    0    0 -0.29105845841E+01  0.39614491926E+02  0.38072285688E+01  0.39903313933E+02  0.51100000000E-03 0. -1.
        -11    1    3    3    0    0 -0.16137273924E+01 -0.21711327595E+00 -0.10086154483E+02  0.10216739538E+02  0.51100000000E-03 0.  1.
        -12    1    3    3    0    0  0.40007263280E+01 -0.39341488897E+02  0.52227501997E+01  0.39887788601E+02  0.00000000000E+00 0.  1.
</event>
<event>
 7    1  0.3032584E-015  0.9000761E+02  0.7816164E-02  0.1186339E+00
        -11   -1    0    0    0    0  0.00000000000E+00  0.00000000000E+00  0.45593999997E+02  0.45594000000E+02  0.51100000000E-03 0. -1.
         11   -1    0    0    0    0 -0.00000000000E+00 -0.00000000000E+00 -0.45593999997E+02  0.45594000000E+02  0.51100000000E-03 0.  1.
    9900012    2    1    2    0    0  0.16931893868E+00  0.75145249280E+00 -0.89440901537E+00  0.90007611404E+02  0.89999871074E+02 0.  0.
         12    1    1    2    0    0 -0.16931893868E+00 -0.75145249280E+00  0.89440901537E+00  0.11803885965E+01  0.00000000000E+00 0. -1.
         11    1    3    3    0    0  0.83020788389E+01  0.40152171299E+01 -0.45464450185E+01  0.10281859959E+02  0.51100000000E-03 0. -1.
        -11    1    3    3    0    0 -0.15661946554E+01  0.36930038527E+02 -0.70202240521E+01  0.37623985133E+02  0.51100000000E-03 0.  1.
         12    1    3    3    0    0 -0.65665652448E+01 -0.40193803164E+02  0.10672260055E+02  0.42101766312E+02  0.00000000000E+00 0. -1.
</event>
<event>
 7    1  0.3032584E-015  0.9000772E+02  0.7816164E-02  0.1186339E+00
        -11   -1    0    0    0    0  0.00000000000E+00  0.00000000000E+00  0.45593999997E+02  0.45594000000E+02  0.51100000000E-03 0.  1.
         11   -1    0    0    0    0 -0.00000000000E+00 -0.00000000000E+00 -0.45593999997E+02  0.45594000000E+02  0.51100000000E-03 0. -1.
    9900012    2    1    2    0    0 -0.98543276794E+00  0.27271801045E+00  0.58957772845E+00  0.90007722596E+02  0.89999983734E+02 0.  0.
         12    1    1    2    0    0  0.98543276794E+00 -0.27271801045E+00 -0.58957772845E+00  0.11802774044E+01  0.00000000000E+00 0. -1.
         11    1    3    3    0    0 -0.35488332435E+02 -0.76866292503E+01 -0.18256523823E+02  0.40642424517E+02  0.51100000000E-03 0. -1.
        -11    1    3    3    0    0 -0.26787200136E+01  0.79456847844E+01  0.25054427158E+01  0.87513822376E+01  0.51100000000E-03 0.  1.
        -12    1    3    3    0    0  0.37181619681E+02  0.13662476273E-01  0.16340658835E+02  0.40613915841E+02  0.00000000000E+00 0.  1.
</event>
<event>
 7    1  0.3032584E-015  0.9000773E+02  0.7816164E-02  0.1186339E+00
        -11   -1    0    0    0    0  0.00000000000E+00  0.00000000000E+00  0.45593999997E+02  0.45594000000E+02  0.51100000000E-03 0. -1.
         11   -1    0    0    0    0 -0.00000000000E+00 -0.00000000000E+00 -0.45593999997E+02  0.45594000000E+02  0.51100000000E-03 0.  1.
    9900012    2    1    2    0    0  0.49224783056E+00  0.10521609360E+01 -0.20899631050E+00  0.90007733073E+02  0.89999994349E+02 0.  0.
         12    1    1    2    0    0 -0.49224783056E+00 -0.10521609360E+01  0.20899631050E+00  0.11802669274E+01  0.00000000000E+00 0. -1.
         11    1    3    3    0    0 -0.11539395730E+02  0.29424750530E+02  0.22606668921E+02  0.38859169800E+02  0.51100000000E-03 0. -1.
        -11    1    3    3    0    0 -0.43854283298E+01 -0.63375549250E+01  0.71348974723E+01  0.10502539991E+02  0.51100000000E-03 0.  1.
        -12    1    3    3    0    0  0.16417071891E+02 -0.22035034669E+02 -0.29950562704E+02  0.40646023282E+02  0.00000000000E+00 0.  1.
</event>
<event>
 7    1  0.3032584E-015  0.9000782E+02  0.7816164E-02  0.1186339E+00
        -11   -1    0    0    0    0  0.00000000000E+00  0.00000000000E+00  0.45593999997E+02  0.45594000000E+02  0.51100000000E-03 0.  1.
         11   -1    0    0    0    0 -0.00000000000E+00 -0.00000000000E+00 -0.45593999997E+02  0.45594000000E+02  0.51100000000E-03 0. -1.
    9900012    2    1    2    0    0 -0.29710966058E+00  0.35913657538E+00  0.10842353630E+01  0.90007822237E+02  0.90000084690E+02 0.  0.
         12    1    1    2    0    0  0.29710966058E+00 -0.35913657538E+00 -0.10842353630E+01  0.11801777631E+01  0.00000000000E+00 0. -1.
         11    1    3    3    0    0  0.21332770539E+01 -0.66603314784E+01 -0.67181212518E+01  0.96976306285E+01  0.51100000000E-03 0. -1.
        -11    1    3    3    0    0 -0.18570242212E+02  0.36122082041E+02  0.19475338080E+02  0.45043839761E+02  0.51100000000E-03 0.  1.
         12    1    3    3    0    0  0.16139855497E+02 -0.29102613987E+02 -0.11672981465E+02  0.35266351848E+02  0.00000000000E+00 0. -1.
</event>
<event>
 7    1  0.3977987E-015  0.9000771E+02  0.7816164E-02  0.1186339E+00
        -11   -1    0    0    0    0  0.00000000000E+00  0.00000000000E+00  0.45593999997E+02  0.45594000000E+02  0.51100000000E-03 0.  1.
         11   -1    0    0    0    0 -0.00000000000E+00 -0.00000000000E+00 -0.45593999997E+02  0.45594000000E+02  0.51100000000E-03 0. -1.
    9900012    2    1    2    0    0 -0.11261028853E+01  0.33733507638E+00 -0.10576488495E+00  0.90007708141E+02  0.89999969088E+02 0.  0.
         12    1    1    2    0    0  0.11261028853E+01 -0.33733507638E+00  0.10576488495E+00  0.11802918592E+01  0.00000000000E+00 0. -1.
         11    1    3    3    0    0 -0.25794716815E+02  0.26113805478E+02 -0.81002287533E+01  0.37588721157E+02  0.51100000000E-03 0. -1.
        -11    1    3    3    0    0  0.25452009891E+01  0.82730492819E+01 -0.47332874787E+01  0.98653638105E+01  0.51100000000E-03 0.  1.
        -12    1    3    3    0    0  0.22123412941E+02 -0.34049519683E+02  0.12727751347E+02  0.42553623173E+02  0.00000000000E+00 0.  1.
</event>
<event>
 7    1  0.3032584E-015  0.9000775E+02  0.7816164E-02  0.1186339E+00
        -11   -1    0    0    0    0  0.00000000000E+00  0.00000000000E+00  0.45593999997E+02  0.45594000000E+02  0.51100000000E-03 0.  1.
         11   -1    0    0    0    0 -0.00000000000E+00 -0.00000000000E+00 -0.45593999997E+02  0.45594000000E+02  0.51100000000E-03 0. -1.
    9900012    2    1    2    0    0  0.48120815960E+00  0.11721027252E-01  0.10776292873E+01  0.90007752756E+02  0.90000014293E+02 0.  0.
         12    1    1    2    0    0 -0.48120815960E+00 -0.11721027252E-01 -0.10776292873E+01  0.11802472437E+01  0.00000000000E+00 0. -1.
         11    1    3    3    0    0  0.21467890909E+02  0.21804827324E+02 -0.17430782382E+02  0.35215806245E+02  0.51100000000E-03 0. -1.
        -11    1    3    3    0    0  0.39095553900E+01  0.90000027300E+01 -0.22720539518E+01  0.10072085281E+02  0.51100000000E-03 0.  1.
        -12    1    3    3    0    0 -0.24896238140E+02 -0.30793109027E+02  0.20780465622E+02  0.44719861231E+02  0.00000000000E+00 0.  1.
</event>
<event>
 7    1  0.3032584E-015  0.9000774E+02  0.7816164E-02  0.1186339E+00
        -11   -1    0    0    0    0  0.00000000000E+00  0.00000000000E+00  0.45593999997E+02  0.45594000000E+02  0.51100000000E-03 0.  1.
         11   -1    0    0    0    0 -0.00000000000E+00 -0.00000000000E+00 -0.45593999997E+02  0.45594000000E+02  0.51100000000E-03 0. -1.
    9900012    2    1    2    0    0 -0.68130838539E+00  0.96158878812E+00  0.64656227403E-01  0.90007739630E+02  0.90000000993E+02 0.  0.
         12    1    1    2    0    0  0.68130838539E+00 -0.96158878812E+00 -0.64656227403E-01  0.11802603701E+01  0.00000000000E+00 0. -1.
         11    1    3    3    0    0  0.97117565994E+01 -0.31641379543E+01 -0.22030669929E+00  0.10216580668E+02  0.51100000000E-03 0. -1.
        -11    1    3    3    0    0 -0.39366567201E+02 -0.51185463292E+01 -0.18760143944E+02  0.43907506542E+02  0.51100000000E-03 0.  1.
         12    1    3    3    0    0  0.28973502216E+02  0.92442730716E+01  0.19045106871E+02  0.35883652420E+02  0.00000000000E+00 0. -1.
</event>
<event>
 7    1  0.3032584E-015  0.9000784E+02  0.7816164E-02  0.1186339E+00
        -11   -1    0    0    0    0  0.00000000000E+00  0.00000000000E+00  0.45593999997E+02  0.45594000000E+02  0.51100000000E-03 0.  1.
         11   -1    0    0    0    0 -0.00000000000E+00 -0.00000000000E+00 -0.45593999997E+02  0.45594000000E+02  0.51100000000E-03 0. -1.
    9900012    2    1    2    0    0 -0.33775456263E+00  0.10839958369E+01 -0.32194126575E+00  0.90007842681E+02  0.90000105404E+02 0.  0.
         12    1    1    2    0    0  0.33775456263E+00 -0.10839958369E+01  0.32194126575E+00  0.11801573190E+01  0.00000000000E+00 0. -1.
         11    1    3    3    0    0 -0.35072906024E+02 -0.18575708461E+02 -0.15607394570E+02  0.42646880862E+02  0.51100000000E-03 0. -1.
        -11    1    3    3    0    0 -0.16280263913E+00 -0.13946353873E+01  0.51837186629E+01  0.53705169212E+01  0.51100000000E-03 0.  1.
        -12    1    3    3    0    0  0.34897954100E+02  0.21054339685E+02  0.10101734641E+02  0.41990444898E+02  0.00000000000E+00 0.  1.
</event>
<event>
 7    1  0.3032584E-015  0.9000779E+02  0.7816164E-02  0.1186339E+00
        -11   -1    0    0    0    0  0.00000000000E+00  0.00000000000E+00  0.45593999997E+02  0.45594000000E+02  0.51100000000E-03 0. -1.
         11   -1    0    0    0    0 -0.00000000000E+00 -0.00000000000E+00 -0.45593999997E+02  0.45594000000E+02  0.51100000000E-03 0.  1.
    9900012    2    1    2    0    0 -0.95109822753E+00 -0.61408485287E+00 -0.33346648774E+00  0.90007793262E+02  0.90000055333E+02 0.  0.
         12    1    1    2    0    0  0.95109822753E+00  0.61408485287E+00  0.33346648774E+00  0.11802067376E+01  0.00000000000E+00 0. -1.
         11    1    3    3    0    0  0.57277668726E+01 -0.42307217778E+01 -0.15035665712E+01  0.72778453408E+01  0.51100000000E-03 0. -1.
        -11    1    3    3    0    0  0.29601611396E+02  0.13865686702E+02  0.22244653412E+02  0.39539060062E+02  0.51100000000E-03 0.  1.
         12    1    3    3    0    0 -0.36280476496E+02 -0.10249049777E+02 -0.21074553328E+02  0.43190887859E+02  0.00000000000E+00 0. -1.
</event>
<event>
 7    1  0.3032584E-015  0.9000760E+02  0.7816164E-02  0.1186339E+00
        -11   -1    0    0    0    0  0.00000000000E+00  0.00000000000E+00  0.45593999997E+02  0.45594000000E+02  0.51100000000E-03 0.  1.
         11   -1    0    0    0    0 -0.00000000000E+00 -0.00000000000E+00 -0.45593999997E+02  0.45594000000E+02  0.51100000000E-03 0. -1.
    9900012    2    1    2    0    0 -0.19772383672E+00  0.11415801871E+01  0.22594897410E+00  0.90007596265E+02  0.89999855735E+02 0.  0.
         12    1    1    2    0    0  0.19772383672E+00 -0.11415801871E+01 -0.22594897410E+00  0.11804037352E+01  0.00000000000E+00 0. -1.
         11    1    3    3    0    0  0.54739958565E+01 -0.52445892602E+01  0.13620911420E+02  0.15588443647E+02  0.51100000000E-03 0. -1.
        -11    1    3    3    0    0 -0.31891032361E+02 -0.78003727163E+01 -0.26170799133E+02  0.41985646203E+02  0.51100000000E-03 0.  1.
         12    1    3    3    0    0  0.26219312668E+02  0.14186542164E+02  0.12775836687E+02  0.32433506415E+02  0.00000000000E+00 0. -1.
</event>
<event>
 7    1  0.3032584E-015  0.9000770E+02  0.7816164E-02  0.1186339E+00
        -11   -1    0    0    0    0  0.00000000000E+00  0.00000000000E+00  0.45593999997E+02  0.45594000000E+02  0.51100000000E-03 0.  1.
         11   -1    0    0    0    0 -0.00000000000E+00 -0.00000000000E+00 -0.45593999997E+02  0.45594000000E+02  0.51100000000E-03 0. -1.
    9900012    2    1    2    0    0 -0.55406373628E+00  0.10413442923E+01  0.41378694958E-01  0.90007704802E+02  0.89999965705E+02 0.  0.
         12    1    1    2    0    0  0.55406373628E+00 -0.10413442923E+01 -0.41378694958E-01  0.11802951984E+01  0.00000000000E+00 0. -1.
         11    1    3    3    0    0 -0.90156729345E+01 -0.31859466078E+02 -0.24362358478E+02  0.41107571664E+02  0.51100000000E-03 0. -1.
        -11    1    3    3    0    0 -0.66365609002E+01  0.58465306326E+01 -0.91065098699E+00  0.88912961092E+01  0.51100000000E-03 0.  1.
        -12    1    3    3    0    0  0.15098170098E+02  0.27054279738E+02  0.25314388160E+02  0.40008837028E+02  0.00000000000E+00 0.  1.
</event>
<event>
 7    1  0.3032584E-015  0.9000796E+02  0.7816164E-02  0.1186339E+00
        -11   -1    0    0    0    0  0.00000000000E+00  0.00000000000E+00  0.45593999997E+02  0.45594000000E+02  0.51100000000E-03 0. -1.
         11   -1    0    0    0    0 -0.00000000000E+00 -0.00000000000E+00 -0.45593999997E+02  0.45594000000E+02  0.51100000000E-03 0.  1.
    9900012    2    1    2    0    0  0.16064667797E+00 -0.80630084440E+00 -0.84650186925E+00  0.90007960246E+02  0.90000224521E+02 0.  0.
         12    1    1    2    0    0 -0.16064667797E+00  0.80630084440E+00  0.84650186925E+00  0.11800397542E+01  0.00000000000E+00 0. -1.
         11    1    3    3    0    0  0.10957183057E+02  0.31687627690E+01 -0.28649113580E+01  0.11760469182E+02  0.51100000000E-03 0. -1.
        -11    1    3    3    0    0  0.78501381287E+01 -0.20072040683E+02 -0.30565453262E+02  0.37399978866E+02  0.51100000000E-03 0.  1.
         12    1    3    3    0    0 -0.18646674507E+02  0.16096977070E+02  0.32583862751E+02  0.40847512198E+02  0.00000000000E+00 0. -1.
</event>
<event>
 7    1  0.3032584E-015  0.9000773E+02  0.7816164E-02  0.1186339E+00
        -11   -1    0    0    0    0  0.00000000000E+00  0.00000000000E+00  0.45593999997E+02  0.45594000000E+02  0.51100000000E-03 0. -1.
         11   -1    0    0    0    0 -0.00000000000E+00 -0.00000000000E+00 -0.45593999997E+02  0.45594000000E+02  0.51100000000E-03 0.  1.
    9900012    2    1    2    0    0 -0.93751187554E+00 -0.65081160333E+00 -0.30092599186E+00  0.90007728543E+02  0.89999989760E+02 0.  0.
         12    1    1    2    0    0  0.93751187554E+00  0.65081160333E+00  0.30092599186E+00  0.11802714571E+01  0.00000000000E+00 0. -1.
         11    1    3    3    0    0  0.13096464487E+01  0.12541429948E+02  0.16467594869E+02  0.20740885227E+02  0.51100000000E-03 0. -1.
        -11    1    3    3    0    0  0.22437176459E+02  0.55833665036E+01  0.12790324407E+02  0.26423347018E+02  0.51100000000E-03 0.  1.
        -12    1    3    3    0    0 -0.24684334783E+02 -0.18775608055E+02 -0.29558845267E+02  0.42843496298E+02  0.00000000000E+00 0.  1.
</event>
<event>
 7    1  0.3032584E-015  0.9000774E+02  0.7816164E-02  0.1186339E+00
        -11   -1    0    0    0    0  0.00000000000E+00  0.00000000000E+00  0.45593999997E+02  0.45594000000E+02  0.51100000000E-03 0.  1.
         11   -1    0    0    0    0 -0.00000000000E+00 -0.00000000000E+00 -0.45593999997E+02  0.45594000000E+02  0.51100000000E-03 0. -1.
    9900012    2    1    2    0    0 -0.10288547342E+01 -0.55174373600E+00  0.17334105893E+00  0.90007741411E+02  0.90000002798E+02 0.  0.
         12    1    1    2    0    0  0.10288547342E+01  0.55174373600E+00 -0.17334105893E+00  0.11802585890E+01  0.00000000000E+00 0. -1.
         11    1    3    3    0    0  0.31969334121E+01  0.64961678324E+00 -0.63642198421E+01  0.71516207719E+01  0.51100000000E-03 0. -1.
        -11    1    3    3    0    0 -0.14995057504E+02  0.10150562098E+02 -0.34485346932E+02  0.38950286440E+02  0.51100000000E-03 0.  1.
         12    1    3    3    0    0  0.10769269357E+02 -0.11351922618E+02  0.41022907833E+02  0.43905834199E+02  0.00000000000E+00 0. -1.
</event>
<event>
 7    1  0.3032584E-015  0.9000674E+02  0.7816164E-02  0.1186341E+00
        -11   -1    0    0    0    0  0.00000000000E+00  0.00000000000E+00  0.45593999997E+02  0.45594000000E+02  0.51100000000E-03 0. -1.
         11   -1    0    0    0    0 -0.00000000000E+00 -0.00000000000E+00 -0.45593999997E+02  0.45594000000E+02  0.51100000000E-03 0.  1.
    9900012    2    1    2    0    0 -0.10613851986E+01  0.25094574700E+00 -0.45370991154E+00  0.90006744316E+02  0.89998992535E+02 0.  0.
         12    1    1    2    0    0  0.10613851986E+01 -0.25094574700E+00  0.45370991154E+00  0.11812556843E+01  0.00000000000E+00 0. -1.
         11    1    3    3    0    0  0.75668662303E+01 -0.11592416718E+02  0.20755755943E+02  0.24948807485E+02  0.51100000000E-03 0. -1.
        -11    1    3    3    0    0  0.56062504536E+01  0.42688755397E+01  0.19787138238E+02  0.21004384838E+02  0.51100000000E-03 0.  1.
        -12    1    3    3    0    0 -0.14234501883E+02  0.75744869248E+01 -0.40996604093E+02  0.44053551992E+02  0.00000000000E+00 0.  1.
</event>
<event>
 7    1  0.3032584E-015  0.9000768E+02  0.7816164E-02  0.1186339E+00
        -11   -1    0    0    0    0  0.00000000000E+00  0.00000000000E+00  0.45593999997E+02  0.45594000000E+02  0.51100000000E-03 0.  1.
         11   -1    0    0    0    0 -0.00000000000E+00 -0.00000000000E+00 -0.45593999997E+02  0.45594000000E+02  0.51100000000E-03 0. -1.
    9900012    2    1    2    0    0  0.27940791665E+00 -0.49431815480E+00 -0.10347608353E+01  0.90007682582E+02  0.89999943192E+02 0.  0.
         12    1    1    2    0    0 -0.27940791665E+00  0.49431815480E+00  0.10347608353E+01  0.11803174185E+01  0.00000000000E+00 0. -1.
         11    1    3    3    0    0  0.19525307009E+01 -0.81406380076E+01  0.55223304333E+01  0.10028883138E+02  0.51100000000E-03 0. -1.
        -11    1    3    3    0    0 -0.20312105761E+00 -0.28255811181E+02  0.20574843552E+02  0.34953630872E+02  0.51100000000E-03 0.  1.
         12    1    3    3    0    0 -0.14700017267E+01  0.35902131034E+02 -0.27131934821E+02  0.45025168572E+02  0.00000000000E+00 0. -1.
</event>
<event>
 7    1  0.3032584E-015  0.9000751E+02  0.7816164E-02  0.1186340E+00
        -11   -1    0    0    0    0  0.00000000000E+00  0.00000000000E+00  0.45593999997E+02  0.45594000000E+02  0.51100000000E-03 0. -1.
         11   -1    0    0    0    0 -0.00000000000E+00 -0.00000000000E+00 -0.45593999997E+02  0.45594000000E+02  0.51100000000E-03 0.  1.
    9900012    2    1    2    0    0 -0.51161480279E+00 -0.10561294428E+01 -0.12804985814E+00  0.90007510325E+02  0.89999768661E+02 0.  0.
         12    1    1    2    0    0  0.51161480279E+00  0.10561294428E+01  0.12804985814E+00  0.11804896749E+01  0.00000000000E+00 0. -1.
         11    1    3    3    0    0 -0.51995203109E+01 -0.67840714107E+01  0.13285791788E+01  0.86500727895E+01  0.51100000000E-03 0. -1.
        -11    1    3    3    0    0 -0.30450813612E+02 -0.58395779858E+01 -0.22947950660E+02  0.38574099606E+02  0.51100000000E-03 0.  1.
         12    1    3    3    0    0  0.35138719120E+02  0.11567519954E+02  0.21491321623E+02  0.42783337929E+02  0.00000000000E+00 0. -1.
</event>
<event>
 7    1  0.3032584E-015  0.9000791E+02  0.7816164E-02  0.1186339E+00
        -11   -1    0    0    0    0  0.00000000000E+00  0.00000000000E+00  0.45593999997E+02  0.45594000000E+02  0.51100000000E-03 0. -1.
         11   -1    0    0    0    0 -0.00000000000E+00 -0.00000000000E+00 -0.45593999997E+02  0.45594000000E+02  0.51100000000E-03 0.  1.
    9900012    2    1    2    0    0  0.34851271446E+00  0.62114563430E-01 -0.11257404466E+01  0.90007910646E+02  0.90000174266E+02 0.  0.
         12    1    1    2    0    0 -0.34851271446E+00 -0.62114563430E-01  0.11257404466E+01  0.11800893543E+01  0.00000000000E+00 0. -1.
         11    1    3    3    0    0 -0.29348325416E+02 -0.15355537006E+02  0.12653371530E+02  0.35457362180E+02  0.51100000000E-03 0. -1.
        -11    1    3    3    0    0  0.36169305595E+00 -0.31149312963E+01  0.11306655440E+02  0.11733459692E+02  0.51100000000E-03 0.  1.
        -12    1    3    3    0    0  0.29335145074E+02  0.18532582866E+02 -0.25085767416E+02  0.42817088774E+02  0.00000000000E+00 0.  1.
</event>
<event>
 7    1  0.3032584E-015  0.9000770E+02  0.7816164E-02  0.1186339E+00
        -11   -1    0    0    0    0  0.00000000000E+00  0.00000000000E+00  0.45593999997E+02  0.45594000000E+02  0.51100000000E-03 0.  1.
         11   -1    0    0    0    0 -0.00000000000E+00 -0.00000000000E+00 -0.45593999997E+02  0.45594000000E+02  0.51100000000E-03 0. -1.
    9900012    2    1    2    0    0 -0.11529809053E+01  0.13802449579E+00 -0.21141495612E+00  0.90007698338E+02  0.89999959156E+02 0.  0.
         12    1    1    2    0    0  0.11529809053E+01 -0.13802449579E+00  0.21141495612E+00  0.11803016619E+01  0.00000000000E+00 0. -1.
         11    1    3    3    0    0 -0.18144597548E+01 -0.24805417094E+02 -0.29667492215E+02  0.38713835718E+02  0.51100000000E-03 0. -1.
        -11    1    3    3    0    0 -0.80099428760E+01 -0.54986769715E+01  0.33920020807E+01  0.10290787710E+02  0.51100000000E-03 0.  1.
        -12    1    3    3    0    0  0.86714217256E+01  0.30442118561E+02  0.26064075178E+02  0.41003074910E+02  0.00000000000E+00 0.  1.
</event>
<event>
 7    1  0.3032584E-015  0.9000765E+02  0.7816164E-02  0.1186339E+00
        -11   -1    0    0    0    0  0.00000000000E+00  0.00000000000E+00  0.45593999997E+02  0.45594000000E+02  0.51100000000E-03 0.  1.
         11   -1    0    0    0    0 -0.00000000000E+00 -0.00000000000E+00 -0.45593999997E+02  0.45594000000E+02  0.51100000000E-03 0. -1.
    9900012    2    1    2    0    0  0.10428449878E+01  0.28032044400E+00  0.47657962301E+00  0.90007646935E+02  0.89999907075E+02 0.  0.
         12    1    1    2    0    0 -0.10428449878E+01 -0.28032044400E+00 -0.47657962301E+00  0.11803530645E+01  0.00000000000E+00 0. -1.
         11    1    3    3    0    0  0.72794335407E+01  0.70328045660E+01 -0.13252762838E+01  0.10208175656E+02  0.51100000000E-03 0. -1.
        -11    1    3    3    0    0  0.23822365739E+02  0.23941725556E+02  0.11643860037E+02  0.35725212509E+02  0.51100000000E-03 0.  1.
         12    1    3    3    0    0 -0.30058954292E+02 -0.30694209678E+02 -0.98420041299E+01  0.44074258770E+02  0.00000000000E+00 0. -1.
</event>
<event>
 7    1  0.3032584E-015  0.9000772E+02  0.7816164E-02  0.1186339E+00
        -11   -1    0    0    0    0  0.00000000000E+00  0.00000000000E+00  0.45593999997E+02  0.45594000000E+02  0.51100000000E-03 0.  1.
         11   -1    0    0    0    0 -0.00000000000E+00 -0.00000000000E+00 -0.45593999997E+02  0.45594000000E+02  0.51100000000E-03 0. -1.
    9900012    2    1    2    0    0  0.34765772669E+00 -0.10992008126E+01 -0.25290115940E+00  0.90007717272E+02  0.89999978340E+02 0.  0.
         12    1    1    2    0    0 -0.34765772669E+00  0.10992008126E+01  0.25290115940E+00  0.11802827279E+01  0.00000000000E+00 0. -1.
         11    1    3    3    0    0 -0.10275160898E+00 -0.11642124903E+01  0.10645562352E+02  0.10709525978E+02  0.51100000000E-03 0. -1.
        -11    1    3    3    0    0 -0.16674501306E+02  0.21256073794E+02  0.23228726338E+02  0.35629108809E+02  0.51100000000E-03 0.  1.
         12    1    3    3    0    0  0.17124910641E+02 -0.21191062117E+02 -0.34127189850E+02  0.43669082486E+02  0.00000000000E+00 0. -1.
</event>
<event>
 7    1  0.3032584E-015  0.9000775E+02  0.7816164E-02  0.1186339E+00
        -11   -1    0    0    0    0  0.00000000000E+00  0.00000000000E+00  0.45593999997E+02  0.45594000000E+02  0.51100000000E-03 0.  1.
         11   -1    0    0    0    0 -0.00000000000E+00 -0.00000000000E+00 -0.45593999997E+02  0.45594000000E+02  0.51100000000E-03 0. -1.
    9900012    2    1    2    0    0  0.59349265422E+00 -0.30428570169E+00  0.97374279252E+00  0.90007746491E+02  0.90000007945E+02 0.  0.
         12    1    1    2    0    0 -0.59349265422E+00  0.30428570169E+00 -0.97374279252E+00  0.11802535087E+01  0.00000000000E+00 0. -1.
         11    1    3    3    0    0  0.45901720196E+01  0.29877952228E+01  0.68175330789E+01  0.87450189826E+01  0.51100000000E-03 0. -1.
        -11    1    3    3    0    0  0.16151302520E+02  0.33832005686E+02  0.45471070600E+01  0.37764339856E+02  0.51100000000E-03 0.  1.
         12    1    3    3    0    0 -0.20147981885E+02 -0.37124086611E+02 -0.10390897346E+02  0.43498387653E+02  0.00000000000E+00 0. -1.
</event>
<event>
 7    1  0.3032584E-015  0.9000778E+02  0.7816164E-02  0.1186339E+00
        -11   -1    0    0    0    0  0.00000000000E+00  0.00000000000E+00  0.45593999997E+02  0.45594000000E+02  0.51100000000E-03 0.  1.
         11   -1    0    0    0    0 -0.00000000000E+00 -0.00000000000E+00 -0.45593999997E+02  0.45594000000E+02  0.51100000000E-03 0. -1.
    9900012    2    1    2    0    0 -0.11725064260E+01 -0.10227781151E+00 -0.87732492066E-01  0.90007775843E+02  0.90000037684E+02 0.  0.
         12    1    1    2    0    0  0.11725064260E+01  0.10227781151E+00  0.87732492066E-01  0.11802241566E+01  0.00000000000E+00 0. -1.
         11    1    3    3    0    0 -0.21398644651E+02 -0.63452245024E+01 -0.22434472482E+02  0.31646001686E+02  0.51100000000E-03 0. -1.
        -11    1    3    3    0    0 -0.58157454206E+01 -0.80854044584E+01 -0.10219790094E+02  0.14270275746E+02  0.51100000000E-03 0.  1.
        -12    1    3    3    0    0  0.26041883646E+02  0.14328351149E+02  0.32566530083E+02  0.44091498411E+02  0.00000000000E+00 0.  1.
</event>
<event>
 7    1  0.3032584E-015  0.9000771E+02  0.7816164E-02  0.1186339E+00
        -11   -1    0    0    0    0  0.00000000000E+00  0.00000000000E+00  0.45593999997E+02  0.45594000000E+02  0.51100000000E-03 0. -1.
         11   -1    0    0    0    0 -0.00000000000E+00 -0.00000000000E+00 -0.45593999997E+02  0.45594000000E+02  0.51100000000E-03 0.  1.
    9900012    2    1    2    0    0 -0.61228576987E+00  0.10086662280E+01 -0.28081273723E-01  0.90007707671E+02  0.89999968612E+02 0.  0.
         12    1    1    2    0    0  0.61228576987E+00 -0.10086662280E+01  0.28081273723E-01  0.11802923288E+01  0.00000000000E+00 0. -1.
         11    1    3    3    0    0 -0.54277112148E+01  0.28409872661E+01 -0.67467349854E+01  0.91131603136E+01  0.51100000000E-03 0. -1.
        -11    1    3    3    0    0  0.10750180796E+02  0.31844033440E+02 -0.18538022640E+02  0.38383162149E+02  0.51100000000E-03 0.  1.
         12    1    3    3    0    0 -0.59347553510E+01 -0.33676354478E+02  0.25256676352E+02  0.42511385209E+02  0.00000000000E+00 0. -1.
</event>
<event>
 7    1  0.3032584E-015  0.9000770E+02  0.7816164E-02  0.1186339E+00
        -11   -1    0    0    0    0  0.00000000000E+00  0.00000000000E+00  0.45593999997E+02  0.45594000000E+02  0.51100000000E-03 0. -1.
         11   -1    0    0    0    0 -0.00000000000E+00 -0.00000000000E+00 -0.45593999997E+02  0.45594000000E+02  0.51100000000E-03 0.  1.
    9900012    2    1    2    0    0  0.77102319616E+00 -0.84595297473E+00 -0.28807747622E+00  0.90007702649E+02  0.89999963524E+02 0.  0.
         12    1    1    2    0    0 -0.77102319616E+00  0.84595297473E+00  0.28807747622E+00  0.11802973510E+01  0.00000000000E+00 0. -1.
         11    1    3    3    0    0 -0.14369858785E+01 -0.24920531817E+01  0.75669908762E+01  0.80953448758E+01  0.51100000000E-03 0. -1.
        -11    1    3    3    0    0  0.13477935986E+02 -0.21531943838E+02 -0.35800329422E+02  0.43896958333E+02  0.51100000000E-03 0.  1.
         12    1    3    3    0    0 -0.11269926911E+02  0.23178044045E+02  0.27945261070E+02  0.38015399440E+02  0.00000000000E+00 0. -1.
</event>
<event>
 7    1  0.3032584E-015  0.9000773E+02  0.7816164E-02  0.1186339E+00
        -11   -1    0    0    0    0  0.00000000000E+00  0.00000000000E+00  0.45593999997E+02  0.45594000000E+02  0.51100000000E-03 0. -1.
         11   -1    0    0    0    0 -0.00000000000E+00 -0.00000000000E+00 -0.45593999997E+02  0.45594000000E+02  0.51100000000E-03 0.  1.
    9900012    2    1    2    0    0  0.37079130654E+00  0.10145349573E+01 -0.47567266838E+00  0.90007732293E+02  0.89999993559E+02 0.  0.
         12    1    1    2    0    0 -0.37079130654E+00 -0.10145349573E+01  0.47567266838E+00  0.11802677070E+01  0.00000000000E+00 0. -1.
         11    1    3    3    0    0  0.10186548975E+02  0.29108400566E+01  0.10804650046E+01  0.10649233528E+02  0.51100000000E-03 0. -1.
        -11    1    3    3    0    0 -0.62591294465E+01 -0.38477766201E+02  0.11022206531E+02  0.40511778909E+02  0.51100000000E-03 0.  1.
         12    1    3    3    0    0 -0.35566282217E+01  0.36581461102E+02 -0.12578344204E+02  0.38846719856E+02  0.00000000000E+00 0. -1.
</event>
<event>
 7    1  0.3032584E-015  0.9000769E+02  0.7816164E-02  0.1186339E+00
        -11   -1    0    0    0    0  0.00000000000E+00  0.00000000000E+00  0.45593999997E+02  0.45594000000E+02  0.51100000000E-03 0.  1.
         11   -1    0    0    0    0 -0.00000000000E+00 -0.00000000000E+00 -0.45593999997E+02  0.45594000000E+02  0.51100000000E-03 0. -1.
    9900012    2    1    2    0    0 -0.85266241695E+00 -0.81572531861E+00  0.26337836859E-01  0.90007688738E+02  0.89999949430E+02 0.  0.
         12    1    1    2    0    0  0.85266241695E+00  0.81572531861E+00 -0.26337836859E-01  0.11803112616E+01  0.00000000000E+00 0. -1.
         11    1    3    3    0    0  0.42084772025E+01  0.10839978045E+02 -0.35562698388E+02  0.37415530482E+02  0.51100000000E-03 0. -1.
        -11    1    3    3    0    0  0.10706431809E+02 -0.42275053074E+01 -0.15034994135E+01  0.11608617228E+02  0.51100000000E-03 0.  1.
        -12    1    3    3    0    0 -0.15767571428E+02 -0.74281980566E+01  0.37092535638E+02  0.40983541028E+02  0.00000000000E+00 0.  1.
</event>
<event>
 7    1  0.3556158E-015  0.9000780E+02  0.7816164E-02  0.1186339E+00
        -11   -1    0    0    0    0  0.00000000000E+00  0.00000000000E+00  0.45593999997E+02  0.45594000000E+02  0.51100000000E-03 0. -1.
         11   -1    0    0    0    0 -0.00000000000E+00 -0.00000000000E+00 -0.45593999997E+02  0.45594000000E+02  0.51100000000E-03 0.  1.
    9900012    2    1    2    0    0  0.33973567131E-01 -0.92801315968E-02 -0.11796716747E+01  0.90007802735E+02  0.90000064931E+02 0.  0.
         12    1    1    2    0    0 -0.33973567131E-01  0.92801315968E-02  0.11796716747E+01  0.11801972650E+01  0.00000000000E+00 0. -1.
         11    1    3    3    0    0  0.19135079082E+02 -0.57135385461E+01  0.31944489858E+02  0.37672884237E+02  0.51100000000E-03 0. -1.
        -11    1    3    3    0    0  0.45460688266E+01  0.67720230180E+01  0.33788824530E+01  0.88285833759E+01  0.51100000000E-03 0.  1.
        -12    1    3    3    0    0 -0.23647174341E+02 -0.10677646035E+01 -0.36503043986E+02  0.43506335122E+02  0.00000000000E+00 0.  1.
</event>
<event>
 7    1  0.3032584E-015  0.9000770E+02  0.7816164E-02  0.1186339E+00
        -11   -1    0    0    0    0  0.00000000000E+00  0.00000000000E+00  0.45593999997E+02  0.45594000000E+02  0.51100000000E-03 0.  1.
         11   -1    0    0    0    0 -0.00000000000E+00 -0.00000000000E+00 -0.45593999997E+02  0.45594000000E+02  0.51100000000E-03 0. -1.
    9900012    2    1    2    0    0  0.66115911121E+00 -0.94079945156E+00  0.26621709903E+00  0.90007700664E+02  0.89999961513E+02 0.  0.
         12    1    1    2    0    0 -0.66115911121E+00  0.94079945156E+00 -0.26621709903E+00  0.11802993359E+01  0.00000000000E+00 0. -1.
         11    1    3    3    0    0  0.55371820377E+01  0.66711577162E+01 -0.30202713219E+00  0.86750187805E+01  0.51100000000E-03 0. -1.
        -11    1    3    3    0    0  0.92382036741E+01  0.34176681623E+02 -0.82504645813E+01  0.36351893210E+02  0.51100000000E-03 0.  1.
         12    1    3    3    0    0 -0.14114226601E+02 -0.41788638791E+02  0.88187088125E+01  0.44980788673E+02  0.00000000000E+00 0. -1.
</event>
<event>
 7    1  0.3032584E-015  0.9000777E+02  0.7816164E-02  0.1186339E+00
        -11   -1    0    0    0    0  0.00000000000E+00  0.00000000000E+00  0.45593999997E+02  0.45594000000E+02  0.51100000000E-03 0.  1.
         11   -1    0    0    0    0 -0.00000000000E+00 -0.00000000000E+00 -0.45593999997E+02  0.45594000000E+02  0.51100000000E-03 0. -1.
    9900012    2    1    2    0    0  0.78231338649E+00 -0.20135542631E+00  0.86045158474E+00  0.90007773254E+02  0.90000035061E+02 0.  0.
         12    1    1    2    0    0 -0.78231338649E+00  0.20135542631E+00 -0.86045158474E+00  0.11802267460E+01  0.00000000000E+00 0. -1.
         11    1    3    3    0    0 -0.34295548837E+01 -0.81451803150E+01 -0.23121156698E+01  0.91351895545E+01  0.51100000000E-03 0. -1.
        -11    1    3    3    0    0  0.12704983416E+01 -0.28881878948E+02  0.24778313356E+02  0.38075476499E+02  0.51100000000E-03 0.  1.
         12    1    3    3    0    0  0.29413699285E+01  0.36825703837E+02 -0.21605746101E+02  0.42797107200E+02  0.00000000000E+00 0. -1.
</event>
<event>
 7    1  0.3032584E-015  0.9000788E+02  0.7816164E-02  0.1186339E+00
        -11   -1    0    0    0    0  0.00000000000E+00  0.00000000000E+00  0.45593999997E+02  0.45594000000E+02  0.51100000000E-03 0.  1.
         11   -1    0    0    0    0 -0.00000000000E+00 -0.00000000000E+00 -0.45593999997E+02  0.45594000000E+02  0.51100000000E-03 0. -1.
    9900012    2    1    2    0    0  0.61212632410E+00 -0.43265917853E+00  0.91148086454E+00  0.90007877139E+02  0.90000140317E+02 0.  0.
         12    1    1    2    0    0 -0.61212632410E+00  0.43265917853E+00 -0.91148086454E+00  0.11801228613E+01  0.00000000000E+00 0. -1.
         11    1    3    3    0    0 -0.28983365342E+02 -0.44703627265E+01 -0.50130351509E+01  0.29751472755E+02  0.51100000000E-03 0. -1.
        -11    1    3    3    0    0 -0.47190430781E+01  0.11849214256E+02  0.18855015698E+02  0.22763674204E+02  0.51100000000E-03 0.  1.
        -12    1    3    3    0    0  0.34314534744E+02 -0.78115107078E+01 -0.12930499682E+02  0.37492730179E+02  0.00000000000E+00 0.  1.
</event>
<event>
 7    1  0.3032584E-015  0.9000770E+02  0.7816164E-02  0.1186339E+00
        -11   -1    0    0    0    0  0.00000000000E+00  0.00000000000E+00  0.45593999997E+02  0.45594000000E+02  0.51100000000E-03 0.  1.
         11   -1    0    0    0    0 -0.00000000000E+00 -0.00000000000E+00 -0.45593999997E+02  0.45594000000E+02  0.51100000000E-03 0. -1.
    9900012    2    1    2    0    0 -0.10697138787E+01  0.15677584997E+00  0.47353512022E+00  0.90007702597E+02  0.89999963471E+02 0.  0.
         12    1    1    2    0    0  0.10697138787E+01 -0.15677584997E+00 -0.47353512022E+00  0.11802974030E+01  0.00000000000E+00 0. -1.
         11    1    3    3    0    0 -0.16918749973E+02  0.25678145120E+02  0.11339723950E+01  0.30771693666E+02  0.51100000000E-03 0. -1.
        -11    1    3    3    0    0 -0.15591275769E+02 -0.21332208455E+02  0.53360760349E+01  0.26955977174E+02  0.51100000000E-03 0.  1.
        -12    1    3    3    0    0  0.31440311863E+02 -0.41891608142E+01 -0.59965133097E+01  0.32280031757E+02  0.00000000000E+00 0.  1.
</event>
<event>
 7    1  0.3032584E-015  0.9000774E+02  0.7816164E-02  0.1186339E+00
        -11   -1    0    0    0    0  0.00000000000E+00  0.00000000000E+00  0.45593999997E+02  0.45594000000E+02  0.51100000000E-03 0.  1.
         11   -1    0    0    0    0 -0.00000000000E+00 -0.00000000000E+00 -0.45593999997E+02  0.45594000000E+02  0.51100000000E-03 0. -1.
    9900012    2    1    2    0    0 -0.26471934874E+00 -0.11482077617E+01  0.67417177376E-01  0.90007744742E+02  0.90000006173E+02 0.  0.
         12    1    1    2    0    0  0.26471934874E+00  0.11482077617E+01 -0.67417177376E-01  0.11802552577E+01  0.00000000000E+00 0. -1.
         11    1    3    3    0    0 -0.67874978085E+01  0.10684404072E+02 -0.22180308761E+01  0.12850925185E+02  0.51100000000E-03 0. -1.
        -11    1    3    3    0    0  0.17870386406E+02 -0.34515210663E+02  0.22334078391E+02  0.44827017916E+02  0.51100000000E-03 0.  1.
         12    1    3    3    0    0 -0.11347607946E+02  0.22682598829E+02 -0.20048630338E+02  0.32329801641E+02  0.00000000000E+00 0. -1.
</event>
<event>
 7    1  0.3032584E-015  0.9000772E+02  0.7816164E-02  0.1186339E+00
        -11   -1    0    0    0    0  0.00000000000E+00  0.00000000000E+00  0.45593999997E+02  0.45594000000E+02  0.51100000000E-03 0. -1.
         11   -1    0    0    0    0 -0.00000000000E+00 -0.00000000000E+00 -0.45593999997E+02  0.45594000000E+02  0.51100000000E-03 0.  1.
    9900012    2    1    2    0    0 -0.59376915761E+00  0.91676993561E+00 -0.44723649829E+00  0.90007724857E+02  0.89999986025E+02 0.  0.
         12    1    1    2    0    0  0.59376915761E+00 -0.91676993561E+00  0.44723649829E+00  0.11802751428E+01  0.00000000000E+00 0. -1.
         11    1    3    3    0    0 -0.35123103355E+01 -0.48809779549E+00 -0.54690157100E+01  0.65180285707E+01  0.51100000000E-03 0. -1.
        -11    1    3    3    0    0  0.35486884657E+02  0.21010053128E+02 -0.10295592328E+02  0.42505770629E+02  0.51100000000E-03 0.  1.
         12    1    3    3    0    0 -0.32568343479E+02 -0.19605185397E+02  0.15317371540E+02  0.40983925658E+02  0.00000000000E+00 0. -1.
</event>
<event>
 7    1  0.3032584E-015  0.9000774E+02  0.7816164E-02  0.1186339E+00
        -11   -1    0    0    0    0  0.00000000000E+00  0.00000000000E+00  0.45593999997E+02  0.45594000000E+02  0.51100000000E-03 0. -1.
         11   -1    0    0    0    0 -0.00000000000E+00 -0.00000000000E+00 -0.45593999997E+02  0.45594000000E+02  0.51100000000E-03 0.  1.
    9900012    2    1    2    0    0 -0.10749119026E+01  0.46522041987E+00  0.14543104394E+00  0.90007739086E+02  0.90000000442E+02 0.  0.
         12    1    1    2    0    0  0.10749119026E+01 -0.46522041987E+00 -0.14543104394E+00  0.11802609144E+01  0.00000000000E+00 0. -1.
         11    1    3    3    0    0 -0.93150467305E+01  0.13334152109E+01 -0.92156309993E+01  0.13171026790E+02  0.51100000000E-03 0. -1.
        -11    1    3    3    0    0 -0.28988719031E+02 -0.47951936620E+01 -0.14168956935E+02  0.32620531176E+02  0.51100000000E-03 0.  1.
         12    1    3    3    0    0  0.37228853859E+02  0.39269988710E+01  0.23530018978E+02  0.44216181120E+02  0.00000000000E+00 0. -1.
</event>
<event>
 7    1  0.3032584E-015  0.9000774E+02  0.7816164E-02  0.1186339E+00
        -11   -1    0    0    0    0  0.00000000000E+00  0.00000000000E+00  0.45593999997E+02  0.45594000000E+02  0.51100000000E-03 0. -1.
         11   -1    0    0    0    0 -0.00000000000E+00 -0.00000000000E+00 -0.45593999997E+02  0.45594000000E+02  0.51100000000E-03 0.  1.
    9900012    2    1    2    0    0 -0.87339011400E+00 -0.19076756635E+00 -0.77059291280E+00  0.90007739015E+02  0.90000000370E+02 0.  0.
         12    1    1    2    0    0  0.87339011400E+00  0.19076756635E+00  0.77059291280E+00  0.11802609851E+01  0.00000000000E+00 0. -1.
         11    1    3    3    0    0  0.32403751428E+02 -0.16551028364E+02  0.10659358546E+02  0.37915189191E+02  0.51100000000E-03 0. -1.
        -11    1    3    3    0    0  0.36196649225E+01 -0.22712581210E+01  0.58896038129E+01  0.72765390769E+01  0.51100000000E-03 0.  1.
        -12    1    3    3    0    0 -0.36896806464E+02  0.18631518919E+02 -0.17319555272E+02  0.44816010747E+02  0.00000000000E+00 0.  1.
</event>
<event>
 7    1  0.3032584E-015  0.9000779E+02  0.7816164E-02  0.1186339E+00
        -11   -1    0    0    0    0  0.00000000000E+00  0.00000000000E+00  0.45593999997E+02  0.45594000000E+02  0.51100000000E-03 0.  1.
         11   -1    0    0    0    0 -0.00000000000E+00 -0.00000000000E+00 -0.45593999997E+02  0.45594000000E+02  0.51100000000E-03 0. -1.
    9900012    2    1    2    0    0 -0.59433970586E-01  0.78989331587E+00  0.87489444206E+00  0.90007786404E+02  0.90000048385E+02 0.  0.
         12    1    1    2    0    0  0.59433970586E-01 -0.78989331587E+00 -0.87489444206E+00  0.11802135959E+01  0.00000000000E+00 0. -1.
         11    1    3    3    0    0 -0.30029750368E+02 -0.67860032481E+01  0.18086072246E+02  0.35706326565E+02  0.51100000000E-03 0. -1.
        -11    1    3    3    0    0 -0.36655828702E+00 -0.62263042328E+01  0.96536452826E+01  0.11493219605E+02  0.51100000000E-03 0.  1.
        -12    1    3    3    0    0  0.30336874684E+02  0.13802200797E+02 -0.26864823087E+02  0.42808240234E+02  0.00000000000E+00 0.  1.
</event>
<event>
 7    1  0.3032584E-015  0.9000778E+02  0.7816164E-02  0.1186339E+00
        -11   -1    0    0    0    0  0.00000000000E+00  0.00000000000E+00  0.45593999997E+02  0.45594000000E+02  0.51100000000E-03 0.  1.
         11   -1    0    0    0    0 -0.00000000000E+00 -0.00000000000E+00 -0.45593999997E+02  0.45594000000E+02  0.51100000000E-03 0. -1.
    9900012    2    1    2    0    0 -0.74351963687E+00  0.85044878274E+00 -0.34179741665E+00  0.90007783894E+02  0.90000045842E+02 0.  0.
         12    1    1    2    0    0  0.74351963687E+00 -0.85044878274E+00  0.34179741665E+00  0.11802161058E+01  0.00000000000E+00 0. -1.
         11    1    3    3    0    0  0.23050057780E+02  0.43680157184E+01 -0.30108229455E+02  0.38169231144E+02  0.51100000000E-03 0. -1.
        -11    1    3    3    0    0 -0.44819309291E+01 -0.41332788836E+01 -0.76173890608E+01  0.97568599226E+01  0.51100000000E-03 0.  1.
        -12    1    3    3    0    0 -0.19311646488E+02  0.61571194798E+00  0.37383821099E+02  0.42081692827E+02  0.00000000000E+00 0.  1.
</event>
<event>
 7    1  0.3032584E-015  0.9000773E+02  0.7816164E-02  0.1186339E+00
        -11   -1    0    0    0    0  0.00000000000E+00  0.00000000000E+00  0.45593999997E+02  0.45594000000E+02  0.51100000000E-03 0.  1.
         11   -1    0    0    0    0 -0.00000000000E+00 -0.00000000000E+00 -0.45593999997E+02  0.45594000000E+02  0.51100000000E-03 0. -1.
    9900012    2    1    2    0    0  0.11157855156E+01  0.30638219928E+00 -0.23277097540E+00  0.90007733210E+02  0.89999994488E+02 0.  0.
         12    1    1    2    0    0 -0.11157855156E+01 -0.30638219928E+00  0.23277097540E+00  0.11802667902E+01  0.00000000000E+00 0. -1.
         11    1    3    3    0    0 -0.47969661349E+01 -0.14577990389E+02 -0.38366237716E+02  0.41321869327E+02  0.51100000000E-03 0. -1.
        -11    1    3    3    0    0  0.72485477848E+01  0.72656078439E+01  0.51023379747E+00  0.10275740417E+02  0.51100000000E-03 0.  1.
        -12    1    3    3    0    0 -0.13357961342E+01  0.76187647443E+01  0.37623232944E+02  0.38410123466E+02  0.00000000000E+00 0.  1.
</event>
<event>
 7    1  0.3032584E-015  0.9000777E+02  0.7816164E-02  0.1186339E+00
        -11   -1    0    0    0    0  0.00000000000E+00  0.00000000000E+00  0.45593999997E+02  0.45594000000E+02  0.51100000000E-03 0. -1.
         11   -1    0    0    0    0 -0.00000000000E+00 -0.00000000000E+00 -0.45593999997E+02  0.45594000000E+02  0.51100000000E-03 0.  1.
    9900012    2    1    2    0    0 -0.16450637129E+00  0.11322066293E+01  0.28979605973E+00  0.90007772923E+02  0.90000034725E+02 0.  0.
         12    1    1    2    0    0  0.16450637129E+00 -0.11322066293E+01 -0.28979605973E+00  0.11802270772E+01  0.00000000000E+00 0. -1.
         11    1    3    3    0    0 -0.22332439227E+01  0.69734294525E+01 -0.63311794688E+01  0.96798724410E+01  0.51100000000E-03 0. -1.
        -11    1    3    3    0    0  0.73725316130E+01  0.35707582696E+01 -0.35711303210E+02  0.36638800666E+02  0.51100000000E-03 0.  1.
         12    1    3    3    0    0 -0.53037940617E+01 -0.94119810928E+01  0.42332278739E+02  0.43689099816E+02  0.00000000000E+00 0. -1.
</event>
<event>
 7    1  0.3032584E-015  0.9000771E+02  0.7816164E-02  0.1186339E+00
        -11   -1    0    0    0    0  0.00000000000E+00  0.00000000000E+00  0.45593999997E+02  0.45594000000E+02  0.51100000000E-03 0.  1.
         11   -1    0    0    0    0 -0.00000000000E+00 -0.00000000000E+00 -0.45593999997E+02  0.45594000000E+02  0.51100000000E-03 0. -1.
    9900012    2    1    2    0    0  0.27117974341E-01  0.60648391630E+00  0.10121942212E+01  0.90007705432E+02  0.89999966344E+02 0.  0.
         12    1    1    2    0    0 -0.27117974341E-01 -0.60648391630E+00 -0.10121942212E+01  0.11802945678E+01  0.00000000000E+00 0. -1.
         11    1    3    3    0    0 -0.11699912085E+02  0.23332835864E+02 -0.32911633476E+02  0.42005770920E+02  0.51100000000E-03 0. -1.
        -11    1    3    3    0    0 -0.32679368282E+01 -0.71155720780E+01  0.83115980580E-01  0.78305610041E+01  0.51100000000E-03 0.  1.
        -12    1    3    3    0    0  0.14994966888E+02 -0.15610779870E+02  0.33840711716E+02  0.40171373509E+02  0.00000000000E+00 0.  1.
</event>
<event>
 7    1  0.3032584E-015  0.9000775E+02  0.7816164E-02  0.1186339E+00
        -11   -1    0    0    0    0  0.00000000000E+00  0.00000000000E+00  0.45593999997E+02  0.45594000000E+02  0.51100000000E-03 0. -1.
         11   -1    0    0    0    0 -0.00000000000E+00 -0.00000000000E+00 -0.45593999997E+02  0.45594000000E+02  0.51100000000E-03 0.  1.
    9900012    2    1    2    0    0 -0.11579095579E+01  0.10285589577E+00 -0.20407980754E+00  0.90007753226E+02  0.90000014769E+02 0.  0.
         12    1    1    2    0    0  0.11579095579E+01 -0.10285589577E+00  0.20407980754E+00  0.11802467740E+01  0.00000000000E+00 0. -1.
         11    1    3    3    0    0 -0.12388840239E+02  0.62852847285E+01  0.20423353994E+01  0.14041342554E+02  0.51100000000E-03 0. -1.
        -11    1    3    3    0    0 -0.85464604075E+01  0.30026522893E+02 -0.12210582041E+02  0.33522117722E+02  0.51100000000E-03 0.  1.
         12    1    3    3    0    0  0.19777391088E+02 -0.36208951725E+02  0.99641668341E+01  0.42444292950E+02  0.00000000000E+00 0. -1.
</event>
<event>
 7    1  0.3032584E-015  0.9000779E+02  0.7816164E-02  0.1186339E+00
        -11   -1    0    0    0    0  0.00000000000E+00  0.00000000000E+00  0.45593999997E+02  0.45594000000E+02  0.51100000000E-03 0.  1.
         11   -1    0    0    0    0 -0.00000000000E+00 -0.00000000000E+00 -0.45593999997E+02  0.45594000000E+02  0.51100000000E-03 0. -1.
    9900012    2    1    2    0    0 -0.87651928051E+00 -0.76035050382E+00 -0.21560761197E+00  0.90007785791E+02  0.90000047763E+02 0.  0.
         12    1    1    2    0    0  0.87651928051E+00  0.76035050382E+00  0.21560761197E+00  0.11802142094E+01  0.00000000000E+00 0. -1.
         11    1    3    3    0    0 -0.65879150710E+01 -0.11984526269E+02  0.87294603783E+00  0.13703704971E+02  0.51100000000E-03 0. -1.
        -11    1    3    3    0    0 -0.21743377308E+02  0.31806260694E+02  0.10760892718E+02  0.40002618520E+02  0.51100000000E-03 0.  1.
         12    1    3    3    0    0  0.27454773099E+02 -0.20582084929E+02 -0.11849446368E+02  0.36301462300E+02  0.00000000000E+00 0. -1.
</event>
<event>
 7    1  0.3032584E-015  0.9000764E+02  0.7816164E-02  0.1186339E+00
        -11   -1    0    0    0    0  0.00000000000E+00  0.00000000000E+00  0.45593999997E+02  0.45594000000E+02  0.51100000000E-03 0.  1.
         11   -1    0    0    0    0 -0.00000000000E+00 -0.00000000000E+00 -0.45593999997E+02  0.45594000000E+02  0.51100000000E-03 0. -1.
    9900012    2    1    2    0    0 -0.77268366346E+00  0.14455668787E+00 -0.88052328315E+00  0.90007636525E+02  0.89999896528E+02 0.  0.
         12    1    1    2    0    0  0.77268366346E+00 -0.14455668787E+00  0.88052328315E+00  0.11803634745E+01  0.00000000000E+00 0. -1.
         11    1    3    3    0    0 -0.65618823179E+01  0.17504960372E+01 -0.59088805490E+01  0.90020778454E+01  0.51100000000E-03 0. -1.
        -11    1    3    3    0    0  0.34299047600E+02  0.20501319123E+02 -0.11122906297E+02  0.41478281026E+02  0.51100000000E-03 0.  1.
         12    1    3    3    0    0 -0.28509848946E+02 -0.22107258473E+02  0.16151263563E+02  0.39527277654E+02  0.00000000000E+00 0. -1.
</event>
<event>
 7    1  0.3032584E-015  0.9000774E+02  0.7816164E-02  0.1186339E+00
        -11   -1    0    0    0    0  0.00000000000E+00  0.00000000000E+00  0.45593999997E+02  0.45594000000E+02  0.51100000000E-03 0. -1.
         11   -1    0    0    0    0 -0.00000000000E+00 -0.00000000000E+00 -0.45593999997E+02  0.45594000000E+02  0.51100000000E-03 0.  1.
    9900012    2    1    2    0    0  0.79087375516E-01  0.50831968535E+00 -0.10622467233E+01  0.90007740784E+02  0.90000002163E+02 0.  0.
         12    1    1    2    0    0 -0.79087375516E-01 -0.50831968535E+00  0.10622467233E+01  0.11802592158E+01  0.00000000000E+00 0. -1.
         11    1    3    3    0    0 -0.20551180522E+01 -0.58752807096E+01 -0.84983129297E+01  0.10533933574E+02  0.51100000000E-03 0. -1.
        -11    1    3    3    0    0 -0.60097191755E+01 -0.15394491893E+02 -0.30667317879E+02  0.34836640070E+02  0.51100000000E-03 0.  1.
         12    1    3    3    0    0  0.81439246032E+01  0.21778092288E+02  0.38103384085E+02  0.44637167141E+02  0.00000000000E+00 0. -1.
</event>
<event>
 7    1  0.3032584E-015  0.9000742E+02  0.7816164E-02  0.1186340E+00
        -11   -1    0    0    0    0  0.00000000000E+00  0.00000000000E+00  0.45593999997E+02  0.45594000000E+02  0.51100000000E-03 0. -1.
         11   -1    0    0    0    0 -0.00000000000E+00 -0.00000000000E+00 -0.45593999997E+02  0.45594000000E+02  0.51100000000E-03 0.  1.
    9900012    2    1    2    0    0  0.84933380232E+00 -0.36966868998E+00  0.73194938429E+00  0.90007418470E+02  0.89999675593E+02 0.  0.
         12    1    1    2    0    0 -0.84933380232E+00  0.36966868998E+00 -0.73194938429E+00  0.11805815301E+01  0.00000000000E+00 0. -1.
         11    1    3    3    0    0  0.12129805569E+02  0.12983244044E+02  0.33144531064E+02  0.37606605121E+02  0.51100000000E-03 0. -1.
        -11    1    3    3    0    0  0.13149626284E+01  0.94387792051E+01  0.14962601630E+01  0.96466820375E+01  0.51100000000E-03 0.  1.
        -12    1    3    3    0    0 -0.12595434395E+02 -0.22791691940E+02 -0.33908841842E+02  0.42754131311E+02  0.00000000000E+00 0.  1.
</event>
<event>
 7    1  0.3032584E-015  0.9000777E+02  0.7816164E-02  0.1186339E+00
        -11   -1    0    0    0    0  0.00000000000E+00  0.00000000000E+00  0.45593999997E+02  0.45594000000E+02  0.51100000000E-03 0. -1.
         11   -1    0    0    0    0 -0.00000000000E+00 -0.00000000000E+00 -0.45593999997E+02  0.45594000000E+02  0.51100000000E-03 0.  1.
    9900012    2    1    2    0    0 -0.63590291398E-01 -0.46533352655E+00 -0.10827590057E+01  0.90007768633E+02  0.90000030379E+02 0.  0.
         12    1    1    2    0    0  0.63590291398E-01  0.46533352655E+00  0.10827590057E+01  0.11802313673E+01  0.00000000000E+00 0. -1.
         11    1    3    3    0    0  0.81300663500E+01  0.24811514614E+01 -0.53004970559E+01  0.10017452807E+02  0.51100000000E-03 0. -1.
        -11    1    3    3    0    0 -0.11861560783E+02 -0.18279430700E+01 -0.36844247048E+02  0.38749665042E+02  0.51100000000E-03 0.  1.
         12    1    3    3    0    0  0.36679041416E+01 -0.11185419180E+01  0.41061985099E+02  0.41240650784E+02  0.00000000000E+00 0. -1.
</event>
<event>
 7    1  0.3032584E-015  0.9000769E+02  0.7816164E-02  0.1186339E+00
        -11   -1    0    0    0    0  0.00000000000E+00  0.00000000000E+00  0.45593999997E+02  0.45594000000E+02  0.51100000000E-03 0. -1.
         11   -1    0    0    0    0 -0.00000000000E+00 -0.00000000000E+00 -0.45593999997E+02  0.45594000000E+02  0.51100000000E-03 0.  1.
    9900012    2    1    2    0    0  0.38555095360E+00  0.43897207933E+00 -0.10255655837E+01  0.90007690384E+02  0.89999951097E+02 0.  0.
         12    1    1    2    0    0 -0.38555095360E+00 -0.43897207933E+00  0.10255655837E+01  0.11803096165E+01  0.00000000000E+00 0. -1.
         11    1    3    3    0    0  0.93394855644E+00 -0.10373859665E+02 -0.57872478764E+01  0.11915597446E+02  0.51100000000E-03 0. -1.
        -11    1    3    3    0    0 -0.77134042977E+01 -0.30286306635E+02 -0.11519771146E+02  0.33308589027E+02  0.51100000000E-03 0.  1.
         12    1    3    3    0    0  0.71650066948E+01  0.41099138379E+02  0.16281453439E+02  0.44783503911E+02  0.00000000000E+00 0. -1.
</event>
<event>
 7    1  0.3032584E-015  0.9000771E+02  0.7816164E-02  0.1186339E+00
        -11   -1    0    0    0    0  0.00000000000E+00  0.00000000000E+00  0.45593999997E+02  0.45594000000E+02  0.51100000000E-03 0.  1.
         11   -1    0    0    0    0 -0.00000000000E+00 -0.00000000000E+00 -0.45593999997E+02  0.45594000000E+02  0.51100000000E-03 0. -1.
    9900012    2    1    2    0    0  0.67158089966E+00 -0.92497315578E+00 -0.29407817323E+00  0.90007712655E+02  0.89999973663E+02 0.  0.
         12    1    1    2    0    0 -0.67158089966E+00  0.92497315578E+00  0.29407817323E+00  0.11802873445E+01  0.00000000000E+00 0. -1.
         11    1    3    3    0    0 -0.11577611468E+02  0.25097148498E+02  0.25923650255E+02  0.37893846372E+02  0.51100000000E-03 0. -1.
        -11    1    3    3    0    0  0.53464600758E+01 -0.54197232381E+01  0.83405087154E+01  0.11292569292E+02  0.51100000000E-03 0.  1.
        -12    1    3    3    0    0  0.69027322915E+01 -0.20602398416E+02 -0.34558237144E+02  0.40821296992E+02  0.00000000000E+00 0.  1.
</event>
<event>
 7    1  0.3032584E-015  0.9000769E+02  0.7816164E-02  0.1186339E+00
        -11   -1    0    0    0    0  0.00000000000E+00  0.00000000000E+00  0.45593999997E+02  0.45594000000E+02  0.51100000000E-03 0. -1.
         11   -1    0    0    0    0 -0.00000000000E+00 -0.00000000000E+00 -0.45593999997E+02  0.45594000000E+02  0.51100000000E-03 0.  1.
    9900012    2    1    2    0    0 -0.57787299820E+00  0.26005023807E+00 -0.99577050499E+00  0.90007694011E+02  0.89999954772E+02 0.  0.
         12    1    1    2    0    0  0.57787299820E+00 -0.26005023807E+00  0.99577050499E+00  0.11803059887E+01  0.00000000000E+00 0. -1.
         11    1    3    3    0    0 -0.63779748786E+01 -0.32552320138E+01  0.68297270668E+01  0.98954671988E+01  0.51100000000E-03 0. -1.
        -11    1    3    3    0    0  0.32503747291E+02 -0.23294610329E+02  0.46739275601E+01  0.40261371778E+02  0.51100000000E-03 0.  1.
         12    1    3    3    0    0 -0.26703645410E+02  0.26809892581E+02 -0.12499425132E+02  0.39850855035E+02  0.00000000000E+00 0. -1.
</event>
<event>
 7    1  0.3032584E-015  0.9000777E+02  0.7816164E-02  0.1186339E+00
        -11   -1    0    0    0    0  0.00000000000E+00  0.00000000000E+00  0.45593999997E+02  0.45594000000E+02  0.51100000000E-03 0. -1.
         11   -1    0    0    0    0 -0.00000000000E+00 -0.00000000000E+00 -0.45593999997E+02  0.45594000000E+02  0.51100000000E-03 0.  1.
    9900012    2    1    2    0    0 -0.13824646007E+00  0.90045046471E+00 -0.75034831828E+00  0.90007768785E+02  0.90000030533E+02 0.  0.
         12    1    1    2    0    0  0.13824646007E+00 -0.90045046471E+00  0.75034831828E+00  0.11802312154E+01  0.00000000000E+00 0. -1.
         11    1    3    3    0    0 -0.34801099987E+02 -0.12462409643E+02 -0.26182735512E+01  0.37057840885E+02  0.51100000000E-03 0. -1.
        -11    1    3    3    0    0 -0.81694911686E+01  0.32266822047E+01  0.16319147056E+01  0.89339358556E+01  0.51100000000E-03 0.  1.
        -12    1    3    3    0    0  0.42832344696E+02  0.10136177903E+02  0.23601052730E+00  0.44015992044E+02  0.00000000000E+00 0.  1.
</event>
<event>
 7    1  0.3032584E-015  0.9000778E+02  0.7816164E-02  0.1186339E+00
        -11   -1    0    0    0    0  0.00000000000E+00  0.00000000000E+00  0.45593999997E+02  0.45594000000E+02  0.51100000000E-03 0. -1.
         11   -1    0    0    0    0 -0.00000000000E+00 -0.00000000000E+00 -0.45593999997E+02  0.45594000000E+02  0.51100000000E-03 0.  1.
    9900012    2    1    2    0    0 -0.40906883321E+00 -0.83814629323E+00 -0.72325764332E+00  0.90007776234E+02  0.90000038080E+02 0.  0.
         12    1    1    2    0    0  0.40906883321E+00  0.83814629323E+00  0.72325764332E+00  0.11802237660E+01  0.00000000000E+00 0. -1.
         11    1    3    3    0    0  0.10339654992E+01 -0.58728063603E+01 -0.60028970645E+01  0.84613067919E+01  0.51100000000E-03 0. -1.
        -11    1    3    3    0    0 -0.38138020605E+02 -0.57191956678E+01  0.16124976966E+02  0.41799912646E+02  0.51100000000E-03 0.  1.
         12    1    3    3    0    0  0.36694986273E+02  0.10753855735E+02 -0.10845337545E+02  0.39746556797E+02  0.00000000000E+00 0. -1.
</event>
<event>
 7    1  0.3032584E-015  0.9000751E+02  0.7816164E-02  0.1186340E+00
        -11   -1    0    0    0    0  0.00000000000E+00  0.00000000000E+00  0.45593999997E+02  0.45594000000E+02  0.51100000000E-03 0. -1.
         11   -1    0    0    0    0 -0.00000000000E+00 -0.00000000000E+00 -0.45593999997E+02  0.45594000000E+02  0.51100000000E-03 0.  1.
    9900012    2    1    2    0    0  0.37076563367E+00  0.11099254517E+01  0.15545531342E+00  0.90007505181E+02  0.89999763449E+02 0.  0.
         12    1    1    2    0    0 -0.37076563367E+00 -0.11099254517E+01 -0.15545531342E+00  0.11804948191E+01  0.00000000000E+00 0. -1.
         11    1    3    3    0    0 -0.15320945970E+02  0.11047090897E+01 -0.30147923212E+01  0.15653777199E+02  0.51100000000E-03 0. -1.
        -11    1    3    3    0    0 -0.23163445301E+02 -0.19053766674E+02 -0.47207179904E+01  0.30362417580E+02  0.51100000000E-03 0.  1.
         12    1    3    3    0    0  0.38855156904E+02  0.19058983036E+02  0.78909656250E+01  0.43991310403E+02  0.00000000000E+00 0. -1.
</event>
<event>
 7    1  0.3032584E-015  0.9000786E+02  0.7816164E-02  0.1186339E+00
        -11   -1    0    0    0    0  0.00000000000E+00  0.00000000000E+00  0.45593999997E+02  0.45594000000E+02  0.51100000000E-03 0. -1.
         11   -1    0    0    0    0 -0.00000000000E+00 -0.00000000000E+00 -0.45593999997E+02  0.45594000000E+02  0.51100000000E-03 0.  1.
    9900012    2    1    2    0    0 -0.43444675068E+00  0.58026159715E+00 -0.93128012382E+00  0.90007860106E+02  0.90000123059E+02 0.  0.
         12    1    1    2    0    0  0.43444675068E+00 -0.58026159715E+00  0.93128012382E+00  0.11801398940E+01  0.00000000000E+00 0. -1.
         11    1    3    3    0    0 -0.23164217604E+02  0.18182140495E+02  0.19702930551E+02  0.35431295245E+02  0.51100000000E-03 0. -1.
        -11    1    3    3    0    0  0.81366049824E+01  0.38351138141E+01  0.10650724907E+02  0.13940960509E+02  0.51100000000E-03 0.  1.
        -12    1    3    3    0    0  0.14593165871E+02 -0.21436992712E+02 -0.31284935582E+02  0.40635604352E+02  0.00000000000E+00 0.  1.
</event>
<event>
 7    1  0.3032584E-015  0.9000778E+02  0.7816164E-02  0.1186339E+00
        -11   -1    0    0    0    0  0.00000000000E+00  0.00000000000E+00  0.45593999997E+02  0.45594000000E+02  0.51100000000E-03 0.  1.
         11   -1    0    0    0    0 -0.00000000000E+00 -0.00000000000E+00 -0.45593999997E+02  0.45594000000E+02  0.51100000000E-03 0. -1.
    9900012    2    1    2    0    0  0.10658027659E+01  0.79290512055E-01 -0.50070366721E+00  0.90007776850E+02  0.90000038705E+02 0.  0.
         12    1    1    2    0    0 -0.10658027659E+01 -0.79290512055E-01  0.50070366721E+00  0.11802231499E+01  0.00000000000E+00 0. -1.
         11    1    3    3    0    0 -0.22798652908E+02  0.21653813591E+02 -0.21845205147E+02  0.38286801977E+02  0.51100000000E-03 0. -1.
        -11    1    3    3    0    0  0.24757915571E+01 -0.11255168974E+01 -0.89610121557E+01  0.93646180507E+01  0.51100000000E-03 0.  1.
        -12    1    3    3    0    0  0.21388664117E+02 -0.20449006181E+02  0.30305513636E+02  0.42356356822E+02  0.00000000000E+00 0.  1.
</event>
<event>
 7    1  0.3032584E-015  0.9000777E+02  0.7816164E-02  0.1186339E+00
        -11   -1    0    0    0    0  0.00000000000E+00  0.00000000000E+00  0.45593999997E+02  0.45594000000E+02  0.51100000000E-03 0.  1.
         11   -1    0    0    0    0 -0.00000000000E+00 -0.00000000000E+00 -0.45593999997E+02  0.45594000000E+02  0.51100000000E-03 0. -1.
    9900012    2    1    2    0    0 -0.85754077488E+00  0.78249731840E+00  0.21276451027E+00  0.90007768256E+02  0.90000029996E+02 0.  0.
         12    1    1    2    0    0  0.85754077488E+00 -0.78249731840E+00 -0.21276451027E+00  0.11802317445E+01  0.00000000000E+00 0. -1.
         11    1    3    3    0    0 -0.29855577621E+02  0.23306369182E+02 -0.10348888308E+02  0.39263747262E+02  0.51100000000E-03 0. -1.
        -11    1    3    3    0    0  0.35185239856E+01  0.81777926164E+01 -0.15765082562E+01  0.90411106429E+01  0.51100000000E-03 0.  1.
        -12    1    3    3    0    0  0.25479512861E+02 -0.30701664480E+02  0.12138161075E+02  0.41702910351E+02  0.00000000000E+00 0.  1.
</event>
<event>
 7    1  0.3032584E-015  0.9000774E+02  0.7816164E-02  0.1186339E+00
        -11   -1    0    0    0    0  0.00000000000E+00  0.00000000000E+00  0.45593999997E+02  0.45594000000E+02  0.51100000000E-03 0. -1.
         11   -1    0    0    0    0 -0.00000000000E+00 -0.00000000000E+00 -0.45593999997E+02  0.45594000000E+02  0.51100000000E-03 0.  1.
    9900012    2    1    2    0    0  0.74672264057E+00  0.64610489125E+00 -0.64651189590E+00  0.90007735680E+02  0.89999996991E+02 0.  0.
         12    1    1    2    0    0 -0.74672264057E+00 -0.64610489125E+00  0.64651189590E+00  0.11802643195E+01  0.00000000000E+00 0. -1.
         11    1    3    3    0    0  0.23453273343E+00  0.31811267922E+02 -0.17451890568E+02  0.36284711065E+02  0.51100000000E-03 0. -1.
        -11    1    3    3    0    0 -0.20900352450E+00  0.35361170688E+01 -0.95216069073E+01  0.10159173429E+02  0.51100000000E-03 0.  1.
        -12    1    3    3    0    0  0.72119343164E+00 -0.34701280100E+02  0.26326985579E+02  0.43563851187E+02  0.00000000000E+00 0.  1.
</event>
<event>
 7    1  0.3032584E-015  0.9000777E+02  0.7816164E-02  0.1186339E+00
        -11   -1    0    0    0    0  0.00000000000E+00  0.00000000000E+00  0.45593999997E+02  0.45594000000E+02  0.51100000000E-03 0.  1.
         11   -1    0    0    0    0 -0.00000000000E+00 -0.00000000000E+00 -0.45593999997E+02  0.45594000000E+02  0.51100000000E-03 0. -1.
    9900012    2    1    2    0    0 -0.47113147032E+00 -0.40640805480E+00  0.10029068319E+01  0.90007765073E+02  0.90000026772E+02 0.  0.
         12    1    1    2    0    0  0.47113147032E+00  0.40640805480E+00 -0.10029068319E+01  0.11802349270E+01  0.00000000000E+00 0. -1.
         11    1    3    3    0    0 -0.14716821952E+02 -0.33012132796E+01 -0.31776677715E+02  0.35174424009E+02  0.51100000000E-03 0. -1.
        -11    1    3    3    0    0 -0.42155389710E+00  0.14510052166E+01 -0.97272817661E+01  0.98439389801E+01  0.51100000000E-03 0.  1.
        -12    1    3    3    0    0  0.14667244379E+02  0.14438000082E+01  0.42506866313E+02  0.44989402084E+02  0.00000000000E+00 0.  1.
</event>
<event>
 7    1  0.3032584E-015  0.9000780E+02  0.7816164E-02  0.1186339E+00
        -11   -1    0    0    0    0  0.00000000000E+00  0.00000000000E+00  0.45593999997E+02  0.45594000000E+02  0.51100000000E-03 0. -1.
         11   -1    0    0    0    0 -0.00000000000E+00 -0.00000000000E+00 -0.45593999997E+02  0.45594000000E+02  0.51100000000E-03 0.  1.
    9900012    2    1    2    0    0 -0.48640273132E+00  0.95107927140E+00 -0.50174006145E+00  0.90007795574E+02  0.90000057676E+02 0.  0.
         12    1    1    2    0    0  0.48640273132E+00 -0.95107927140E+00  0.50174006145E+00  0.11802044258E+01  0.00000000000E+00 0. -1.
         11    1    3    3    0    0  0.80835243225E+01 -0.56985359934E+01  0.50660838877E+01  0.11112240285E+02  0.51100000000E-03 0. -1.
        -11    1    3    3    0    0  0.31232259891E+02 -0.45707163423E+01  0.12260818080E+02  0.33862562899E+02  0.51100000000E-03 0.  1.
         12    1    3    3    0    0 -0.39802186945E+02  0.11220331607E+02 -0.17828642029E+02  0.45032992390E+02  0.00000000000E+00 0. -1.
</event>
<event>
 7    1  0.3032584E-015  0.9000776E+02  0.7816164E-02  0.1186339E+00
        -11   -1    0    0    0    0  0.00000000000E+00  0.00000000000E+00  0.45593999997E+02  0.45594000000E+02  0.51100000000E-03 0.  1.
         11   -1    0    0    0    0 -0.00000000000E+00 -0.00000000000E+00 -0.45593999997E+02  0.45594000000E+02  0.51100000000E-03 0. -1.
    9900012    2    1    2    0    0  0.36567975052E+00  0.10793826531E+01 -0.30687404680E+00  0.90007762620E+02  0.90000024287E+02 0.  0.
         12    1    1    2    0    0 -0.36567975052E+00 -0.10793826531E+01  0.30687404680E+00  0.11802373797E+01  0.00000000000E+00 0. -1.
         11    1    3    3    0    0  0.75200317584E+01  0.73852436079E+01 -0.23648762826E+01  0.10802098911E+02  0.51100000000E-03 0. -1.
        -11    1    3    3    0    0  0.34685577973E+02  0.30244657557E+01  0.85438085576E+01  0.35850151707E+02  0.51100000000E-03 0.  1.
         12    1    3    3    0    0 -0.41839929981E+02 -0.93303267105E+01 -0.64858063218E+01  0.43355512003E+02  0.00000000000E+00 0. -1.
</event>
<event>
 7    1  0.3032584E-015  0.9000778E+02  0.7816164E-02  0.1186339E+00
        -11   -1    0    0    0    0  0.00000000000E+00  0.00000000000E+00  0.45593999997E+02  0.45594000000E+02  0.51100000000E-03 0.  1.
         11   -1    0    0    0    0 -0.00000000000E+00 -0.00000000000E+00 -0.45593999997E+02  0.45594000000E+02  0.51100000000E-03 0. -1.
    9900012    2    1    2    0    0 -0.18586853255E+00  0.64349810094E+00 -0.97174311328E+00  0.90007779006E+02  0.90000040889E+02 0.  0.
         12    1    1    2    0    0  0.18586853255E+00 -0.64349810094E+00  0.97174311328E+00  0.11802209944E+01  0.00000000000E+00 0. -1.
         11    1    3    3    0    0  0.27101634271E+01 -0.80162762402E+01  0.33311108541E+01  0.90940623675E+01  0.51100000000E-03 0. -1.
        -11    1    3    3    0    0  0.16983058174E+02 -0.24997301486E+02 -0.22617011957E+02  0.37746769089E+02  0.51100000000E-03 0.  1.
         12    1    3    3    0    0 -0.19879090134E+02  0.33657075827E+02  0.18314157990E+02  0.43166947549E+02  0.00000000000E+00 0. -1.
</event>
<event>
 7    1  0.3032584E-015  0.9000773E+02  0.7816164E-02  0.1186339E+00
        -11   -1    0    0    0    0  0.00000000000E+00  0.00000000000E+00  0.45593999997E+02  0.45594000000E+02  0.51100000000E-03 0. -1.
         11   -1    0    0    0    0 -0.00000000000E+00 -0.00000000000E+00 -0.45593999997E+02  0.45594000000E+02  0.51100000000E-03 0.  1.
    9900012    2    1    2    0    0 -0.10450558493E+01 -0.50421681889E+00 -0.21598696435E+00  0.90007734480E+02  0.89999995775E+02 0.  0.
         12    1    1    2    0    0  0.10450558493E+01  0.50421681889E+00  0.21598696435E+00  0.11802655198E+01  0.00000000000E+00 0. -1.
         11    1    3    3    0    0 -0.16132478246E+01  0.91489937922E+01  0.16449864457E+01  0.94346508479E+01  0.51100000000E-03 0. -1.
        -11    1    3    3    0    0 -0.44129979604E+01  0.34087842952E+02  0.83687150679E+01  0.35376418420E+02  0.51100000000E-03 0.  1.
         12    1    3    3    0    0  0.49811899358E+01 -0.43741053563E+02 -0.10229688478E+02  0.45196665212E+02  0.00000000000E+00 0. -1.
</event>
<event>
 7    1  0.3032584E-015  0.9000751E+02  0.7816164E-02  0.1186340E+00
        -11   -1    0    0    0    0  0.00000000000E+00  0.00000000000E+00  0.45593999997E+02  0.45594000000E+02  0.51100000000E-03 0. -1.
         11   -1    0    0    0    0 -0.00000000000E+00 -0.00000000000E+00 -0.45593999997E+02  0.45594000000E+02  0.51100000000E-03 0.  1.
    9900012    2    1    2    0    0 -0.81664201299E-01 -0.11287140012E+01 -0.33599212708E+00  0.90007510674E+02  0.89999769015E+02 0.  0.
         12    1    1    2    0    0  0.81664201299E-01  0.11287140012E+01  0.33599212708E+00  0.11804893256E+01  0.00000000000E+00 0. -1.
         11    1    3    3    0    0 -0.33946635287E+02 -0.17558304349E+02  0.14747654135E+02  0.40965368321E+02  0.51100000000E-03 0. -1.
        -11    1    3    3    0    0  0.49664561194E+01 -0.73538985564E+01 -0.53812073458E+01  0.10378000921E+02  0.51100000000E-03 0.  1.
        -12    1    3    3    0    0  0.28898514967E+02  0.23783488904E+02 -0.97024389166E+01  0.38664141432E+02  0.00000000000E+00 0.  1.
</event>
<event>
 7    1  0.3032584E-015  0.9000779E+02  0.7816164E-02  0.1186339E+00
        -11   -1    0    0    0    0  0.00000000000E+00  0.00000000000E+00  0.45593999997E+02  0.45594000000E+02  0.51100000000E-03 0. -1.
         11   -1    0    0    0    0 -0.00000000000E+00 -0.00000000000E+00 -0.45593999997E+02  0.45594000000E+02  0.51100000000E-03 0.  1.
    9900012    2    1    2    0    0 -0.63719016750E+00 -0.20203133310E+00 -0.97266516875E+00  0.90007785825E+02  0.90000047798E+02 0.  0.
         12    1    1    2    0    0  0.63719016750E+00  0.20203133310E+00  0.97266516875E+00  0.11802141753E+01  0.00000000000E+00 0. -1.
         11    1    3    3    0    0 -0.72947898843E+00 -0.85414999071E+01  0.30609706486E+01  0.91026865172E+01  0.51100000000E-03 0. -1.
        -11    1    3    3    0    0 -0.22936470323E+01 -0.27102093460E+02 -0.27224530471E+02  0.38483234613E+02  0.51100000000E-03 0.  1.
         12    1    3    3    0    0  0.23859358532E+01  0.35441562034E+02  0.23190894654E+02  0.42421864695E+02  0.00000000000E+00 0. -1.
</event>
<event>
 7    1  0.3032584E-015  0.9000776E+02  0.7816164E-02  0.1186339E+00
        -11   -1    0    0    0    0  0.00000000000E+00  0.00000000000E+00  0.45593999997E+02  0.45594000000E+02  0.51100000000E-03 0.  1.
         11   -1    0    0    0    0 -0.00000000000E+00 -0.00000000000E+00 -0.45593999997E+02  0.45594000000E+02  0.51100000000E-03 0. -1.
    9900012    2    1    2    0    0  0.97613300263E+00  0.59998694864E+00 -0.28310003854E+00  0.90007760359E+02  0.90000021996E+02 0.  0.
         12    1    1    2    0    0 -0.97613300263E+00 -0.59998694864E+00  0.28310003854E+00  0.11802396406E+01  0.00000000000E+00 0. -1.
         11    1    3    3    0    0 -0.45476821344E+01  0.45613891324E+01 -0.47870714019E+01  0.80251938594E+01  0.51100000000E-03 0. -1.
        -11    1    3    3    0    0 -0.47057128797E+01  0.16643277638E+02  0.37767405058E+02  0.41539370593E+02  0.51100000000E-03 0.  1.
         12    1    3    3    0    0  0.10229528017E+02 -0.20604679822E+02 -0.33263433694E+02  0.40443195907E+02  0.00000000000E+00 0. -1.
</event>
<event>
 7    1  0.3032584E-015  0.9000776E+02  0.7816164E-02  0.1186339E+00
        -11   -1    0    0    0    0  0.00000000000E+00  0.00000000000E+00  0.45593999997E+02  0.45594000000E+02  0.51100000000E-03 0. -1.
         11   -1    0    0    0    0 -0.00000000000E+00 -0.00000000000E+00 -0.45593999997E+02  0.45594000000E+02  0.51100000000E-03 0.  1.
    9900012    2    1    2    0    0 -0.74109353997E+00 -0.66949872546E+00 -0.62890001266E+00  0.90007761294E+02  0.90000022943E+02 0.  0.
         12    1    1    2    0    0  0.74109353997E+00  0.66949872546E+00  0.62890001266E+00  0.11802387065E+01  0.00000000000E+00 0. -1.
         11    1    3    3    0    0 -0.26619268094E+01  0.50986349550E+01  0.47838007047E+01  0.74810883022E+01  0.51100000000E-03 0. -1.
        -11    1    3    3    0    0 -0.12701839872E+02 -0.71455726140E+01 -0.41275487018E+02  0.43772842870E+02  0.51100000000E-03 0.  1.
         12    1    3    3    0    0  0.14622673142E+02  0.13774389336E+01  0.35862786300E+02  0.38753830121E+02  0.00000000000E+00 0. -1.
</event>
<event>
 7    1  0.3032584E-015  0.9000762E+02  0.7816164E-02  0.1186339E+00
        -11   -1    0    0    0    0  0.00000000000E+00  0.00000000000E+00  0.45593999997E+02  0.45594000000E+02  0.51100000000E-03 0. -1.
         11   -1    0    0    0    0 -0.00000000000E+00 -0.00000000000E+00 -0.45593999997E+02  0.45594000000E+02  0.51100000000E-03 0.  1.
    9900012    2    1    2    0    0  0.80213043737E+00 -0.79286583906E+00 -0.34821627045E+00  0.90007616991E+02  0.89999876735E+02 0.  0.
         12    1    1    2    0    0 -0.80213043737E+00  0.79286583906E+00  0.34821627045E+00  0.11803830092E+01  0.00000000000E+00 0. -1.
         11    1    3    3    0    0 -0.63695973062E+01 -0.35296533653E+02  0.12863063110E+02  0.38103483444E+02  0.51100000000E-03 0. -1.
        -11    1    3    3    0    0  0.46111912578E+01  0.13222322595E+01 -0.17685599048E+02  0.18324622695E+02  0.51100000000E-03 0.  1.
        -12    1    3    3    0    0  0.25605364857E+01  0.33181435554E+02  0.44743196675E+01  0.33579510852E+02  0.00000000000E+00 0.  1.
</event>
<event>
 7    1  0.3032584E-015  0.9000780E+02  0.7816164E-02  0.1186339E+00
        -11   -1    0    0    0    0  0.00000000000E+00  0.00000000000E+00  0.45593999997E+02  0.45594000000E+02  0.51100000000E-03 0.  1.
         11   -1    0    0    0    0 -0.00000000000E+00 -0.00000000000E+00 -0.45593999997E+02  0.45594000000E+02  0.51100000000E-03 0. -1.
    9900012    2    1    2    0    0  0.67263185742E+00 -0.53186160208E+00  0.81090888238E+00  0.90007795105E+02  0.90000057200E+02 0.  0.
         12    1    1    2    0    0 -0.67263185742E+00  0.53186160208E+00 -0.81090888238E+00  0.11802048953E+01  0.00000000000E+00 0. -1.
         11    1    3    3    0    0 -0.17804413640E+02 -0.13972952866E+02 -0.34568891769E+02  0.41318867787E+02  0.51100000000E-03 0. -1.
        -11    1    3    3    0    0  0.46635641030E+01  0.90654887896E+01 -0.27904660341E+00  0.10198518736E+02  0.51100000000E-03 0.  1.
        -12    1    3    3    0    0  0.13813481395E+02  0.43756024740E+01  0.35658847254E+02  0.38490408581E+02  0.00000000000E+00 0.  1.
</event>
<event>
 7    1  0.3032584E-015  0.9000774E+02  0.7816164E-02  0.1186339E+00
        -11   -1    0    0    0    0  0.00000000000E+00  0.00000000000E+00  0.45593999997E+02  0.45594000000E+02  0.51100000000E-03 0. -1.
         11   -1    0    0    0    0 -0.00000000000E+00 -0.00000000000E+00 -0.45593999997E+02  0.45594000000E+02  0.51100000000E-03 0.  1.
    9900012    2    1    2    0    0  0.72895896405E+00  0.81533944928E-01 -0.92464810406E+00  0.90007744489E+02  0.90000005916E+02 0.  0.
         12    1    1    2    0    0 -0.72895896405E+00 -0.81533944928E-01  0.92464810406E+00  0.11802555112E+01  0.00000000000E+00 0. -1.
         11    1    3    3    0    0  0.69688498870E+01 -0.69642065218E+01 -0.15822858959E+01  0.99784102012E+01  0.51100000000E-03 0. -1.
        -11    1    3    3    0    0  0.11308435741E+02 -0.32576548950E+02 -0.89854858001E+01  0.35634971808E+02  0.51100000000E-03 0.  1.
         12    1    3    3    0    0 -0.17548326664E+02  0.39622289417E+02  0.96431235919E+01  0.44394362480E+02  0.00000000000E+00 0. -1.
</event>
<event>
 7    1  0.3032584E-015  0.9000774E+02  0.7816164E-02  0.1186339E+00
        -11   -1    0    0    0    0  0.00000000000E+00  0.00000000000E+00  0.45593999997E+02  0.45594000000E+02  0.51100000000E-03 0.  1.
         11   -1    0    0    0    0 -0.00000000000E+00 -0.00000000000E+00 -0.45593999997E+02  0.45594000000E+02  0.51100000000E-03 0. -1.
    9900012    2    1    2    0    0  0.20071566751E+00  0.63059215253E+00  0.97727670493E+00  0.90007744519E+02  0.90000005947E+02 0.  0.
         12    1    1    2    0    0 -0.20071566751E+00 -0.63059215253E+00 -0.97727670493E+00  0.11802554808E+01  0.00000000000E+00 0. -1.
         11    1    3    3    0    0 -0.12055175245E+02  0.32571275153E+02  0.10331501431E+02  0.36234722813E+02  0.51100000000E-03 0. -1.
        -11    1    3    3    0    0 -0.62670308818E+01  0.65496951389E+01  0.25740492007E+01  0.94233705242E+01  0.51100000000E-03 0.  1.
        -12    1    3    3    0    0  0.18522921794E+02 -0.38490378139E+02 -0.11928273927E+02  0.44349651182E+02  0.00000000000E+00 0.  1.
</event>
<event>
 7    1  0.3032584E-015  0.9000779E+02  0.7816164E-02  0.1186339E+00
        -11   -1    0    0    0    0  0.00000000000E+00  0.00000000000E+00  0.45593999997E+02  0.45594000000E+02  0.51100000000E-03 0.  1.
         11   -1    0    0    0    0 -0.00000000000E+00 -0.00000000000E+00 -0.45593999997E+02  0.45594000000E+02  0.51100000000E-03 0. -1.
    9900012    2    1    2    0    0  0.92671549058E+00  0.70359317867E+00  0.19762949018E+00  0.90007787148E+02  0.90000049138E+02 0.  0.
         12    1    1    2    0    0 -0.92671549058E+00 -0.70359317867E+00 -0.19762949018E+00  0.11802128524E+01  0.00000000000E+00 0. -1.
         11    1    3    3    0    0  0.22040764054E+02  0.13689544930E+02 -0.33488714821E+02  0.42363816414E+02  0.51100000000E-03 0. -1.
        -11    1    3    3    0    0 -0.97963470603E+01 -0.28950270985E+01 -0.51909201056E+00  0.10228345634E+02  0.51100000000E-03 0.  1.
        -12    1    3    3    0    0 -0.11317701504E+02 -0.10090924653E+02  0.34205436322E+02  0.37415625100E+02  0.00000000000E+00 0.  1.
</event>
<event>
 7    1  0.4219301E-015  0.9000773E+02  0.7816164E-02  0.1186339E+00
        -11   -1    0    0    0    0  0.00000000000E+00  0.00000000000E+00  0.45593999997E+02  0.45594000000E+02  0.51100000000E-03 0.  1.
         11   -1    0    0    0    0 -0.00000000000E+00 -0.00000000000E+00 -0.45593999997E+02  0.45594000000E+02  0.51100000000E-03 0. -1.
    9900012    2    1    2    0    0 -0.84457939632E+00  0.77525528483E+00  0.28055984318E+00  0.90007725058E+02  0.89999986229E+02 0.  0.
         12    1    1    2    0    0  0.84457939632E+00 -0.77525528483E+00 -0.28055984318E+00  0.11802749421E+01  0.00000000000E+00 0. -1.
         11    1    3    3    0    0 -0.44066073911E+01 -0.26006780371E+02 -0.27617372916E+02  0.38190183306E+02  0.51100000000E-03 0. -1.
        -11    1    3    3    0    0 -0.17793073735E+01  0.42041575179E+01 -0.79201964914E+01  0.91416840838E+01  0.51100000000E-03 0.  1.
        -12    1    3    3    0    0  0.53413353683E+01  0.22577878137E+02  0.35818129250E+02  0.42675857668E+02  0.00000000000E+00 0.  1.
</event>
<event>
 7    1  0.3032584E-015  0.9000765E+02  0.7816164E-02  0.1186339E+00
        -11   -1    0    0    0    0  0.00000000000E+00  0.00000000000E+00  0.45593999997E+02  0.45594000000E+02  0.51100000000E-03 0.  1.
         11   -1    0    0    0    0 -0.00000000000E+00 -0.00000000000E+00 -0.45593999997E+02  0.45594000000E+02  0.51100000000E-03 0. -1.
    9900012    2    1    2    0    0  0.75943657580E+00  0.20815300611E+00  0.87928813007E+00  0.90007652931E+02  0.89999913150E+02 0.  0.
         12    1    1    2    0    0 -0.75943657580E+00 -0.20815300611E+00 -0.87928813007E+00  0.11803470686E+01  0.00000000000E+00 0. -1.
         11    1    3    3    0    0  0.44508521461E+00 -0.22242018725E+02  0.30516798653E+02  0.37764805019E+02  0.51100000000E-03 0. -1.
        -11    1    3    3    0    0 -0.45570258046E+01 -0.87371376205E+01 -0.15208488745E+01  0.99708093726E+01  0.51100000000E-03 0.  1.
        -12    1    3    3    0    0  0.48713771658E+01  0.31187309351E+02 -0.28116661649E+02  0.42272038540E+02  0.00000000000E+00 0.  1.
</event>
<event>
 7    1  0.3032584E-015  0.9000782E+02  0.7816164E-02  0.1186339E+00
        -11   -1    0    0    0    0  0.00000000000E+00  0.00000000000E+00  0.45593999997E+02  0.45594000000E+02  0.51100000000E-03 0.  1.
         11   -1    0    0    0    0 -0.00000000000E+00 -0.00000000000E+00 -0.45593999997E+02  0.45594000000E+02  0.51100000000E-03 0. -1.
    9900012    2    1    2    0    0 -0.11163353441E+00 -0.11303501675E+01  0.32040651233E+00  0.90007824640E+02  0.90000087125E+02 0.  0.
         12    1    1    2    0    0  0.11163353441E+00  0.11303501675E+01 -0.32040651233E+00  0.11801753600E+01  0.00000000000E+00 0. -1.
         11    1    3    3    0    0  0.53364841354E+01  0.10573775154E+01 -0.69811699490E+01  0.88505844019E+01  0.51100000000E-03 0. -1.
        -11    1    3    3    0    0  0.27874209045E+02 -0.26264110857E+02 -0.40406729785E+01  0.38511064480E+02  0.51100000000E-03 0.  1.
         12    1    3    3    0    0 -0.33322326715E+02  0.24076383175E+02  0.11342249440E+02  0.42646175758E+02  0.00000000000E+00 0. -1.
</event>
<event>
 7    1  0.3032584E-015  0.9000642E+02  0.7816164E-02  0.1186342E+00
        -11   -1    0    0    0    0  0.00000000000E+00  0.00000000000E+00  0.45593999997E+02  0.45594000000E+02  0.51100000000E-03 0. -1.
         11   -1    0    0    0    0 -0.00000000000E+00 -0.00000000000E+00 -0.45593999997E+02  0.45594000000E+02  0.51100000000E-03 0.  1.
    9900012    2    1    2    0    0 -0.58022392733E+00  0.99123896568E-01 -0.10245219340E+01  0.90006420318E+02  0.89998664256E+02 0.  0.
         12    1    1    2    0    0  0.58022392733E+00 -0.99123896568E-01  0.10245219340E+01  0.11815796825E+01  0.00000000000E+00 0. -1.
         11    1    3    3    0    0  0.38582571710E+02 -0.20377862864E+00 -0.14678685952E+00  0.38583389070E+02  0.51100000000E-03 0. -1.
        -11    1    3    3    0    0  0.29750013760E+01 -0.73719813111E+01  0.28144676184E+01  0.84331470919E+01  0.51100000000E-03 0.  1.
        -12    1    3    3    0    0 -0.42137797013E+02  0.76748838363E+01 -0.36922026929E+01  0.42989884156E+02  0.00000000000E+00 0.  1.
</event>
<event>
 7    1  0.3032584E-015  0.9000768E+02  0.7816164E-02  0.1186339E+00
        -11   -1    0    0    0    0  0.00000000000E+00  0.00000000000E+00  0.45593999997E+02  0.45594000000E+02  0.51100000000E-03 0. -1.
         11   -1    0    0    0    0 -0.00000000000E+00 -0.00000000000E+00 -0.45593999997E+02  0.45594000000E+02  0.51100000000E-03 0.  1.
    9900012    2    1    2    0    0  0.71111682711E+00 -0.86833790370E+00 -0.36533352386E+00  0.90007675282E+02  0.89999935795E+02 0.  0.
         12    1    1    2    0    0 -0.71111682711E+00  0.86833790370E+00  0.36533352386E+00  0.11803247182E+01  0.00000000000E+00 0. -1.
         11    1    3    3    0    0 -0.19658802619E+02 -0.30834126151E+02 -0.10268246456E+02  0.37982216121E+02  0.51100000000E-03 0. -1.
        -11    1    3    3    0    0 -0.10221597784E+02  0.63883919756E+01  0.51621904303E+01  0.13112620775E+02  0.51100000000E-03 0.  1.
        -12    1    3    3    0    0  0.30591517230E+02  0.23577396272E+02  0.47407225023E+01  0.38912838386E+02  0.00000000000E+00 0.  1.
</event>
<event>
 7    1  0.3032584E-015  0.9000768E+02  0.7816164E-02  0.1186339E+00
        -11   -1    0    0    0    0  0.00000000000E+00  0.00000000000E+00  0.45593999997E+02  0.45594000000E+02  0.51100000000E-03 0.  1.
         11   -1    0    0    0    0 -0.00000000000E+00 -0.00000000000E+00 -0.45593999997E+02  0.45594000000E+02  0.51100000000E-03 0. -1.
    9900012    2    1    2    0    0  0.48313131025E+00 -0.54647932873E+00  0.92795613183E+00  0.90007678814E+02  0.89999939374E+02 0.  0.
         12    1    1    2    0    0 -0.48313131025E+00  0.54647932873E+00 -0.92795613183E+00  0.11803211861E+01  0.00000000000E+00 0. -1.
         11    1    3    3    0    0  0.97130088049E+01  0.14866771842E+02  0.35424123058E+01  0.18108344216E+02  0.51100000000E-03 0. -1.
        -11    1    3    3    0    0 -0.12041838505E+02  0.31764487325E+01 -0.33500760394E+02  0.35740686177E+02  0.51100000000E-03 0.  1.
         12    1    3    3    0    0  0.28119610104E+01 -0.18589699903E+02  0.30886304220E+02  0.36158648421E+02  0.00000000000E+00 0. -1.
</event>
<event>
 7    1  0.3032584E-015  0.9000775E+02  0.7816164E-02  0.1186339E+00
        -11   -1    0    0    0    0  0.00000000000E+00  0.00000000000E+00  0.45593999997E+02  0.45594000000E+02  0.51100000000E-03 0. -1.
         11   -1    0    0    0    0 -0.00000000000E+00 -0.00000000000E+00 -0.45593999997E+02  0.45594000000E+02  0.51100000000E-03 0.  1.
    9900012    2    1    2    0    0 -0.56094142681E+00 -0.61555510407E+00 -0.83632069750E+00  0.90007747620E+02  0.90000009089E+02 0.  0.
         12    1    1    2    0    0  0.56094142681E+00  0.61555510407E+00  0.83632069750E+00  0.11802523796E+01  0.00000000000E+00 0. -1.
         11    1    3    3    0    0  0.37275472526E+01  0.33663206218E+02  0.92854978839E+01  0.35118749018E+02  0.51100000000E-03 0. -1.
        -11    1    3    3    0    0 -0.20143811556E+01  0.90171865427E+01  0.27901039179E+01  0.96515317292E+01  0.51100000000E-03 0.  1.
        -12    1    3    3    0    0 -0.22741075238E+01 -0.43295947864E+02 -0.12911922499E+02  0.45237466873E+02  0.00000000000E+00 0.  1.
</event>
<event>
 7    1  0.3032584E-015  0.9000767E+02  0.7816164E-02  0.1186339E+00
        -11   -1    0    0    0    0  0.00000000000E+00  0.00000000000E+00  0.45593999997E+02  0.45594000000E+02  0.51100000000E-03 0.  1.
         11   -1    0    0    0    0 -0.00000000000E+00 -0.00000000000E+00 -0.45593999997E+02  0.45594000000E+02  0.51100000000E-03 0. -1.
    9900012    2    1    2    0    0  0.92766807900E+00 -0.18046945287E+00  0.70713366680E+00  0.90007671524E+02  0.89999931988E+02 0.  0.
         12    1    1    2    0    0 -0.92766807900E+00  0.18046945287E+00 -0.70713366680E+00  0.11803284759E+01  0.00000000000E+00 0. -1.
         11    1    3    3    0    0  0.18588374924E+02 -0.31621346540E+02 -0.59314199789E+01  0.37156681533E+02  0.51100000000E-03 0. -1.
        -11    1    3    3    0    0 -0.39560325233E+01 -0.88758844307E+01  0.27064930430E+01  0.10087448766E+02  0.51100000000E-03 0.  1.
        -12    1    3    3    0    0 -0.13704674321E+02  0.40316761518E+02  0.39320606027E+01  0.42763541225E+02  0.00000000000E+00 0.  1.
</event>
<event>
 7    1  0.3032584E-015  0.9000774E+02  0.7816164E-02  0.1186339E+00
        -11   -1    0    0    0    0  0.00000000000E+00  0.00000000000E+00  0.45593999997E+02  0.45594000000E+02  0.51100000000E-03 0.  1.
         11   -1    0    0    0    0 -0.00000000000E+00 -0.00000000000E+00 -0.45593999997E+02  0.45594000000E+02  0.51100000000E-03 0. -1.
    9900012    2    1    2    0    0 -0.11538590491E+01 -0.20718637609E+00 -0.13674532125E+00  0.90007738935E+02  0.90000000289E+02 0.  0.
         12    1    1    2    0    0  0.11538590491E+01  0.20718637609E+00  0.13674532125E+00  0.11802610654E+01  0.00000000000E+00 0. -1.
         11    1    3    3    0    0  0.77678689086E+01 -0.42474807920E+01  0.46573731264E+01  0.10003599610E+02  0.51100000000E-03 0. -1.
        -11    1    3    3    0    0 -0.25036207866E+02  0.72823373404E+01  0.31065039535E+02  0.40557130360E+02  0.51100000000E-03 0.  1.
         12    1    3    3    0    0  0.16114479908E+02 -0.32420429245E+01 -0.35859157983E+02  0.39447008965E+02  0.00000000000E+00 0. -1.
</event>
<event>
 7    1  0.3032584E-015  0.9000775E+02  0.7816164E-02  0.1186339E+00
        -11   -1    0    0    0    0  0.00000000000E+00  0.00000000000E+00  0.45593999997E+02  0.45594000000E+02  0.51100000000E-03 0.  1.
         11   -1    0    0    0    0 -0.00000000000E+00 -0.00000000000E+00 -0.45593999997E+02  0.45594000000E+02  0.51100000000E-03 0. -1.
    9900012    2    1    2    0    0  0.78570070829E-01 -0.11480128794E+01 -0.26244056661E+00  0.90007753467E+02  0.90000015013E+02 0.  0.
         12    1    1    2    0    0 -0.78570070829E-01  0.11480128794E+01  0.26244056661E+00  0.11802465329E+01  0.00000000000E+00 0. -1.
         11    1    3    3    0    0 -0.12670193650E+01  0.62805433473E+01  0.90956658875E+01  0.11125722494E+02  0.51100000000E-03 0. -1.
        -11    1    3    3    0    0 -0.71130750533E+01  0.25525318527E+02  0.20589516538E+02  0.33556905611E+02  0.51100000000E-03 0.  1.
         12    1    3    3    0    0  0.84586644891E+01 -0.32953874754E+02 -0.29947622992E+02  0.45325125363E+02  0.00000000000E+00 0. -1.
</event>
<event>
 7    1  0.3032584E-015  0.9000776E+02  0.7816164E-02  0.1186339E+00
        -11   -1    0    0    0    0  0.00000000000E+00  0.00000000000E+00  0.45593999997E+02  0.45594000000E+02  0.51100000000E-03 0.  1.
         11   -1    0    0    0    0 -0.00000000000E+00 -0.00000000000E+00 -0.45593999997E+02  0.45594000000E+02  0.51100000000E-03 0. -1.
    9900012    2    1    2    0    0 -0.88383541510E+00 -0.48311360191E+00  0.61515206212E+00  0.90007756020E+02  0.90000017599E+02 0.  0.
         12    1    1    2    0    0  0.88383541510E+00  0.48311360191E+00 -0.61515206212E+00  0.11802439802E+01  0.00000000000E+00 0. -1.
         11    1    3    3    0    0  0.11925776956E+02 -0.29996160163E+01 -0.97497199384E+01  0.15693275355E+02  0.51100000000E-03 0. -1.
        -11    1    3    3    0    0  0.17948045713E+02  0.39283607014E+01 -0.22653547237E+02  0.29167577298E+02  0.51100000000E-03 0.  1.
         12    1    3    3    0    0 -0.30757658084E+02 -0.14118582870E+01  0.33018419238E+02  0.45146903367E+02  0.00000000000E+00 0. -1.
</event>
<event>
 7    1  0.3032584E-015  0.9000777E+02  0.7816164E-02  0.1186339E+00
        -11   -1    0    0    0    0  0.00000000000E+00  0.00000000000E+00  0.45593999997E+02  0.45594000000E+02  0.51100000000E-03 0. -1.
         11   -1    0    0    0    0 -0.00000000000E+00 -0.00000000000E+00 -0.45593999997E+02  0.45594000000E+02  0.51100000000E-03 0.  1.
    9900012    2    1    2    0    0  0.90920515671E+00 -0.23657214801E+00  0.71436156511E+00  0.90007774240E+02  0.90000036060E+02 0.  0.
         12    1    1    2    0    0 -0.90920515671E+00  0.23657214801E+00 -0.71436156511E+00  0.11802257597E+01  0.00000000000E+00 0. -1.
         11    1    3    3    0    0 -0.89109112864E+01  0.26202776060E+01 -0.17465896158E+01  0.94509666296E+01  0.51100000000E-03 0. -1.
        -11    1    3    3    0    0 -0.22102644867E+02  0.20327254706E+02  0.21320238258E+02  0.36827662886E+02  0.51100000000E-03 0.  1.
         12    1    3    3    0    0  0.31922761311E+02 -0.23184104460E+02 -0.18859287077E+02  0.43729144725E+02  0.00000000000E+00 0. -1.
</event>
<event>
 7    1  0.3032584E-015  0.9000771E+02  0.7816164E-02  0.1186339E+00
        -11   -1    0    0    0    0  0.00000000000E+00  0.00000000000E+00  0.45593999997E+02  0.45594000000E+02  0.51100000000E-03 0.  1.
         11   -1    0    0    0    0 -0.00000000000E+00 -0.00000000000E+00 -0.45593999997E+02  0.45594000000E+02  0.51100000000E-03 0. -1.
    9900012    2    1    2    0    0 -0.10142650274E+01  0.67798773999E-01  0.59979182602E+00  0.90007711707E+02  0.89999972702E+02 0.  0.
         12    1    1    2    0    0  0.10142650274E+01 -0.67798773999E-01 -0.59979182602E+00  0.11802882928E+01  0.00000000000E+00 0. -1.
         11    1    3    3    0    0  0.98704697241E+01 -0.33389894422E+02 -0.13629220807E+02  0.37390732570E+02  0.51100000000E-03 0. -1.
        -11    1    3    3    0    0 -0.69522322979E+01 -0.44784081516E+01 -0.52456771241E+01  0.97932018384E+01  0.51100000000E-03 0.  1.
        -12    1    3    3    0    0 -0.39325024536E+01  0.37936101347E+02  0.19474689757E+02  0.42823777299E+02  0.00000000000E+00 0.  1.
</event>
<event>
 7    1  0.3032584E-015  0.9000770E+02  0.7816164E-02  0.1186339E+00
        -11   -1    0    0    0    0  0.00000000000E+00  0.00000000000E+00  0.45593999997E+02  0.45594000000E+02  0.51100000000E-03 0. -1.
         11   -1    0    0    0    0 -0.00000000000E+00 -0.00000000000E+00 -0.45593999997E+02  0.45594000000E+02  0.51100000000E-03 0.  1.
    9900012    2    1    2    0    0 -0.56254225648E-01 -0.28479465751E-01 -0.11786125669E+01  0.90007702071E+02  0.89999962939E+02 0.  0.
         12    1    1    2    0    0  0.56254225648E-01  0.28479465751E-01  0.11786125669E+01  0.11802979288E+01  0.00000000000E+00 0. -1.
         11    1    3    3    0    0  0.63298637606E+01 -0.29493971410E+02  0.27297922347E+02  0.40683388373E+02  0.51100000000E-03 0. -1.
        -11    1    3    3    0    0  0.36199608991E+01 -0.25404906421E+01  0.11592036150E+01  0.45718664565E+01  0.51100000000E-03 0.  1.
        -12    1    3    3    0    0 -0.10006078885E+02  0.32005982587E+02 -0.29635738529E+02  0.44752447242E+02  0.00000000000E+00 0.  1.
</event>
<event>
 7    1  0.3032584E-015  0.9000794E+02  0.7816164E-02  0.1186339E+00
        -11   -1    0    0    0    0  0.00000000000E+00  0.00000000000E+00  0.45593999997E+02  0.45594000000E+02  0.51100000000E-03 0.  1.
         11   -1    0    0    0    0 -0.00000000000E+00 -0.00000000000E+00 -0.45593999997E+02  0.45594000000E+02  0.51100000000E-03 0. -1.
    9900012    2    1    2    0    0  0.45164629518E+00  0.90455982908E+00 -0.60855218086E+00  0.90007937028E+02  0.90000200997E+02 0.  0.
         12    1    1    2    0    0 -0.45164629518E+00 -0.90455982908E+00  0.60855218086E+00  0.11800629717E+01  0.00000000000E+00 0. -1.
         11    1    3    3    0    0 -0.32358732979E+00  0.28409828673E+01  0.88559065121E+01  0.93060718257E+01  0.51100000000E-03 0. -1.
        -11    1    3    3    0    0 -0.21375487029E+02  0.23142721098E+02  0.18984520803E+02  0.36781911532E+02  0.51100000000E-03 0.  1.
         12    1    3    3    0    0  0.22150720654E+02 -0.25079144136E+02 -0.28448979496E+02  0.43919953671E+02  0.00000000000E+00 0. -1.
</event>
<event>
 7    1  0.3032584E-015  0.9000773E+02  0.7816164E-02  0.1186339E+00
        -11   -1    0    0    0    0  0.00000000000E+00  0.00000000000E+00  0.45593999997E+02  0.45594000000E+02  0.51100000000E-03 0. -1.
         11   -1    0    0    0    0 -0.00000000000E+00 -0.00000000000E+00 -0.45593999997E+02  0.45594000000E+02  0.51100000000E-03 0.  1.
    9900012    2    1    2    0    0  0.97174733274E+00 -0.16835504222E+00 -0.64839048754E+00  0.90007726081E+02  0.89999987266E+02 0.  0.
         12    1    1    2    0    0 -0.97174733274E+00  0.16835504222E+00  0.64839048754E+00  0.11802739187E+01  0.00000000000E+00 0. -1.
         11    1    3    3    0    0 -0.10958462500E+01  0.33837426438E+01 -0.97904501582E+01  0.10416501709E+02  0.51100000000E-03 0. -1.
        -11    1    3    3    0    0 -0.69452711840E+00 -0.67520004236E+01 -0.34795213916E+02  0.35451075998E+02  0.51100000000E-03 0.  1.
         12    1    3    3    0    0  0.27621207012E+01  0.31999027375E+01  0.43937273587E+02  0.44140148375E+02  0.00000000000E+00 0. -1.
</event>
<event>
 7    1  0.3032584E-015  0.9000770E+02  0.7816164E-02  0.1186339E+00
        -11   -1    0    0    0    0  0.00000000000E+00  0.00000000000E+00  0.45593999997E+02  0.45594000000E+02  0.51100000000E-03 0.  1.
         11   -1    0    0    0    0 -0.00000000000E+00 -0.00000000000E+00 -0.45593999997E+02  0.45594000000E+02  0.51100000000E-03 0. -1.
    9900012    2    1    2    0    0  0.10982838333E+00  0.11431538550E+01  0.27246792355E+00  0.90007702673E+02  0.89999963549E+02 0.  0.
         12    1    1    2    0    0 -0.10982838333E+00 -0.11431538550E+01 -0.27246792355E+00  0.11802973267E+01  0.00000000000E+00 0. -1.
         11    1    3    3    0    0 -0.78654832802E+01 -0.44896400548E+01  0.53489939823E+01  0.10518290352E+02  0.51100000000E-03 0. -1.
        -11    1    3    3    0    0 -0.21041666560E+02  0.23306131407E+02  0.20029903237E+02  0.37244120566E+02  0.51100000000E-03 0.  1.
         12    1    3    3    0    0  0.29016978224E+02 -0.17673337497E+02 -0.25106429296E+02  0.42245291755E+02  0.00000000000E+00 0. -1.
</event>
<event>
 7    1  0.4065101E-015  0.9000778E+02  0.7816164E-02  0.1186339E+00
        -11   -1    0    0    0    0  0.00000000000E+00  0.00000000000E+00  0.45593999997E+02  0.45594000000E+02  0.51100000000E-03 0. -1.
         11   -1    0    0    0    0 -0.00000000000E+00 -0.00000000000E+00 -0.45593999997E+02  0.45594000000E+02  0.51100000000E-03 0.  1.
    9900012    2    1    2    0    0 -0.47934943199E+00 -0.16132880695E+00 -0.10663573538E+01  0.90007779314E+02  0.90000041201E+02 0.  0.
         12    1    1    2    0    0  0.47934943199E+00  0.16132880695E+00  0.10663573538E+01  0.11802206861E+01  0.00000000000E+00 0. -1.
         11    1    3    3    0    0 -0.11251918309E+02 -0.10557477813E+01  0.34830119209E+02  0.36617720756E+02  0.51100000000E-03 0. -1.
        -11    1    3    3    0    0 -0.10641453262E+02  0.12800806089E+00  0.10350666741E+01  0.10692440174E+02  0.51100000000E-03 0.  1.
        -12    1    3    3    0    0  0.21414022139E+02  0.76641091346E+00 -0.36931543237E+02  0.42697618384E+02  0.00000000000E+00 0.  1.
</event>
<event>
 7    1  0.3032584E-015  0.9000763E+02  0.7816164E-02  0.1186339E+00
        -11   -1    0    0    0    0  0.00000000000E+00  0.00000000000E+00  0.45593999997E+02  0.45594000000E+02  0.51100000000E-03 0.  1.
         11   -1    0    0    0    0 -0.00000000000E+00 -0.00000000000E+00 -0.45593999997E+02  0.45594000000E+02  0.51100000000E-03 0. -1.
    9900012    2    1    2    0    0 -0.49343194079E-01 -0.96311074094E+00 -0.68063559043E+00  0.90007626391E+02  0.89999886259E+02 0.  0.
         12    1    1    2    0    0  0.49343194079E-01  0.96311074094E+00  0.68063559043E+00  0.11803736091E+01  0.00000000000E+00 0. -1.
         11    1    3    3    0    0  0.91052890897E+01 -0.41548382626E+01  0.49935796710E+00  0.10020894623E+02  0.51100000000E-03 0. -1.
        -11    1    3    3    0    0  0.18418412034E+02 -0.18906028764E+02 -0.25808350689E+02  0.36915400459E+02  0.51100000000E-03 0.  1.
         12    1    3    3    0    0 -0.27573044317E+02  0.22097756286E+02  0.24628357132E+02  0.43071331310E+02  0.00000000000E+00 0. -1.
</event>
<event>
 7    1  0.3032584E-015  0.9000773E+02  0.7816164E-02  0.1186339E+00
        -11   -1    0    0    0    0  0.00000000000E+00  0.00000000000E+00  0.45593999997E+02  0.45594000000E+02  0.51100000000E-03 0. -1.
         11   -1    0    0    0    0 -0.00000000000E+00 -0.00000000000E+00 -0.45593999997E+02  0.45594000000E+02  0.51100000000E-03 0.  1.
    9900012    2    1    2    0    0 -0.84987740536E+00 -0.11159504469E+00 -0.81134898511E+00  0.90007732135E+02  0.89999993399E+02 0.  0.
         12    1    1    2    0    0  0.84987740536E+00  0.11159504469E+00  0.81134898511E+00  0.11802678653E+01  0.00000000000E+00 0. -1.
         11    1    3    3    0    0  0.42753220025E+01  0.50155722054E+01  0.50600536043E+01  0.83089400956E+01  0.51100000000E-03 0. -1.
        -11    1    3    3    0    0  0.10363697194E+02 -0.33908046623E+02  0.19370152407E+02  0.40402532716E+02  0.51100000000E-03 0.  1.
         12    1    3    3    0    0 -0.15488896602E+02  0.28780879373E+02 -0.25241554996E+02  0.41296259323E+02  0.00000000000E+00 0. -1.
</event>
<event>
 7    1  0.3032584E-015  0.9000764E+02  0.7816164E-02  0.1186339E+00
        -11   -1    0    0    0    0  0.00000000000E+00  0.00000000000E+00  0.45593999997E+02  0.45594000000E+02  0.51100000000E-03 0.  1.
         11   -1    0    0    0    0 -0.00000000000E+00 -0.00000000000E+00 -0.45593999997E+02  0.45594000000E+02  0.51100000000E-03 0. -1.
    9900012    2    1    2    0    0 -0.69203459559E+00  0.90531540553E+00  0.30781328041E+00  0.90007636971E+02  0.89999896979E+02 0.  0.
         12    1    1    2    0    0  0.69203459559E+00 -0.90531540553E+00 -0.30781328041E+00  0.11803630292E+01  0.00000000000E+00 0. -1.
         11    1    3    3    0    0  0.66090370299E+01 -0.10666494748E+01 -0.59905699141E+01  0.89835427155E+01  0.51100000000E-03 0. -1.
        -11    1    3    3    0    0  0.24890686363E+02 -0.24716764325E+02  0.15267939161E+02  0.38256694484E+02  0.51100000000E-03 0.  1.
         12    1    3    3    0    0 -0.32191757989E+02  0.26688729205E+02 -0.89695559665E+01  0.42767399772E+02  0.00000000000E+00 0. -1.
</event>
<event>
 7    1  0.3032584E-015  0.9000777E+02  0.7816164E-02  0.1186339E+00
        -11   -1    0    0    0    0  0.00000000000E+00  0.00000000000E+00  0.45593999997E+02  0.45594000000E+02  0.51100000000E-03 0.  1.
         11   -1    0    0    0    0 -0.00000000000E+00 -0.00000000000E+00 -0.45593999997E+02  0.45594000000E+02  0.51100000000E-03 0. -1.
    9900012    2    1    2    0    0  0.11744123253E+01 -0.91695091492E-01 -0.72764841688E-01  0.90007768234E+02  0.90000029975E+02 0.  0.
         12    1    1    2    0    0 -0.11744123253E+01  0.91695091492E-01  0.72764841688E-01  0.11802317661E+01  0.00000000000E+00 0. -1.
         11    1    3    3    0    0  0.59079725319E+01 -0.67767507815E+01 -0.49167332870E+01  0.10247085296E+02  0.51100000000E-03 0. -1.
        -11    1    3    3    0    0 -0.10423421340E+02 -0.31339200931E+02  0.19798859944E+02  0.38506987454E+02  0.51100000000E-03 0.  1.
         12    1    3    3    0    0  0.56898611334E+01  0.38024256621E+02 -0.14954891499E+02  0.41253695484E+02  0.00000000000E+00 0. -1.
</event>
<event>
 7    1  0.3032584E-015  0.9000774E+02  0.7816164E-02  0.1186339E+00
        -11   -1    0    0    0    0  0.00000000000E+00  0.00000000000E+00  0.45593999997E+02  0.45594000000E+02  0.51100000000E-03 0.  1.
         11   -1    0    0    0    0 -0.00000000000E+00 -0.00000000000E+00 -0.45593999997E+02  0.45594000000E+02  0.51100000000E-03 0. -1.
    9900012    2    1    2    0    0 -0.91859539390E+00  0.28811306262E+00 -0.68277670618E+00  0.90007741272E+02  0.90000002657E+02 0.  0.
         12    1    1    2    0    0  0.91859539390E+00 -0.28811306262E+00  0.68277670618E+00  0.11802587280E+01  0.00000000000E+00 0. -1.
         11    1    3    3    0    0 -0.20187298541E+01 -0.71059412061E+01 -0.50355936894E+01  0.89401831477E+01  0.51100000000E-03 0. -1.
        -11    1    3    3    0    0  0.26891463118E+02 -0.23133040004E+02  0.16745811531E+02  0.39226400964E+02  0.51100000000E-03 0.  1.
         12    1    3    3    0    0 -0.25791328657E+02  0.30527094273E+02 -0.12392994548E+02  0.41841157161E+02  0.00000000000E+00 0. -1.
</event>
<event>
 7    1  0.3032584E-015  0.9000775E+02  0.7816164E-02  0.1186339E+00
        -11   -1    0    0    0    0  0.00000000000E+00  0.00000000000E+00  0.45593999997E+02  0.45594000000E+02  0.51100000000E-03 0.  1.
         11   -1    0    0    0    0 -0.00000000000E+00 -0.00000000000E+00 -0.45593999997E+02  0.45594000000E+02  0.51100000000E-03 0. -1.
    9900012    2    1    2    0    0 -0.46795225116E+00 -0.10231661147E+01 -0.35657149719E+00  0.90007749416E+02  0.90000010909E+02 0.  0.
         12    1    1    2    0    0  0.46795225116E+00  0.10231661147E+01  0.35657149719E+00  0.11802505837E+01  0.00000000000E+00 0. -1.
         11    1    3    3    0    0  0.15184748632E+02  0.16818876721E+02 -0.36059163541E+02  0.42587726879E+02  0.51100000000E-03 0. -1.
        -11    1    3    3    0    0 -0.39199455671E+01 -0.77161433662E+01  0.17201644123E+00  0.86564676175E+01  0.51100000000E-03 0.  1.
        -12    1    3    3    0    0 -0.11732755316E+02 -0.10125899469E+02  0.35530575603E+02  0.38763554920E+02  0.00000000000E+00 0.  1.
</event>
<event>
 7    1  0.3032584E-015  0.9000785E+02  0.7816164E-02  0.1186339E+00
        -11   -1    0    0    0    0  0.00000000000E+00  0.00000000000E+00  0.45593999997E+02  0.45594000000E+02  0.51100000000E-03 0.  1.
         11   -1    0    0    0    0 -0.00000000000E+00 -0.00000000000E+00 -0.45593999997E+02  0.45594000000E+02  0.51100000000E-03 0. -1.
    9900012    2    1    2    0    0  0.10419761292E+01  0.46659003535E+00  0.29888520569E+00  0.90007850484E+02  0.90000113310E+02 0.  0.
         12    1    1    2    0    0 -0.10419761292E+01 -0.46659003535E+00 -0.29888520569E+00  0.11801495164E+01  0.00000000000E+00 0. -1.
         11    1    3    3    0    0  0.29777135289E+02 -0.25265194437E+02 -0.14139168818E+02  0.41532203542E+02  0.51100000000E-03 0. -1.
        -11    1    3    3    0    0 -0.53949873834E+00 -0.28102371775E+01  0.71464704147E+01  0.76980862253E+01  0.51100000000E-03 0.  1.
        -12    1    3    3    0    0 -0.28195660421E+02  0.28542021650E+02  0.72915836087E+01  0.40777560716E+02  0.00000000000E+00 0.  1.
</event>
<event>
 7    1  0.3032584E-015  0.9000779E+02  0.7816164E-02  0.1186339E+00
        -11   -1    0    0    0    0  0.00000000000E+00  0.00000000000E+00  0.45593999997E+02  0.45594000000E+02  0.51100000000E-03 0.  1.
         11   -1    0    0    0    0 -0.00000000000E+00 -0.00000000000E+00 -0.45593999997E+02  0.45594000000E+02  0.51100000000E-03 0. -1.
    9900012    2    1    2    0    0  0.28779241771E+00  0.73335963819E+00 -0.87878434982E+00  0.90007786982E+02  0.90000048970E+02 0.  0.
         12    1    1    2    0    0 -0.28779241771E+00 -0.73335963819E+00  0.87878434982E+00  0.11802130181E+01  0.00000000000E+00 0. -1.
         11    1    3    3    0    0 -0.65533326397E+01  0.40074532261E+01  0.27305027271E+01  0.81523920079E+01  0.51100000000E-03 0. -1.
        -11    1    3    3    0    0 -0.22494206943E+02 -0.24455749082E+02  0.19876021057E+02  0.38718590141E+02  0.51100000000E-03 0.  1.
         12    1    3    3    0    0  0.29335332001E+02  0.21181655494E+02 -0.23485308134E+02  0.43136804833E+02  0.00000000000E+00 0. -1.
</event>
<event>
 7    1  0.3032584E-015  0.9000780E+02  0.7816164E-02  0.1186339E+00
        -11   -1    0    0    0    0  0.00000000000E+00  0.00000000000E+00  0.45593999997E+02  0.45594000000E+02  0.51100000000E-03 0. -1.
         11   -1    0    0    0    0 -0.00000000000E+00 -0.00000000000E+00 -0.45593999997E+02  0.45594000000E+02  0.51100000000E-03 0.  1.
    9900012    2    1    2    0    0  0.22146316014E+00 -0.11584289621E+01 -0.43122664287E-01  0.90007803764E+02  0.90000065974E+02 0.  0.
         12    1    1    2    0    0 -0.22146316014E+00  0.11584289621E+01  0.43122664287E-01  0.11801962361E+01  0.00000000000E+00 0. -1.
         11    1    3    3    0    0 -0.13667587589E+01 -0.75982531682E+01  0.78379262627E+01  0.11001571209E+02  0.51100000000E-03 0. -1.
        -11    1    3    3    0    0 -0.15405929717E+02 -0.31429732832E+02  0.54193286693E+01  0.35419484748E+02  0.51100000000E-03 0.  1.
         12    1    3    3    0    0  0.16994151636E+02  0.37869557038E+02 -0.13300377596E+02  0.43586747806E+02  0.00000000000E+00 0. -1.
</event>
<event>
 7    1  0.3032584E-015  0.9000792E+02  0.7816164E-02  0.1186339E+00
        -11   -1    0    0    0    0  0.00000000000E+00  0.00000000000E+00  0.45593999997E+02  0.45594000000E+02  0.51100000000E-03 0.  1.
         11   -1    0    0    0    0 -0.00000000000E+00 -0.00000000000E+00 -0.45593999997E+02  0.45594000000E+02  0.51100000000E-03 0. -1.
    9900012    2    1    2    0    0  0.13017628716E+00 -0.68022196117E+00  0.95547909280E+00  0.90007920308E+02  0.90000184056E+02 0.  0.
         12    1    1    2    0    0 -0.13017628716E+00  0.68022196117E+00 -0.95547909280E+00  0.11800796918E+01  0.00000000000E+00 0. -1.
         11    1    3    3    0    0  0.10282396221E+02 -0.10123966841E+02 -0.34778751648E+02  0.37653471860E+02  0.51100000000E-03 0. -1.
        -11    1    3    3    0    0 -0.35755992564E+01  0.72377437013E+01 -0.59932632666E+01  0.10054304987E+02  0.51100000000E-03 0.  1.
        -12    1    3    3    0    0 -0.65766206777E+01  0.22060011781E+01  0.41727494007E+02  0.42300143461E+02  0.00000000000E+00 0.  1.
</event>
<event>
 7    1  0.3032584E-015  0.9000772E+02  0.7816164E-02  0.1186339E+00
        -11   -1    0    0    0    0  0.00000000000E+00  0.00000000000E+00  0.45593999997E+02  0.45594000000E+02  0.51100000000E-03 0. -1.
         11   -1    0    0    0    0 -0.00000000000E+00 -0.00000000000E+00 -0.45593999997E+02  0.45594000000E+02  0.51100000000E-03 0.  1.
    9900012    2    1    2    0    0 -0.12986570376E+00  0.61418586343E+00 -0.99948831151E+00  0.90007717720E+02  0.89999978794E+02 0.  0.
         12    1    1    2    0    0  0.12986570376E+00 -0.61418586343E+00  0.99948831151E+00  0.11802822801E+01  0.00000000000E+00 0. -1.
         11    1    3    3    0    0  0.37158039129E+01 -0.64913839846E+01 -0.30700469671E+01  0.80851996509E+01  0.51100000000E-03 0. -1.
        -11    1    3    3    0    0  0.20072919359E+02 -0.26054401537E+02 -0.16753431443E+02  0.36911128354E+02  0.51100000000E-03 0.  1.
         12    1    3    3    0    0 -0.23918588976E+02  0.33159971385E+02  0.18823990099E+02  0.45011389715E+02  0.00000000000E+00 0. -1.
</event>
<event>
 7    1  0.3032584E-015  0.9000816E+02  0.7816164E-02  0.1186338E+00
        -11   -1    0    0    0    0  0.00000000000E+00  0.00000000000E+00  0.45593999997E+02  0.45594000000E+02  0.51100000000E-03 0.  1.
         11   -1    0    0    0    0 -0.00000000000E+00 -0.00000000000E+00 -0.45593999997E+02  0.45594000000E+02  0.51100000000E-03 0. -1.
    9900012    2    1    2    0    0  0.39041442422E+00 -0.64400032490E+00  0.90821729687E+00  0.90008161664E+02  0.90000428597E+02 0.  0.
         12    1    1    2    0    0 -0.39041442422E+00  0.64400032490E+00 -0.90821729687E+00  0.11798383361E+01  0.00000000000E+00 0. -1.
         11    1    3    3    0    0 -0.72785899477E+01  0.45280321052E+01  0.48153417629E+01  0.98320121505E+01  0.51100000000E-03 0. -1.
        -11    1    3    3    0    0  0.10164117283E+02  0.31689069297E+02 -0.21122593905E+02  0.39416625510E+02  0.51100000000E-03 0.  1.
         12    1    3    3    0    0 -0.24951129110E+01 -0.36861101727E+02  0.17215469439E+02  0.40759524003E+02  0.00000000000E+00 0. -1.
</event>
<event>
 7    1  0.3032584E-015  0.9000775E+02  0.7816164E-02  0.1186339E+00
        -11   -1    0    0    0    0  0.00000000000E+00  0.00000000000E+00  0.45593999997E+02  0.45594000000E+02  0.51100000000E-03 0. -1.
         11   -1    0    0    0    0 -0.00000000000E+00 -0.00000000000E+00 -0.45593999997E+02  0.45594000000E+02  0.51100000000E-03 0.  1.
    9900012    2    1    2    0    0  0.81295793152E-01  0.62744237632E+00 -0.99633668262E+00  0.90007754379E+02  0.90000015936E+02 0.  0.
         12    1    1    2    0    0 -0.81295793152E-01 -0.62744237632E+00  0.99633668262E+00  0.11802456213E+01  0.00000000000E+00 0. -1.
         11    1    3    3    0    0 -0.39678601585E+01  0.10396401027E+01  0.86559413764E+01  0.95786265797E+01  0.51100000000E-03 0. -1.
        -11    1    3    3    0    0 -0.31809013681E+02  0.14803062615E+02  0.10432760028E+02  0.36603094079E+02  0.51100000000E-03 0.  1.
         12    1    3    3    0    0  0.35858169633E+02 -0.15215260341E+02 -0.20085038087E+02  0.43826033720E+02  0.00000000000E+00 0. -1.
</event>
<event>
 7    1  0.3032584E-015  0.9000750E+02  0.7816164E-02  0.1186340E+00
        -11   -1    0    0    0    0  0.00000000000E+00  0.00000000000E+00  0.45593999997E+02  0.45594000000E+02  0.51100000000E-03 0.  1.
         11   -1    0    0    0    0 -0.00000000000E+00 -0.00000000000E+00 -0.45593999997E+02  0.45594000000E+02  0.51100000000E-03 0. -1.
    9900012    2    1    2    0    0  0.60400563833E+00  0.95915151405E+00 -0.32981281603E+00  0.90007503947E+02  0.89999762199E+02 0.  0.
         12    1    1    2    0    0 -0.60400563833E+00 -0.95915151405E+00  0.32981281603E+00  0.11804960532E+01  0.00000000000E+00 0. -1.
         11    1    3    3    0    0  0.13888197467E+02  0.92578351053E+00  0.65718691478E+01  0.15392484151E+02  0.51100000000E-03 0. -1.
        -11    1    3    3    0    0  0.12638830389E+02  0.19124749520E+02  0.21688948193E+02  0.31557987131E+02  0.51100000000E-03 0.  1.
         12    1    3    3    0    0 -0.25923022217E+02 -0.19091381517E+02 -0.28590630157E+02  0.43057032664E+02  0.00000000000E+00 0. -1.
</event>
<event>
 7    1  0.3032584E-015  0.9000772E+02  0.7816164E-02  0.1186339E+00
        -11   -1    0    0    0    0  0.00000000000E+00  0.00000000000E+00  0.45593999997E+02  0.45594000000E+02  0.51100000000E-03 0. -1.
         11   -1    0    0    0    0 -0.00000000000E+00 -0.00000000000E+00 -0.45593999997E+02  0.45594000000E+02  0.51100000000E-03 0.  1.
    9900012    2    1    2    0    0 -0.87925729220E+00 -0.58048192917E+00 -0.53197953285E+00  0.90007722541E+02  0.89999983679E+02 0.  0.
         12    1    1    2    0    0  0.87925729220E+00  0.58048192917E+00  0.53197953285E+00  0.11802774586E+01  0.00000000000E+00 0. -1.
         11    1    3    3    0    0 -0.11085131640E+01 -0.37103389601E+00  0.91333380622E+01  0.92078407896E+01  0.51100000000E-03 0. -1.
        -11    1    3    3    0    0 -0.19694304824E+02  0.45009636509E+01 -0.39645720865E+02  0.44496151513E+02  0.51100000000E-03 0.  1.
         12    1    3    3    0    0  0.19923560696E+02 -0.47104116840E+01  0.29980403270E+02  0.36303730239E+02  0.00000000000E+00 0. -1.
</event>
<event>
 7    1  0.3032584E-015  0.9000773E+02  0.7816164E-02  0.1186339E+00
        -11   -1    0    0    0    0  0.00000000000E+00  0.00000000000E+00  0.45593999997E+02  0.45594000000E+02  0.51100000000E-03 0. -1.
         11   -1    0    0    0    0 -0.00000000000E+00 -0.00000000000E+00 -0.45593999997E+02  0.45594000000E+02  0.51100000000E-03 0.  1.
    9900012    2    1    2    0    0  0.10358292556E+01  0.26937850734E+00 -0.49751739626E+00  0.90007732833E+02  0.89999994106E+02 0.  0.
         12    1    1    2    0    0 -0.10358292556E+01 -0.26937850734E+00  0.49751739626E+00  0.11802671674E+01  0.00000000000E+00 0. -1.
         11    1    3    3    0    0 -0.42480212374E+01 -0.45265999564E+01 -0.53198420820E+01  0.81753600310E+01  0.51100000000E-03 0. -1.
        -11    1    3    3    0    0  0.30268473559E+02  0.17890722832E+02 -0.23157254504E+02  0.42101269476E+02  0.51100000000E-03 0.  1.
         12    1    3    3    0    0 -0.24984623066E+02 -0.13094744369E+02  0.27979579190E+02  0.39731103326E+02  0.00000000000E+00 0. -1.
</event>
<event>
 7    1  0.3032584E-015  0.9000776E+02  0.7816164E-02  0.1186339E+00
        -11   -1    0    0    0    0  0.00000000000E+00  0.00000000000E+00  0.45593999997E+02  0.45594000000E+02  0.51100000000E-03 0.  1.
         11   -1    0    0    0    0 -0.00000000000E+00 -0.00000000000E+00 -0.45593999997E+02  0.45594000000E+02  0.51100000000E-03 0. -1.
    9900012    2    1    2    0    0  0.97482832719E+00 -0.66055544528E+00  0.79644519784E-01  0.90007759765E+02  0.90000021393E+02 0.  0.
         12    1    1    2    0    0 -0.97482832719E+00  0.66055544528E+00 -0.79644519784E-01  0.11802402354E+01  0.00000000000E+00 0. -1.
         11    1    3    3    0    0  0.23699561750E+02  0.24330251580E+02 -0.90269200593E+01  0.35144212256E+02  0.51100000000E-03 0. -1.
        -11    1    3    3    0    0  0.28309160935E+01  0.87453211135E+01 -0.47283160029E+01  0.10336909586E+02  0.51100000000E-03 0.  1.
        -12    1    3    3    0    0 -0.25555649516E+02 -0.33736128139E+02  0.13834880582E+02  0.44526637923E+02  0.00000000000E+00 0.  1.
</event>
<event>
 7    1  0.3032584E-015  0.9000776E+02  0.7816164E-02  0.1186339E+00
        -11   -1    0    0    0    0  0.00000000000E+00  0.00000000000E+00  0.45593999997E+02  0.45594000000E+02  0.51100000000E-03 0. -1.
         11   -1    0    0    0    0 -0.00000000000E+00 -0.00000000000E+00 -0.45593999997E+02  0.45594000000E+02  0.51100000000E-03 0.  1.
    9900012    2    1    2    0    0 -0.98300022648E+00 -0.41205816594E+00 -0.50684069032E+00  0.90007758981E+02  0.90000020600E+02 0.  0.
         12    1    1    2    0    0  0.98300022648E+00  0.41205816594E+00  0.50684069032E+00  0.11802410189E+01  0.00000000000E+00 0. -1.
         11    1    3    3    0    0 -0.21915936502E+00 -0.39383860015E+01 -0.91675501001E+01  0.99801247599E+01  0.51100000000E-03 0. -1.
        -11    1    3    3    0    0  0.29053295002E+01 -0.15347138234E+02 -0.31689996195E+02  0.35330319141E+02  0.51100000000E-03 0.  1.
         12    1    3    3    0    0 -0.36691703617E+01  0.18873466070E+02  0.40350705605E+02  0.44697315081E+02  0.00000000000E+00 0. -1.
</event>
<event>
 7    1  0.3032584E-015  0.9000760E+02  0.7816164E-02  0.1186339E+00
        -11   -1    0    0    0    0  0.00000000000E+00  0.00000000000E+00  0.45593999997E+02  0.45594000000E+02  0.51100000000E-03 0.  1.
         11   -1    0    0    0    0 -0.00000000000E+00 -0.00000000000E+00 -0.45593999997E+02  0.45594000000E+02  0.51100000000E-03 0. -1.
    9900012    2    1    2    0    0 -0.59266205325E+00  0.46586120917E+00 -0.90833057610E+00  0.90007602012E+02  0.89999861558E+02 0.  0.
         12    1    1    2    0    0  0.59266205325E+00 -0.46586120917E+00  0.90833057610E+00  0.11803979884E+01  0.00000000000E+00 0. -1.
         11    1    3    3    0    0 -0.30492663655E+02  0.15330764345E+02  0.54015698933E+01  0.34554476263E+02  0.51100000000E-03 0. -1.
        -11    1    3    3    0    0  0.34702582299E+01  0.34569968196E+00  0.16820985194E+02  0.17178700288E+02  0.51100000000E-03 0.  1.
        -12    1    3    3    0    0  0.26429743372E+02 -0.15210602818E+02 -0.23130885663E+02  0.38274425461E+02  0.00000000000E+00 0.  1.
</event>
<event>
 7    1  0.3032584E-015  0.9000767E+02  0.7816164E-02  0.1186339E+00
        -11   -1    0    0    0    0  0.00000000000E+00  0.00000000000E+00  0.45593999997E+02  0.45594000000E+02  0.51100000000E-03 0. -1.
         11   -1    0    0    0    0 -0.00000000000E+00 -0.00000000000E+00 -0.45593999997E+02  0.45594000000E+02  0.51100000000E-03 0.  1.
    9900012    2    1    2    0    0 -0.64276554436E+00 -0.97341470554E+00  0.18024752218E+00  0.90007672544E+02  0.89999933022E+02 0.  0.
         12    1    1    2    0    0  0.64276554436E+00  0.97341470554E+00 -0.18024752218E+00  0.11803274559E+01  0.00000000000E+00 0. -1.
         11    1    3    3    0    0 -0.57977715826E+01 -0.16750803301E+02  0.18528523998E+02  0.25641953286E+02  0.51100000000E-03 0. -1.
        -11    1    3    3    0    0 -0.21430182077E+01 -0.66142557750E+01  0.18988762006E+02  0.20221621826E+02  0.51100000000E-03 0.  1.
        -12    1    3    3    0    0  0.72980242459E+01  0.22391644370E+02 -0.37337038481E+02  0.44144097432E+02  0.00000000000E+00 0.  1.
</event>
<event>
 7    1  0.3032584E-015  0.9000769E+02  0.7816164E-02  0.1186339E+00
        -11   -1    0    0    0    0  0.00000000000E+00  0.00000000000E+00  0.45593999997E+02  0.45594000000E+02  0.51100000000E-03 0. -1.
         11   -1    0    0    0    0 -0.00000000000E+00 -0.00000000000E+00 -0.45593999997E+02  0.45594000000E+02  0.51100000000E-03 0.  1.
    9900012    2    1    2    0    0  0.42685359439E-01  0.10631393620E+01 -0.51092787393E+00  0.90007688755E+02  0.89999949446E+02 0.  0.
         12    1    1    2    0    0 -0.42685359439E-01 -0.10631393620E+01  0.51092787393E+00  0.11803112451E+01  0.00000000000E+00 0. -1.
         11    1    3    3    0    0  0.22593095008E+02 -0.13800719620E+02  0.25464711559E+02  0.36733626817E+02  0.51100000000E-03 0. -1.
        -11    1    3    3    0    0  0.85331169159E+01  0.12000066175E+02 -0.45441889618E+01  0.15409909996E+02  0.51100000000E-03 0.  1.
        -12    1    3    3    0    0 -0.31083526565E+02  0.28637928061E+01 -0.21431450471E+02  0.37864151942E+02  0.00000000000E+00 0.  1.
</event>
<event>
 8    1  0.3032584E-015  0.9000766E+02  0.7816164E-02  0.1186339E+00
        -11   -1    0    0    0    0  0.00000000000E+00  0.00000000000E+00  0.45593999997E+02  0.45594000000E+02  0.51100000000E-03 0. -1.
         11   -1    0    0    0    0 -0.00000000000E+00 -0.00000000000E+00 -0.45593999997E+02  0.45594000000E+02  0.51100000000E-03 0.  1.
    9900012    2    1    2    0    0  0.26752297699E+00  0.87797593813E+00 -0.74215024941E+00  0.90007662216E+02  0.89999922557E+02 0.  0.
         23    2    3    3    0    0  0.20438697209E+02 -0.12053643650E+02 -0.58656222706E+01  0.65505559844E+02  0.60774519143E+02 0.  0.
         12    1    1    2    0    0 -0.26752297699E+00 -0.87797593813E+00  0.74215024941E+00  0.11803377838E+01  0.00000000000E+00 0. -1.
         11    1    4    4    0    0  0.33787965845E+02 -0.28387119960E+02 -0.46829287843E+01  0.44377753862E+02  0.51100000000E-03 0.  1.
        -11    1    4    4    0    0 -0.13349268636E+02  0.16333476310E+02 -0.11826934863E+01  0.21127805982E+02  0.51100000000E-03 0. -1.
        -12    1    3    3    0    0 -0.20171174232E+02  0.12931619589E+02  0.51234720212E+01  0.24502102372E+02  0.00000000000E+00 0.  1.
</event>
<event>
 7    1  0.3032584E-015  0.9000773E+02  0.7816164E-02  0.1186339E+00
        -11   -1    0    0    0    0  0.00000000000E+00  0.00000000000E+00  0.45593999997E+02  0.45594000000E+02  0.51100000000E-03 0.  1.
         11   -1    0    0    0    0 -0.00000000000E+00 -0.00000000000E+00 -0.45593999997E+02  0.45594000000E+02  0.51100000000E-03 0. -1.
    9900012    2    1    2    0    0 -0.41657640798E+00 -0.93558106893E+00  0.58668479207E+00  0.90007725928E+02  0.89999987110E+02 0.  0.
         12    1    1    2    0    0  0.41657640798E+00  0.93558106893E+00 -0.58668479207E+00  0.11802740722E+01  0.00000000000E+00 0. -1.
         11    1    3    3    0    0  0.15807720839E+02 -0.77589407471E+01 -0.39694950738E+02  0.43425503037E+02  0.51100000000E-03 0. -1.
        -11    1    3    3    0    0 -0.11254768798E+01  0.66731308116E+01  0.57007804229E+01  0.88485179961E+01  0.51100000000E-03 0.  1.
        -12    1    3    3    0    0 -0.15098820367E+02  0.15022886662E+00  0.34580855107E+02  0.37733704895E+02  0.00000000000E+00 0.  1.
</event>
<event>
 7    1  0.3032584E-015  0.9000769E+02  0.7816164E-02  0.1186339E+00
        -11   -1    0    0    0    0  0.00000000000E+00  0.00000000000E+00  0.45593999997E+02  0.45594000000E+02  0.51100000000E-03 0.  1.
         11   -1    0    0    0    0 -0.00000000000E+00 -0.00000000000E+00 -0.45593999997E+02  0.45594000000E+02  0.51100000000E-03 0. -1.
    9900012    2    1    2    0    0  0.11716457953E+01 -0.12745820391E+00  0.64306052809E-01  0.90007688714E+02  0.89999949405E+02 0.  0.
         12    1    1    2    0    0 -0.11716457953E+01  0.12745820391E+00 -0.64306052809E-01  0.11803112860E+01  0.00000000000E+00 0. -1.
         11    1    3    3    0    0 -0.95529249283E+01  0.18052918593E+01 -0.98601538951E+00  0.97718821110E+01  0.51100000000E-03 0. -1.
        -11    1    3    3    0    0 -0.11512135193E+02  0.28924554630E+02 -0.19767046350E+02  0.36876757435E+02  0.51100000000E-03 0.  1.
         12    1    3    3    0    0  0.22236705917E+02 -0.30857304693E+02  0.20817367792E+02  0.43359049168E+02  0.00000000000E+00 0. -1.
</event>
<event>
 7    1  0.3032584E-015  0.9000753E+02  0.7816164E-02  0.1186339E+00
        -11   -1    0    0    0    0  0.00000000000E+00  0.00000000000E+00  0.45593999997E+02  0.45594000000E+02  0.51100000000E-03 0.  1.
         11   -1    0    0    0    0 -0.00000000000E+00 -0.00000000000E+00 -0.45593999997E+02  0.45594000000E+02  0.51100000000E-03 0. -1.
    9900012    2    1    2    0    0 -0.36438648975E+00  0.39489134390E+00  0.10510914753E+01  0.90007529765E+02  0.89999788357E+02 0.  0.
         12    1    1    2    0    0  0.36438648975E+00 -0.39489134390E+00 -0.10510914753E+01  0.11804702355E+01  0.00000000000E+00 0. -1.
         11    1    3    3    0    0 -0.19078936283E+02  0.15148157246E+02  0.29861421547E+02  0.38537993911E+02  0.51100000000E-03 0. -1.
        -11    1    3    3    0    0 -0.13169435673E+01  0.10099322397E+02 -0.36281162234E+01  0.10811747353E+02  0.51100000000E-03 0.  1.
        -12    1    3    3    0    0  0.20031493360E+02 -0.24852588300E+02 -0.25182213848E+02  0.40657788500E+02  0.00000000000E+00 0.  1.
</event>
<event>
 7    1  0.3032584E-015  0.9000771E+02  0.7816164E-02  0.1186339E+00
        -11   -1    0    0    0    0  0.00000000000E+00  0.00000000000E+00  0.45593999997E+02  0.45594000000E+02  0.51100000000E-03 0. -1.
         11   -1    0    0    0    0 -0.00000000000E+00 -0.00000000000E+00 -0.45593999997E+02  0.45594000000E+02  0.51100000000E-03 0.  1.
    9900012    2    1    2    0    0 -0.10098864424E+01  0.13029995406E+00  0.59686466350E+00  0.90007705066E+02  0.89999965973E+02 0.  0.
         12    1    1    2    0    0  0.10098864424E+01 -0.13029995406E+00 -0.59686466350E+00  0.11802949340E+01  0.00000000000E+00 0. -1.
         11    1    3    3    0    0  0.16387299615E+02  0.32043409980E+02 -0.46868071007E+01  0.36294488188E+02  0.51100000000E-03 0. -1.
        -11    1    3    3    0    0  0.11984011979E+02 -0.49958453872E+01  0.48611921776E+01  0.13863845206E+02  0.51100000000E-03 0.  1.
        -12    1    3    3    0    0 -0.29381198036E+02 -0.26917264638E+02  0.42247958657E+00  0.39849371672E+02  0.00000000000E+00 0.  1.
</event>
<event>
 7    1  0.3032584E-015  0.9000765E+02  0.7816164E-02  0.1186339E+00
        -11   -1    0    0    0    0  0.00000000000E+00  0.00000000000E+00  0.45593999997E+02  0.45594000000E+02  0.51100000000E-03 0.  1.
         11   -1    0    0    0    0 -0.00000000000E+00 -0.00000000000E+00 -0.45593999997E+02  0.45594000000E+02  0.51100000000E-03 0. -1.
    9900012    2    1    2    0    0 -0.29344190942E+00 -0.11414379126E+01 -0.65090551397E-01  0.90007650288E+02  0.89999910472E+02 0.  0.
         12    1    1    2    0    0  0.29344190942E+00  0.11414379126E+01  0.65090551397E-01  0.11803497119E+01  0.00000000000E+00 0. -1.
         11    1    3    3    0    0 -0.28073513095E+02 -0.29540187630E+02  0.74861022722E+01  0.41434123017E+02  0.51100000000E-03 0. -1.
        -11    1    3    3    0    0 -0.22556068514E+00  0.36215167092E+01 -0.10456283764E+02  0.11067977743E+02  0.51100000000E-03 0.  1.
        -12    1    3    3    0    0  0.28005631870E+02  0.24777233008E+02  0.29050909407E+01  0.37505549528E+02  0.00000000000E+00 0.  1.
</event>
<event>
 7    1  0.3032584E-015  0.9000782E+02  0.7816164E-02  0.1186339E+00
        -11   -1    0    0    0    0  0.00000000000E+00  0.00000000000E+00  0.45593999997E+02  0.45594000000E+02  0.51100000000E-03 0.  1.
         11   -1    0    0    0    0 -0.00000000000E+00 -0.00000000000E+00 -0.45593999997E+02  0.45594000000E+02  0.51100000000E-03 0. -1.
    9900012    2    1    2    0    0 -0.17951508499E+00 -0.55953985042E+00  0.10234851048E+01  0.90007816849E+02  0.90000079231E+02 0.  0.
         12    1    1    2    0    0  0.17951508499E+00  0.55953985042E+00 -0.10234851048E+01  0.11801831509E+01  0.00000000000E+00 0. -1.
         11    1    3    3    0    0 -0.49744743830E+01 -0.30793392497E+02 -0.19780539569E+02  0.36935730165E+02  0.51100000000E-03 0. -1.
        -11    1    3    3    0    0 -0.73415735705E+01 -0.65546751359E+01  0.21408539895E+01  0.10072026841E+02  0.51100000000E-03 0.  1.
        -12    1    3    3    0    0  0.12136532869E+02  0.36788527783E+02  0.18663170685E+02  0.43000059843E+02  0.00000000000E+00 0.  1.
</event>
<event>
 7    1  0.3032584E-015  0.9000808E+02  0.7816164E-02  0.1186338E+00
        -11   -1    0    0    0    0  0.00000000000E+00  0.00000000000E+00  0.45593999997E+02  0.45594000000E+02  0.51100000000E-03 0.  1.
         11   -1    0    0    0    0 -0.00000000000E+00 -0.00000000000E+00 -0.45593999997E+02  0.45594000000E+02  0.51100000000E-03 0. -1.
    9900012    2    1    2    0    0 -0.82670841766E-01 -0.68802254200E-01  0.11750072187E+01  0.90008080434E+02  0.90000346295E+02 0.  0.
         12    1    1    2    0    0  0.82670841766E-01  0.68802254200E-01 -0.11750072187E+01  0.11799195661E+01  0.00000000000E+00 0. -1.
         11    1    3    3    0    0 -0.11845204271E+02 -0.29030944162E+01 -0.36858470278E+02  0.38823751144E+02  0.51100000000E-03 0. -1.
        -11    1    3    3    0    0  0.54315639803E+01 -0.80223512188E+01 -0.14071117505E+01  0.97897890728E+01  0.51100000000E-03 0.  1.
        -12    1    3    3    0    0  0.63309694488E+01  0.10856643381E+02  0.39440589247E+02  0.41394540217E+02  0.00000000000E+00 0.  1.
</event>
<event>
 7    1  0.3032584E-015  0.9000785E+02  0.7816164E-02  0.1186339E+00
        -11   -1    0    0    0    0  0.00000000000E+00  0.00000000000E+00  0.45593999997E+02  0.45594000000E+02  0.51100000000E-03 0.  1.
         11   -1    0    0    0    0 -0.00000000000E+00 -0.00000000000E+00 -0.45593999997E+02  0.45594000000E+02  0.51100000000E-03 0. -1.
    9900012    2    1    2    0    0 -0.72799327938E+00 -0.92503031386E+00  0.84238060013E-01  0.90007851133E+02  0.90000113968E+02 0.  0.
         12    1    1    2    0    0  0.72799327938E+00  0.92503031386E+00 -0.84238060013E-01  0.11801488665E+01  0.00000000000E+00 0. -1.
         11    1    3    3    0    0 -0.94920576197E+01  0.39783033818E+02  0.39036115603E+01  0.41085607226E+02  0.51100000000E-03 0. -1.
        -11    1    3    3    0    0 -0.73604300541E+01 -0.37460225363E+01 -0.22756730010E+01  0.85666389729E+01  0.51100000000E-03 0.  1.
        -12    1    3    3    0    0  0.16124494394E+02 -0.36962041596E+02 -0.15437004992E+01  0.40355604935E+02  0.00000000000E+00 0.  1.
</event>
<event>
 7    1  0.3032584E-015  0.9000773E+02  0.7816164E-02  0.1186339E+00
        -11   -1    0    0    0    0  0.00000000000E+00  0.00000000000E+00  0.45593999997E+02  0.45594000000E+02  0.51100000000E-03 0.  1.
         11   -1    0    0    0    0 -0.00000000000E+00 -0.00000000000E+00 -0.45593999997E+02  0.45594000000E+02  0.51100000000E-03 0. -1.
    9900012    2    1    2    0    0  0.73083995179E-01  0.26928279427E+00  0.11468146077E+01  0.90007729591E+02  0.89999990822E+02 0.  0.
         12    1    1    2    0    0 -0.73083995179E-01 -0.26928279427E+00 -0.11468146077E+01  0.11802704089E+01  0.00000000000E+00 0. -1.
         11    1    3    3    0    0 -0.58283758531E+01  0.27797646834E+01 -0.91626581254E+01  0.11209431786E+02  0.51100000000E-03 0. -1.
        -11    1    3    3    0    0 -0.32626717978E+02  0.13112773615E+02 -0.26153816183E+01  0.35260286147E+02  0.51100000000E-03 0.  1.
         12    1    3    3    0    0  0.38528177826E+02 -0.15623255504E+02  0.12924854351E+02  0.43538011658E+02  0.00000000000E+00 0. -1.
</event>
<event>
 7    1  0.3032584E-015  0.9000810E+02  0.7816164E-02  0.1186338E+00
        -11   -1    0    0    0    0  0.00000000000E+00  0.00000000000E+00  0.45593999997E+02  0.45594000000E+02  0.51100000000E-03 0.  1.
         11   -1    0    0    0    0 -0.00000000000E+00 -0.00000000000E+00 -0.45593999997E+02  0.45594000000E+02  0.51100000000E-03 0. -1.
    9900012    2    1    2    0    0  0.53350800937E+00  0.86679342663E+00  0.59682422097E+00  0.90008101364E+02  0.90000367501E+02 0.  0.
         12    1    1    2    0    0 -0.53350800937E+00 -0.86679342663E+00 -0.59682422097E+00  0.11798986360E+01  0.00000000000E+00 0. -1.
         11    1    3    3    0    0  0.95159697439E+01 -0.61440092209E+01 -0.27972520618E+02  0.30178874059E+02  0.51100000000E-03 0. -1.
        -11    1    3    3    0    0 -0.24439961440E+02  0.10976666890E+02 -0.35564883407E+00  0.26794130281E+02  0.51100000000E-03 0.  1.
        -12    1    3    3    0    0  0.15457499705E+02 -0.39658642428E+01  0.28924993674E+02  0.33035097023E+02  0.00000000000E+00 0.  1.
</event>
<event>
 7    1  0.3032584E-015  0.9000771E+02  0.7816164E-02  0.1186339E+00
        -11   -1    0    0    0    0  0.00000000000E+00  0.00000000000E+00  0.45593999997E+02  0.45594000000E+02  0.51100000000E-03 0.  1.
         11   -1    0    0    0    0 -0.00000000000E+00 -0.00000000000E+00 -0.45593999997E+02  0.45594000000E+02  0.51100000000E-03 0. -1.
    9900012    2    1    2    0    0 -0.83803844499E+00 -0.83107448573E+00  0.95074135657E-02  0.90007710363E+02  0.89999971340E+02 0.  0.
         12    1    1    2    0    0  0.83803844499E+00  0.83107448573E+00 -0.95074135657E-02  0.11802896369E+01  0.00000000000E+00 0. -1.
         11    1    3    3    0    0  0.17883754753E+01 -0.35731176840E+02 -0.19844604461E+02  0.40911167323E+02  0.51100000000E-03 0. -1.
        -11    1    3    3    0    0  0.31964073573E+01 -0.90002788319E+00  0.11372619773E+02  0.11847512437E+02  0.51100000000E-03 0.  1.
        -12    1    3    3    0    0 -0.58228212776E+01  0.35800130237E+02  0.84814921023E+01  0.37249030604E+02  0.00000000000E+00 0.  1.
</event>
<event>
 7    1  0.3032584E-015  0.9000774E+02  0.7816164E-02  0.1186339E+00
        -11   -1    0    0    0    0  0.00000000000E+00  0.00000000000E+00  0.45593999997E+02  0.45594000000E+02  0.51100000000E-03 0. -1.
         11   -1    0    0    0    0 -0.00000000000E+00 -0.00000000000E+00 -0.45593999997E+02  0.45594000000E+02  0.51100000000E-03 0.  1.
    9900012    2    1    2    0    0 -0.10958894293E+01 -0.41647639403E+00  0.13634626473E+00  0.90007738787E+02  0.90000000139E+02 0.  0.
         12    1    1    2    0    0  0.10958894293E+01  0.41647639403E+00 -0.13634626473E+00  0.11802612135E+01  0.00000000000E+00 0. -1.
         11    1    3    3    0    0 -0.72193617689E+01 -0.26224305558E+01 -0.58543664007E+01  0.96576359728E+01  0.51100000000E-03 0. -1.
        -11    1    3    3    0    0 -0.26323639136E+02 -0.11820763551E+02 -0.21155494275E+02  0.35780153250E+02  0.51100000000E-03 0.  1.
         12    1    3    3    0    0  0.32447111475E+02  0.14026717713E+02  0.27146206940E+02  0.44569949564E+02  0.00000000000E+00 0. -1.
</event>
<event>
 7    1  0.3032584E-015  0.9000782E+02  0.7816164E-02  0.1186339E+00
        -11   -1    0    0    0    0  0.00000000000E+00  0.00000000000E+00  0.45593999997E+02  0.45594000000E+02  0.51100000000E-03 0. -1.
         11   -1    0    0    0    0 -0.00000000000E+00 -0.00000000000E+00 -0.45593999997E+02  0.45594000000E+02  0.51100000000E-03 0.  1.
    9900012    2    1    2    0    0  0.95922253805E-01 -0.11684997100E+01  0.13499385273E+00  0.90007823746E+02  0.90000086219E+02 0.  0.
         12    1    1    2    0    0 -0.95922253805E-01  0.11684997100E+01 -0.13499385273E+00  0.11801762543E+01  0.00000000000E+00 0. -1.
         11    1    3    3    0    0 -0.86724217401E+01  0.14809192078E+01 -0.21988869573E+01  0.90685789764E+01  0.51100000000E-03 0. -1.
        -11    1    3    3    0    0 -0.29710514666E+02 -0.12431125898E+01 -0.20551306457E+02  0.36147146610E+02  0.51100000000E-03 0.  1.
         12    1    3    3    0    0  0.38478858660E+02 -0.14063063280E+01  0.22885187267E+02  0.44792098160E+02  0.00000000000E+00 0. -1.
</event>
<event>
 7    1  0.3032584E-015  0.9000775E+02  0.7816164E-02  0.1186339E+00
        -11   -1    0    0    0    0  0.00000000000E+00  0.00000000000E+00  0.45593999997E+02  0.45594000000E+02  0.51100000000E-03 0.  1.
         11   -1    0    0    0    0 -0.00000000000E+00 -0.00000000000E+00 -0.45593999997E+02  0.45594000000E+02  0.51100000000E-03 0. -1.
    9900012    2    1    2    0    0  0.98920980522E+00 -0.64303527387E+00  0.30792016085E-01  0.90007754877E+02  0.90000016441E+02 0.  0.
         12    1    1    2    0    0 -0.98920980522E+00  0.64303527387E+00 -0.30792016085E-01  0.11802451230E+01  0.00000000000E+00 0. -1.
         11    1    3    3    0    0 -0.27499525033E+02  0.22167693588E+02  0.71523866306E+01  0.36038689638E+02  0.51100000000E-03 0. -1.
        -11    1    3    3    0    0 -0.77236379956E+01  0.31545149047E+01  0.17764872576E+01  0.85300325562E+01  0.51100000000E-03 0.  1.
        -12    1    3    3    0    0  0.36212372834E+02 -0.25965243767E+02 -0.88980818722E+01  0.45439032683E+02  0.00000000000E+00 0.  1.
</event>
<event>
 7    1  0.3032584E-015  0.9000785E+02  0.7816164E-02  0.1186339E+00
        -11   -1    0    0    0    0  0.00000000000E+00  0.00000000000E+00  0.45593999997E+02  0.45594000000E+02  0.51100000000E-03 0.  1.
         11   -1    0    0    0    0 -0.00000000000E+00 -0.00000000000E+00 -0.45593999997E+02  0.45594000000E+02  0.51100000000E-03 0. -1.
    9900012    2    1    2    0    0 -0.16559377102E+00  0.61828864988E+00  0.99148467929E+00  0.90007854237E+02  0.90000117113E+02 0.  0.
         12    1    1    2    0    0  0.16559377102E+00 -0.61828864988E+00 -0.99148467929E+00  0.11801457625E+01  0.00000000000E+00 0. -1.
         11    1    3    3    0    0 -0.26852612852E+01  0.91023061307E+01 -0.21969425322E+01  0.97411068066E+01  0.51100000000E-03 0. -1.
        -11    1    3    3    0    0  0.68876286630E+01  0.29851552082E+02  0.21630277671E+02  0.37502313298E+02  0.51100000000E-03 0.  1.
         12    1    3    3    0    0 -0.43679611488E+01 -0.38335569563E+02 -0.18441850459E+02  0.42764434133E+02  0.00000000000E+00 0. -1.
</event>
<event>
 7    1  0.3032584E-015  0.9000773E+02  0.7816164E-02  0.1186339E+00
        -11   -1    0    0    0    0  0.00000000000E+00  0.00000000000E+00  0.45593999997E+02  0.45594000000E+02  0.51100000000E-03 0. -1.
         11   -1    0    0    0    0 -0.00000000000E+00 -0.00000000000E+00 -0.45593999997E+02  0.45594000000E+02  0.51100000000E-03 0.  1.
    9900012    2    1    2    0    0 -0.69946495995E+00  0.13550331152E+00  0.94096760585E+00  0.90007732059E+02  0.89999993322E+02 0.  0.
         12    1    1    2    0    0  0.69946495995E+00 -0.13550331152E+00 -0.94096760585E+00  0.11802679411E+01  0.00000000000E+00 0. -1.
         11    1    3    3    0    0  0.37666247990E-01 -0.86406567101E+01 -0.65604504164E+01  0.10849049592E+02  0.51100000000E-03 0. -1.
        -11    1    3    3    0    0  0.93825735509E+01 -0.28428740070E+02 -0.16060140867E+02  0.33972843174E+02  0.51100000000E-03 0.  1.
         12    1    3    3    0    0 -0.10119704759E+02  0.37204900092E+02  0.23561558889E+02  0.45185839292E+02  0.00000000000E+00 0. -1.
</event>
<event>
 7    1  0.3776831E-015  0.9000775E+02  0.7816164E-02  0.1186339E+00
        -11   -1    0    0    0    0  0.00000000000E+00  0.00000000000E+00  0.45593999997E+02  0.45594000000E+02  0.51100000000E-03 0.  1.
         11   -1    0    0    0    0 -0.00000000000E+00 -0.00000000000E+00 -0.45593999997E+02  0.45594000000E+02  0.51100000000E-03 0. -1.
    9900012    2    1    2    0    0 -0.58437864352E+00  0.12705340328E-01  0.10253439162E+01  0.90007750039E+02  0.90000011539E+02 0.  0.
         12    1    1    2    0    0  0.58437864352E+00 -0.12705340328E-01 -0.10253439162E+01  0.11802499613E+01  0.00000000000E+00 0. -1.
         11    1    3    3    0    0  0.95056990822E+01  0.39131500977E+02 -0.13083317544E+02  0.42341538493E+02  0.51100000000E-03 0. -1.
        -11    1    3    3    0    0  0.57950030300E+01 -0.76659276855E+01 -0.25820353448E+00  0.96132812672E+01  0.51100000000E-03 0.  1.
        -12    1    3    3    0    0 -0.15885080756E+02 -0.31452867951E+02  0.14366864995E+02  0.38052930278E+02  0.00000000000E+00 0.  1.
</event>
<event>
 7    1  0.3032584E-015  0.9000774E+02  0.7816164E-02  0.1186339E+00
        -11   -1    0    0    0    0  0.00000000000E+00  0.00000000000E+00  0.45593999997E+02  0.45594000000E+02  0.51100000000E-03 0. -1.
         11   -1    0    0    0    0 -0.00000000000E+00 -0.00000000000E+00 -0.45593999997E+02  0.45594000000E+02  0.51100000000E-03 0.  1.
    9900012    2    1    2    0    0  0.11548977150E+01 -0.93142824629E-01 -0.22484271134E+00  0.90007737926E+02  0.89999999267E+02 0.  0.
         12    1    1    2    0    0 -0.11548977150E+01  0.93142824629E-01  0.22484271134E+00  0.11802620737E+01  0.00000000000E+00 0. -1.
         11    1    3    3    0    0  0.11604206080E+00 -0.13708254709E+02 -0.13118826426E+00  0.13709373565E+02  0.51100000000E-03 0. -1.
        -11    1    3    3    0    0 -0.33452786008E+02 -0.56531391311E+01  0.10280249353E+02  0.35450393521E+02  0.51100000000E-03 0.  1.
         12    1    3    3    0    0  0.34491641662E+02  0.19268251015E+02 -0.10373903800E+02  0.40847970841E+02  0.00000000000E+00 0. -1.
</event>
<event>
 7    1  0.3032584E-015  0.9000774E+02  0.7816164E-02  0.1186339E+00
        -11   -1    0    0    0    0  0.00000000000E+00  0.00000000000E+00  0.45593999997E+02  0.45594000000E+02  0.51100000000E-03 0.  1.
         11   -1    0    0    0    0 -0.00000000000E+00 -0.00000000000E+00 -0.45593999997E+02  0.45594000000E+02  0.51100000000E-03 0. -1.
    9900012    2    1    2    0    0  0.22073300098E+00  0.82806968949E+00  0.81153965189E+00  0.90007737709E+02  0.89999999047E+02 0.  0.
         12    1    1    2    0    0 -0.22073300098E+00 -0.82806968949E+00 -0.81153965189E+00  0.11802622907E+01  0.00000000000E+00 0. -1.
         11    1    3    3    0    0 -0.37524801964E+01 -0.32805754864E+01 -0.80035052248E+01  0.94286467370E+01  0.51100000000E-03 0. -1.
        -11    1    3    3    0    0  0.24655001082E+02 -0.28799546349E+02 -0.71155791903E+01  0.38573493694E+02  0.51100000000E-03 0.  1.
         12    1    3    3    0    0 -0.20681787884E+02  0.32908191525E+02  0.15930624067E+02  0.42005597278E+02  0.00000000000E+00 0. -1.
</event>
<event>
 7    1  0.3032584E-015  0.9000787E+02  0.7816164E-02  0.1186339E+00
        -11   -1    0    0    0    0  0.00000000000E+00  0.00000000000E+00  0.45593999997E+02  0.45594000000E+02  0.51100000000E-03 0. -1.
         11   -1    0    0    0    0 -0.00000000000E+00 -0.00000000000E+00 -0.45593999997E+02  0.45594000000E+02  0.51100000000E-03 0.  1.
    9900012    2    1    2    0    0 -0.63243553073E+00 -0.66957518695E+00 -0.73784317431E+00  0.90007865185E+02  0.90000128205E+02 0.  0.
         12    1    1    2    0    0  0.63243553073E+00  0.66957518695E+00  0.73784317431E+00  0.11801348149E+01  0.00000000000E+00 0. -1.
         11    1    3    3    0    0 -0.79074440123E+01  0.21127257816E+01 -0.43140949221E+01  0.92521725176E+01  0.51100000000E-03 0. -1.
        -11    1    3    3    0    0 -0.30606170531E+02 -0.21855400976E+02 -0.34475689245E+01  0.37766148310E+02  0.51100000000E-03 0.  1.
         12    1    3    3    0    0  0.37881179012E+02  0.19073100008E+02  0.70238206723E+01  0.42989544358E+02  0.00000000000E+00 0. -1.
</event>
<event>
 7    1  0.3032584E-015  0.9000762E+02  0.7816164E-02  0.1186339E+00
        -11   -1    0    0    0    0  0.00000000000E+00  0.00000000000E+00  0.45593999997E+02  0.45594000000E+02  0.51100000000E-03 0.  1.
         11   -1    0    0    0    0 -0.00000000000E+00 -0.00000000000E+00 -0.45593999997E+02  0.45594000000E+02  0.51100000000E-03 0. -1.
    9900012    2    1    2    0    0  0.37636745748E+00 -0.33486768627E+00  0.10674781253E+01  0.90007619393E+02  0.89999879168E+02 0.  0.
         12    1    1    2    0    0 -0.37636745748E+00  0.33486768627E+00 -0.10674781253E+01  0.11803806074E+01  0.00000000000E+00 0. -1.
         11    1    3    3    0    0 -0.22508028699E+02  0.94402712716E+01 -0.34774826244E+02  0.42485510685E+02  0.51100000000E-03 0. -1.
        -11    1    3    3    0    0 -0.24134405801E+01 -0.35738025327E+01  0.97163289693E+01  0.10630324966E+02  0.51100000000E-03 0.  1.
        -12    1    3    3    0    0  0.25297836737E+02 -0.62013364252E+01  0.26125975400E+02  0.36891783742E+02  0.00000000000E+00 0.  1.
</event>
<event>
 7    1  0.3032584E-015  0.9000777E+02  0.7816164E-02  0.1186339E+00
        -11   -1    0    0    0    0  0.00000000000E+00  0.00000000000E+00  0.45593999997E+02  0.45594000000E+02  0.51100000000E-03 0.  1.
         11   -1    0    0    0    0 -0.00000000000E+00 -0.00000000000E+00 -0.45593999997E+02  0.45594000000E+02  0.51100000000E-03 0. -1.
    9900012    2    1    2    0    0 -0.66436100057E+00  0.96724836602E+00 -0.12646904206E+00  0.90007771480E+02  0.90000033264E+02 0.  0.
         12    1    1    2    0    0  0.66436100057E+00 -0.96724836602E+00  0.12646904206E+00  0.11802285199E+01  0.00000000000E+00 0. -1.
         11    1    3    3    0    0 -0.20361225408E+02 -0.26931512439E+02  0.24723058658E+02  0.41846331882E+02  0.51100000000E-03 0. -1.
        -11    1    3    3    0    0 -0.48033106425E+01  0.40355060186E+01 -0.76056452196E+01  0.98591552083E+01  0.51100000000E-03 0.  1.
        -12    1    3    3    0    0  0.24500175050E+02  0.23863254786E+02 -0.17243882480E+02  0.38302284389E+02  0.00000000000E+00 0.  1.
</event>
<event>
 7    1  0.3032584E-015  0.9000776E+02  0.7816164E-02  0.1186339E+00
        -11   -1    0    0    0    0  0.00000000000E+00  0.00000000000E+00  0.45593999997E+02  0.45594000000E+02  0.51100000000E-03 0. -1.
         11   -1    0    0    0    0 -0.00000000000E+00 -0.00000000000E+00 -0.45593999997E+02  0.45594000000E+02  0.51100000000E-03 0.  1.
    9900012    2    1    2    0    0  0.79179426428E+00 -0.83105247140E+00 -0.27456908927E+00  0.90007756571E+02  0.90000018158E+02 0.  0.
         12    1    1    2    0    0 -0.79179426428E+00  0.83105247140E+00  0.27456908927E+00  0.11802434291E+01  0.00000000000E+00 0. -1.
         11    1    3    3    0    0 -0.17131055954E+02 -0.30367308117E+02  0.10036358119E+02  0.36281882047E+02  0.51100000000E-03 0. -1.
        -11    1    3    3    0    0 -0.74215919579E+01 -0.43705391202E+01  0.33539074747E+01  0.92428531850E+01  0.51100000000E-03 0.  1.
        -12    1    3    3    0    0  0.25344442177E+02  0.33906794765E+02 -0.13664834683E+02  0.44483021338E+02  0.00000000000E+00 0.  1.
</event>
<event>
 7    1  0.3032584E-015  0.9000757E+02  0.7816164E-02  0.1186339E+00
        -11   -1    0    0    0    0  0.00000000000E+00  0.00000000000E+00  0.45593999997E+02  0.45594000000E+02  0.51100000000E-03 0.  1.
         11   -1    0    0    0    0 -0.00000000000E+00 -0.00000000000E+00 -0.45593999997E+02  0.45594000000E+02  0.51100000000E-03 0. -1.
    9900012    2    1    2    0    0 -0.26951927105E+00  0.38326684237E+00  0.10834588017E+01  0.90007569111E+02  0.89999828223E+02 0.  0.
         12    1    1    2    0    0  0.26951927105E+00 -0.38326684237E+00 -0.10834588017E+01  0.11804308895E+01  0.00000000000E+00 0. -1.
         11    1    3    3    0    0  0.16553510074E+02 -0.27621742239E+02 -0.18616455466E+02  0.37196125530E+02  0.51100000000E-03 0. -1.
        -11    1    3    3    0    0 -0.36208749133E+01 -0.89448644603E+01  0.53385203678E+01  0.11028197284E+02  0.51100000000E-03 0.  1.
        -12    1    3    3    0    0 -0.13202154432E+02  0.36949873541E+02  0.14361393900E+02  0.41783246297E+02  0.00000000000E+00 0.  1.
</event>
<event>
 7    1  0.3032584E-015  0.9000769E+02  0.7816164E-02  0.1186339E+00
        -11   -1    0    0    0    0  0.00000000000E+00  0.00000000000E+00  0.45593999997E+02  0.45594000000E+02  0.51100000000E-03 0. -1.
         11   -1    0    0    0    0 -0.00000000000E+00 -0.00000000000E+00 -0.45593999997E+02  0.45594000000E+02  0.51100000000E-03 0.  1.
    9900012    2    1    2    0    0  0.87738797669E-01  0.70306180129E+00 -0.94400522459E+00  0.90007686543E+02  0.89999947205E+02 0.  0.
         12    1    1    2    0    0 -0.87738797669E-01 -0.70306180129E+00  0.94400522459E+00  0.11803134571E+01  0.00000000000E+00 0. -1.
         11    1    3    3    0    0 -0.35861824354E+01  0.56868742257E+01 -0.30020014618E+01  0.73629651606E+01  0.51100000000E-03 0. -1.
        -11    1    3    3    0    0 -0.29073638721E+02  0.18305352535E+02 -0.16813205118E+02  0.38249787797E+02  0.51100000000E-03 0.  1.
         12    1    3    3    0    0  0.32747559954E+02 -0.23289164959E+02  0.18871201355E+02  0.44394933585E+02  0.00000000000E+00 0. -1.
</event>
<event>
 7    1  0.3032584E-015  0.9000768E+02  0.7816164E-02  0.1186339E+00
        -11   -1    0    0    0    0  0.00000000000E+00  0.00000000000E+00  0.45593999997E+02  0.45594000000E+02  0.51100000000E-03 0.  1.
         11   -1    0    0    0    0 -0.00000000000E+00 -0.00000000000E+00 -0.45593999997E+02  0.45594000000E+02  0.51100000000E-03 0. -1.
    9900012    2    1    2    0    0 -0.11194966052E+01 -0.19751505827E+00  0.31759754657E+00  0.90007680955E+02  0.89999941543E+02 0.  0.
         12    1    1    2    0    0  0.11194966052E+01  0.19751505827E+00 -0.31759754657E+00  0.11803190454E+01  0.00000000000E+00 0. -1.
         11    1    3    3    0    0 -0.18420755710E+01  0.28791402663E+02 -0.27056169922E+02  0.39552173655E+02  0.51100000000E-03 0. -1.
        -11    1    3    3    0    0  0.32129875978E+01  0.60499341346E+01  0.72411450846E+01  0.99679072394E+01  0.51100000000E-03 0.  1.
        -12    1    3    3    0    0 -0.24904086320E+01 -0.35038851856E+02  0.20132622384E+02  0.40487600060E+02  0.00000000000E+00 0.  1.
</event>
<event>
 7    1  0.3032584E-015  0.9000788E+02  0.7816164E-02  0.1186339E+00
        -11   -1    0    0    0    0  0.00000000000E+00  0.00000000000E+00  0.45593999997E+02  0.45594000000E+02  0.51100000000E-03 0.  1.
         11   -1    0    0    0    0 -0.00000000000E+00 -0.00000000000E+00 -0.45593999997E+02  0.45594000000E+02  0.51100000000E-03 0. -1.
    9900012    2    1    2    0    0 -0.83804890208E+00 -0.45485679665E+00  0.69531014717E+00  0.90007882689E+02  0.90000145940E+02 0.  0.
         12    1    1    2    0    0  0.83804890208E+00  0.45485679665E+00 -0.69531014717E+00  0.11801173113E+01  0.00000000000E+00 0. -1.
         11    1    3    3    0    0 -0.65388244320E+01 -0.83229985057E+00  0.50980897337E+01  0.83330346926E+01  0.51100000000E-03 0. -1.
        -11    1    3    3    0    0 -0.33833342012E+02  0.15821287121E+02 -0.10494876759E+02  0.38796270392E+02  0.51100000000E-03 0.  1.
         12    1    3    3    0    0  0.39534117542E+02 -0.15443844067E+02  0.60920971720E+01  0.42878577604E+02  0.00000000000E+00 0. -1.
</event>
<event>
 7    1  0.3230310E-015  0.9000775E+02  0.7816164E-02  0.1186339E+00
        -11   -1    0    0    0    0  0.00000000000E+00  0.00000000000E+00  0.45593999997E+02  0.45594000000E+02  0.51100000000E-03 0. -1.
         11   -1    0    0    0    0 -0.00000000000E+00 -0.00000000000E+00 -0.45593999997E+02  0.45594000000E+02  0.51100000000E-03 0.  1.
    9900012    2    1    2    0    0  0.10385321018E+01  0.20377068976E+00 -0.52240868486E+00  0.90007753308E+02  0.90000014851E+02 0.  0.
         12    1    1    2    0    0 -0.10385321018E+01 -0.20377068976E+00  0.52240868486E+00  0.11802466922E+01  0.00000000000E+00 0. -1.
         11    1    3    3    0    0 -0.32306898981E+02 -0.15109806574E+02 -0.60839778815E+01  0.36180889481E+02  0.51100000000E-03 0. -1.
        -11    1    3    3    0    0 -0.32006917360E+01 -0.90555429963E+01  0.63124851834E+00  0.96252668275E+01  0.51100000000E-03 0.  1.
        -12    1    3    3    0    0  0.36546122819E+02  0.24369120260E+02  0.49303206783E+01  0.44201597000E+02  0.00000000000E+00 0.  1.
</event>
<event>
 7    1  0.3032584E-015  0.9000770E+02  0.7816164E-02  0.1186339E+00
        -11   -1    0    0    0    0  0.00000000000E+00  0.00000000000E+00  0.45593999997E+02  0.45594000000E+02  0.51100000000E-03 0.  1.
         11   -1    0    0    0    0 -0.00000000000E+00 -0.00000000000E+00 -0.45593999997E+02  0.45594000000E+02  0.51100000000E-03 0. -1.
    9900012    2    1    2    0    0  0.47502848216E+00 -0.19844280379E+00  0.10621044110E+01  0.90007704535E+02  0.89999965435E+02 0.  0.
         12    1    1    2    0    0 -0.47502848216E+00  0.19844280379E+00 -0.10621044110E+01  0.11802954652E+01  0.00000000000E+00 0. -1.
         11    1    3    3    0    0 -0.76903430083E+01  0.94767990938E+01 -0.39515422861E+02  0.41357221144E+02  0.51100000000E-03 0. -1.
        -11    1    3    3    0    0 -0.92927004911E+00  0.70075501615E+01  0.63477430397E+01  0.95006917669E+01  0.51100000000E-03 0.  1.
        -12    1    3    3    0    0  0.90946415396E+01 -0.16682792059E+02  0.34229784232E+02  0.39149791624E+02  0.00000000000E+00 0.  1.
</event>
<event>
 7    1  0.3032584E-015  0.9000772E+02  0.7816164E-02  0.1186339E+00
        -11   -1    0    0    0    0  0.00000000000E+00  0.00000000000E+00  0.45593999997E+02  0.45594000000E+02  0.51100000000E-03 0.  1.
         11   -1    0    0    0    0 -0.00000000000E+00 -0.00000000000E+00 -0.45593999997E+02  0.45594000000E+02  0.51100000000E-03 0. -1.
    9900012    2    1    2    0    0 -0.42429801455E+00 -0.19383477742E+00  0.10841845967E+01  0.90007721658E+02  0.89999982783E+02 0.  0.
         12    1    1    2    0    0  0.42429801455E+00  0.19383477742E+00 -0.10841845967E+01  0.11802783425E+01  0.00000000000E+00 0. -1.
         11    1    3    3    0    0 -0.31016580851E+02 -0.25161697046E+01 -0.21017622264E+02  0.37551296164E+02  0.51100000000E-03 0. -1.
        -11    1    3    3    0    0  0.22598244932E+01 -0.38193776555E+01 -0.89409335316E+01  0.99817205477E+01  0.51100000000E-03 0.  1.
        -12    1    3    3    0    0  0.28332458343E+02  0.61417125827E+01  0.31042740392E+02  0.42474704946E+02  0.00000000000E+00 0.  1.
</event>
<event>
 7    1  0.3032584E-015  0.9000769E+02  0.7816164E-02  0.1186339E+00
        -11   -1    0    0    0    0  0.00000000000E+00  0.00000000000E+00  0.45593999997E+02  0.45594000000E+02  0.51100000000E-03 0.  1.
         11   -1    0    0    0    0 -0.00000000000E+00 -0.00000000000E+00 -0.45593999997E+02  0.45594000000E+02  0.51100000000E-03 0. -1.
    9900012    2    1    2    0    0  0.81932395327E+00 -0.59640468838E+00  0.60508686126E+00  0.90007694784E+02  0.89999955555E+02 0.  0.
         12    1    1    2    0    0 -0.81932395327E+00  0.59640468838E+00 -0.60508686126E+00  0.11803052158E+01  0.00000000000E+00 0. -1.
         11    1    3    3    0    0 -0.36220869435E+01 -0.40283590386E+01  0.64936050194E+01  0.84566007816E+01  0.51100000000E-03 0. -1.
        -11    1    3    3    0    0  0.29160580349E+01  0.89500545293E+01  0.37052814289E+02  0.38229804048E+02  0.51100000000E-03 0.  1.
         12    1    3    3    0    0  0.15253528618E+01 -0.55181001791E+01 -0.42941332448E+02  0.43321289954E+02  0.00000000000E+00 0. -1.
</event>
<event>
 7    1  0.3032584E-015  0.9000777E+02  0.7816164E-02  0.1186339E+00
        -11   -1    0    0    0    0  0.00000000000E+00  0.00000000000E+00  0.45593999997E+02  0.45594000000E+02  0.51100000000E-03 0.  1.
         11   -1    0    0    0    0 -0.00000000000E+00 -0.00000000000E+00 -0.45593999997E+02  0.45594000000E+02  0.51100000000E-03 0. -1.
    9900012    2    1    2    0    0 -0.10857459908E+01  0.45907812176E+00  0.57894020164E-01  0.90007767482E+02  0.90000029213E+02 0.  0.
         12    1    1    2    0    0  0.10857459908E+01 -0.45907812176E+00 -0.57894020164E-01  0.11802325177E+01  0.00000000000E+00 0. -1.
         11    1    3    3    0    0  0.94418552697E+01 -0.26357915766E+01  0.43680927872E+01  0.10732020454E+02  0.51100000000E-03 0. -1.
        -11    1    3    3    0    0 -0.42909299011E+02  0.10740191792E+02  0.55343683712E+01  0.44577896932E+02  0.51100000000E-03 0.  1.
         12    1    3    3    0    0  0.32381697751E+02 -0.76453220937E+01 -0.98445671383E+01  0.34697850096E+02  0.00000000000E+00 0. -1.
</event>
<event>
 7    1  0.3032584E-015  0.9000774E+02  0.7816164E-02  0.1186339E+00
        -11   -1    0    0    0    0  0.00000000000E+00  0.00000000000E+00  0.45593999997E+02  0.45594000000E+02  0.51100000000E-03 0. -1.
         11   -1    0    0    0    0 -0.00000000000E+00 -0.00000000000E+00 -0.45593999997E+02  0.45594000000E+02  0.51100000000E-03 0.  1.
    9900012    2    1    2    0    0  0.88860884725E+00 -0.56968769803E+00 -0.52804564617E+00  0.90007744959E+02  0.90000006393E+02 0.  0.
         12    1    1    2    0    0 -0.88860884725E+00  0.56968769803E+00  0.52804564617E+00  0.11802550407E+01  0.00000000000E+00 0. -1.
         11    1    3    3    0    0 -0.90796487779E+01 -0.42497371915E+01  0.13752649209E+02  0.17018685280E+02  0.51100000000E-03 0. -1.
        -11    1    3    3    0    0 -0.74642717225E+01 -0.18586722734E+02 -0.33335019476E+02  0.38889653355E+02  0.51100000000E-03 0.  1.
         12    1    3    3    0    0  0.17432529348E+02  0.22266772228E+02  0.19054324621E+02  0.34099406324E+02  0.00000000000E+00 0. -1.
</event>
<event>
 7    1  0.3032584E-015  0.9000773E+02  0.7816164E-02  0.1186339E+00
        -11   -1    0    0    0    0  0.00000000000E+00  0.00000000000E+00  0.45593999997E+02  0.45594000000E+02  0.51100000000E-03 0. -1.
         11   -1    0    0    0    0 -0.00000000000E+00 -0.00000000000E+00 -0.45593999997E+02  0.45594000000E+02  0.51100000000E-03 0.  1.
    9900012    2    1    2    0    0  0.81239874107E+00 -0.58051740467E+00  0.62932517018E+00  0.90007727853E+02  0.89999989060E+02 0.  0.
         12    1    1    2    0    0 -0.81239874107E+00  0.58051740467E+00 -0.62932517018E+00  0.11802721472E+01  0.00000000000E+00 0. -1.
         11    1    3    3    0    0  0.29014920813E+02 -0.15905055147E+02 -0.18548239532E+02  0.37932487383E+02  0.51100000000E-03 0. -1.
        -11    1    3    3    0    0 -0.25758651634E+01 -0.38738751367E+01 -0.85398747048E+01  0.97247853523E+01  0.51100000000E-03 0.  1.
        -12    1    3    3    0    0 -0.25626656908E+02  0.19198412879E+02  0.27717439407E+02  0.42350455118E+02  0.00000000000E+00 0.  1.
</event>
<event>
 7    1  0.3040849E-015  0.9000749E+02  0.7816164E-02  0.1186340E+00
        -11   -1    0    0    0    0  0.00000000000E+00  0.00000000000E+00  0.45593999997E+02  0.45594000000E+02  0.51100000000E-03 0.  1.
         11   -1    0    0    0    0 -0.00000000000E+00 -0.00000000000E+00 -0.45593999997E+02  0.45594000000E+02  0.51100000000E-03 0. -1.
    9900012    2    1    2    0    0 -0.66100487541E+00  0.40213443008E+00  0.89160640916E+00  0.90007490985E+02  0.89999749066E+02 0.  0.
         12    1    1    2    0    0  0.66100487541E+00 -0.40213443008E+00 -0.89160640916E+00  0.11805090148E+01  0.00000000000E+00 0. -1.
         11    1    3    3    0    0  0.20612096546E+02  0.14975008380E+02 -0.26478309225E+02  0.36745207302E+02  0.51100000000E-03 0. -1.
        -11    1    3    3    0    0  0.65276903904E+01  0.68278751708E+01  0.12619400912E+01  0.95301161712E+01  0.51100000000E-03 0.  1.
        -12    1    3    3    0    0 -0.27800791812E+02 -0.21400749121E+02  0.26107975543E+02  0.43732167512E+02  0.00000000000E+00 0.  1.
</event>
<event>
 7    1  0.3032584E-015  0.9000773E+02  0.7816164E-02  0.1186339E+00
        -11   -1    0    0    0    0  0.00000000000E+00  0.00000000000E+00  0.45593999997E+02  0.45594000000E+02  0.51100000000E-03 0.  1.
         11   -1    0    0    0    0 -0.00000000000E+00 -0.00000000000E+00 -0.45593999997E+02  0.45594000000E+02  0.51100000000E-03 0. -1.
    9900012    2    1    2    0    0  0.16106897758E+00  0.45217961180E+00  0.10782547904E+01  0.90007727570E+02  0.89999988774E+02 0.  0.
         12    1    1    2    0    0 -0.16106897758E+00 -0.45217961180E+00 -0.10782547904E+01  0.11802724304E+01  0.00000000000E+00 0. -1.
         11    1    3    3    0    0 -0.98521365749E+00 -0.61866774301E+01 -0.46405249020E+01  0.77961590031E+01  0.51100000000E-03 0. -1.
        -11    1    3    3    0    0 -0.30661692930E+02 -0.86024891244E+00  0.28900820458E+02  0.42144238811E+02  0.51100000000E-03 0.  1.
         12    1    3    3    0    0  0.31807975565E+02  0.74991059543E+01 -0.23182040766E+02  0.40067329756E+02  0.00000000000E+00 0. -1.
</event>
<event>
 7    1  0.3032584E-015  0.9000792E+02  0.7816164E-02  0.1186339E+00
        -11   -1    0    0    0    0  0.00000000000E+00  0.00000000000E+00  0.45593999997E+02  0.45594000000E+02  0.51100000000E-03 0. -1.
         11   -1    0    0    0    0 -0.00000000000E+00 -0.00000000000E+00 -0.45593999997E+02  0.45594000000E+02  0.51100000000E-03 0.  1.
    9900012    2    1    2    0    0  0.90793315975E+00  0.52172867374E+00 -0.54409506841E+00  0.90007922513E+02  0.90000186290E+02 0.  0.
         12    1    1    2    0    0 -0.90793315975E+00 -0.52172867374E+00  0.54409506841E+00  0.11800774869E+01  0.00000000000E+00 0. -1.
         11    1    3    3    0    0  0.52063680266E+01 -0.73711392856E+01 -0.48647197771E+01  0.10252095452E+02  0.51100000000E-03 0. -1.
        -11    1    3    3    0    0  0.16121850570E+02 -0.28708970050E+02 -0.11616807297E+02  0.34915172048E+02  0.51100000000E-03 0.  1.
         12    1    3    3    0    0 -0.20420285437E+02  0.36601838009E+02  0.15937432006E+02  0.44840655012E+02  0.00000000000E+00 0. -1.
</event>
<event>
 7    1  0.3032584E-015  0.9000779E+02  0.7816164E-02  0.1186339E+00
        -11   -1    0    0    0    0  0.00000000000E+00  0.00000000000E+00  0.45593999997E+02  0.45594000000E+02  0.51100000000E-03 0.  1.
         11   -1    0    0    0    0 -0.00000000000E+00 -0.00000000000E+00 -0.45593999997E+02  0.45594000000E+02  0.51100000000E-03 0. -1.
    9900012    2    1    2    0    0  0.10036062928E+01  0.38527994194E+00  0.48706828796E+00  0.90007787417E+02  0.90000049411E+02 0.  0.
         12    1    1    2    0    0 -0.10036062928E+01 -0.38527994194E+00 -0.48706828796E+00  0.11802125833E+01  0.00000000000E+00 0. -1.
         11    1    3    3    0    0  0.17581952956E+02  0.16954302364E+02 -0.33186409114E+02  0.41205717910E+02  0.51100000000E-03 0. -1.
        -11    1    3    3    0    0  0.42243071998E+01  0.37212485309E+01  0.93148928260E+01  0.10883918898E+02  0.51100000000E-03 0.  1.
        -12    1    3    3    0    0 -0.20802653863E+02 -0.20290270953E+02  0.24358584576E+02  0.37918150609E+02  0.00000000000E+00 0.  1.
</event>
<event>
 7    1  0.3032584E-015  0.9000776E+02  0.7816164E-02  0.1186339E+00
        -11   -1    0    0    0    0  0.00000000000E+00  0.00000000000E+00  0.45593999997E+02  0.45594000000E+02  0.51100000000E-03 0. -1.
         11   -1    0    0    0    0 -0.00000000000E+00 -0.00000000000E+00 -0.45593999997E+02  0.45594000000E+02  0.51100000000E-03 0.  1.
    9900012    2    1    2    0    0  0.74540276025E+00 -0.65788647064E+00 -0.63603026230E+00  0.90007756645E+02  0.90000018232E+02 0.  0.
         12    1    1    2    0    0 -0.74540276025E+00  0.65788647064E+00  0.63603026230E+00  0.11802433553E+01  0.00000000000E+00 0. -1.
         11    1    3    3    0    0 -0.38972663145E+01  0.40073657330E+01  0.35245268812E+02  0.35685804443E+02  0.51100000000E-03 0. -1.
        -11    1    3    3    0    0  0.53162923376E+00 -0.20949670246E+01  0.89611695968E+01  0.92181384932E+01  0.51100000000E-03 0.  1.
        -12    1    3    3    0    0  0.41110398410E+01 -0.25702851791E+01 -0.44842468671E+02  0.45103813708E+02  0.00000000000E+00 0.  1.
</event>
<event>
 7    1  0.3032584E-015  0.9000735E+02  0.7816164E-02  0.1186340E+00
        -11   -1    0    0    0    0  0.00000000000E+00  0.00000000000E+00  0.45593999997E+02  0.45594000000E+02  0.51100000000E-03 0. -1.
         11   -1    0    0    0    0 -0.00000000000E+00 -0.00000000000E+00 -0.45593999997E+02  0.45594000000E+02  0.51100000000E-03 0.  1.
    9900012    2    1    2    0    0 -0.74957105739E+00 -0.14828515613E+00 -0.90004834362E+00  0.90007350908E+02  0.89999607139E+02 0.  0.
         12    1    1    2    0    0  0.74957105739E+00  0.14828515613E+00  0.90004834362E+00  0.11806490920E+01  0.00000000000E+00 0. -1.
         11    1    3    3    0    0 -0.82529903155E+01  0.48470483997E+01  0.27873285481E+01  0.99686974090E+01  0.51100000000E-03 0. -1.
        -11    1    3    3    0    0  0.24454508165E+01  0.30036340830E+02 -0.24622702265E+02  0.38915799713E+02  0.51100000000E-03 0.  1.
         12    1    3    3    0    0  0.50579684416E+01 -0.35031674386E+02  0.20935325373E+02  0.41122853786E+02  0.00000000000E+00 0. -1.
</event>
<event>
 7    1  0.3032584E-015  0.9000733E+02  0.7816164E-02  0.1186340E+00
        -11   -1    0    0    0    0  0.00000000000E+00  0.00000000000E+00  0.45593999997E+02  0.45594000000E+02  0.51100000000E-03 0.  1.
         11   -1    0    0    0    0 -0.00000000000E+00 -0.00000000000E+00 -0.45593999997E+02  0.45594000000E+02  0.51100000000E-03 0. -1.
    9900012    2    1    2    0    0 -0.78590057596E+00 -0.73985266577E-01  0.87798811463E+00  0.90007332111E+02  0.89999588094E+02 0.  0.
         12    1    1    2    0    0  0.78590057596E+00  0.73985266577E-01 -0.87798811463E+00  0.11806678891E+01  0.00000000000E+00 0. -1.
         11    1    3    3    0    0  0.21828006057E+02  0.23530558137E+02  0.15517403221E+02  0.35650228858E+02  0.51100000000E-03 0. -1.
        -11    1    3    3    0    0  0.80673470137E+01  0.30231056850E+01  0.41908670012E+01  0.95804291294E+01  0.51100000000E-03 0.  1.
        -12    1    3    3    0    0 -0.30681253646E+02 -0.26627649088E+02 -0.18830282108E+02  0.44776674123E+02  0.00000000000E+00 0.  1.
</event>
<event>
 7    1  0.3032584E-015  0.9000777E+02  0.7816164E-02  0.1186339E+00
        -11   -1    0    0    0    0  0.00000000000E+00  0.00000000000E+00  0.45593999997E+02  0.45594000000E+02  0.51100000000E-03 0. -1.
         11   -1    0    0    0    0 -0.00000000000E+00 -0.00000000000E+00 -0.45593999997E+02  0.45594000000E+02  0.51100000000E-03 0.  1.
    9900012    2    1    2    0    0  0.99173573039E+00 -0.38671244092E+00 -0.50976288529E+00  0.90007769315E+02  0.90000031070E+02 0.  0.
         12    1    1    2    0    0 -0.99173573039E+00  0.38671244092E+00  0.50976288529E+00  0.11802306851E+01  0.00000000000E+00 0. -1.
         11    1    3    3    0    0 -0.33330075372E+00 -0.57956326102E+01 -0.84873820965E+01  0.10282806128E+02  0.51100000000E-03 0. -1.
        -11    1    3    3    0    0  0.99640170425E+01 -0.18040284107E+02 -0.28706174294E+02  0.35338052141E+02  0.51100000000E-03 0.  1.
         12    1    3    3    0    0 -0.86389805584E+01  0.23449204277E+02  0.36683793505E+02  0.44386911046E+02  0.00000000000E+00 0. -1.
</event>
<event>
 7    1  0.4427734E-015  0.9000774E+02  0.7816164E-02  0.1186339E+00
        -11   -1    0    0    0    0  0.00000000000E+00  0.00000000000E+00  0.45593999997E+02  0.45594000000E+02  0.51100000000E-03 0. -1.
         11   -1    0    0    0    0 -0.00000000000E+00 -0.00000000000E+00 -0.45593999997E+02  0.45594000000E+02  0.51100000000E-03 0.  1.
    9900012    2    1    2    0    0  0.98885185830E+00 -0.33244350304E+00  0.55197284105E+00  0.90007737022E+02  0.89999998351E+02 0.  0.
         12    1    1    2    0    0 -0.98885185830E+00  0.33244350304E+00 -0.55197284105E+00  0.11802629782E+01  0.00000000000E+00 0. -1.
         11    1    3    3    0    0  0.36073370879E+02 -0.15012040917E+02 -0.83729966547E+01  0.39959436086E+02  0.51100000000E-03 0. -1.
        -11    1    3    3    0    0 -0.10027662667E+01  0.17301848299E+01 -0.91421613205E+01  0.93583221574E+01  0.51100000000E-03 0.  1.
        -12    1    3    3    0    0 -0.34081752754E+02  0.12949412584E+02  0.18067130816E+02  0.40689978778E+02  0.00000000000E+00 0.  1.
</event>
<event>
 7    1  0.3032584E-015  0.9000775E+02  0.7816164E-02  0.1186339E+00
        -11   -1    0    0    0    0  0.00000000000E+00  0.00000000000E+00  0.45593999997E+02  0.45594000000E+02  0.51100000000E-03 0.  1.
         11   -1    0    0    0    0 -0.00000000000E+00 -0.00000000000E+00 -0.45593999997E+02  0.45594000000E+02  0.51100000000E-03 0. -1.
    9900012    2    1    2    0    0  0.50448798279E+00  0.86464959480E+00 -0.62518176492E+00  0.90007754565E+02  0.90000016126E+02 0.  0.
         12    1    1    2    0    0 -0.50448798279E+00 -0.86464959480E+00  0.62518176492E+00  0.11802454345E+01  0.00000000000E+00 0. -1.
         11    1    3    3    0    0  0.19876022147E+01 -0.78533540672E+01  0.21347749651E+01  0.83775292946E+01  0.51100000000E-03 0. -1.
        -11    1    3    3    0    0  0.15766189515E+02 -0.23042175031E+02  0.23873453716E+02  0.36734947319E+02  0.51100000000E-03 0.  1.
         12    1    3    3    0    0 -0.17249303747E+02  0.31760178693E+02 -0.26633410446E+02  0.44895277951E+02  0.00000000000E+00 0. -1.
</event>
<event>
 7    1  0.3032584E-015  0.9000773E+02  0.7816164E-02  0.1186339E+00
        -11   -1    0    0    0    0  0.00000000000E+00  0.00000000000E+00  0.45593999997E+02  0.45594000000E+02  0.51100000000E-03 0. -1.
         11   -1    0    0    0    0 -0.00000000000E+00 -0.00000000000E+00 -0.45593999997E+02  0.45594000000E+02  0.51100000000E-03 0.  1.
    9900012    2    1    2    0    0 -0.16778356582E+00 -0.19970696272E-01 -0.11681090189E+01  0.90007733575E+02  0.89999994858E+02 0.  0.
         12    1    1    2    0    0  0.16778356582E+00  0.19970696272E-01  0.11681090189E+01  0.11802664249E+01  0.00000000000E+00 0. -1.
         11    1    3    3    0    0  0.29504109145E+02 -0.25498640619E+02  0.10791587354E+02  0.40461481532E+02  0.51100000000E-03 0. -1.
        -11    1    3    3    0    0 -0.18343827891E+00 -0.32264504817E+01 -0.74825911629E+01  0.81506320666E+01  0.51100000000E-03 0.  1.
        -12    1    3    3    0    0 -0.29488454432E+02  0.28705120404E+02 -0.44771052098E+01  0.41395619977E+02  0.00000000000E+00 0.  1.
</event>
<event>
 7    1  0.3032584E-015  0.9000761E+02  0.7816164E-02  0.1186339E+00
        -11   -1    0    0    0    0  0.00000000000E+00  0.00000000000E+00  0.45593999997E+02  0.45594000000E+02  0.51100000000E-03 0.  1.
         11   -1    0    0    0    0 -0.00000000000E+00 -0.00000000000E+00 -0.45593999997E+02  0.45594000000E+02  0.51100000000E-03 0. -1.
    9900012    2    1    2    0    0  0.91195181443E+00 -0.72220238017E+00  0.20020653816E+00  0.90007612332E+02  0.89999872014E+02 0.  0.
         12    1    1    2    0    0 -0.91195181443E+00  0.72220238017E+00 -0.20020653816E+00  0.11803876684E+01  0.00000000000E+00 0. -1.
         11    1    3    3    0    0 -0.88922654582E+01 -0.61628239665E+01 -0.40941120279E+02  0.42346524228E+02  0.51100000000E-03 0. -1.
        -11    1    3    3    0    0  0.93681336794E+01 -0.23094452339E+01  0.53396282039E+01  0.11027560725E+02  0.51100000000E-03 0.  1.
        -12    1    3    3    0    0  0.43608359323E+00  0.77500668203E+01  0.35801698613E+02  0.36633527379E+02  0.00000000000E+00 0.  1.
</event>
<event>
 7    1  0.3032584E-015  0.9000772E+02  0.7816164E-02  0.1186339E+00
        -11   -1    0    0    0    0  0.00000000000E+00  0.00000000000E+00  0.45593999997E+02  0.45594000000E+02  0.51100000000E-03 0.  1.
         11   -1    0    0    0    0 -0.00000000000E+00 -0.00000000000E+00 -0.45593999997E+02  0.45594000000E+02  0.51100000000E-03 0. -1.
    9900012    2    1    2    0    0  0.13439451161E+00  0.41477049503E+00  0.10967937321E+01  0.90007723363E+02  0.89999984512E+02 0.  0.
         12    1    1    2    0    0 -0.13439451161E+00 -0.41477049503E+00 -0.10967937321E+01  0.11802766367E+01  0.00000000000E+00 0. -1.
         11    1    3    3    0    0  0.10182969325E+02 -0.18279159766E+01 -0.31547141329E+02  0.33200244989E+02  0.51100000000E-03 0. -1.
        -11    1    3    3    0    0  0.58874912089E+01 -0.11769803747E+00 -0.97865635137E+01  0.11421612462E+02  0.51100000000E-03 0.  1.
         12    1    3    3    0    0 -0.15936066022E+02  0.23603845091E+01  0.42430498574E+02  0.45385865912E+02  0.00000000000E+00 0. -1.
</event>
<event>
 7    1  0.3032584E-015  0.9000770E+02  0.7816164E-02  0.1186339E+00
        -11   -1    0    0    0    0  0.00000000000E+00  0.00000000000E+00  0.45593999997E+02  0.45594000000E+02  0.51100000000E-03 0. -1.
         11   -1    0    0    0    0 -0.00000000000E+00 -0.00000000000E+00 -0.45593999997E+02  0.45594000000E+02  0.51100000000E-03 0.  1.
    9900012    2    1    2    0    0  0.68722203263E+00  0.20988326529E-01 -0.95936770991E+00  0.90007702989E+02  0.89999963868E+02 0.  0.
         12    1    1    2    0    0 -0.68722203263E+00 -0.20988326529E-01  0.95936770991E+00  0.11802970113E+01  0.00000000000E+00 0. -1.
         11    1    3    3    0    0 -0.24262939412E+01  0.86368205470E+01  0.68143713993E+00  0.89969955145E+01  0.51100000000E-03 0. -1.
        -11    1    3    3    0    0 -0.22567287886E+02  0.27884469154E+01 -0.32249588403E+02  0.39460028778E+02  0.51100000000E-03 0.  1.
         12    1    3    3    0    0  0.25680803860E+02 -0.11404279136E+02  0.30608783553E+02  0.41550678696E+02  0.00000000000E+00 0. -1.
</event>
<event>
 7    1  0.3032584E-015  0.9000772E+02  0.7816164E-02  0.1186339E+00
        -11   -1    0    0    0    0  0.00000000000E+00  0.00000000000E+00  0.45593999997E+02  0.45594000000E+02  0.51100000000E-03 0. -1.
         11   -1    0    0    0    0 -0.00000000000E+00 -0.00000000000E+00 -0.45593999997E+02  0.45594000000E+02  0.51100000000E-03 0.  1.
    9900012    2    1    2    0    0  0.34359906205E+00 -0.36291677356E+00 -0.10692445819E+01  0.90007723390E+02  0.89999984539E+02 0.  0.
         12    1    1    2    0    0 -0.34359906205E+00  0.36291677356E+00  0.10692445819E+01  0.11802766099E+01  0.00000000000E+00 0. -1.
         11    1    3    3    0    0 -0.15636898850E+02  0.15982979025E+02  0.46138895949E+00  0.22364729021E+02  0.51100000000E-03 0. -1.
        -11    1    3    3    0    0 -0.19035712213E+02 -0.10962698800E+02 -0.18165073048E+02  0.28504543209E+02  0.51100000000E-03 0.  1.
         12    1    3    3    0    0  0.35016210125E+02 -0.53831969985E+01  0.16634439507E+02  0.39138451160E+02  0.00000000000E+00 0. -1.
</event>
<event>
 7    1  0.3032584E-015  0.9000772E+02  0.7816164E-02  0.1186339E+00
        -11   -1    0    0    0    0  0.00000000000E+00  0.00000000000E+00  0.45593999997E+02  0.45594000000E+02  0.51100000000E-03 0. -1.
         11   -1    0    0    0    0 -0.00000000000E+00 -0.00000000000E+00 -0.45593999997E+02  0.45594000000E+02  0.51100000000E-03 0.  1.
    9900012    2    1    2    0    0  0.59605897557E-01  0.10116149913E+01 -0.60509669642E+00  0.90007720471E+02  0.89999981582E+02 0.  0.
         12    1    1    2    0    0 -0.59605897557E-01 -0.10116149913E+01  0.60509669642E+00  0.11802795286E+01  0.00000000000E+00 0. -1.
         11    1    3    3    0    0  0.19698939852E+00  0.80564071797E+01 -0.70607372372E+01  0.10714406753E+02  0.51100000000E-03 0. -1.
        -11    1    3    3    0    0  0.36337204868E+02 -0.20304155754E+01  0.18142541479E+02  0.40665302859E+02  0.51100000000E-03 0.  1.
         12    1    3    3    0    0 -0.36474588369E+02 -0.50143766130E+01 -0.11686900938E+02  0.38628010860E+02  0.00000000000E+00 0. -1.
</event>
<event>
 7    1  0.3032584E-015  0.9000772E+02  0.7816164E-02  0.1186339E+00
        -11   -1    0    0    0    0  0.00000000000E+00  0.00000000000E+00  0.45593999997E+02  0.45594000000E+02  0.51100000000E-03 0. -1.
         11   -1    0    0    0    0 -0.00000000000E+00 -0.00000000000E+00 -0.45593999997E+02  0.45594000000E+02  0.51100000000E-03 0.  1.
    9900012    2    1    2    0    0 -0.99568803505E+00 -0.53368490716E+00 -0.34184178942E+00  0.90007716114E+02  0.89999977166E+02 0.  0.
         12    1    1    2    0    0  0.99568803505E+00  0.53368490716E+00  0.34184178942E+00  0.11802838863E+01  0.00000000000E+00 0. -1.
         11    1    3    3    0    0  0.60185269646E+01 -0.59710691195E+01 -0.70393005692E+01  0.11019441275E+02  0.51100000000E-03 0. -1.
        -11    1    3    3    0    0  0.10674409580E+02 -0.26256463377E+02 -0.19345324198E+02  0.34315979624E+02  0.51100000000E-03 0.  1.
         12    1    3    3    0    0 -0.17688624579E+02  0.31693847589E+02  0.26042782978E+02  0.44672295215E+02  0.00000000000E+00 0. -1.
</event>
<event>
 7    1  0.3952721E-015  0.9000882E+02  0.7816164E-02  0.1186337E+00
        -11   -1    0    0    0    0  0.00000000000E+00  0.00000000000E+00  0.45593999997E+02  0.45594000000E+02  0.51100000000E-03 0. -1.
         11   -1    0    0    0    0 -0.00000000000E+00 -0.00000000000E+00 -0.45593999997E+02  0.45594000000E+02  0.51100000000E-03 0.  1.
    9900012    2    1    2    0    0 -0.40530805947E+00 -0.50300344085E+00 -0.98649216070E+00  0.90008824921E+02  0.90001100603E+02 0.  0.
         12    1    1    2    0    0  0.40530805947E+00  0.50300344085E+00  0.98649216070E+00  0.11791750793E+01  0.00000000000E+00 0. -1.
         11    1    3    3    0    0  0.94199106735E+01  0.27479556382E+02  0.21232530757E+02  0.35981677263E+02  0.51100000000E-03 0. -1.
        -11    1    3    3    0    0  0.81712163968E+01  0.32727343532E+00  0.60387730927E+01  0.10165759491E+02  0.51100000000E-03 0.  1.
        -12    1    3    3    0    0 -0.17996435130E+02 -0.28309833258E+02 -0.28257796011E+02  0.43861388166E+02  0.00000000000E+00 0.  1.
</event>
<event>
 8    1  0.3032584E-015  0.9000758E+02  0.7816164E-02  0.1186339E+00
        -11   -1    0    0    0    0  0.00000000000E+00  0.00000000000E+00  0.45593999997E+02  0.45594000000E+02  0.51100000000E-03 0.  1.
         11   -1    0    0    0    0 -0.00000000000E+00 -0.00000000000E+00 -0.45593999997E+02  0.45594000000E+02  0.51100000000E-03 0. -1.
    9900012    2    1    2    0    0 -0.64217498100E+00 -0.88094030589E+00  0.45271877782E+00  0.90007576847E+02  0.89999836061E+02 0.  0.
         23    2    3    3    0    0  0.20709071897E+02 -0.19997026844E+02  0.12994204075E+00  0.61347418219E+02  0.54173259970E+02 0.  0.
         12    1    1    2    0    0  0.64217498100E+00  0.88094030589E+00 -0.45271877782E+00  0.11804231532E+01  0.00000000000E+00 0. -1.
         11    1    4    4    0    0  0.51280273197E+01  0.11822629495E+02  0.17624947941E+02  0.21833690081E+02  0.51100000000E-03 0. -1.
        -11    1    4    4    0    0  0.15581044577E+02 -0.31819656338E+02 -0.17495005901E+02  0.39513728138E+02  0.51100000000E-03 0.  1.
         12    1    3    3    0    0 -0.21351246878E+02  0.19116086538E+02  0.32277673707E+00  0.28660158628E+02  0.00000000000E+00 0. -1.
</event>
<event>
 7    1  0.3032584E-015  0.9000778E+02  0.7816164E-02  0.1186339E+00
        -11   -1    0    0    0    0  0.00000000000E+00  0.00000000000E+00  0.45593999997E+02  0.45594000000E+02  0.51100000000E-03 0.  1.
         11   -1    0    0    0    0 -0.00000000000E+00 -0.00000000000E+00 -0.45593999997E+02  0.45594000000E+02  0.51100000000E-03 0. -1.
    9900012    2    1    2    0    0 -0.98766381130E+00  0.11177751590E+00 -0.63636117831E+00  0.90007775629E+02  0.90000037467E+02 0.  0.
         12    1    1    2    0    0  0.98766381130E+00 -0.11177751590E+00  0.63636117831E+00  0.11802243712E+01  0.00000000000E+00 0. -1.
         11    1    3    3    0    0 -0.81292453429E+01  0.46538601411E+01 -0.30727025069E+01  0.98582222036E+01  0.51100000000E-03 0. -1.
        -11    1    3    3    0    0  0.37055285015E+02  0.17735481284E+02 -0.70087629118E+01  0.41674503017E+02  0.51100000000E-03 0.  1.
         12    1    3    3    0    0 -0.29913703483E+02 -0.22277563909E+02  0.94451042404E+01  0.38475050408E+02  0.00000000000E+00 0. -1.
</event>
<event>
 7    1  0.3032584E-015  0.9000780E+02  0.7816164E-02  0.1186339E+00
        -11   -1    0    0    0    0  0.00000000000E+00  0.00000000000E+00  0.45593999997E+02  0.45594000000E+02  0.51100000000E-03 0.  1.
         11   -1    0    0    0    0 -0.00000000000E+00 -0.00000000000E+00 -0.45593999997E+02  0.45594000000E+02  0.51100000000E-03 0. -1.
    9900012    2    1    2    0    0 -0.76172656102E+00 -0.75032491542E+00  0.49966764780E+00  0.90007795530E+02  0.90000057631E+02 0.  0.
         12    1    1    2    0    0  0.76172656102E+00  0.75032491542E+00 -0.49966764780E+00  0.11802044699E+01  0.00000000000E+00 0. -1.
         11    1    3    3    0    0 -0.17200349956E+02  0.25115998791E+02 -0.27420871874E+02  0.40970350846E+02  0.51100000000E-03 0. -1.
        -11    1    3    3    0    0 -0.22909983043E+01 -0.89233710665E+01 -0.24545716323E+01  0.95341568363E+01  0.51100000000E-03 0.  1.
        -12    1    3    3    0    0  0.18729621699E+02 -0.16942952640E+02  0.30375111154E+02  0.39503287848E+02  0.00000000000E+00 0.  1.
</event>
<event>
 7    1  0.3032584E-015  0.9000775E+02  0.7816164E-02  0.1186339E+00
        -11   -1    0    0    0    0  0.00000000000E+00  0.00000000000E+00  0.45593999997E+02  0.45594000000E+02  0.51100000000E-03 0.  1.
         11   -1    0    0    0    0 -0.00000000000E+00 -0.00000000000E+00 -0.45593999997E+02  0.45594000000E+02  0.51100000000E-03 0. -1.
    9900012    2    1    2    0    0 -0.90364757535E-01  0.48326776132E+00  0.10729731587E+01  0.90007752179E+02  0.90000013708E+02 0.  0.
         12    1    1    2    0    0  0.90364757535E-01 -0.48326776132E+00 -0.10729731587E+01  0.11802478206E+01  0.00000000000E+00 0. -1.
         11    1    3    3    0    0 -0.46930851005E+01 -0.24528122304E+00  0.92924766702E+01  0.10413228777E+02  0.51100000000E-03 0. -1.
        -11    1    3    3    0    0 -0.37691718074E+01 -0.86881647465E+00  0.35166865386E+02  0.35378947406E+02  0.51100000000E-03 0.  1.
         12    1    3    3    0    0  0.83718921504E+01  0.15973654590E+01 -0.43386368898E+02  0.44215575997E+02  0.00000000000E+00 0. -1.
</event>
<event>
 7    1  0.3032584E-015  0.9000769E+02  0.7816164E-02  0.1186339E+00
        -11   -1    0    0    0    0  0.00000000000E+00  0.00000000000E+00  0.45593999997E+02  0.45594000000E+02  0.51100000000E-03 0.  1.
         11   -1    0    0    0    0 -0.00000000000E+00 -0.00000000000E+00 -0.45593999997E+02  0.45594000000E+02  0.51100000000E-03 0. -1.
    9900012    2    1    2    0    0 -0.10795068953E+01 -0.38135471584E+00  0.28699415072E+00  0.90007689787E+02  0.89999950492E+02 0.  0.
         12    1    1    2    0    0  0.10795068953E+01  0.38135471584E+00 -0.28699415072E+00  0.11803102130E+01  0.00000000000E+00 0. -1.
         11    1    3    3    0    0  0.10942757673E+02  0.14593408824E+01  0.25496202976E+01  0.11330233238E+02  0.51100000000E-03 0. -1.
        -11    1    3    3    0    0  0.50105594042E+01 -0.98429019080E+01  0.35125079772E+02  0.36820641666E+02  0.51100000000E-03 0.  1.
         12    1    3    3    0    0 -0.17032823972E+02  0.80022063097E+01 -0.37387705918E+02  0.41856814883E+02  0.00000000000E+00 0. -1.
</event>
<event>
 7    1  0.3032584E-015  0.9000777E+02  0.7816164E-02  0.1186339E+00
        -11   -1    0    0    0    0  0.00000000000E+00  0.00000000000E+00  0.45593999997E+02  0.45594000000E+02  0.51100000000E-03 0. -1.
         11   -1    0    0    0    0 -0.00000000000E+00 -0.00000000000E+00 -0.45593999997E+02  0.45594000000E+02  0.51100000000E-03 0.  1.
    9900012    2    1    2    0    0 -0.19477906772E+00 -0.10937278725E+01 -0.39844142708E+00  0.90007773278E+02  0.90000035085E+02 0.  0.
         12    1    1    2    0    0  0.19477906772E+00  0.10937278725E+01  0.39844142708E+00  0.11802267219E+01  0.00000000000E+00 0. -1.
         11    1    3    3    0    0 -0.14277863354E+02 -0.32371110585E+02 -0.31103832048E+01  0.35516484432E+02  0.51100000000E-03 0. -1.
        -11    1    3    3    0    0  0.13183505569E+01 -0.61590633661E+01 -0.10961027261E+02  0.12641844352E+02  0.51100000000E-03 0.  1.
        -12    1    3    3    0    0  0.12764733729E+02  0.37436446079E+02  0.13672969038E+02  0.41849444495E+02  0.00000000000E+00 0.  1.
</event>
<event>
 7    1  0.3032584E-015  0.9000775E+02  0.7816164E-02  0.1186339E+00
        -11   -1    0    0    0    0  0.00000000000E+00  0.00000000000E+00  0.45593999997E+02  0.45594000000E+02  0.51100000000E-03 0. -1.
         11   -1    0    0    0    0 -0.00000000000E+00 -0.00000000000E+00 -0.45593999997E+02  0.45594000000E+02  0.51100000000E-03 0.  1.
    9900012    2    1    2    0    0 -0.13740179189E+00 -0.65900660468E+00 -0.96944551005E+00  0.90007748521E+02  0.90000010001E+02 0.  0.
         12    1    1    2    0    0  0.13740179189E+00  0.65900660468E+00  0.96944551005E+00  0.11802514793E+01  0.00000000000E+00 0. -1.
         11    1    3    3    0    0 -0.52851988840E+01 -0.27110668386E+00  0.10433536967E+02  0.11698953799E+02  0.51100000000E-03 0. -1.
        -11    1    3    3    0    0 -0.87077049577E+01  0.12263796299E+02  0.29608136586E+02  0.33209435069E+02  0.51100000000E-03 0.  1.
         12    1    3    3    0    0  0.13855502050E+02 -0.12651696220E+02 -0.41011119063E+02  0.45099359653E+02  0.00000000000E+00 0. -1.
</event>
<event>
 7    1  0.3032584E-015  0.9000771E+02  0.7816164E-02  0.1186339E+00
        -11   -1    0    0    0    0  0.00000000000E+00  0.00000000000E+00  0.45593999997E+02  0.45594000000E+02  0.51100000000E-03 0.  1.
         11   -1    0    0    0    0 -0.00000000000E+00 -0.00000000000E+00 -0.45593999997E+02  0.45594000000E+02  0.51100000000E-03 0. -1.
    9900012    2    1    2    0    0  0.72401591363E+00  0.43958120148E+00  0.82198834533E+00  0.90007705327E+02  0.89999966237E+02 0.  0.
         12    1    1    2    0    0 -0.72401591363E+00 -0.43958120148E+00 -0.82198834533E+00  0.11802946733E+01  0.00000000000E+00 0. -1.
         11    1    3    3    0    0  0.74776896686E+01 -0.77633383097E+00 -0.57704623962E+01  0.94771711773E+01  0.51100000000E-03 0. -1.
        -11    1    3    3    0    0  0.13338382273E+02 -0.19819033671E+02  0.33338772839E+02  0.41014391523E+02  0.51100000000E-03 0.  1.
         12    1    3    3    0    0 -0.20092056028E+02  0.21034948703E+02 -0.26746322097E+02  0.39516142627E+02  0.00000000000E+00 0. -1.
</event>
<event>
 7    1  0.3032584E-015  0.9000772E+02  0.7816164E-02  0.1186339E+00
        -11   -1    0    0    0    0  0.00000000000E+00  0.00000000000E+00  0.45593999997E+02  0.45594000000E+02  0.51100000000E-03 0.  1.
         11   -1    0    0    0    0 -0.00000000000E+00 -0.00000000000E+00 -0.45593999997E+02  0.45594000000E+02  0.51100000000E-03 0. -1.
    9900012    2    1    2    0    0 -0.31599183906E+00  0.90647687357E+00  0.68667137568E+00  0.90007716668E+02  0.89999977728E+02 0.  0.
         12    1    1    2    0    0  0.31599183906E+00 -0.90647687357E+00 -0.68667137568E+00  0.11802833316E+01  0.00000000000E+00 0. -1.
         11    1    3    3    0    0  0.19009256208E+02 -0.16355640956E+02 -0.31182248244E+02  0.40014889960E+02  0.51100000000E-03 0. -1.
        -11    1    3    3    0    0 -0.30693528891E+01 -0.79486841866E+01  0.69803112761E+01  0.11014865103E+02  0.51100000000E-03 0.  1.
        -12    1    3    3    0    0 -0.16255895158E+02  0.25210802017E+02  0.24888608343E+02  0.38977961606E+02  0.00000000000E+00 0.  1.
</event>
<event>
 7    1  0.3032584E-015  0.9000765E+02  0.7816164E-02  0.1186339E+00
        -11   -1    0    0    0    0  0.00000000000E+00  0.00000000000E+00  0.45593999997E+02  0.45594000000E+02  0.51100000000E-03 0. -1.
         11   -1    0    0    0    0 -0.00000000000E+00 -0.00000000000E+00 -0.45593999997E+02  0.45594000000E+02  0.51100000000E-03 0.  1.
    9900012    2    1    2    0    0 -0.63895993226E+00 -0.89514903521E+00 -0.42856524991E+00  0.90007648458E+02  0.89999908617E+02 0.  0.
         12    1    1    2    0    0  0.63895993226E+00  0.89514903521E+00  0.42856524991E+00  0.11803515424E+01  0.00000000000E+00 0. -1.
         11    1    3    3    0    0  0.56038768450E+01 -0.80684595513E+01 -0.19053884225E+01  0.10006696784E+02  0.51100000000E-03 0. -1.
        -11    1    3    3    0    0 -0.25348307676E+02  0.30956712133E+02 -0.17929933559E+02  0.43844466535E+02  0.51100000000E-03 0.  1.
         12    1    3    3    0    0  0.19105470899E+02 -0.23783401616E+02  0.19406756731E+02  0.36156485138E+02  0.00000000000E+00 0. -1.
</event>
<event>
 7    1  0.3032584E-015  0.9000773E+02  0.7816164E-02  0.1186339E+00
        -11   -1    0    0    0    0  0.00000000000E+00  0.00000000000E+00  0.45593999997E+02  0.45594000000E+02  0.51100000000E-03 0.  1.
         11   -1    0    0    0    0 -0.00000000000E+00 -0.00000000000E+00 -0.45593999997E+02  0.45594000000E+02  0.51100000000E-03 0. -1.
    9900012    2    1    2    0    0 -0.34585948228E+00 -0.90926579538E+00  0.66832857017E+00  0.90007726241E+02  0.89999987428E+02 0.  0.
         12    1    1    2    0    0  0.34585948228E+00  0.90926579538E+00 -0.66832857017E+00  0.11802737589E+01  0.00000000000E+00 0. -1.
         11    1    3    3    0    0 -0.49606373704E+00 -0.12309669595E+02 -0.34658538127E+02  0.36782989413E+02  0.51100000000E-03 0. -1.
        -11    1    3    3    0    0 -0.12907197679E+00  0.16785951658E+01 -0.83295961421E+01  0.84980299751E+01  0.51100000000E-03 0.  1.
        -12    1    3    3    0    0  0.27927623155E+00  0.97218086337E+01  0.43656462839E+02  0.44726706853E+02  0.00000000000E+00 0.  1.
</event>
<event>
 7    1  0.3032584E-015  0.9000773E+02  0.7816164E-02  0.1186339E+00
        -11   -1    0    0    0    0  0.00000000000E+00  0.00000000000E+00  0.45593999997E+02  0.45594000000E+02  0.51100000000E-03 0.  1.
         11   -1    0    0    0    0 -0.00000000000E+00 -0.00000000000E+00 -0.45593999997E+02  0.45594000000E+02  0.51100000000E-03 0. -1.
    9900012    2    1    2    0    0  0.75020079119E+00 -0.90762387791E+00  0.80301652709E-01  0.90007732790E+02  0.89999994063E+02 0.  0.
         12    1    1    2    0    0 -0.75020079119E+00  0.90762387791E+00 -0.80301652709E-01  0.11802672097E+01  0.00000000000E+00 0. -1.
         11    1    3    3    0    0  0.25077921642E+01  0.81345337029E+01  0.41405190467E+01  0.94659156102E+01  0.51100000000E-03 0. -1.
        -11    1    3    3    0    0  0.15011100249E+02  0.70885328282E+01  0.32909533420E+02  0.36859433236E+02  0.51100000000E-03 0.  1.
         12    1    3    3    0    0 -0.16768691622E+02 -0.16130690409E+02 -0.36969750814E+02  0.43682383944E+02  0.00000000000E+00 0. -1.
</event>
<event>
 7    1  0.3032584E-015  0.9000769E+02  0.7816164E-02  0.1186339E+00
        -11   -1    0    0    0    0  0.00000000000E+00  0.00000000000E+00  0.45593999997E+02  0.45594000000E+02  0.51100000000E-03 0.  1.
         11   -1    0    0    0    0 -0.00000000000E+00 -0.00000000000E+00 -0.45593999997E+02  0.45594000000E+02  0.51100000000E-03 0. -1.
    9900012    2    1    2    0    0 -0.79819008523E+00 -0.84343415612E+00 -0.21130038208E+00  0.90007687991E+02  0.89999948672E+02 0.  0.
         12    1    1    2    0    0  0.79819008523E+00  0.84343415612E+00  0.21130038208E+00  0.11803120093E+01  0.00000000000E+00 0. -1.
         11    1    3    3    0    0 -0.32408425609E+02  0.14090885950E+02 -0.82812457877E+01  0.36296530817E+02  0.51100000000E-03 0. -1.
        -11    1    3    3    0    0 -0.67927507212E+01  0.54374046098E+01  0.52185802599E+01  0.10145955423E+02  0.51100000000E-03 0.  1.
        -12    1    3    3    0    0  0.38402986245E+02 -0.20371724716E+02  0.28513651457E+01  0.43565201751E+02  0.00000000000E+00 0.  1.
</event>
<event>
 7    1  0.3032584E-015  0.9000748E+02  0.7816164E-02  0.1186340E+00
        -11   -1    0    0    0    0  0.00000000000E+00  0.00000000000E+00  0.45593999997E+02  0.45594000000E+02  0.51100000000E-03 0. -1.
         11   -1    0    0    0    0 -0.00000000000E+00 -0.00000000000E+00 -0.45593999997E+02  0.45594000000E+02  0.51100000000E-03 0.  1.
    9900012    2    1    2    0    0 -0.69211913068E+00  0.53313578610E+00 -0.79394949896E+00  0.90007483814E+02  0.89999741800E+02 0.  0.
         12    1    1    2    0    0  0.69211913068E+00 -0.53313578610E+00  0.79394949896E+00  0.11805161856E+01  0.00000000000E+00 0. -1.
         11    1    3    3    0    0 -0.13255594496E+01  0.28985708091E+01 -0.89556742282E+01  0.95059413912E+01  0.51100000000E-03 0. -1.
        -11    1    3    3    0    0  0.25658971223E+02 -0.43046389474E+01 -0.26872356889E+02  0.37403693477E+02  0.51100000000E-03 0.  1.
         12    1    3    3    0    0 -0.25025530904E+02  0.19392039245E+01  0.35034081618E+02  0.43097848946E+02  0.00000000000E+00 0. -1.
</event>
<event>
 7    1  0.3032584E-015  0.9000767E+02  0.7816164E-02  0.1186339E+00
        -11   -1    0    0    0    0  0.00000000000E+00  0.00000000000E+00  0.45593999997E+02  0.45594000000E+02  0.51100000000E-03 0.  1.
         11   -1    0    0    0    0 -0.00000000000E+00 -0.00000000000E+00 -0.45593999997E+02  0.45594000000E+02  0.51100000000E-03 0. -1.
    9900012    2    1    2    0    0 -0.66610821334E-02 -0.89505804882E+00  0.76941148917E+00  0.90007674909E+02  0.89999935418E+02 0.  0.
         12    1    1    2    0    0  0.66610821334E-02  0.89505804882E+00 -0.76941148917E+00  0.11803250910E+01  0.00000000000E+00 0. -1.
         11    1    3    3    0    0  0.81566221602E+01  0.95943308443E+01  0.33142023953E+01  0.13021735952E+02  0.51100000000E-03 0. -1.
        -11    1    3    3    0    0 -0.16840924760E+01  0.16262350731E+02  0.30119469660E+02  0.34270726161E+02  0.51100000000E-03 0.  1.
         12    1    3    3    0    0 -0.64791907663E+01 -0.26751739625E+02 -0.32664260566E+02  0.42715212796E+02  0.00000000000E+00 0. -1.
</event>
<event>
 7    1  0.3032584E-015  0.9000777E+02  0.7816164E-02  0.1186339E+00
        -11   -1    0    0    0    0  0.00000000000E+00  0.00000000000E+00  0.45593999997E+02  0.45594000000E+02  0.51100000000E-03 0.  1.
         11   -1    0    0    0    0 -0.00000000000E+00 -0.00000000000E+00 -0.45593999997E+02  0.45594000000E+02  0.51100000000E-03 0. -1.
    9900012    2    1    2    0    0 -0.10031662652E+00 -0.11362250023E+01  0.30311410515E+00  0.90007767463E+02  0.90000029193E+02 0.  0.
         12    1    1    2    0    0  0.10031662652E+00  0.11362250023E+01 -0.30311410515E+00  0.11802325373E+01  0.00000000000E+00 0. -1.
         11    1    3    3    0    0  0.63092290441E+01 -0.26980002506E+01 -0.76142258656E+01  0.10249976209E+02  0.51100000000E-03 0. -1.
        -11    1    3    3    0    0  0.11940924579E+02  0.35759342368E+02 -0.66910530077E+01  0.38289508185E+02  0.51100000000E-03 0.  1.
         12    1    3    3    0    0 -0.18350470250E+02 -0.34197567120E+02  0.14608392978E+02  0.41468283069E+02  0.00000000000E+00 0. -1.
</event>
<event>
 7    1  0.3032584E-015  0.9000767E+02  0.7816164E-02  0.1186339E+00
        -11   -1    0    0    0    0  0.00000000000E+00  0.00000000000E+00  0.45593999997E+02  0.45594000000E+02  0.51100000000E-03 0.  1.
         11   -1    0    0    0    0 -0.00000000000E+00 -0.00000000000E+00 -0.45593999997E+02  0.45594000000E+02  0.51100000000E-03 0. -1.
    9900012    2    1    2    0    0 -0.77956013403E+00 -0.88244029614E+00 -0.82206118920E-01  0.90007672620E+02  0.89999933098E+02 0.  0.
         12    1    1    2    0    0  0.77956013403E+00  0.88244029614E+00  0.82206118920E-01  0.11803273803E+01  0.00000000000E+00 0. -1.
         11    1    3    3    0    0 -0.14383035021E+01  0.80741779595E+01 -0.64103454565E+01  0.10409303330E+02  0.51100000000E-03 0. -1.
        -11    1    3    3    0    0 -0.12921309201E+02 -0.19523624254E+02  0.37374803447E+02  0.44102245616E+02  0.51100000000E-03 0.  1.
         12    1    3    3    0    0  0.13580052569E+02  0.10567005998E+02 -0.31046664109E+02  0.35496123673E+02  0.00000000000E+00 0. -1.
</event>
<event>
 7    1  0.3032584E-015  0.9000768E+02  0.7816164E-02  0.1186339E+00
        -11   -1    0    0    0    0  0.00000000000E+00  0.00000000000E+00  0.45593999997E+02  0.45594000000E+02  0.51100000000E-03 0.  1.
         11   -1    0    0    0    0 -0.00000000000E+00 -0.00000000000E+00 -0.45593999997E+02  0.45594000000E+02  0.51100000000E-03 0. -1.
    9900012    2    1    2    0    0  0.71759319344E-01 -0.43794673434E+00  0.10937141570E+01  0.90007679112E+02  0.89999939676E+02 0.  0.
         12    1    1    2    0    0 -0.71759319344E-01  0.43794673434E+00 -0.10937141570E+01  0.11803208882E+01  0.00000000000E+00 0. -1.
         11    1    3    3    0    0 -0.32202939023E+02  0.12335124834E+02  0.46206438646E+01  0.34792742582E+02  0.51100000000E-03 0. -1.
        -11    1    3    3    0    0 -0.10377725203E+02  0.84860143495E-01  0.10550686358E+01  0.10431565162E+02  0.51100000000E-03 0.  1.
        -12    1    3    3    0    0  0.42652423546E+02 -0.12857931712E+02 -0.45819983434E+01  0.44783371368E+02  0.00000000000E+00 0.  1.
</event>
<event>
 7    1  0.3032584E-015  0.9000870E+02  0.7816164E-02  0.1186337E+00
        -11   -1    0    0    0    0  0.00000000000E+00  0.00000000000E+00  0.45593999997E+02  0.45594000000E+02  0.51100000000E-03 0.  1.
         11   -1    0    0    0    0 -0.00000000000E+00 -0.00000000000E+00 -0.45593999997E+02  0.45594000000E+02  0.51100000000E-03 0. -1.
    9900012    2    1    2    0    0  0.10193790504E+01  0.47857056317E+00  0.35011676482E+00  0.90008701403E+02  0.90000975456E+02 0.  0.
         12    1    1    2    0    0 -0.10193790504E+01 -0.47857056317E+00 -0.35011676482E+00  0.11792985972E+01  0.00000000000E+00 0. -1.
         11    1    3    3    0    0  0.81914183267E+01  0.33758744530E+01 -0.70386036468E+01  0.11315379096E+02  0.51100000000E-03 0. -1.
        -11    1    3    3    0    0  0.95752319536E+01  0.29009565796E+01  0.40186646555E+02  0.41413369552E+02  0.51100000000E-03 0.  1.
         12    1    3    3    0    0 -0.16747271230E+02 -0.57982604694E+01 -0.32797926143E+02  0.37279952755E+02  0.00000000000E+00 0. -1.
</event>
<event>
 7    1  0.3032584E-015  0.9000776E+02  0.7816164E-02  0.1186339E+00
        -11   -1    0    0    0    0  0.00000000000E+00  0.00000000000E+00  0.45593999997E+02  0.45594000000E+02  0.51100000000E-03 0.  1.
         11   -1    0    0    0    0 -0.00000000000E+00 -0.00000000000E+00 -0.45593999997E+02  0.45594000000E+02  0.51100000000E-03 0. -1.
    9900012    2    1    2    0    0  0.59425768409E+00  0.86620869278E+00  0.53804750975E+00  0.90007764931E+02  0.90000026628E+02 0.  0.
         12    1    1    2    0    0 -0.59425768409E+00 -0.86620869278E+00 -0.53804750975E+00  0.11802350687E+01  0.00000000000E+00 0. -1.
         11    1    3    3    0    0  0.19747257709E+01 -0.16383680276E+02  0.12233258923E+02  0.20542082305E+02  0.51100000000E-03 0. -1.
        -11    1    3    3    0    0 -0.30641920122E+02 -0.35371190241E+00  0.56564538801E+01  0.31161640708E+02  0.51100000000E-03 0.  1.
         12    1    3    3    0    0  0.29261452035E+02  0.17603600871E+02 -0.17351665294E+02  0.38304041919E+02  0.00000000000E+00 0. -1.
</event>
<event>
 7    1  0.3032584E-015  0.9000770E+02  0.7816164E-02  0.1186339E+00
        -11   -1    0    0    0    0  0.00000000000E+00  0.00000000000E+00  0.45593999997E+02  0.45594000000E+02  0.51100000000E-03 0.  1.
         11   -1    0    0    0    0 -0.00000000000E+00 -0.00000000000E+00 -0.45593999997E+02  0.45594000000E+02  0.51100000000E-03 0. -1.
    9900012    2    1    2    0    0 -0.73795664624E+00  0.52513634828E+00  0.75681418408E+00  0.90007696689E+02  0.89999957486E+02 0.  0.
         12    1    1    2    0    0  0.73795664624E+00 -0.52513634828E+00 -0.75681418408E+00  0.11803033107E+01  0.00000000000E+00 0. -1.
         11    1    3    3    0    0 -0.12159035207E+02  0.31707791324E+02 -0.94818457550E+01  0.35258070948E+02  0.51100000000E-03 0. -1.
        -11    1    3    3    0    0 -0.56077983077E-01  0.10306788895E+02  0.47659791745E+01  0.11355509668E+02  0.51100000000E-03 0.  1.
        -12    1    3    3    0    0  0.11477156543E+02 -0.41489443871E+02  0.54726807645E+01  0.43394116073E+02  0.00000000000E+00 0.  1.
</event>
<event>
 7    1  0.3032584E-015  0.9000764E+02  0.7816164E-02  0.1186339E+00
        -11   -1    0    0    0    0  0.00000000000E+00  0.00000000000E+00  0.45593999997E+02  0.45594000000E+02  0.51100000000E-03 0. -1.
         11   -1    0    0    0    0 -0.00000000000E+00 -0.00000000000E+00 -0.45593999997E+02  0.45594000000E+02  0.51100000000E-03 0.  1.
    9900012    2    1    2    0    0 -0.65821121264E+00  0.92965610281E-01 -0.97537876075E+00  0.90007640592E+02  0.89999900648E+02 0.  0.
         12    1    1    2    0    0  0.65821121264E+00 -0.92965610281E-01  0.97537876075E+00  0.11803594080E+01  0.00000000000E+00 0. -1.
         11    1    3    3    0    0 -0.20808722648E+01  0.33829707645E+01  0.53970813475E+01  0.67009706691E+01  0.51100000000E-03 0. -1.
        -11    1    3    3    0    0  0.33881566593E+02  0.10641966454E+02 -0.24945120600E+02  0.43398975182E+02  0.51100000000E-03 0.  1.
         12    1    3    3    0    0 -0.32458905541E+02 -0.13931971609E+02  0.18572660492E+02  0.39907694741E+02  0.00000000000E+00 0. -1.
</event>
<event>
 7    1  0.3032584E-015  0.9000776E+02  0.7816164E-02  0.1186339E+00
        -11   -1    0    0    0    0  0.00000000000E+00  0.00000000000E+00  0.45593999997E+02  0.45594000000E+02  0.51100000000E-03 0.  1.
         11   -1    0    0    0    0 -0.00000000000E+00 -0.00000000000E+00 -0.45593999997E+02  0.45594000000E+02  0.51100000000E-03 0. -1.
    9900012    2    1    2    0    0  0.52257767583E+00  0.79547610100E+00  0.69791686679E+00  0.90007763749E+02  0.90000025431E+02 0.  0.
         12    1    1    2    0    0 -0.52257767583E+00 -0.79547610100E+00 -0.69791686679E+00  0.11802362507E+01  0.00000000000E+00 0. -1.
         11    1    3    3    0    0 -0.13054764411E+02 -0.33308526651E+02  0.84175876901E+01  0.36752423108E+02  0.51100000000E-03 0. -1.
        -11    1    3    3    0    0  0.27185742310E+01 -0.74732557006E+01  0.37308580663E+01  0.87840479728E+01  0.51100000000E-03 0.  1.
        -12    1    3    3    0    0  0.10858767856E+02  0.41577258453E+02 -0.11450528890E+02  0.44471292669E+02  0.00000000000E+00 0.  1.
</event>
<event>
 7    1  0.3032584E-015  0.9000782E+02  0.7816164E-02  0.1186339E+00
        -11   -1    0    0    0    0  0.00000000000E+00  0.00000000000E+00  0.45593999997E+02  0.45594000000E+02  0.51100000000E-03 0.  1.
         11   -1    0    0    0    0 -0.00000000000E+00 -0.00000000000E+00 -0.45593999997E+02  0.45594000000E+02  0.51100000000E-03 0. -1.
    9900012    2    1    2    0    0 -0.11606319727E+01 -0.20921259374E+00  0.44574477146E-01  0.90007820620E+02  0.90000083052E+02 0.  0.
         12    1    1    2    0    0  0.11606319727E+01  0.20921259374E+00 -0.44574477146E-01  0.11801793802E+01  0.00000000000E+00 0. -1.
         11    1    3    3    0    0 -0.18174602264E+02 -0.30234662664E+02  0.67909391105E+01  0.35924474222E+02  0.51100000000E-03 0. -1.
        -11    1    3    3    0    0 -0.38098548855E+01 -0.87800252091E+01 -0.21049088939E+01  0.97997182936E+01  0.51100000000E-03 0.  1.
        -12    1    3    3    0    0  0.20823825177E+02  0.38805475280E+02 -0.46414557395E+01  0.44283628104E+02  0.00000000000E+00 0.  1.
</event>
<event>
 7    1  0.3032584E-015  0.9000782E+02  0.7816164E-02  0.1186339E+00
        -11   -1    0    0    0    0  0.00000000000E+00  0.00000000000E+00  0.45593999997E+02  0.45594000000E+02  0.51100000000E-03 0.  1.
         11   -1    0    0    0    0 -0.00000000000E+00 -0.00000000000E+00 -0.45593999997E+02  0.45594000000E+02  0.51100000000E-03 0. -1.
    9900012    2    1    2    0    0  0.29659235392E+00  0.10907725289E+01 -0.33921178253E+00  0.90007823586E+02  0.90000086058E+02 0.  0.
         12    1    1    2    0    0 -0.29659235392E+00 -0.10907725289E+01  0.33921178253E+00  0.11801764138E+01  0.00000000000E+00 0. -1.
         11    1    3    3    0    0 -0.17857937831E+02 -0.30576399238E+02  0.46973011357E+01  0.35719557278E+02  0.51100000000E-03 0. -1.
        -11    1    3    3    0    0 -0.26104832611E+01 -0.60778061110E+01  0.69271695633E+01  0.95781015029E+01  0.51100000000E-03 0.  1.
        -12    1    3    3    0    0  0.20765013446E+02  0.37744977878E+02 -0.11963682482E+02  0.44710164805E+02  0.00000000000E+00 0.  1.
</event>
<event>
 7    1  0.3032584E-015  0.9000774E+02  0.7816164E-02  0.1186339E+00
        -11   -1    0    0    0    0  0.00000000000E+00  0.00000000000E+00  0.45593999997E+02  0.45594000000E+02  0.51100000000E-03 0.  1.
         11   -1    0    0    0    0 -0.00000000000E+00 -0.00000000000E+00 -0.45593999997E+02  0.45594000000E+02  0.51100000000E-03 0. -1.
    9900012    2    1    2    0    0 -0.54850424339E+00 -0.10355739437E+01 -0.14053803955E+00  0.90007736793E+02  0.89999998118E+02 0.  0.
         12    1    1    2    0    0  0.54850424339E+00  0.10355739437E+01  0.14053803955E+00  0.11802632073E+01  0.00000000000E+00 0. -1.
         11    1    3    3    0    0 -0.98204723657E+01  0.16241565093E+02  0.93142214556E+00  0.19002569869E+02  0.51100000000E-03 0. -1.
        -11    1    3    3    0    0  0.69452170292E+01  0.11563696420E+02  0.27319225572E+02  0.30467937256E+02  0.51100000000E-03 0.  1.
         12    1    3    3    0    0  0.23267510932E+01 -0.28840835457E+02 -0.28391185757E+02  0.40537229668E+02  0.00000000000E+00 0. -1.
</event>
<event>
 7    1  0.3032584E-015  0.9000765E+02  0.7816164E-02  0.1186339E+00
        -11   -1    0    0    0    0  0.00000000000E+00  0.00000000000E+00  0.45593999997E+02  0.45594000000E+02  0.51100000000E-03 0. -1.
         11   -1    0    0    0    0 -0.00000000000E+00 -0.00000000000E+00 -0.45593999997E+02  0.45594000000E+02  0.51100000000E-03 0.  1.
    9900012    2    1    2    0    0  0.94579453518E+00  0.69762976542E+00 -0.10956287542E+00  0.90007653180E+02  0.89999913402E+02 0.  0.
         12    1    1    2    0    0 -0.94579453518E+00 -0.69762976542E+00  0.10956287542E+00  0.11803468202E+01  0.00000000000E+00 0. -1.
         11    1    3    3    0    0 -0.85673077808E+00 -0.62989949768E+01 -0.23221666114E+01  0.67678492430E+01  0.51100000000E-03 0. -1.
        -11    1    3    3    0    0 -0.18484543278E+02 -0.79630362616E+01 -0.33766417090E+02  0.39309785169E+02  0.51100000000E-03 0.  1.
         12    1    3    3    0    0  0.20287068591E+02  0.14959661004E+02  0.35979020826E+02  0.43930018768E+02  0.00000000000E+00 0. -1.
</event>
<event>
 7    1  0.3032584E-015  0.9000776E+02  0.7816164E-02  0.1186339E+00
        -11   -1    0    0    0    0  0.00000000000E+00  0.00000000000E+00  0.45593999997E+02  0.45594000000E+02  0.51100000000E-03 0.  1.
         11   -1    0    0    0    0 -0.00000000000E+00 -0.00000000000E+00 -0.45593999997E+02  0.45594000000E+02  0.51100000000E-03 0. -1.
    9900012    2    1    2    0    0 -0.21867939024E+00  0.11038109337E+01 -0.35602917272E+00  0.90007755947E+02  0.90000017525E+02 0.  0.
         12    1    1    2    0    0  0.21867939024E+00 -0.11038109337E+01  0.35602917272E+00  0.11802440531E+01  0.00000000000E+00 0. -1.
         11    1    3    3    0    0  0.16963092951E+02 -0.33095126096E+02 -0.11999025717E+01  0.37208515964E+02  0.51100000000E-03 0. -1.
        -11    1    3    3    0    0 -0.37506042913E+01 -0.51061099731E+01 -0.81272773282E+01  0.10304951656E+02  0.51100000000E-03 0.  1.
        -12    1    3    3    0    0 -0.13431168050E+02  0.39305047002E+02  0.89711507272E+01  0.42494288327E+02  0.00000000000E+00 0.  1.
</event>
<event>
 7    1  0.3032584E-015  0.9000781E+02  0.7816164E-02  0.1186339E+00
        -11   -1    0    0    0    0  0.00000000000E+00  0.00000000000E+00  0.45593999997E+02  0.45594000000E+02  0.51100000000E-03 0.  1.
         11   -1    0    0    0    0 -0.00000000000E+00 -0.00000000000E+00 -0.45593999997E+02  0.45594000000E+02  0.51100000000E-03 0. -1.
    9900012    2    1    2    0    0  0.18386546800E+00  0.91843288955E+00  0.71800746312E+00  0.90007805016E+02  0.90000067242E+02 0.  0.
         12    1    1    2    0    0 -0.18386546800E+00 -0.91843288955E+00 -0.71800746312E+00  0.11801949839E+01  0.00000000000E+00 0. -1.
         11    1    3    3    0    0  0.32957859083E+02 -0.20096189034E+01 -0.73298583200E+01  0.33822860120E+02  0.51100000000E-03 0. -1.
        -11    1    3    3    0    0  0.41624196087E+00 -0.16900406694E+02  0.14959353746E+01  0.16971588809E+02  0.51100000000E-03 0.  1.
        -12    1    3    3    0    0 -0.33190235576E+02  0.19828458487E+02  0.65519304085E+01  0.39213356087E+02  0.00000000000E+00 0.  1.
</event>
<event>
 7    1  0.3032584E-015  0.9000753E+02  0.7816164E-02  0.1186339E+00
        -11   -1    0    0    0    0  0.00000000000E+00  0.00000000000E+00  0.45593999997E+02  0.45594000000E+02  0.51100000000E-03 0.  1.
         11   -1    0    0    0    0 -0.00000000000E+00 -0.00000000000E+00 -0.45593999997E+02  0.45594000000E+02  0.51100000000E-03 0. -1.
    9900012    2    1    2    0    0  0.92476163398E+00  0.70109793671E+00  0.21630209896E+00  0.90007530181E+02  0.89999788779E+02 0.  0.
         12    1    1    2    0    0 -0.92476163398E+00 -0.70109793671E+00 -0.21630209896E+00  0.11804698194E+01  0.00000000000E+00 0. -1.
         11    1    3    3    0    0  0.16684087235E+01  0.12322416160E+01 -0.35169761320E+02  0.35230868832E+02  0.51100000000E-03 0. -1.
        -11    1    3    3    0    0 -0.12956389338E+01 -0.73920296823E-01 -0.96490075959E+01  0.97358868268E+01  0.51100000000E-03 0.  1.
        -12    1    3    3    0    0  0.55199184429E+00 -0.45722338244E+00  0.45035071015E+02  0.45040774522E+02  0.00000000000E+00 0.  1.
</event>
<event>
 7    1  0.3032584E-015  0.9000775E+02  0.7816164E-02  0.1186339E+00
        -11   -1    0    0    0    0  0.00000000000E+00  0.00000000000E+00  0.45593999997E+02  0.45594000000E+02  0.51100000000E-03 0. -1.
         11   -1    0    0    0    0 -0.00000000000E+00 -0.00000000000E+00 -0.45593999997E+02  0.45594000000E+02  0.51100000000E-03 0.  1.
    9900012    2    1    2    0    0  0.53092912220E+00  0.83488077172E+00 -0.64348610923E+00  0.90007751717E+02  0.90000013240E+02 0.  0.
         12    1    1    2    0    0 -0.53092912220E+00 -0.83488077172E+00  0.64348610923E+00  0.11802482826E+01  0.00000000000E+00 0. -1.
         11    1    3    3    0    0  0.65742553847E-01 -0.82385538200E+01 -0.35913871654E+01  0.89875554608E+01  0.51100000000E-03 0. -1.
        -11    1    3    3    0    0 -0.33861632498E+02 -0.16620059639E+02 -0.24720713720E+01  0.37801424245E+02  0.51100000000E-03 0.  1.
         12    1    3    3    0    0  0.34326819067E+02  0.25693494231E+02  0.54199724282E+01  0.43218772011E+02  0.00000000000E+00 0. -1.
</event>
<event>
 7    1  0.3032584E-015  0.9000718E+02  0.7816164E-02  0.1186340E+00
        -11   -1    0    0    0    0  0.00000000000E+00  0.00000000000E+00  0.45593999997E+02  0.45594000000E+02  0.51100000000E-03 0.  1.
         11   -1    0    0    0    0 -0.00000000000E+00 -0.00000000000E+00 -0.45593999997E+02  0.45594000000E+02  0.51100000000E-03 0. -1.
    9900012    2    1    2    0    0  0.11488817837E+01  0.22885175068E-01  0.27181447740E+00  0.90007179864E+02  0.89999433836E+02 0.  0.
         12    1    1    2    0    0 -0.11488817837E+01 -0.22885175068E-01 -0.27181447740E+00  0.11808201363E+01  0.00000000000E+00 0. -1.
         11    1    3    3    0    0 -0.39849556026E+01  0.24603086247E+01 -0.81613368664E+01  0.94095913509E+01  0.51100000000E-03 0. -1.
        -11    1    3    3    0    0 -0.51991429318E+01  0.66404830341E+01  0.42777777127E+02  0.43601207763E+02  0.51100000000E-03 0.  1.
         12    1    3    3    0    0  0.10332980318E+02 -0.90779064838E+01 -0.34344625784E+02  0.36996380750E+02  0.00000000000E+00 0. -1.
</event>
<event>
 7    1  0.3032584E-015  0.9000778E+02  0.7816164E-02  0.1186339E+00
        -11   -1    0    0    0    0  0.00000000000E+00  0.00000000000E+00  0.45593999997E+02  0.45594000000E+02  0.51100000000E-03 0. -1.
         11   -1    0    0    0    0 -0.00000000000E+00 -0.00000000000E+00 -0.45593999997E+02  0.45594000000E+02  0.51100000000E-03 0.  1.
    9900012    2    1    2    0    0  0.27515035127E+00  0.63277106422E-01 -0.11459534833E+01  0.90007779218E+02  0.90000041104E+02 0.  0.
         12    1    1    2    0    0 -0.27515035127E+00 -0.63277106422E-01  0.11459534833E+01  0.11802207818E+01  0.00000000000E+00 0. -1.
         11    1    3    3    0    0 -0.62657892785E+01 -0.35487602206E+01 -0.17496364403E+02  0.18920269077E+02  0.51100000000E-03 0. -1.
        -11    1    3    3    0    0 -0.20909013085E+02  0.26269545353E+02  0.86435433465E+01  0.34669679593E+02  0.51100000000E-03 0.  1.
         12    1    3    3    0    0  0.27449952715E+02 -0.22657508026E+02  0.77068675730E+01  0.36417830548E+02  0.00000000000E+00 0. -1.
</event>
<event>
 7    1  0.3032584E-015  0.9000772E+02  0.7816164E-02  0.1186339E+00
        -11   -1    0    0    0    0  0.00000000000E+00  0.00000000000E+00  0.45593999997E+02  0.45594000000E+02  0.51100000000E-03 0. -1.
         11   -1    0    0    0    0 -0.00000000000E+00 -0.00000000000E+00 -0.45593999997E+02  0.45594000000E+02  0.51100000000E-03 0.  1.
    9900012    2    1    2    0    0  0.27598062568E+00  0.48915280788E+00 -0.10380923838E+01  0.90007715470E+02  0.89999976514E+02 0.  0.
         12    1    1    2    0    0 -0.27598062568E+00 -0.48915280788E+00  0.10380923838E+01  0.11802845303E+01  0.00000000000E+00 0. -1.
         11    1    3    3    0    0  0.41583995960E+01 -0.74033321841E+01 -0.57796472906E+01  0.10271608330E+02  0.51100000000E-03 0. -1.
        -11    1    3    3    0    0  0.31191191160E+02 -0.17941767302E+02  0.35606753590E+01  0.36159035236E+02  0.51100000000E-03 0.  1.
         12    1    3    3    0    0 -0.35073610131E+02  0.25834252294E+02  0.11808795478E+01  0.43577071903E+02  0.00000000000E+00 0. -1.
</event>
<event>
 7    1  0.3032584E-015  0.9000774E+02  0.7816164E-02  0.1186339E+00
        -11   -1    0    0    0    0  0.00000000000E+00  0.00000000000E+00  0.45593999997E+02  0.45594000000E+02  0.51100000000E-03 0. -1.
         11   -1    0    0    0    0 -0.00000000000E+00 -0.00000000000E+00 -0.45593999997E+02  0.45594000000E+02  0.51100000000E-03 0.  1.
    9900012    2    1    2    0    0 -0.54960184474E+00  0.87493768945E+00 -0.57046147094E+00  0.90007743910E+02  0.90000005330E+02 0.  0.
         12    1    1    2    0    0  0.54960184474E+00 -0.87493768945E+00  0.57046147094E+00  0.11802560900E+01  0.00000000000E+00 0. -1.
         11    1    3    3    0    0 -0.35554304714E+01  0.35571071658E+02  0.58534930262E+00  0.35753109778E+02  0.51100000000E-03 0. -1.
        -11    1    3    3    0    0 -0.12002503342E+01  0.95581448685E+01 -0.17813322148E+01  0.97965238178E+01  0.51100000000E-03 0.  1.
        -12    1    3    3    0    0  0.42060789608E+01 -0.44254278837E+02  0.62552144127E+00  0.44458110314E+02  0.00000000000E+00 0.  1.
</event>
<event>
 7    1  0.3032584E-015  0.9000775E+02  0.7816164E-02  0.1186339E+00
        -11   -1    0    0    0    0  0.00000000000E+00  0.00000000000E+00  0.45593999997E+02  0.45594000000E+02  0.51100000000E-03 0. -1.
         11   -1    0    0    0    0 -0.00000000000E+00 -0.00000000000E+00 -0.45593999997E+02  0.45594000000E+02  0.51100000000E-03 0.  1.
    9900012    2    1    2    0    0 -0.99679136992E+00  0.62762516769E+00  0.74053677853E-01  0.90007749885E+02  0.90000011384E+02 0.  0.
         12    1    1    2    0    0  0.99679136992E+00 -0.62762516769E+00 -0.74053677853E-01  0.11802501148E+01  0.00000000000E+00 0. -1.
         11    1    3    3    0    0  0.35607514788E+01  0.87418241121E+01 -0.19218164219E+01  0.96328510069E+01  0.51100000000E-03 0. -1.
        -11    1    3    3    0    0  0.16069045017E+02 -0.19229283081E+02 -0.31027636341E+02  0.39883502262E+02  0.51100000000E-03 0.  1.
         12    1    3    3    0    0 -0.20626587865E+02  0.11115084136E+02  0.33023506440E+02  0.40491396616E+02  0.00000000000E+00 0. -1.
</event>
<event>
 7    1  0.3032584E-015  0.9000783E+02  0.7816164E-02  0.1186339E+00
        -11   -1    0    0    0    0  0.00000000000E+00  0.00000000000E+00  0.45593999997E+02  0.45594000000E+02  0.51100000000E-03 0.  1.
         11   -1    0    0    0    0 -0.00000000000E+00 -0.00000000000E+00 -0.45593999997E+02  0.45594000000E+02  0.51100000000E-03 0. -1.
    9900012    2    1    2    0    0 -0.39752624928E+00 -0.11046780368E+01 -0.12022950529E+00  0.90007832292E+02  0.90000094879E+02 0.  0.
         12    1    1    2    0    0  0.39752624928E+00  0.11046780368E+01  0.12022950529E+00  0.11801677075E+01  0.00000000000E+00 0. -1.
         11    1    3    3    0    0 -0.28975432631E+01  0.36160053435E+01  0.74555329443E+01  0.87781674255E+01  0.51100000000E-03 0. -1.
        -11    1    3    3    0    0  0.52642076683E+01  0.10525238864E+02  0.34468015431E+02  0.36421650478E+02  0.51100000000E-03 0.  1.
         12    1    3    3    0    0 -0.27641906544E+01 -0.15245922244E+02 -0.42043777881E+02  0.44808014389E+02  0.00000000000E+00 0. -1.
</event>
<event>
 7    1  0.3032584E-015  0.9000776E+02  0.7816164E-02  0.1186339E+00
        -11   -1    0    0    0    0  0.00000000000E+00  0.00000000000E+00  0.45593999997E+02  0.45594000000E+02  0.51100000000E-03 0.  1.
         11   -1    0    0    0    0 -0.00000000000E+00 -0.00000000000E+00 -0.45593999997E+02  0.45594000000E+02  0.51100000000E-03 0. -1.
    9900012    2    1    2    0    0  0.23167574086E+00 -0.68769777677E-01  0.11552362194E+01  0.90007756951E+02  0.90000018543E+02 0.  0.
         12    1    1    2    0    0 -0.23167574086E+00  0.68769777678E-01 -0.11552362194E+01  0.11802430486E+01  0.00000000000E+00 0. -1.
         11    1    3    3    0    0  0.79527298950E+01 -0.62219214672E+01 -0.85314586655E+00  0.10133413919E+02  0.51100000000E-03 0. -1.
        -11    1    3    3    0    0  0.18642820582E+02  0.33776123809E+02  0.12002132793E+02  0.40403372269E+02  0.51100000000E-03 0.  1.
         12    1    3    3    0    0 -0.26363874736E+02 -0.27622972120E+02 -0.99937507068E+01  0.39470970764E+02  0.00000000000E+00 0. -1.
</event>
<event>
 7    1  0.3032584E-015  0.9000774E+02  0.7816164E-02  0.1186339E+00
        -11   -1    0    0    0    0  0.00000000000E+00  0.00000000000E+00  0.45593999997E+02  0.45594000000E+02  0.51100000000E-03 0. -1.
         11   -1    0    0    0    0 -0.00000000000E+00 -0.00000000000E+00 -0.45593999997E+02  0.45594000000E+02  0.51100000000E-03 0.  1.
    9900012    2    1    2    0    0  0.44749019255E+00  0.55005653682E+00 -0.94350296098E+00  0.90007742611E+02  0.90000004014E+02 0.  0.
         12    1    1    2    0    0 -0.44749019255E+00 -0.55005653682E+00  0.94350296098E+00  0.11802573887E+01  0.00000000000E+00 0. -1.
         11    1    3    3    0    0  0.27608055811E+01  0.20326601357E+01 -0.49091266883E+01  0.59877608325E+01  0.51100000000E-03 0. -1.
        -11    1    3    3    0    0 -0.65134626965E+01  0.24633850143E+02 -0.31030527632E+02  0.40151530662E+02  0.51100000000E-03 0.  1.
         12    1    3    3    0    0  0.42001473079E+01 -0.26116453741E+02  0.34996151359E+02  0.43868451117E+02  0.00000000000E+00 0. -1.
</event>
<event>
 7    1  0.3032584E-015  0.9000755E+02  0.7816164E-02  0.1186339E+00
        -11   -1    0    0    0    0  0.00000000000E+00  0.00000000000E+00  0.45593999997E+02  0.45594000000E+02  0.51100000000E-03 0. -1.
         11   -1    0    0    0    0 -0.00000000000E+00 -0.00000000000E+00 -0.45593999997E+02  0.45594000000E+02  0.51100000000E-03 0.  1.
    9900012    2    1    2    0    0  0.98109593738E+00  0.40514081651E+00 -0.51649326067E+00  0.90007553640E+02  0.89999812548E+02 0.  0.
         12    1    1    2    0    0 -0.98109593738E+00 -0.40514081651E+00  0.51649326067E+00  0.11804463596E+01  0.00000000000E+00 0. -1.
         11    1    3    3    0    0  0.13478850720E+02  0.32280667975E+02 -0.21781423168E+02  0.41208631828E+02  0.51100000000E-03 0. -1.
        -11    1    3    3    0    0 -0.10344767628E+02 -0.13521701377E+01 -0.16607922516E+01  0.10564128574E+02  0.51100000000E-03 0.  1.
        -12    1    3    3    0    0 -0.21529871543E+01 -0.30523357020E+02  0.22925722159E+02  0.38234793238E+02  0.00000000000E+00 0.  1.
</event>
<event>
 7    1  0.3032584E-015  0.9000773E+02  0.7816164E-02  0.1186339E+00
        -11   -1    0    0    0    0  0.00000000000E+00  0.00000000000E+00  0.45593999997E+02  0.45594000000E+02  0.51100000000E-03 0.  1.
         11   -1    0    0    0    0 -0.00000000000E+00 -0.00000000000E+00 -0.45593999997E+02  0.45594000000E+02  0.51100000000E-03 0. -1.
    9900012    2    1    2    0    0  0.10973231707E+00 -0.19203320434E+00  0.11593570443E+01  0.90007734484E+02  0.89999995779E+02 0.  0.
         12    1    1    2    0    0 -0.10973231707E+00  0.19203320434E+00 -0.11593570443E+01  0.11802655164E+01  0.00000000000E+00 0. -1.
         11    1    3    3    0    0 -0.35445191687E+02 -0.74644091474E+01 -0.87637353597E+01  0.37267708212E+02  0.51100000000E-03 0. -1.
        -11    1    3    3    0    0 -0.70595571898E+01  0.53624736140E+01 -0.31672921752E+00  0.88709519577E+01  0.51100000000E-03 0.  1.
        -12    1    3    3    0    0  0.42614481194E+02  0.19099023290E+01  0.10239821621E+02  0.43869074314E+02  0.00000000000E+00 0.  1.
</event>
<event>
 7    1  0.3032584E-015  0.9000772E+02  0.7816164E-02  0.1186339E+00
        -11   -1    0    0    0    0  0.00000000000E+00  0.00000000000E+00  0.45593999997E+02  0.45594000000E+02  0.51100000000E-03 0. -1.
         11   -1    0    0    0    0 -0.00000000000E+00 -0.00000000000E+00 -0.45593999997E+02  0.45594000000E+02  0.51100000000E-03 0.  1.
    9900012    2    1    2    0    0  0.95253945643E+00 -0.69693894486E+00 -0.31540778045E-02  0.90007718145E+02  0.89999979225E+02 0.  0.
         12    1    1    2    0    0 -0.95253945643E+00  0.69693894486E+00  0.31540778046E-02  0.11802818550E+01  0.00000000000E+00 0. -1.
         11    1    3    3    0    0  0.36624583471E+01 -0.33794744585E+02  0.16766221360E+02  0.37902566426E+02  0.51100000000E-03 0. -1.
        -11    1    3    3    0    0  0.56343778178E+01 -0.19391372717E+01  0.68157093117E+01  0.90531961447E+01  0.51100000000E-03 0.  1.
        -12    1    3    3    0    0 -0.83442967085E+01  0.35036942912E+02 -0.23585084750E+02  0.43051955575E+02  0.00000000000E+00 0.  1.
</event>
<event>
 7    1  0.3032584E-015  0.9000766E+02  0.7816164E-02  0.1186339E+00
        -11   -1    0    0    0    0  0.00000000000E+00  0.00000000000E+00  0.45593999997E+02  0.45594000000E+02  0.51100000000E-03 0. -1.
         11   -1    0    0    0    0 -0.00000000000E+00 -0.00000000000E+00 -0.45593999997E+02  0.45594000000E+02  0.51100000000E-03 0.  1.
    9900012    2    1    2    0    0  0.12181712502E+00  0.12011089464E+00 -0.11678768053E+01  0.90007660103E+02  0.89999920417E+02 0.  0.
         12    1    1    2    0    0 -0.12181712502E+00 -0.12011089464E+00  0.11678768053E+01  0.11803398966E+01  0.00000000000E+00 0. -1.
         11    1    3    3    0    0 -0.11482520535E+02 -0.10913131403E+01  0.31875598134E+01  0.11966611050E+02  0.51100000000E-03 0. -1.
        -11    1    3    3    0    0  0.64627670252E+01 -0.30506601267E+02 -0.24897633631E+02  0.39903787278E+02  0.51100000000E-03 0.  1.
         12    1    3    3    0    0  0.51415706343E+01  0.31718025302E+02  0.20542197012E+02  0.38137261775E+02  0.00000000000E+00 0. -1.
</event>
<event>
 7    1  0.3032584E-015  0.9000775E+02  0.7816164E-02  0.1186339E+00
        -11   -1    0    0    0    0  0.00000000000E+00  0.00000000000E+00  0.45593999997E+02  0.45594000000E+02  0.51100000000E-03 0.  1.
         11   -1    0    0    0    0 -0.00000000000E+00 -0.00000000000E+00 -0.45593999997E+02  0.45594000000E+02  0.51100000000E-03 0. -1.
    9900012    2    1    2    0    0 -0.31969597818E-01  0.99738072790E+00  0.63023628218E+00  0.90007750813E+02  0.90000012324E+02 0.  0.
         12    1    1    2    0    0  0.31969597818E-01 -0.99738072790E+00 -0.63023628218E+00  0.11802491868E+01  0.00000000000E+00 0. -1.
         11    1    3    3    0    0  0.59261495051E+01  0.27632876282E+01 -0.45977568364E+00  0.65548760791E+01  0.51100000000E-03 0. -1.
        -11    1    3    3    0    0  0.11047583052E+02  0.38016210128E+02  0.54796270148E+01  0.39966331283E+02  0.51100000000E-03 0.  1.
         12    1    3    3    0    0 -0.17005702155E+02 -0.39782117028E+02 -0.43896150490E+01  0.43486543451E+02  0.00000000000E+00 0. -1.
</event>
<event>
 7    1  0.3032584E-015  0.9000771E+02  0.7816164E-02  0.1186339E+00
        -11   -1    0    0    0    0  0.00000000000E+00  0.00000000000E+00  0.45593999997E+02  0.45594000000E+02  0.51100000000E-03 0.  1.
         11   -1    0    0    0    0 -0.00000000000E+00 -0.00000000000E+00 -0.45593999997E+02  0.45594000000E+02  0.51100000000E-03 0. -1.
    9900012    2    1    2    0    0 -0.52134489487E+00  0.10329651956E+01 -0.23297703583E+00  0.90007705167E+02  0.89999966075E+02 0.  0.
         12    1    1    2    0    0  0.52134489487E+00 -0.10329651956E+01  0.23297703583E+00  0.11802948335E+01  0.00000000000E+00 0. -1.
         11    1    3    3    0    0 -0.62996994049E+01 -0.45967761555E+01 -0.36890174033E+02  0.37705457219E+02  0.51100000000E-03 0. -1.
        -11    1    3    3    0    0 -0.11454864571E+01 -0.97251901541E+01 -0.21248740373E+01  0.10020307016E+02  0.51100000000E-03 0.  1.
        -12    1    3    3    0    0  0.69238409671E+01  0.15354931505E+02  0.38782071034E+02  0.42281940932E+02  0.00000000000E+00 0.  1.
</event>
<event>
 7    1  0.3032584E-015  0.9000771E+02  0.7816164E-02  0.1186339E+00
        -11   -1    0    0    0    0  0.00000000000E+00  0.00000000000E+00  0.45593999997E+02  0.45594000000E+02  0.51100000000E-03 0.  1.
         11   -1    0    0    0    0 -0.00000000000E+00 -0.00000000000E+00 -0.45593999997E+02  0.45594000000E+02  0.51100000000E-03 0. -1.
    9900012    2    1    2    0    0 -0.67463791727E+00  0.74456736490E+00  0.61931942031E+00  0.90007714685E+02  0.89999975719E+02 0.  0.
         12    1    1    2    0    0  0.67463791727E+00 -0.74456736490E+00 -0.61931942031E+00  0.11802853149E+01  0.00000000000E+00 0. -1.
         11    1    3    3    0    0  0.77895061170E+01  0.17072052313E+01  0.55325547669E+01  0.97056745133E+01  0.51100000000E-03 0. -1.
        -11    1    3    3    0    0 -0.25592337592E+02  0.17783105659E+02  0.25795277197E+02  0.40454949218E+02  0.51100000000E-03 0.  1.
         12    1    3    3    0    0  0.17128193557E+02 -0.18745743526E+02 -0.30708512543E+02  0.39847090954E+02  0.00000000000E+00 0. -1.
</event>
<event>
 7    1  0.3032584E-015  0.9000775E+02  0.7816164E-02  0.1186339E+00
        -11   -1    0    0    0    0  0.00000000000E+00  0.00000000000E+00  0.45593999997E+02  0.45594000000E+02  0.51100000000E-03 0. -1.
         11   -1    0    0    0    0 -0.00000000000E+00 -0.00000000000E+00 -0.45593999997E+02  0.45594000000E+02  0.51100000000E-03 0.  1.
    9900012    2    1    2    0    0  0.87823146643E+00 -0.78578668084E+00  0.65167329355E-01  0.90007746639E+02  0.90000008094E+02 0.  0.
         12    1    1    2    0    0 -0.87823146643E+00  0.78578668084E+00 -0.65167329355E-01  0.11802533615E+01  0.00000000000E+00 0. -1.
         11    1    3    3    0    0  0.32458367679E+02  0.88256339361E+01  0.21916033392E+02  0.40146605917E+02  0.51100000000E-03 0. -1.
        -11    1    3    3    0    0 -0.68663829862E+01 -0.52836850540E+00  0.76674244037E+01  0.10306104300E+02  0.51100000000E-03 0.  1.
        -12    1    3    3    0    0 -0.24713753227E+02 -0.90830521115E+01 -0.29518290467E+02  0.39555036421E+02  0.00000000000E+00 0.  1.
</event>
<event>
 7    1  0.3032584E-015  0.9000778E+02  0.7816164E-02  0.1186339E+00
        -11   -1    0    0    0    0  0.00000000000E+00  0.00000000000E+00  0.45593999997E+02  0.45594000000E+02  0.51100000000E-03 0. -1.
         11   -1    0    0    0    0 -0.00000000000E+00 -0.00000000000E+00 -0.45593999997E+02  0.45594000000E+02  0.51100000000E-03 0.  1.
    9900012    2    1    2    0    0  0.95070608233E+00 -0.60401428950E+00 -0.35248694506E+00  0.90007778680E+02  0.90000040559E+02 0.  0.
         12    1    1    2    0    0 -0.95070608233E+00  0.60401428950E+00  0.35248694506E+00  0.11802213196E+01  0.00000000000E+00 0. -1.
         11    1    3    3    0    0  0.25453621257E+02  0.71883682300E+01  0.22297784134E+02  0.34594084038E+02  0.51100000000E-03 0. -1.
        -11    1    3    3    0    0  0.80293410444E+01  0.31346984018E+00  0.69998601757E+01  0.10656764222E+02  0.51100000000E-03 0.  1.
        -12    1    3    3    0    0 -0.32532256219E+02 -0.81058523597E+01 -0.29650131255E+02  0.44756930420E+02  0.00000000000E+00 0.  1.
</event>
<event>
 7    1  0.3032584E-015  0.9000776E+02  0.7816164E-02  0.1186339E+00
        -11   -1    0    0    0    0  0.00000000000E+00  0.00000000000E+00  0.45593999997E+02  0.45594000000E+02  0.51100000000E-03 0.  1.
         11   -1    0    0    0    0 -0.00000000000E+00 -0.00000000000E+00 -0.45593999997E+02  0.45594000000E+02  0.51100000000E-03 0. -1.
    9900012    2    1    2    0    0  0.36451691469E+00 -0.73415743461E+00  0.84917352731E+00  0.90007764685E+02  0.90000026379E+02 0.  0.
         12    1    1    2    0    0 -0.36451691469E+00  0.73415743461E+00 -0.84917352731E+00  0.11802353153E+01  0.00000000000E+00 0. -1.
         11    1    3    3    0    0 -0.12931249440E+01 -0.10963125528E+01 -0.11236791929E+01  0.20338949147E+01  0.51100000000E-03 0. -1.
        -11    1    3    3    0    0 -0.27787452218E+02  0.29283602655E+02  0.17336117389E+02  0.43934187731E+02  0.51100000000E-03 0.  1.
         12    1    3    3    0    0  0.29445094076E+02 -0.28921447537E+02 -0.15363264669E+02  0.44039682039E+02  0.00000000000E+00 0. -1.
</event>
<event>
 7    1  0.3032584E-015  0.9000773E+02  0.7816164E-02  0.1186339E+00
        -11   -1    0    0    0    0  0.00000000000E+00  0.00000000000E+00  0.45593999997E+02  0.45594000000E+02  0.51100000000E-03 0. -1.
         11   -1    0    0    0    0 -0.00000000000E+00 -0.00000000000E+00 -0.45593999997E+02  0.45594000000E+02  0.51100000000E-03 0.  1.
    9900012    2    1    2    0    0  0.83891395850E+00 -0.72840860963E+00  0.39834732180E+00  0.90007730403E+02  0.89999991645E+02 0.  0.
         12    1    1    2    0    0 -0.83891395850E+00  0.72840860963E+00 -0.39834732180E+00  0.11802695968E+01  0.00000000000E+00 0. -1.
         11    1    3    3    0    0  0.29512545254E+02 -0.13055585449E+02 -0.16538182838E+02  0.36262241114E+02  0.51100000000E-03 0. -1.
        -11    1    3    3    0    0  0.89768523994E+01 -0.33934446115E+01  0.72903994193E-01  0.95971173060E+01  0.51100000000E-03 0.  1.
        -12    1    3    3    0    0 -0.37650483695E+02  0.15720621450E+02  0.16863626166E+02  0.44148371983E+02  0.00000000000E+00 0.  1.
</event>
<event>
 7    1  0.4182952E-015  0.9000767E+02  0.7816164E-02  0.1186339E+00
        -11   -1    0    0    0    0  0.00000000000E+00  0.00000000000E+00  0.45593999997E+02  0.45594000000E+02  0.51100000000E-03 0. -1.
         11   -1    0    0    0    0 -0.00000000000E+00 -0.00000000000E+00 -0.45593999997E+02  0.45594000000E+02  0.51100000000E-03 0.  1.
    9900012    2    1    2    0    0  0.40774937714E+00 -0.29585301876E+00 -0.10674197859E+01  0.90007672265E+02  0.89999932739E+02 0.  0.
         12    1    1    2    0    0 -0.40774937714E+00  0.29585301876E+00  0.10674197859E+01  0.11803277353E+01  0.00000000000E+00 0. -1.
         11    1    3    3    0    0 -0.28492756541E+02  0.16153400483E+02  0.27925878786E+02  0.43042121563E+02  0.51100000000E-03 0. -1.
        -11    1    3    3    0    0  0.74707588573E+01  0.29445041964E+01 -0.57510939030E+01  0.98771161889E+01  0.51100000000E-03 0.  1.
        -12    1    3    3    0    0  0.21429747061E+02 -0.19393757698E+02 -0.23242204668E+02  0.37088434512E+02  0.00000000000E+00 0.  1.
</event>
<event>
 7    1  0.3032584E-015  0.9000771E+02  0.7816164E-02  0.1186339E+00
        -11   -1    0    0    0    0  0.00000000000E+00  0.00000000000E+00  0.45593999997E+02  0.45594000000E+02  0.51100000000E-03 0. -1.
         11   -1    0    0    0    0 -0.00000000000E+00 -0.00000000000E+00 -0.45593999997E+02  0.45594000000E+02  0.51100000000E-03 0.  1.
    9900012    2    1    2    0    0  0.62221855262E+00  0.21587546671E+00 -0.97945693150E+00  0.90007705958E+02  0.89999966877E+02 0.  0.
         12    1    1    2    0    0 -0.62221855262E+00 -0.21587546671E+00  0.97945693150E+00  0.11802940418E+01  0.00000000000E+00 0. -1.
         11    1    3    3    0    0 -0.42629002315E+01  0.70749113937E+01 -0.45603593402E+01  0.94352301077E+01  0.51100000000E-03 0. -1.
        -11    1    3    3    0    0 -0.10638977363E+02 -0.12667133321E+02 -0.34928380488E+02  0.38647585561E+02  0.51100000000E-03 0.  1.
         12    1    3    3    0    0  0.15524096147E+02  0.58080973944E+01  0.38509282897E+02  0.41924890289E+02  0.00000000000E+00 0. -1.
</event>
<event>
 7    1  0.3259925E-015  0.9000774E+02  0.7816164E-02  0.1186339E+00
        -11   -1    0    0    0    0  0.00000000000E+00  0.00000000000E+00  0.45593999997E+02  0.45594000000E+02  0.51100000000E-03 0.  1.
         11   -1    0    0    0    0 -0.00000000000E+00 -0.00000000000E+00 -0.45593999997E+02  0.45594000000E+02  0.51100000000E-03 0. -1.
    9900012    2    1    2    0    0 -0.18057053538E-01 -0.86823160831E+00  0.79928429209E+00  0.90007742586E+02  0.90000003989E+02 0.  0.
         12    1    1    2    0    0  0.18057053538E-01  0.86823160831E+00 -0.79928429209E+00  0.11802574136E+01  0.00000000000E+00 0. -1.
         11    1    3    3    0    0 -0.24154218664E+02 -0.23104122547E+02 -0.19441327893E+02  0.38667712480E+02  0.51100000000E-03 0. -1.
        -11    1    3    3    0    0  0.54034977600E+01 -0.34178090963E+01 -0.70098629251E+01  0.94877492352E+01  0.51100000000E-03 0.  1.
        -12    1    3    3    0    0  0.18732663851E+02  0.25653700035E+02  0.27250475110E+02  0.41852280871E+02  0.00000000000E+00 0.  1.
</event>
<event>
 7    1  0.3032584E-015  0.9000753E+02  0.7816164E-02  0.1186339E+00
        -11   -1    0    0    0    0  0.00000000000E+00  0.00000000000E+00  0.45593999997E+02  0.45594000000E+02  0.51100000000E-03 0.  1.
         11   -1    0    0    0    0 -0.00000000000E+00 -0.00000000000E+00 -0.45593999997E+02  0.45594000000E+02  0.51100000000E-03 0. -1.
    9900012    2    1    2    0    0  0.10405498534E+01 -0.58459037169E-01  0.55438672437E+00  0.90007531408E+02  0.89999790022E+02 0.  0.
         12    1    1    2    0    0 -0.10405498534E+01  0.58459037169E-01 -0.55438672437E+00  0.11804685920E+01  0.00000000000E+00 0. -1.
         11    1    3    3    0    0  0.82259538592E+01  0.33040113350E+02 -0.16025550972E+02  0.37631551806E+02  0.51100000000E-03 0. -1.
        -11    1    3    3    0    0 -0.86377672670E+01  0.57484338164E+01  0.75146216655E+00  0.10402894326E+02  0.51100000000E-03 0.  1.
        -12    1    3    3    0    0  0.14523632612E+01 -0.38847006204E+02  0.15828475529E+02  0.41973085277E+02  0.00000000000E+00 0.  1.
</event>
<event>
 7    1  0.3032584E-015  0.9000777E+02  0.7816164E-02  0.1186339E+00
        -11   -1    0    0    0    0  0.00000000000E+00  0.00000000000E+00  0.45593999997E+02  0.45594000000E+02  0.51100000000E-03 0. -1.
         11   -1    0    0    0    0 -0.00000000000E+00 -0.00000000000E+00 -0.45593999997E+02  0.45594000000E+02  0.51100000000E-03 0.  1.
    9900012    2    1    2    0    0  0.44794720083E+00  0.66513045252E+00 -0.86596716411E+00  0.90007765132E+02  0.90000026832E+02 0.  0.
         12    1    1    2    0    0 -0.44794720083E+00 -0.66513045252E+00  0.86596716411E+00  0.11802348677E+01  0.00000000000E+00 0. -1.
         11    1    3    3    0    0 -0.11301053271E+01 -0.31867175198E+02  0.13062352725E+02  0.34458947345E+02  0.51100000000E-03 0. -1.
        -11    1    3    3    0    0 -0.88037895641E+01 -0.78250355619E+01 -0.58454259251E+00  0.11793200691E+02  0.51100000000E-03 0.  1.
        -12    1    3    3    0    0  0.10381842092E+02  0.40357341212E+02 -0.13343777297E+02  0.43755617096E+02  0.00000000000E+00 0.  1.
</event>
<event>
 7    1  0.3032584E-015  0.9000770E+02  0.7816164E-02  0.1186339E+00
        -11   -1    0    0    0    0  0.00000000000E+00  0.00000000000E+00  0.45593999997E+02  0.45594000000E+02  0.51100000000E-03 0. -1.
         11   -1    0    0    0    0 -0.00000000000E+00 -0.00000000000E+00 -0.45593999997E+02  0.45594000000E+02  0.51100000000E-03 0.  1.
    9900012    2    1    2    0    0  0.13506309401E+00 -0.59766967662E+00 -0.10087872862E+01  0.90007702211E+02  0.89999963080E+02 0.  0.
         12    1    1    2    0    0 -0.13506309401E+00  0.59766967662E+00  0.10087872862E+01  0.11802977889E+01  0.00000000000E+00 0. -1.
         11    1    3    3    0    0 -0.32534113430E+01 -0.33462759225E+02  0.19352813611E+02  0.38792684043E+02  0.51100000000E-03 0. -1.
        -11    1    3    3    0    0  0.10261975214E+02 -0.10406830995E+01  0.13019389839E+01  0.10396451413E+02  0.51100000000E-03 0.  1.
        -12    1    3    3    0    0 -0.68735007768E+01  0.33905772648E+02 -0.21663539881E+02  0.40818566755E+02  0.00000000000E+00 0.  1.
</event>
<event>
 7    1  0.3032584E-015  0.9000808E+02  0.7816164E-02  0.1186338E+00
        -11   -1    0    0    0    0  0.00000000000E+00  0.00000000000E+00  0.45593999997E+02  0.45594000000E+02  0.51100000000E-03 0.  1.
         11   -1    0    0    0    0 -0.00000000000E+00 -0.00000000000E+00 -0.45593999997E+02  0.45594000000E+02  0.51100000000E-03 0. -1.
    9900012    2    1    2    0    0  0.49393278005E+00 -0.13086126739E+00  0.10635420847E+01  0.90008077957E+02  0.90000343785E+02 0.  0.
         12    1    1    2    0    0 -0.49393278005E+00  0.13086126739E+00 -0.10635420847E+01  0.11799220434E+01  0.00000000000E+00 0. -1.
         11    1    3    3    0    0 -0.76601627317E+00 -0.11062783403E+02  0.25757425856E+01  0.11384481001E+02  0.51100000000E-03 0. -1.
        -11    1    3    3    0    0 -0.17086155372E+02  0.19098026257E+02  0.31116689779E+02  0.40310292673E+02  0.51100000000E-03 0.  1.
         12    1    3    3    0    0  0.18346104425E+02 -0.81661041213E+01 -0.32628890280E+02  0.38313304282E+02  0.00000000000E+00 0. -1.
</event>
<event>
 7    1  0.3032584E-015  0.9000776E+02  0.7816164E-02  0.1186339E+00
        -11   -1    0    0    0    0  0.00000000000E+00  0.00000000000E+00  0.45593999997E+02  0.45594000000E+02  0.51100000000E-03 0.  1.
         11   -1    0    0    0    0 -0.00000000000E+00 -0.00000000000E+00 -0.45593999997E+02  0.45594000000E+02  0.51100000000E-03 0. -1.
    9900012    2    1    2    0    0  0.37555715141E+00  0.86520648007E+00 -0.70946493294E+00  0.90007760229E+02  0.90000021864E+02 0.  0.
         12    1    1    2    0    0 -0.37555715141E+00 -0.86520648007E+00  0.70946493294E+00  0.11802397715E+01  0.00000000000E+00 0. -1.
         11    1    3    3    0    0  0.62530100926E+01 -0.69467759000E+01 -0.41045737726E+01  0.10208102504E+02  0.51100000000E-03 0. -1.
        -11    1    3    3    0    0  0.10103908587E+02  0.22634493920E+02  0.34092335739E+02  0.42150879471E+02  0.51100000000E-03 0.  1.
         12    1    3    3    0    0 -0.15981361528E+02 -0.14822511540E+02 -0.30697226899E+02  0.37648778253E+02  0.00000000000E+00 0. -1.
</event>
<event>
 7    1  0.3032584E-015  0.9000787E+02  0.7816164E-02  0.1186339E+00
        -11   -1    0    0    0    0  0.00000000000E+00  0.00000000000E+00  0.45593999997E+02  0.45594000000E+02  0.51100000000E-03 0.  1.
         11   -1    0    0    0    0 -0.00000000000E+00 -0.00000000000E+00 -0.45593999997E+02  0.45594000000E+02  0.51100000000E-03 0. -1.
    9900012    2    1    2    0    0 -0.87587276727E+00 -0.61243203430E+00  0.50049024295E+00  0.90007865862E+02  0.90000128891E+02 0.  0.
         12    1    1    2    0    0  0.87587276727E+00  0.61243203430E+00 -0.50049024295E+00  0.11801341383E+01  0.00000000000E+00 0. -1.
         11    1    3    3    0    0 -0.18273210776E+01 -0.61464689571E+01  0.64773240636E+01  0.91144890283E+01  0.51100000000E-03 0. -1.
        -11    1    3    3    0    0 -0.72911355688E+01 -0.10117956315E+02  0.34518817243E+02  0.36702621732E+02  0.51100000000E-03 0.  1.
         12    1    3    3    0    0  0.82425838791E+01  0.15651993238E+02 -0.40495651064E+02  0.44190755101E+02  0.00000000000E+00 0. -1.
</event>
<event>
 7    1  0.3032584E-015  0.9000780E+02  0.7816164E-02  0.1186339E+00
        -11   -1    0    0    0    0  0.00000000000E+00  0.00000000000E+00  0.45593999997E+02  0.45594000000E+02  0.51100000000E-03 0.  1.
         11   -1    0    0    0    0 -0.00000000000E+00 -0.00000000000E+00 -0.45593999997E+02  0.45594000000E+02  0.51100000000E-03 0. -1.
    9900012    2    1    2    0    0 -0.59572377797E-02  0.38437080552E+00  0.11158436125E+01  0.90007795199E+02  0.90000057296E+02 0.  0.
         12    1    1    2    0    0  0.59572377797E-02 -0.38437080552E+00 -0.11158436125E+01  0.11802048010E+01  0.00000000000E+00 0. -1.
         11    1    3    3    0    0  0.20890028802E+02  0.31997782343E+02 -0.26269220072E+01  0.38303421488E+02  0.51100000000E-03 0. -1.
        -11    1    3    3    0    0  0.79616331703E+01 -0.17029662304E+02 -0.18544284939E+01  0.18890100747E+02  0.51100000000E-03 0.  1.
        -12    1    3    3    0    0 -0.28857619210E+02 -0.14583749233E+02  0.55971941137E+01  0.32814272963E+02  0.00000000000E+00 0.  1.
</event>
<event>
 7    1  0.3032584E-015  0.9000783E+02  0.7816164E-02  0.1186339E+00
        -11   -1    0    0    0    0  0.00000000000E+00  0.00000000000E+00  0.45593999997E+02  0.45594000000E+02  0.51100000000E-03 0.  1.
         11   -1    0    0    0    0 -0.00000000000E+00 -0.00000000000E+00 -0.45593999997E+02  0.45594000000E+02  0.51100000000E-03 0. -1.
    9900012    2    1    2    0    0  0.77592341353E+00  0.66259157192E+00  0.59305638500E+00  0.90007830262E+02  0.90000092821E+02 0.  0.
         12    1    1    2    0    0 -0.77592341353E+00 -0.66259157192E+00 -0.59305638500E+00  0.11801697381E+01  0.00000000000E+00 0. -1.
         11    1    3    3    0    0 -0.32272768301E+01  0.19795980010E+01  0.86316175604E+01  0.94254414196E+01  0.51100000000E-03 0. -1.
        -11    1    3    3    0    0 -0.10362180932E+01 -0.24945870867E+02  0.27796644871E+02  0.37363400375E+02  0.51100000000E-03 0.  1.
         12    1    3    3    0    0  0.50394183368E+01  0.23628864438E+02 -0.35835206046E+02  0.43218988468E+02  0.00000000000E+00 0. -1.
</event>
<event>
 7    1  0.3032584E-015  0.9000774E+02  0.7816164E-02  0.1186339E+00
        -11   -1    0    0    0    0  0.00000000000E+00  0.00000000000E+00  0.45593999997E+02  0.45594000000E+02  0.51100000000E-03 0.  1.
         11   -1    0    0    0    0 -0.00000000000E+00 -0.00000000000E+00 -0.45593999997E+02  0.45594000000E+02  0.51100000000E-03 0. -1.
    9900012    2    1    2    0    0  0.95392464281E+00 -0.67587120320E+00 -0.16195031807E+00  0.90007744937E+02  0.90000006370E+02 0.  0.
         12    1    1    2    0    0 -0.95392464281E+00  0.67587120320E+00  0.16195031807E+00  0.11802550627E+01  0.00000000000E+00 0. -1.
         11    1    3    3    0    0 -0.87320688375E+01 -0.11226832315E+02 -0.20198602271E+02  0.24703730973E+02  0.51100000000E-03 0. -1.
        -11    1    3    3    0    0 -0.20386359447E+02  0.21020135252E+02  0.36995007166E+01  0.29515013863E+02  0.51100000000E-03 0.  1.
         12    1    3    3    0    0  0.30072352927E+02 -0.10469174140E+02  0.16337151236E+02  0.35789000101E+02  0.00000000000E+00 0. -1.
</event>
<event>
 7    1  0.3032584E-015  0.9000768E+02  0.7816164E-02  0.1186339E+00
        -11   -1    0    0    0    0  0.00000000000E+00  0.00000000000E+00  0.45593999997E+02  0.45594000000E+02  0.51100000000E-03 0.  1.
         11   -1    0    0    0    0 -0.00000000000E+00 -0.00000000000E+00 -0.45593999997E+02  0.45594000000E+02  0.51100000000E-03 0. -1.
    9900012    2    1    2    0    0  0.66471989105E+00 -0.71857311459E+00 -0.65950467141E+00  0.90007683828E+02  0.89999944454E+02 0.  0.
         12    1    1    2    0    0 -0.66471989105E+00  0.71857311459E+00  0.65950467141E+00  0.11803161721E+01  0.00000000000E+00 0. -1.
         11    1    3    3    0    0  0.43594608381E+02  0.45895342007E+01  0.41425824773E+01  0.44030837988E+02  0.51100000000E-03 0. -1.
        -11    1    3    3    0    0 -0.80680201016E+01  0.20298146829E+01  0.40719463994E+01  0.92624966260E+01  0.51100000000E-03 0.  1.
        -12    1    3    3    0    0 -0.34861868388E+02 -0.73379219981E+01 -0.88740335481E+01  0.36714349214E+02  0.00000000000E+00 0.  1.
</event>
<event>
 7    1  0.3032584E-015  0.9000768E+02  0.7816164E-02  0.1186339E+00
        -11   -1    0    0    0    0  0.00000000000E+00  0.00000000000E+00  0.45593999997E+02  0.45594000000E+02  0.51100000000E-03 0.  1.
         11   -1    0    0    0    0 -0.00000000000E+00 -0.00000000000E+00 -0.45593999997E+02  0.45594000000E+02  0.51100000000E-03 0. -1.
    9900012    2    1    2    0    0  0.98566583830E+00 -0.30287290586E-02  0.64931857243E+00  0.90007677618E+02  0.89999938162E+02 0.  0.
         12    1    1    2    0    0 -0.98566583830E+00  0.30287290586E-02 -0.64931857243E+00  0.11803223824E+01  0.00000000000E+00 0. -1.
         11    1    3    3    0    0 -0.30734752892E+02 -0.31977656660E+01  0.20945651694E+02  0.37330564766E+02  0.51100000000E-03 0. -1.
        -11    1    3    3    0    0 -0.81869232724E+01 -0.12736742874E+01 -0.18658908699E+01  0.84929092694E+01  0.51100000000E-03 0.  1.
        -12    1    3    3    0    0  0.39907342003E+02  0.44684112243E+01 -0.18430442251E+02  0.44184203582E+02  0.00000000000E+00 0.  1.
</event>
<event>
 7    1  0.3032584E-015  0.9000761E+02  0.7816164E-02  0.1186339E+00
        -11   -1    0    0    0    0  0.00000000000E+00  0.00000000000E+00  0.45593999997E+02  0.45594000000E+02  0.51100000000E-03 0. -1.
         11   -1    0    0    0    0 -0.00000000000E+00 -0.00000000000E+00 -0.45593999997E+02  0.45594000000E+02  0.51100000000E-03 0.  1.
    9900012    2    1    2    0    0  0.93123029726E+00  0.33753803784E+00 -0.64203525559E+00  0.90007605548E+02  0.89999865141E+02 0.  0.
         12    1    1    2    0    0 -0.93123029726E+00 -0.33753803784E+00  0.64203525559E+00  0.11803944523E+01  0.00000000000E+00 0. -1.
         11    1    3    3    0    0  0.89501253454E+01  0.58929452568E+01  0.14812027674E+01  0.10817832934E+02  0.51100000000E-03 0. -1.
        -11    1    3    3    0    0  0.12274276374E+02 -0.33891156979E+02 -0.18686680022E+02  0.40601236341E+02  0.51100000000E-03 0.  1.
         12    1    3    3    0    0 -0.20293171422E+02  0.28335749760E+02  0.16563441999E+02  0.38588536273E+02  0.00000000000E+00 0. -1.
</event>
<event>
 7    1  0.3032584E-015  0.9000760E+02  0.7816164E-02  0.1186339E+00
        -11   -1    0    0    0    0  0.00000000000E+00  0.00000000000E+00  0.45593999997E+02  0.45594000000E+02  0.51100000000E-03 0.  1.
         11   -1    0    0    0    0 -0.00000000000E+00 -0.00000000000E+00 -0.45593999997E+02  0.45594000000E+02  0.51100000000E-03 0. -1.
    9900012    2    1    2    0    0  0.98458666800E+00 -0.62526047024E+00  0.18162729046E+00  0.90007597511E+02  0.89999856998E+02 0.  0.
         12    1    1    2    0    0 -0.98458666800E+00  0.62526047024E+00 -0.18162729046E+00  0.11804024886E+01  0.00000000000E+00 0. -1.
         11    1    3    3    0    0  0.11947071408E+01 -0.25756209211E+02 -0.30419408100E+02  0.39876685263E+02  0.51100000000E-03 0. -1.
        -11    1    3    3    0    0 -0.35510667577E+00 -0.72080525187E+01  0.73502280424E+01  0.10300872507E+02  0.51100000000E-03 0.  1.
        -12    1    3    3    0    0  0.14498620296E+00  0.32339001260E+02  0.23250807349E+02  0.39830039742E+02  0.00000000000E+00 0.  1.
</event>
<event>
 7    1  0.3032584E-015  0.9000771E+02  0.7816164E-02  0.1186339E+00
        -11   -1    0    0    0    0  0.00000000000E+00  0.00000000000E+00  0.45593999997E+02  0.45594000000E+02  0.51100000000E-03 0.  1.
         11   -1    0    0    0    0 -0.00000000000E+00 -0.00000000000E+00 -0.45593999997E+02  0.45594000000E+02  0.51100000000E-03 0. -1.
    9900012    2    1    2    0    0  0.39892604925E+00  0.34764713190E+00 -0.10550324191E+01  0.90007706000E+02  0.89999966919E+02 0.  0.
         12    1    1    2    0    0 -0.39892604925E+00 -0.34764713190E+00  0.10550324191E+01  0.11802940000E+01  0.00000000000E+00 0. -1.
         11    1    3    3    0    0 -0.24475031331E+01  0.13654092826E+01  0.46117993262E+01  0.53966014659E+01  0.51100000000E-03 0. -1.
        -11    1    3    3    0    0 -0.30623314659E+02  0.17280242663E+02  0.18221657253E+02  0.39603320322E+02  0.51100000000E-03 0.  1.
         12    1    3    3    0    0  0.33469743842E+02 -0.18298004814E+02 -0.23888488999E+02  0.45007784212E+02  0.00000000000E+00 0. -1.
</event>
<event>
 7    1  0.3032584E-015  0.9000782E+02  0.7816164E-02  0.1186339E+00
        -11   -1    0    0    0    0  0.00000000000E+00  0.00000000000E+00  0.45593999997E+02  0.45594000000E+02  0.51100000000E-03 0.  1.
         11   -1    0    0    0    0 -0.00000000000E+00 -0.00000000000E+00 -0.45593999997E+02  0.45594000000E+02  0.51100000000E-03 0. -1.
    9900012    2    1    2    0    0  0.55831757535E+00 -0.73635709327E+00  0.73408065849E+00  0.90007824294E+02  0.90000086775E+02 0.  0.
         12    1    1    2    0    0 -0.55831757535E+00  0.73635709327E+00 -0.73408065849E+00  0.11801757060E+01  0.00000000000E+00 0. -1.
         11    1    3    3    0    0  0.27219386997E+02 -0.26851644442E+02  0.14359400405E+02  0.40842358135E+02  0.51100000000E-03 0. -1.
        -11    1    3    3    0    0  0.21876212722E+01  0.40845919174E+01  0.62510392350E+01  0.77810712464E+01  0.51100000000E-03 0.  1.
        -12    1    3    3    0    0 -0.28848690694E+02  0.22030695431E+02 -0.19876358982E+02  0.41384394913E+02  0.00000000000E+00 0.  1.
</event>
<event>
 8    1  0.3032584E-015  0.9000777E+02  0.7816164E-02  0.1186339E+00
        -11   -1    0    0    0    0  0.00000000000E+00  0.00000000000E+00  0.45593999997E+02  0.45594000000E+02  0.51100000000E-03 0.  1.
         11   -1    0    0    0    0 -0.00000000000E+00 -0.00000000000E+00 -0.45593999997E+02  0.45594000000E+02  0.51100000000E-03 0. -1.
    9900012    2    1    2    0    0 -0.74091098335E+00  0.55703152528E+00  0.73054775605E+00  0.90007774077E+02  0.90000035895E+02 0.  0.
         23    2    3    3    0    0  0.25413035304E+02  0.70686686325E+01  0.15120182723E+01  0.63044075882E+02  0.57240552626E+02 0.  0.
         12    1    1    2    0    0  0.74091098335E+00 -0.55703152528E+00 -0.73054775605E+00  0.11802259230E+01  0.00000000000E+00 0. -1.
         11    1    4    4    0    0  0.26515984087E+02 -0.21673795096E+02  0.12729749319E+00  0.34247146026E+02  0.51100000000E-03 0. -1.
        -11    1    4    4    0    0 -0.11029487831E+01  0.28742463729E+02  0.13847207791E+01  0.28796929856E+02  0.51100000000E-03 0.  1.
         12    1    3    3    0    0 -0.26153946287E+02 -0.65116371073E+01 -0.78147051621E+00  0.26963698195E+02  0.00000000000E+00 0. -1.
</event>
<event>
 7    1  0.3032584E-015  0.9000783E+02  0.7816164E-02  0.1186339E+00
        -11   -1    0    0    0    0  0.00000000000E+00  0.00000000000E+00  0.45593999997E+02  0.45594000000E+02  0.51100000000E-03 0.  1.
         11   -1    0    0    0    0 -0.00000000000E+00 -0.00000000000E+00 -0.45593999997E+02  0.45594000000E+02  0.51100000000E-03 0. -1.
    9900012    2    1    2    0    0 -0.50265125725E+00  0.10661521469E+01  0.58893253233E-01  0.90007827512E+02  0.90000090035E+02 0.  0.
         12    1    1    2    0    0  0.50265125725E+00 -0.10661521469E+01 -0.58893253233E-01  0.11801724883E+01  0.00000000000E+00 0. -1.
         11    1    3    3    0    0 -0.84564751077E+01 -0.94299636795E+01 -0.13495901511E+02  0.18508796398E+02  0.51100000000E-03 0. -1.
        -11    1    3    3    0    0  0.37395138516E+01 -0.27440184375E+02 -0.64061625776E+01  0.28425105129E+02  0.51100000000E-03 0.  1.
         12    1    3    3    0    0  0.42143099988E+01  0.37936300201E+02  0.19960957342E+02  0.43073925985E+02  0.00000000000E+00 0. -1.
</event>
<event>
 7    1  0.3032584E-015  0.9000775E+02  0.7816164E-02  0.1186339E+00
        -11   -1    0    0    0    0  0.00000000000E+00  0.00000000000E+00  0.45593999997E+02  0.45594000000E+02  0.51100000000E-03 0. -1.
         11   -1    0    0    0    0 -0.00000000000E+00 -0.00000000000E+00 -0.45593999997E+02  0.45594000000E+02  0.51100000000E-03 0.  1.
    9900012    2    1    2    0    0 -0.22762363553E-01 -0.10891439330E+01 -0.45414451365E+00  0.90007745845E+02  0.90000007290E+02 0.  0.
         12    1    1    2    0    0  0.22762363553E-01  0.10891439330E+01  0.45414451365E+00  0.11802541554E+01  0.00000000000E+00 0. -1.
         11    1    3    3    0    0 -0.31219163604E+02  0.11461425238E+02  0.20456458145E+02  0.39044425014E+02  0.51100000000E-03 0. -1.
        -11    1    3    3    0    0 -0.61189052156E+01 -0.54636086543E+01 -0.16144890987E+01  0.83605380135E+01  0.51100000000E-03 0.  1.
        -12    1    3    3    0    0  0.37315306456E+02 -0.70869605164E+01 -0.19296113560E+02  0.42602782817E+02  0.00000000000E+00 0.  1.
</event>
<event>
 7    1  0.3032584E-015  0.9000772E+02  0.7816164E-02  0.1186339E+00
        -11   -1    0    0    0    0  0.00000000000E+00  0.00000000000E+00  0.45593999997E+02  0.45594000000E+02  0.51100000000E-03 0.  1.
         11   -1    0    0    0    0 -0.00000000000E+00 -0.00000000000E+00 -0.45593999997E+02  0.45594000000E+02  0.51100000000E-03 0. -1.
    9900012    2    1    2    0    0  0.71391338196E+00 -0.40332365584E+00  0.84894816918E+00  0.90007722371E+02  0.89999983506E+02 0.  0.
         12    1    1    2    0    0 -0.71391338196E+00  0.40332365584E+00 -0.84894816918E+00  0.11802776293E+01  0.00000000000E+00 0. -1.
         11    1    3    3    0    0 -0.30068139797E+02 -0.41681191047E+01  0.21019145602E+02  0.36922496256E+02  0.51100000000E-03 0. -1.
        -11    1    3    3    0    0 -0.77106156780E+01 -0.47583963256E+01 -0.62741516955E+00  0.90823774300E+01  0.51100000000E-03 0.  1.
        -12    1    3    3    0    0  0.38492668857E+02  0.85231917744E+01 -0.19542782263E+02  0.44002848684E+02  0.00000000000E+00 0.  1.
</event>
<event>
 7    1  0.3032584E-015  0.9000777E+02  0.7816164E-02  0.1186339E+00
        -11   -1    0    0    0    0  0.00000000000E+00  0.00000000000E+00  0.45593999997E+02  0.45594000000E+02  0.51100000000E-03 0.  1.
         11   -1    0    0    0    0 -0.00000000000E+00 -0.00000000000E+00 -0.45593999997E+02  0.45594000000E+02  0.51100000000E-03 0. -1.
    9900012    2    1    2    0    0  0.59002187658E+00  0.68634678157E+00 -0.75746182656E+00  0.90007768608E+02  0.90000030354E+02 0.  0.
         12    1    1    2    0    0 -0.59002187658E+00 -0.68634678157E+00  0.75746182656E+00  0.11802313918E+01  0.00000000000E+00 0. -1.
         11    1    3    3    0    0  0.13596127278E+01 -0.89320754803E+01  0.32845110663E+01  0.96134557970E+01  0.51100000000E-03 0. -1.
        -11    1    3    3    0    0 -0.21020593972E+02  0.24702252763E+02  0.25696931096E+02  0.41381142209E+02  0.51100000000E-03 0.  1.
         12    1    3    3    0    0  0.20251003120E+02 -0.15083830502E+02 -0.29738903989E+02  0.39013170602E+02  0.00000000000E+00 0. -1.
</event>
<event>
 7    1  0.3032584E-015  0.9000779E+02  0.7816164E-02  0.1186339E+00
        -11   -1    0    0    0    0  0.00000000000E+00  0.00000000000E+00  0.45593999997E+02  0.45594000000E+02  0.51100000000E-03 0. -1.
         11   -1    0    0    0    0 -0.00000000000E+00 -0.00000000000E+00 -0.45593999997E+02  0.45594000000E+02  0.51100000000E-03 0.  1.
    9900012    2    1    2    0    0 -0.18868115100E+00 -0.66426882940E+00 -0.95710340070E+00  0.90007787911E+02  0.90000049912E+02 0.  0.
         12    1    1    2    0    0  0.18868115100E+00  0.66426882940E+00  0.95710340070E+00  0.11802120886E+01  0.00000000000E+00 0. -1.
         11    1    3    3    0    0 -0.45635383610E+01  0.10745702087E+01  0.26997667270E+02  0.27401726620E+02  0.51100000000E-03 0. -1.
        -11    1    3    3    0    0  0.82697903843E+01 -0.33589374306E+01  0.16068467330E+02  0.18381173419E+02  0.51100000000E-03 0.  1.
        -12    1    3    3    0    0 -0.38949331743E+01  0.16200983925E+01 -0.44023238001E+02  0.44224887872E+02  0.00000000000E+00 0.  1.
</event>
<event>
 7    1  0.3032584E-015  0.9000773E+02  0.7816164E-02  0.1186339E+00
        -11   -1    0    0    0    0  0.00000000000E+00  0.00000000000E+00  0.45593999997E+02  0.45594000000E+02  0.51100000000E-03 0. -1.
         11   -1    0    0    0    0 -0.00000000000E+00 -0.00000000000E+00 -0.45593999997E+02  0.45594000000E+02  0.51100000000E-03 0.  1.
    9900012    2    1    2    0    0 -0.36354204363E+00 -0.10205385603E+01 -0.46838566082E+00  0.90007725923E+02  0.89999987105E+02 0.  0.
         12    1    1    2    0    0  0.36354204363E+00  0.10205385603E+01  0.46838566082E+00  0.11802740774E+01  0.00000000000E+00 0. -1.
         11    1    3    3    0    0  0.12185510580E+02 -0.89373224575E+01 -0.16977815109E+01  0.15206737425E+02  0.51100000000E-03 0. -1.
        -11    1    3    3    0    0 -0.72811852063E+01 -0.76337528110E+00 -0.35729953448E+02  0.36472290489E+02  0.51100000000E-03 0.  1.
         12    1    3    3    0    0 -0.52678674170E+01  0.86801591783E+01  0.36959349298E+02  0.38328698009E+02  0.00000000000E+00 0. -1.
</event>
<event>
 7    1  0.3032584E-015  0.9000772E+02  0.7816164E-02  0.1186339E+00
        -11   -1    0    0    0    0  0.00000000000E+00  0.00000000000E+00  0.45593999997E+02  0.45594000000E+02  0.51100000000E-03 0. -1.
         11   -1    0    0    0    0 -0.00000000000E+00 -0.00000000000E+00 -0.45593999997E+02  0.45594000000E+02  0.51100000000E-03 0.  1.
    9900012    2    1    2    0    0 -0.21273954809E+00  0.68268052851E+00 -0.93900960758E+00  0.90007724667E+02  0.89999985832E+02 0.  0.
         12    1    1    2    0    0  0.21273954809E+00 -0.68268052851E+00  0.93900960758E+00  0.11802753333E+01  0.00000000000E+00 0. -1.
         11    1    3    3    0    0 -0.10491191814E+02  0.52308068800E+01 -0.51506114780E+01  0.12804500973E+02  0.51100000000E-03 0. -1.
        -11    1    3    3    0    0  0.55748130485E+01 -0.38171401336E+02 -0.10832909568E+02  0.40068520692E+02  0.51100000000E-03 0.  1.
         12    1    3    3    0    0  0.47036392177E+01  0.33623274985E+02  0.15044511438E+02  0.37134703002E+02  0.00000000000E+00 0. -1.
</event>
<event>
 7    1  0.3133962E-015  0.9000821E+02  0.7816164E-02  0.1186338E+00
        -11   -1    0    0    0    0  0.00000000000E+00  0.00000000000E+00  0.45593999997E+02  0.45594000000E+02  0.51100000000E-03 0.  1.
         11   -1    0    0    0    0 -0.00000000000E+00 -0.00000000000E+00 -0.45593999997E+02  0.45594000000E+02  0.51100000000E-03 0. -1.
    9900012    2    1    2    0    0  0.63636779563E-01  0.83287797224E+00  0.83316525722E+00  0.90008212010E+02  0.90000479607E+02 0.  0.
         12    1    1    2    0    0 -0.63636779563E-01 -0.83287797224E+00 -0.83316525722E+00  0.11797879904E+01  0.00000000000E+00 0. -1.
         11    1    3    3    0    0 -0.17482567144E+02  0.17450729471E+02 -0.26251202563E+02  0.36045717489E+02  0.51100000000E-03 0. -1.
        -11    1    3    3    0    0 -0.92761511999E+01 -0.14481108627E+01 -0.39887175836E+01  0.10200680094E+02  0.51100000000E-03 0.  1.
        -12    1    3    3    0    0  0.26822355124E+02 -0.15169740636E+02  0.31073085404E+02  0.43761814427E+02  0.00000000000E+00 0.  1.
</event>
<event>
 7    1  0.3032584E-015  0.9000765E+02  0.7816164E-02  0.1186339E+00
        -11   -1    0    0    0    0  0.00000000000E+00  0.00000000000E+00  0.45593999997E+02  0.45594000000E+02  0.51100000000E-03 0.  1.
         11   -1    0    0    0    0 -0.00000000000E+00 -0.00000000000E+00 -0.45593999997E+02  0.45594000000E+02  0.51100000000E-03 0. -1.
    9900012    2    1    2    0    0 -0.93195652201E+00  0.69408429372E+00 -0.20721897861E+00  0.90007645955E+02  0.89999906082E+02 0.  0.
         12    1    1    2    0    0  0.93195652201E+00 -0.69408429372E+00  0.20721897861E+00  0.11803540447E+01  0.00000000000E+00 0. -1.
         11    1    3    3    0    0 -0.15463350970E+02 -0.84608410143E+01 -0.52114424604E+01  0.18380973496E+02  0.51100000000E-03 0. -1.
        -11    1    3    3    0    0 -0.13557617107E+02  0.19021456949E+02  0.26184921470E+02  0.35089527195E+02  0.51100000000E-03 0.  1.
         12    1    3    3    0    0  0.28089011555E+02 -0.98665316415E+01 -0.21180697988E+02  0.36537145264E+02  0.00000000000E+00 0. -1.
</event>
<event>
 7    1  0.3032584E-015  0.9000766E+02  0.7816164E-02  0.1186339E+00
        -11   -1    0    0    0    0  0.00000000000E+00  0.00000000000E+00  0.45593999997E+02  0.45594000000E+02  0.51100000000E-03 0.  1.
         11   -1    0    0    0    0 -0.00000000000E+00 -0.00000000000E+00 -0.45593999997E+02  0.45594000000E+02  0.51100000000E-03 0. -1.
    9900012    2    1    2    0    0  0.10816834069E+01  0.46427592433E+00  0.87291616849E-01  0.90007656426E+02  0.89999916691E+02 0.  0.
         12    1    1    2    0    0 -0.10816834069E+01 -0.46427592433E+00 -0.87291616849E-01  0.11803435741E+01  0.00000000000E+00 0. -1.
         11    1    3    3    0    0  0.17583626092E+02  0.28863476219E+02 -0.12833964973E+02  0.36152383368E+02  0.51100000000E-03 0. -1.
        -11    1    3    3    0    0  0.40050189148E+01  0.59175207066E+01 -0.62736374675E+01  0.95087199536E+01  0.51100000000E-03 0.  1.
        -12    1    3    3    0    0 -0.20506961600E+02 -0.34316721002E+02  0.19194894058E+02  0.44346553104E+02  0.00000000000E+00 0.  1.
</event>
<event>
 7    1  0.3032584E-015  0.9000793E+02  0.7816164E-02  0.1186339E+00
        -11   -1    0    0    0    0  0.00000000000E+00  0.00000000000E+00  0.45593999997E+02  0.45594000000E+02  0.51100000000E-03 0.  1.
         11   -1    0    0    0    0 -0.00000000000E+00 -0.00000000000E+00 -0.45593999997E+02  0.45594000000E+02  0.51100000000E-03 0. -1.
    9900012    2    1    2    0    0 -0.42576532246E+00  0.10156224733E+01  0.42402642043E+00  0.90007930712E+02  0.90000194598E+02 0.  0.
         12    1    1    2    0    0  0.42576532246E+00 -0.10156224733E+01 -0.42402642043E+00  0.11800692875E+01  0.00000000000E+00 0. -1.
         11    1    3    3    0    0 -0.10454566102E+02 -0.25304417319E+02 -0.30580943416E+02  0.41046383382E+02  0.51100000000E-03 0. -1.
        -11    1    3    3    0    0 -0.49233626054E+01  0.81943521909E+01 -0.60067003836E+00  0.95785025933E+01  0.51100000000E-03 0.  1.
        -12    1    3    3    0    0  0.14952163385E+02  0.18125687602E+02  0.31605639875E+02  0.39383044738E+02  0.00000000000E+00 0.  1.
</event>
<event>
 7    1  0.3032584E-015  0.9000774E+02  0.7816164E-02  0.1186339E+00
        -11   -1    0    0    0    0  0.00000000000E+00  0.00000000000E+00  0.45593999997E+02  0.45594000000E+02  0.51100000000E-03 0.  1.
         11   -1    0    0    0    0 -0.00000000000E+00 -0.00000000000E+00 -0.45593999997E+02  0.45594000000E+02  0.51100000000E-03 0. -1.
    9900012    2    1    2    0    0 -0.62841714902E+00  0.73871542055E+00  0.67261354991E+00  0.90007738345E+02  0.89999999692E+02 0.  0.
         12    1    1    2    0    0  0.62841714902E+00 -0.73871542055E+00 -0.67261354991E+00  0.11802616546E+01  0.00000000000E+00 0. -1.
         11    1    3    3    0    0  0.21801175133E+02 -0.10240929952E+02 -0.30218530567E+02  0.38643595503E+02  0.51100000000E-03 0. -1.
        -11    1    3    3    0    0 -0.10694105394E+02  0.53798823318E+01 -0.51628917905E+01  0.13036965751E+02  0.51100000000E-03 0.  1.
        -12    1    3    3    0    0 -0.11735486888E+02  0.55997630406E+01  0.36054035908E+02  0.38327177092E+02  0.00000000000E+00 0.  1.
</event>
<event>
 7    1  0.3032584E-015  0.9000769E+02  0.7816164E-02  0.1186339E+00
        -11   -1    0    0    0    0  0.00000000000E+00  0.00000000000E+00  0.45593999997E+02  0.45594000000E+02  0.51100000000E-03 0. -1.
         11   -1    0    0    0    0 -0.00000000000E+00 -0.00000000000E+00 -0.45593999997E+02  0.45594000000E+02  0.51100000000E-03 0.  1.
    9900012    2    1    2    0    0 -0.71945857681E+00 -0.92218933648E+00 -0.15836121094E+00  0.90007689833E+02  0.89999950539E+02 0.  0.
         12    1    1    2    0    0  0.71945857681E+00  0.92218933648E+00  0.15836121094E+00  0.11803101665E+01  0.00000000000E+00 0. -1.
         11    1    3    3    0    0  0.21137005956E+01 -0.80938870508E+01  0.38427525283E+01  0.92057310983E+01  0.51100000000E-03 0. -1.
        -11    1    3    3    0    0 -0.23857779745E+02 -0.14761471831E+02 -0.29811113127E+02  0.40936501696E+02  0.51100000000E-03 0.  1.
         12    1    3    3    0    0  0.21024620573E+02  0.21933169546E+02  0.25809999388E+02  0.39865457039E+02  0.00000000000E+00 0. -1.
</event>
<event>
 7    1  0.3032584E-015  0.9000776E+02  0.7816164E-02  0.1186339E+00
        -11   -1    0    0    0    0  0.00000000000E+00  0.00000000000E+00  0.45593999997E+02  0.45594000000E+02  0.51100000000E-03 0.  1.
         11   -1    0    0    0    0 -0.00000000000E+00 -0.00000000000E+00 -0.45593999997E+02  0.45594000000E+02  0.51100000000E-03 0. -1.
    9900012    2    1    2    0    0 -0.11258924824E+01 -0.21889907014E+00 -0.27824435329E+00  0.90007758243E+02  0.90000019852E+02 0.  0.
         12    1    1    2    0    0  0.11258924824E+01  0.21889907014E+00  0.27824435329E+00  0.11802417570E+01  0.00000000000E+00 0. -1.
         11    1    3    3    0    0  0.25896317848E+01  0.40452745998E+01  0.97843773486E+01  0.10899746774E+02  0.51100000000E-03 0. -1.
        -11    1    3    3    0    0 -0.16953136444E+02 -0.11867669151E+01  0.31274705568E+02  0.35593882335E+02  0.51100000000E-03 0.  1.
         12    1    3    3    0    0  0.13237612177E+02 -0.30774067548E+01 -0.41337327270E+02  0.43514129135E+02  0.00000000000E+00 0. -1.
</event>
<event>
 7    1  0.3032584E-015  0.9000766E+02  0.7816164E-02  0.1186339E+00
        -11   -1    0    0    0    0  0.00000000000E+00  0.00000000000E+00  0.45593999997E+02  0.45594000000E+02  0.51100000000E-03 0.  1.
         11   -1    0    0    0    0 -0.00000000000E+00 -0.00000000000E+00 -0.45593999997E+02  0.45594000000E+02  0.51100000000E-03 0. -1.
    9900012    2    1    2    0    0 -0.92738449226E+00 -0.72534803696E+00 -0.83880987122E-01  0.90007657765E+02  0.89999918048E+02 0.  0.
         12    1    1    2    0    0  0.92738449226E+00  0.72534803696E+00  0.83880987122E-01  0.11803422348E+01  0.00000000000E+00 0. -1.
         11    1    3    3    0    0  0.87800766048E+01  0.14971483991E+02  0.32309841019E+02  0.36676435282E+02  0.51100000000E-03 0. -1.
        -11    1    3    3    0    0  0.47325001990E+01 -0.78994013866E+01  0.63966792189E+01  0.11212252481E+02  0.51100000000E-03 0.  1.
        -12    1    3    3    0    0 -0.14439961296E+02 -0.77974306410E+01 -0.38790401225E+02  0.42118970002E+02  0.00000000000E+00 0.  1.
</event>
<event>
 7    1  0.3032584E-015  0.9000771E+02  0.7816164E-02  0.1186339E+00
        -11   -1    0    0    0    0  0.00000000000E+00  0.00000000000E+00  0.45593999997E+02  0.45594000000E+02  0.51100000000E-03 0.  1.
         11   -1    0    0    0    0 -0.00000000000E+00 -0.00000000000E+00 -0.45593999997E+02  0.45594000000E+02  0.51100000000E-03 0. -1.
    9900012    2    1    2    0    0 -0.24522719554E+00  0.19098635961E+00  0.11386324349E+01  0.90007705126E+02  0.89999966034E+02 0.  0.
         12    1    1    2    0    0  0.24522719554E+00 -0.19098635961E+00 -0.11386324349E+01  0.11802948736E+01  0.00000000000E+00 0. -1.
         11    1    3    3    0    0 -0.12143635888E+02 -0.16888858971E+01 -0.67326289983E+00  0.12278986576E+02  0.51100000000E-03 0. -1.
        -11    1    3    3    0    0  0.23923298202E+02 -0.83966468063E+01  0.33676699181E+02  0.42153860350E+02  0.51100000000E-03 0.  1.
         12    1    3    3    0    0 -0.12024889510E+02  0.10276519063E+02 -0.31864803846E+02  0.35574858200E+02  0.00000000000E+00 0. -1.
</event>
<event>
 7    1  0.3032584E-015  0.9000775E+02  0.7816164E-02  0.1186339E+00
        -11   -1    0    0    0    0  0.00000000000E+00  0.00000000000E+00  0.45593999997E+02  0.45594000000E+02  0.51100000000E-03 0.  1.
         11   -1    0    0    0    0 -0.00000000000E+00 -0.00000000000E+00 -0.45593999997E+02  0.45594000000E+02  0.51100000000E-03 0. -1.
    9900012    2    1    2    0    0 -0.66571368227E+00 -0.74991891515E+00 -0.62244432729E+00  0.90007750015E+02  0.90000011515E+02 0.  0.
         12    1    1    2    0    0  0.66571368227E+00  0.74991891515E+00  0.62244432729E+00  0.11802499848E+01  0.00000000000E+00 0. -1.
         11    1    3    3    0    0  0.92315470736E+01  0.47782714334E+01  0.30515460921E+01  0.10833525422E+02  0.51100000000E-03 0. -1.
        -11    1    3    3    0    0 -0.27722776377E+02  0.71109152300E+01  0.28428911648E+02  0.40340060277E+02  0.51100000000E-03 0.  1.
         12    1    3    3    0    0  0.17825515621E+02 -0.12639105579E+02 -0.32102902067E+02  0.38834164316E+02  0.00000000000E+00 0. -1.
</event>
<event>
 7    1  0.3032584E-015  0.9000772E+02  0.7816164E-02  0.1186339E+00
        -11   -1    0    0    0    0  0.00000000000E+00  0.00000000000E+00  0.45593999997E+02  0.45594000000E+02  0.51100000000E-03 0.  1.
         11   -1    0    0    0    0 -0.00000000000E+00 -0.00000000000E+00 -0.45593999997E+02  0.45594000000E+02  0.51100000000E-03 0. -1.
    9900012    2    1    2    0    0 -0.10123266198E+00 -0.10149949301E+01  0.59379082686E+00  0.90007724479E+02  0.89999985642E+02 0.  0.
         12    1    1    2    0    0  0.10123266198E+00  0.10149949301E+01 -0.59379082686E+00  0.11802755213E+01  0.00000000000E+00 0. -1.
         11    1    3    3    0    0 -0.11061459630E+02 -0.44737221276E+01  0.11763161748E+01  0.11989737229E+02  0.51100000000E-03 0. -1.
        -11    1    3    3    0    0 -0.29627327648E+02 -0.15046571716E+02 -0.28653778179E+01  0.33352484979E+02  0.51100000000E-03 0.  1.
         12    1    3    3    0    0  0.40587554617E+02  0.18505298914E+02  0.22828524700E+01  0.44665502270E+02  0.00000000000E+00 0. -1.
</event>
<event>
 7    1  0.3032584E-015  0.9000779E+02  0.7816164E-02  0.1186339E+00
        -11   -1    0    0    0    0  0.00000000000E+00  0.00000000000E+00  0.45593999997E+02  0.45594000000E+02  0.51100000000E-03 0. -1.
         11   -1    0    0    0    0 -0.00000000000E+00 -0.00000000000E+00 -0.45593999997E+02  0.45594000000E+02  0.51100000000E-03 0.  1.
    9900012    2    1    2    0    0 -0.53437869161E+00  0.10471209321E+01  0.10431583671E+00  0.90007786195E+02  0.90000048172E+02 0.  0.
         12    1    1    2    0    0  0.53437869161E+00 -0.10471209321E+01 -0.10431583671E+00  0.11802138053E+01  0.00000000000E+00 0. -1.
         11    1    3    3    0    0  0.21184844998E+02  0.21937489405E+02 -0.29104663996E+02  0.42156050166E+02  0.51100000000E-03 0. -1.
        -11    1    3    3    0    0 -0.47339127523E+01  0.47140791407E+01  0.84431831574E+01  0.10766606438E+02  0.51100000000E-03 0.  1.
        -12    1    3    3    0    0 -0.16985310937E+02 -0.25604447614E+02  0.20765796676E+02  0.37085129591E+02  0.00000000000E+00 0.  1.
</event>
<event>
 7    1  0.3032584E-015  0.9000772E+02  0.7816164E-02  0.1186339E+00
        -11   -1    0    0    0    0  0.00000000000E+00  0.00000000000E+00  0.45593999997E+02  0.45594000000E+02  0.51100000000E-03 0. -1.
         11   -1    0    0    0    0 -0.00000000000E+00 -0.00000000000E+00 -0.45593999997E+02  0.45594000000E+02  0.51100000000E-03 0.  1.
    9900012    2    1    2    0    0 -0.14392613416E+00  0.62702737676E+00 -0.98954131765E+00  0.90007716101E+02  0.89999977153E+02 0.  0.
         12    1    1    2    0    0  0.14392613416E+00 -0.62702737676E+00  0.98954131765E+00  0.11802838992E+01  0.00000000000E+00 0. -1.
         11    1    3    3    0    0 -0.42394731351E+01 -0.58912972381E+01 -0.59330813039E+01  0.93745383690E+01  0.51100000000E-03 0. -1.
        -11    1    3    3    0    0 -0.17360858204E+02 -0.24412404434E+02 -0.19504983208E+02  0.35746457979E+02  0.51100000000E-03 0.  1.
         12    1    3    3    0    0  0.21456405205E+02  0.30930729049E+02  0.24448523194E+02  0.44886719753E+02  0.00000000000E+00 0. -1.
</event>
<event>
 7    1  0.3032584E-015  0.9000776E+02  0.7816164E-02  0.1186339E+00
        -11   -1    0    0    0    0  0.00000000000E+00  0.00000000000E+00  0.45593999997E+02  0.45594000000E+02  0.51100000000E-03 0. -1.
         11   -1    0    0    0    0 -0.00000000000E+00 -0.00000000000E+00 -0.45593999997E+02  0.45594000000E+02  0.51100000000E-03 0.  1.
    9900012    2    1    2    0    0  0.54125732377E+00  0.51991780476E+00 -0.91087448886E+00  0.90007760046E+02  0.90000021679E+02 0.  0.
         12    1    1    2    0    0 -0.54125732377E+00 -0.51991780476E+00  0.91087448886E+00  0.11802399539E+01  0.00000000000E+00 0. -1.
         11    1    3    3    0    0 -0.21724481278E+01 -0.83173453051E+01  0.77655009746E+01  0.11584505576E+02  0.51100000000E-03 0. -1.
        -11    1    3    3    0    0  0.61516226408E+01  0.17929754697E+02 -0.40731671072E+02  0.44926468737E+02  0.51100000000E-03 0.  1.
         12    1    3    3    0    0 -0.34379171893E+01 -0.90924915875E+01  0.32055295609E+02  0.33496785733E+02  0.00000000000E+00 0. -1.
</event>
<event>
 7    1  0.3032584E-015  0.9000745E+02  0.7816164E-02  0.1186340E+00
        -11   -1    0    0    0    0  0.00000000000E+00  0.00000000000E+00  0.45593999997E+02  0.45594000000E+02  0.51100000000E-03 0.  1.
         11   -1    0    0    0    0 -0.00000000000E+00 -0.00000000000E+00 -0.45593999997E+02  0.45594000000E+02  0.51100000000E-03 0. -1.
    9900012    2    1    2    0    0  0.58075037667E+00  0.10076266714E+01  0.20274458812E+00  0.90007454416E+02  0.89999712013E+02 0.  0.
         12    1    1    2    0    0 -0.58075037667E+00 -0.10076266714E+01 -0.20274458812E+00  0.11805455844E+01  0.00000000000E+00 0. -1.
         11    1    3    3    0    0 -0.43686165247E+01 -0.28209617250E+01 -0.59940885059E+01  0.79354730591E+01  0.51100000000E-03 0. -1.
        -11    1    3    3    0    0 -0.35335438179E+02  0.16934632315E+02 -0.47476818466E+00  0.39186737144E+02  0.51100000000E-03 0.  1.
         12    1    3    3    0    0  0.40284805080E+02 -0.13106043918E+02  0.66716012787E+01  0.42885244212E+02  0.00000000000E+00 0. -1.
</event>
<event>
 7    1  0.3032584E-015  0.9000798E+02  0.7816164E-02  0.1186339E+00
        -11   -1    0    0    0    0  0.00000000000E+00  0.00000000000E+00  0.45593999997E+02  0.45594000000E+02  0.51100000000E-03 0.  1.
         11   -1    0    0    0    0 -0.00000000000E+00 -0.00000000000E+00 -0.45593999997E+02  0.45594000000E+02  0.51100000000E-03 0. -1.
    9900012    2    1    2    0    0  0.67751667909E+00  0.11075984410E+00  0.95976029362E+00  0.90007984570E+02  0.90000249166E+02 0.  0.
         12    1    1    2    0    0 -0.67751667909E+00 -0.11075984410E+00 -0.95976029362E+00  0.11800154299E+01  0.00000000000E+00 0. -1.
         11    1    3    3    0    0  0.62408598244E+01  0.57145685778E+01 -0.42946978049E+01  0.94894180472E+01  0.51100000000E-03 0. -1.
        -11    1    3    3    0    0  0.32037982567E+02  0.16827589483E+02 -0.14859929142E+01  0.36218893825E+02  0.51100000000E-03 0.  1.
         12    1    3    3    0    0 -0.37601325712E+02 -0.22431398217E+02  0.67404510127E+01  0.44299672697E+02  0.00000000000E+00 0. -1.
</event>
<event>
 7    1  0.3032584E-015  0.9000786E+02  0.7816164E-02  0.1186339E+00
        -11   -1    0    0    0    0  0.00000000000E+00  0.00000000000E+00  0.45593999997E+02  0.45594000000E+02  0.51100000000E-03 0.  1.
         11   -1    0    0    0    0 -0.00000000000E+00 -0.00000000000E+00 -0.45593999997E+02  0.45594000000E+02  0.51100000000E-03 0. -1.
    9900012    2    1    2    0    0  0.74787863764E+00 -0.86602429511E+00  0.28881804771E+00  0.90007857466E+02  0.90000120384E+02 0.  0.
         12    1    1    2    0    0 -0.74787863764E+00  0.86602429511E+00 -0.28881804771E+00  0.11801425342E+01  0.00000000000E+00 0. -1.
         11    1    3    3    0    0  0.12641695218E+02  0.26440568478E+02  0.21525123235E+02  0.36362715108E+02  0.51100000000E-03 0. -1.
        -11    1    3    3    0    0  0.10603072191E+01  0.82853775817E+01  0.27721351410E+01  0.88009355509E+01  0.51100000000E-03 0.  1.
        -12    1    3    3    0    0 -0.12954123800E+02 -0.35591970355E+02 -0.24008440328E+02  0.44844206807E+02  0.00000000000E+00 0.  1.
</event>
<event>
 7    1  0.3032584E-015  0.9000881E+02  0.7816164E-02  0.1186337E+00
        -11   -1    0    0    0    0  0.00000000000E+00  0.00000000000E+00  0.45593999997E+02  0.45594000000E+02  0.51100000000E-03 0.  1.
         11   -1    0    0    0    0 -0.00000000000E+00 -0.00000000000E+00 -0.45593999997E+02  0.45594000000E+02  0.51100000000E-03 0. -1.
    9900012    2    1    2    0    0  0.61083899948E+00 -0.75161856536E+00  0.67263254829E+00  0.90008809898E+02  0.90001085382E+02 0.  0.
         12    1    1    2    0    0 -0.61083899948E+00  0.75161856536E+00 -0.67263254829E+00  0.11791901018E+01  0.00000000000E+00 0. -1.
         11    1    3    3    0    0 -0.47340259617E+00 -0.20485371791E+02 -0.10973595590E+02  0.23244233002E+02  0.51100000000E-03 0. -1.
        -11    1    3    3    0    0  0.56853926529E+01 -0.17119115881E+02 -0.12962057937E+02  0.22212671257E+02  0.51100000000E-03 0.  1.
        -12    1    3    3    0    0 -0.46011510572E+01  0.36852869107E+02  0.24608286076E+02  0.44551905638E+02  0.00000000000E+00 0.  1.
</event>
<event>
 7    1  0.3032584E-015  0.9000769E+02  0.7816164E-02  0.1186339E+00
        -11   -1    0    0    0    0  0.00000000000E+00  0.00000000000E+00  0.45593999997E+02  0.45594000000E+02  0.51100000000E-03 0.  1.
         11   -1    0    0    0    0 -0.00000000000E+00 -0.00000000000E+00 -0.45593999997E+02  0.45594000000E+02  0.51100000000E-03 0. -1.
    9900012    2    1    2    0    0 -0.10528837597E+01 -0.51968686220E+00  0.12035858741E+00  0.90007692906E+02  0.89999953653E+02 0.  0.
         12    1    1    2    0    0  0.10528837597E+01  0.51968686220E+00 -0.12035858741E+00  0.11803070938E+01  0.00000000000E+00 0. -1.
         11    1    3    3    0    0  0.11831896707E+02  0.51878445612E+01 -0.36781895139E+02  0.38984808851E+02  0.51100000000E-03 0. -1.
        -11    1    3    3    0    0 -0.59155234467E+01 -0.12139980031E+02  0.61695849019E+00  0.13518623112E+02  0.51100000000E-03 0.  1.
        -12    1    3    3    0    0 -0.69692570196E+01  0.64324486078E+01  0.36285295236E+02  0.37504260943E+02  0.00000000000E+00 0.  1.
</event>
<event>
 7    1  0.3032584E-015  0.9000785E+02  0.7816164E-02  0.1186339E+00
        -11   -1    0    0    0    0  0.00000000000E+00  0.00000000000E+00  0.45593999997E+02  0.45594000000E+02  0.51100000000E-03 0.  1.
         11   -1    0    0    0    0 -0.00000000000E+00 -0.00000000000E+00 -0.45593999997E+02  0.45594000000E+02  0.51100000000E-03 0. -1.
    9900012    2    1    2    0    0  0.86728151448E+00 -0.78565402830E+00 -0.15269894335E+00  0.90007853210E+02  0.90000116073E+02 0.  0.
         12    1    1    2    0    0 -0.86728151448E+00  0.78565402830E+00  0.15269894335E+00  0.11801467895E+01  0.00000000000E+00 0. -1.
         11    1    3    3    0    0 -0.36991152366E+01 -0.35088785849E+01  0.10104646956E+02  0.11318108182E+02  0.51100000000E-03 0. -1.
        -11    1    3    3    0    0  0.35591707975E+02 -0.14537569131E+02  0.72187719083E+01  0.39118042652E+02  0.51100000000E-03 0.  1.
         12    1    3    3    0    0 -0.31025311224E+02  0.17260793688E+02 -0.17476117808E+02  0.39571702376E+02  0.00000000000E+00 0. -1.
</event>
<event>
 7    1  0.3032584E-015  0.9000780E+02  0.7816164E-02  0.1186339E+00
        -11   -1    0    0    0    0  0.00000000000E+00  0.00000000000E+00  0.45593999997E+02  0.45594000000E+02  0.51100000000E-03 0.  1.
         11   -1    0    0    0    0 -0.00000000000E+00 -0.00000000000E+00 -0.45593999997E+02  0.45594000000E+02  0.51100000000E-03 0. -1.
    9900012    2    1    2    0    0  0.10583098907E+01  0.10709259701E+00 -0.51124658447E+00  0.90007804372E+02  0.90000066590E+02 0.  0.
         12    1    1    2    0    0 -0.10583098907E+01 -0.10709259701E+00  0.51124658447E+00  0.11801956275E+01  0.00000000000E+00 0. -1.
         11    1    3    3    0    0  0.27128865245E+02 -0.16619064611E+02 -0.21072027291E+02  0.38160175214E+02  0.51100000000E-03 0. -1.
        -11    1    3    3    0    0  0.87904087491E+01  0.36313592526E+01  0.44200118105E+00  0.95212090253E+01  0.51100000000E-03 0.  1.
        -12    1    3    3    0    0 -0.34860964103E+02  0.13094797955E+02  0.20118779525E+02  0.42326420133E+02  0.00000000000E+00 0.  1.
</event>
<event>
 7    1  0.4397165E-015  0.9000784E+02  0.7816164E-02  0.1186339E+00
        -11   -1    0    0    0    0  0.00000000000E+00  0.00000000000E+00  0.45593999997E+02  0.45594000000E+02  0.51100000000E-03 0. -1.
         11   -1    0    0    0    0 -0.00000000000E+00 -0.00000000000E+00 -0.45593999997E+02  0.45594000000E+02  0.51100000000E-03 0.  1.
    9900012    2    1    2    0    0  0.10811201297E+00 -0.14516989010E+00 -0.11661990457E+01  0.90007837842E+02  0.90000100502E+02 0.  0.
         12    1    1    2    0    0 -0.10811201297E+00  0.14516989010E+00  0.11661990457E+01  0.11801621578E+01  0.00000000000E+00 0. -1.
         11    1    3    3    0    0  0.13254214114E+02  0.87422384853E+01  0.32514242556E+02  0.36183931444E+02  0.51100000000E-03 0. -1.
        -11    1    3    3    0    0 -0.52734452192E+01  0.26229640371E+00  0.84690624616E+01  0.99801324201E+01  0.51100000000E-03 0.  1.
        -12    1    3    3    0    0 -0.78726568815E+01 -0.91497047791E+01 -0.42149504063E+02  0.43843773978E+02  0.00000000000E+00 0.  1.
</event>
<event>
 7    1  0.3032584E-015  0.9000778E+02  0.7816164E-02  0.1186339E+00
        -11   -1    0    0    0    0  0.00000000000E+00  0.00000000000E+00  0.45593999997E+02  0.45594000000E+02  0.51100000000E-03 0.  1.
         11   -1    0    0    0    0 -0.00000000000E+00 -0.00000000000E+00 -0.45593999997E+02  0.45594000000E+02  0.51100000000E-03 0. -1.
    9900012    2    1    2    0    0  0.90772644201E+00 -0.12163993017E+00  0.74441510593E+00  0.90007780776E+02  0.90000042682E+02 0.  0.
         12    1    1    2    0    0 -0.90772644201E+00  0.12163993017E+00 -0.74441510593E+00  0.11802192237E+01  0.00000000000E+00 0. -1.
         11    1    3    3    0    0  0.24289002689E+02  0.11792290886E+02 -0.22888452067E+02  0.35396257066E+02  0.51100000000E-03 0. -1.
        -11    1    3    3    0    0  0.43956108937E+01  0.46081711057E+00 -0.89877277034E+01  0.10015637627E+02  0.51100000000E-03 0.  1.
        -12    1    3    3    0    0 -0.27776887141E+02 -0.12374747927E+02  0.32620594876E+02  0.44595886084E+02  0.00000000000E+00 0.  1.
</event>
<event>
 7    1  0.3032584E-015  0.9000776E+02  0.7816164E-02  0.1186339E+00
        -11   -1    0    0    0    0  0.00000000000E+00  0.00000000000E+00  0.45593999997E+02  0.45594000000E+02  0.51100000000E-03 0.  1.
         11   -1    0    0    0    0 -0.00000000000E+00 -0.00000000000E+00 -0.45593999997E+02  0.45594000000E+02  0.51100000000E-03 0. -1.
    9900012    2    1    2    0    0  0.29174750072E+00  0.10535637872E+01  0.44479759929E+00  0.90007763514E+02  0.90000025193E+02 0.  0.
         12    1    1    2    0    0 -0.29174750072E+00 -0.10535637872E+01 -0.44479759929E+00  0.11802364857E+01  0.00000000000E+00 0. -1.
         11    1    3    3    0    0  0.10376343630E+02  0.17993039332E+01  0.38653963082E+01  0.11218167883E+02  0.51100000000E-03 0. -1.
        -11    1    3    3    0    0 -0.19609277711E+02  0.31747356746E+02  0.15030379575E+02  0.40228481740E+02  0.51100000000E-03 0.  1.
         12    1    3    3    0    0  0.95246815816E+01 -0.32493096892E+02 -0.18450978284E+02  0.38561113891E+02  0.00000000000E+00 0. -1.
</event>
<event>
 7    1  0.3032584E-015  0.9000784E+02  0.7816164E-02  0.1186339E+00
        -11   -1    0    0    0    0  0.00000000000E+00  0.00000000000E+00  0.45593999997E+02  0.45594000000E+02  0.51100000000E-03 0.  1.
         11   -1    0    0    0    0 -0.00000000000E+00 -0.00000000000E+00 -0.45593999997E+02  0.45594000000E+02  0.51100000000E-03 0. -1.
    9900012    2    1    2    0    0  0.79829775237E+00 -0.55370054793E+00 -0.67000703090E+00  0.90007841951E+02  0.90000104665E+02 0.  0.
         12    1    1    2    0    0 -0.79829775237E+00  0.55370054793E+00  0.67000703090E+00  0.11801580486E+01  0.00000000000E+00 0. -1.
         11    1    3    3    0    0  0.50582783853E+01  0.11427200422E+02 -0.10173833978E+02  0.16114403116E+02  0.51100000000E-03 0. -1.
        -11    1    3    3    0    0  0.33647043088E+02 -0.45515234509E+01  0.95287140036E+01  0.35265227422E+02  0.51100000000E-03 0.  1.
        -12    1    3    3    0    0 -0.37907023721E+02 -0.74293775192E+01 -0.24887056560E-01  0.38628211414E+02  0.00000000000E+00 0.  1.
</event>
<event>
 7    1  0.3032584E-015  0.9000760E+02  0.7816164E-02  0.1186339E+00
        -11   -1    0    0    0    0  0.00000000000E+00  0.00000000000E+00  0.45593999997E+02  0.45594000000E+02  0.51100000000E-03 0.  1.
         11   -1    0    0    0    0 -0.00000000000E+00 -0.00000000000E+00 -0.45593999997E+02  0.45594000000E+02  0.51100000000E-03 0. -1.
    9900012    2    1    2    0    0 -0.27136998705E+00 -0.11301095500E+01 -0.20626707604E+00  0.90007603723E+02  0.89999863292E+02 0.  0.
         12    1    1    2    0    0  0.27136998705E+00  0.11301095500E+01  0.20626707604E+00  0.11803962773E+01  0.00000000000E+00 0. -1.
         11    1    3    3    0    0 -0.31721098766E+01 -0.29927842707E+01  0.87035102201E+01  0.97349950782E+01  0.51100000000E-03 0. -1.
        -11    1    3    3    0    0 -0.35492087475E+02 -0.10436565054E+02  0.56205237481E+01  0.37419252410E+02  0.51100000000E-03 0.  1.
         12    1    3    3    0    0  0.38392827365E+02  0.12299239775E+02 -0.14530301044E+02  0.42853356234E+02  0.00000000000E+00 0. -1.
</event>
<event>
 7    1  0.3032584E-015  0.9000754E+02  0.7816164E-02  0.1186339E+00
        -11   -1    0    0    0    0  0.00000000000E+00  0.00000000000E+00  0.45593999997E+02  0.45594000000E+02  0.51100000000E-03 0.  1.
         11   -1    0    0    0    0 -0.00000000000E+00 -0.00000000000E+00 -0.45593999997E+02  0.45594000000E+02  0.51100000000E-03 0. -1.
    9900012    2    1    2    0    0 -0.82971337233E+00  0.29300748295E+00  0.78689217554E+00  0.90007543749E+02  0.89999802526E+02 0.  0.
         12    1    1    2    0    0  0.82971337233E+00 -0.29300748295E+00 -0.78689217554E+00  0.11804562513E+01  0.00000000000E+00 0. -1.
         11    1    3    3    0    0  0.40096248585E+01  0.92226974035E+00 -0.69566761595E+01  0.80822655505E+01  0.51100000000E-03 0. -1.
        -11    1    3    3    0    0  0.30020463293E+02 -0.85499329854E+01  0.27043417875E+02  0.41299830763E+02  0.51100000000E-03 0.  1.
         12    1    3    3    0    0 -0.34859801524E+02  0.79206707280E+01 -0.19299849540E+02  0.40625447436E+02  0.00000000000E+00 0. -1.
</event>
<event>
 7    1  0.3032584E-015  0.9000766E+02  0.7816164E-02  0.1186339E+00
        -11   -1    0    0    0    0  0.00000000000E+00  0.00000000000E+00  0.45593999997E+02  0.45594000000E+02  0.51100000000E-03 0.  1.
         11   -1    0    0    0    0 -0.00000000000E+00 -0.00000000000E+00 -0.45593999997E+02  0.45594000000E+02  0.51100000000E-03 0. -1.
    9900012    2    1    2    0    0  0.67128704532E+00 -0.92378761811E+00 -0.29863631508E+00  0.90007663815E+02  0.89999924177E+02 0.  0.
         12    1    1    2    0    0 -0.67128704532E+00  0.92378761811E+00  0.29863631508E+00  0.11803361849E+01  0.00000000000E+00 0. -1.
         11    1    3    3    0    0 -0.94041480325E+01  0.14802351618E+00 -0.44753110538E+00  0.94159543080E+01  0.51100000000E-03 0. -1.
        -11    1    3    3    0    0  0.19052403880E+02  0.21626634161E+02  0.30286773348E+02  0.41809018630E+02  0.51100000000E-03 0.  1.
         12    1    3    3    0    0 -0.89769688020E+01 -0.22698445295E+02 -0.30137878558E+02  0.38782690877E+02  0.00000000000E+00 0. -1.
</event>
<event>
 7    1  0.3032584E-015  0.9000771E+02  0.7816164E-02  0.1186339E+00
        -11   -1    0    0    0    0  0.00000000000E+00  0.00000000000E+00  0.45593999997E+02  0.45594000000E+02  0.51100000000E-03 0. -1.
         11   -1    0    0    0    0 -0.00000000000E+00 -0.00000000000E+00 -0.45593999997E+02  0.45594000000E+02  0.51100000000E-03 0.  1.
    9900012    2    1    2    0    0 -0.41945151965E+00 -0.48474166361E+00 -0.99104378180E+00  0.90007711122E+02  0.89999972109E+02 0.  0.
         12    1    1    2    0    0  0.41945151965E+00  0.48474166361E+00  0.99104378180E+00  0.11802888779E+01  0.00000000000E+00 0. -1.
         11    1    3    3    0    0  0.29671466122E+02  0.20622570916E+02 -0.18349070672E+02  0.40526222718E+02  0.51100000000E-03 0. -1.
        -11    1    3    3    0    0  0.12257757089E+01 -0.67979080211E+01 -0.49120573423E+01  0.84759888595E+01  0.51100000000E-03 0.  1.
        -12    1    3    3    0    0 -0.31316693350E+02 -0.14309404559E+02  0.22270084232E+02  0.41005499545E+02  0.00000000000E+00 0.  1.
</event>
<event>
 7    1  0.3032584E-015  0.9000773E+02  0.7816164E-02  0.1186339E+00
        -11   -1    0    0    0    0  0.00000000000E+00  0.00000000000E+00  0.45593999997E+02  0.45594000000E+02  0.51100000000E-03 0. -1.
         11   -1    0    0    0    0 -0.00000000000E+00 -0.00000000000E+00 -0.45593999997E+02  0.45594000000E+02  0.51100000000E-03 0.  1.
    9900012    2    1    2    0    0 -0.92826341405E+00  0.32128767184E+00 -0.65431620947E+00  0.90007733744E+02  0.89999995029E+02 0.  0.
         12    1    1    2    0    0  0.92826341405E+00 -0.32128767184E+00  0.65431620947E+00  0.11802662564E+01  0.00000000000E+00 0. -1.
         11    1    3    3    0    0 -0.58260364980E+01  0.12676301174E+02 -0.34285168829E+00  0.13955244902E+02  0.51100000000E-03 0. -1.
        -11    1    3    3    0    0  0.17936641915E+02 -0.34146683282E+02 -0.20436220484E+02  0.43650409051E+02  0.51100000000E-03 0.  1.
         12    1    3    3    0    0 -0.13038868831E+02  0.21791669780E+02  0.20124755963E+02  0.32402079791E+02  0.00000000000E+00 0. -1.
</event>
<event>
 7    1  0.3032584E-015  0.9000777E+02  0.7816164E-02  0.1186339E+00
        -11   -1    0    0    0    0  0.00000000000E+00  0.00000000000E+00  0.45593999997E+02  0.45594000000E+02  0.51100000000E-03 0. -1.
         11   -1    0    0    0    0 -0.00000000000E+00 -0.00000000000E+00 -0.45593999997E+02  0.45594000000E+02  0.51100000000E-03 0.  1.
    9900012    2    1    2    0    0  0.18242275079E+00 -0.17039670803E+00 -0.11535310664E+01  0.90007768235E+02  0.90000029976E+02 0.  0.
         12    1    1    2    0    0 -0.18242275079E+00  0.17039670803E+00  0.11535310664E+01  0.11802317651E+01  0.00000000000E+00 0. -1.
         11    1    3    3    0    0 -0.24883163033E+02  0.19147440575E+01  0.32409632969E+02  0.40905040726E+02  0.51100000000E-03 0. -1.
        -11    1    3    3    0    0  0.52107925988E+00  0.84943809670E+01 -0.45322780759E+01  0.96419695304E+01  0.51100000000E-03 0.  1.
        -12    1    3    3    0    0  0.24544506524E+02 -0.10579521733E+02 -0.29030885960E+02  0.39460757978E+02  0.00000000000E+00 0.  1.
</event>
<event>
 7    1  0.3032584E-015  0.9000782E+02  0.7816164E-02  0.1186339E+00
        -11   -1    0    0    0    0  0.00000000000E+00  0.00000000000E+00  0.45593999997E+02  0.45594000000E+02  0.51100000000E-03 0.  1.
         11   -1    0    0    0    0 -0.00000000000E+00 -0.00000000000E+00 -0.45593999997E+02  0.45594000000E+02  0.51100000000E-03 0. -1.
    9900012    2    1    2    0    0 -0.45197632523E+00 -0.34318472329E+00  0.10347762314E+01  0.90007821962E+02  0.90000084412E+02 0.  0.
         12    1    1    2    0    0  0.45197632523E+00  0.34318472329E+00 -0.10347762314E+01  0.11801780383E+01  0.00000000000E+00 0. -1.
         11    1    3    3    0    0  0.82172481243E+01 -0.39656317799E+01 -0.83596536713E+01  0.12374700478E+02  0.51100000000E-03 0. -1.
        -11    1    3    3    0    0  0.32444864362E+02 -0.76137157672E+01  0.10668653964E+02  0.34992257271E+02  0.51100000000E-03 0.  1.
         12    1    3    3    0    0 -0.41114088812E+02  0.11236162824E+02 -0.12742240618E+01  0.42640864213E+02  0.00000000000E+00 0. -1.
</event>
<event>
 7    1  0.3032584E-015  0.9000772E+02  0.7816164E-02  0.1186339E+00
        -11   -1    0    0    0    0  0.00000000000E+00  0.00000000000E+00  0.45593999997E+02  0.45594000000E+02  0.51100000000E-03 0. -1.
         11   -1    0    0    0    0 -0.00000000000E+00 -0.00000000000E+00 -0.45593999997E+02  0.45594000000E+02  0.51100000000E-03 0.  1.
    9900012    2    1    2    0    0 -0.10914854094E+01 -0.11438340523E+00 -0.43432664054E+00  0.90007718850E+02  0.89999979939E+02 0.  0.
         12    1    1    2    0    0  0.10914854094E+01  0.11438340523E+00  0.43432664054E+00  0.11802811500E+01  0.00000000000E+00 0. -1.
         11    1    3    3    0    0  0.96629933147E+01 -0.22741605470E+01 -0.23640911047E+01  0.10204615280E+02  0.51100000000E-03 0. -1.
        -11    1    3    3    0    0 -0.10853539091E+02  0.24568149583E+02 -0.30337100024E+02  0.40518303554E+02  0.51100000000E-03 0.  1.
         12    1    3    3    0    0  0.99060366654E-01 -0.22408372442E+02  0.32266864488E+02  0.39284800016E+02  0.00000000000E+00 0. -1.
</event>
<event>
 7    1  0.3032584E-015  0.9000771E+02  0.7816164E-02  0.1186339E+00
        -11   -1    0    0    0    0  0.00000000000E+00  0.00000000000E+00  0.45593999997E+02  0.45594000000E+02  0.51100000000E-03 0.  1.
         11   -1    0    0    0    0 -0.00000000000E+00 -0.00000000000E+00 -0.45593999997E+02  0.45594000000E+02  0.51100000000E-03 0. -1.
    9900012    2    1    2    0    0 -0.64628217055E+00  0.30206419614E+00 -0.94029830958E+00  0.90007710064E+02  0.89999971037E+02 0.  0.
         12    1    1    2    0    0  0.64628217055E+00 -0.30206419614E+00  0.94029830958E+00  0.11802899362E+01  0.00000000000E+00 0. -1.
         11    1    3    3    0    0 -0.25138485154E+02 -0.25528835268E+02 -0.26202293490E+02  0.44387217196E+02  0.51100000000E-03 0. -1.
        -11    1    3    3    0    0  0.94554891954E+01  0.60414654266E+01  0.16552852842E+01  0.11342202170E+02  0.51100000000E-03 0.  1.
        -12    1    3    3    0    0  0.15036713788E+02  0.19789434038E+02  0.23606709896E+02  0.34278290698E+02  0.00000000000E+00 0.  1.
</event>
<event>
 7    1  0.3032584E-015  0.9000776E+02  0.7816164E-02  0.1186339E+00
        -11   -1    0    0    0    0  0.00000000000E+00  0.00000000000E+00  0.45593999997E+02  0.45594000000E+02  0.51100000000E-03 0. -1.
         11   -1    0    0    0    0 -0.00000000000E+00 -0.00000000000E+00 -0.45593999997E+02  0.45594000000E+02  0.51100000000E-03 0.  1.
    9900012    2    1    2    0    0 -0.54733631155E+00  0.10391518587E+01  0.11645269047E+00  0.90007756444E+02  0.90000018029E+02 0.  0.
         12    1    1    2    0    0  0.54733631155E+00 -0.10391518587E+01 -0.11645269047E+00  0.11802435564E+01  0.00000000000E+00 0. -1.
         11    1    3    3    0    0  0.76438064711E+01  0.26877204215E+01  0.85452032395E+01  0.11775912580E+02  0.51100000000E-03 0. -1.
        -11    1    3    3    0    0  0.70832876507E+01 -0.13579563316E+02 -0.39075878219E+02  0.41970248542E+02  0.51100000000E-03 0.  1.
         12    1    3    3    0    0 -0.15274430433E+02  0.11930994753E+02  0.30647127670E+02  0.36261595322E+02  0.00000000000E+00 0. -1.
</event>
<event>
 7    1  0.3032584E-015  0.9000815E+02  0.7816164E-02  0.1186338E+00
        -11   -1    0    0    0    0  0.00000000000E+00  0.00000000000E+00  0.45593999997E+02  0.45594000000E+02  0.51100000000E-03 0.  1.
         11   -1    0    0    0    0 -0.00000000000E+00 -0.00000000000E+00 -0.45593999997E+02  0.45594000000E+02  0.51100000000E-03 0. -1.
    9900012    2    1    2    0    0  0.22033862645E+00 -0.49810330052E+00  0.10466086830E+01  0.90008150118E+02  0.90000416899E+02 0.  0.
         12    1    1    2    0    0 -0.22033862645E+00  0.49810330052E+00 -0.10466086830E+01  0.11798498818E+01  0.00000000000E+00 0. -1.
         11    1    3    3    0    0  0.41434144569E+02 -0.11030163754E+02  0.72081936349E+01  0.43478855831E+02  0.51100000000E-03 0. -1.
        -11    1    3    3    0    0 -0.35600783308E+01  0.74264045937E+01 -0.23006510615E+01  0.85509437186E+01  0.51100000000E-03 0.  1.
        -12    1    3    3    0    0 -0.37653727612E+02  0.31056558595E+01 -0.38609338904E+01  0.37978350569E+02  0.00000000000E+00 0.  1.
</event>
<event>
 7    1  0.3032584E-015  0.9000768E+02  0.7816164E-02  0.1186339E+00
        -11   -1    0    0    0    0  0.00000000000E+00  0.00000000000E+00  0.45593999997E+02  0.45594000000E+02  0.51100000000E-03 0.  1.
         11   -1    0    0    0    0 -0.00000000000E+00 -0.00000000000E+00 -0.45593999997E+02  0.45594000000E+02  0.51100000000E-03 0. -1.
    9900012    2    1    2    0    0  0.16373051763E-02 -0.19080789337E+00  0.11647979623E+01  0.90007676050E+02  0.89999936574E+02 0.  0.
         12    1    1    2    0    0 -0.16373051763E-02  0.19080789337E+00 -0.11647979623E+01  0.11803239496E+01  0.00000000000E+00 0. -1.
         11    1    3    3    0    0  0.60206127443E+01 -0.89625874622E+01  0.64003979142E+00  0.10815979060E+02  0.51100000000E-03 0. -1.
        -11    1    3    3    0    0  0.18715508456E+02 -0.18314256511E+02  0.24100554148E+02  0.35588185663E+02  0.51100000000E-03 0.  1.
         12    1    3    3    0    0 -0.24734483895E+02  0.27086036080E+02 -0.23575795977E+02  0.43603511327E+02  0.00000000000E+00 0. -1.
</event>
<event>
 7    1  0.3032584E-015  0.9000778E+02  0.7816164E-02  0.1186339E+00
        -11   -1    0    0    0    0  0.00000000000E+00  0.00000000000E+00  0.45593999997E+02  0.45594000000E+02  0.51100000000E-03 0. -1.
         11   -1    0    0    0    0 -0.00000000000E+00 -0.00000000000E+00 -0.45593999997E+02  0.45594000000E+02  0.51100000000E-03 0.  1.
    9900012    2    1    2    0    0 -0.11676463463E+00 -0.10939839983E+01 -0.42717525292E+00  0.90007782365E+02  0.90000044293E+02 0.  0.
         12    1    1    2    0    0  0.11676463463E+00  0.10939839983E+01  0.42717525292E+00  0.11802176346E+01  0.00000000000E+00 0. -1.
         11    1    3    3    0    0 -0.45050647446E+01  0.30076664486E+02 -0.19313614744E+02  0.36026616129E+02  0.51100000000E-03 0. -1.
        -11    1    3    3    0    0 -0.33001212336E+01  0.88421012038E+01  0.10249793158E+01  0.94933733053E+01  0.51100000000E-03 0.  1.
        -12    1    3    3    0    0  0.76884213436E+01 -0.40012749688E+02  0.17861460175E+02  0.44487792932E+02  0.00000000000E+00 0.  1.
</event>
<event>
 7    1  0.3032584E-015  0.9000773E+02  0.7816164E-02  0.1186339E+00
        -11   -1    0    0    0    0  0.00000000000E+00  0.00000000000E+00  0.45593999997E+02  0.45594000000E+02  0.51100000000E-03 0.  1.
         11   -1    0    0    0    0 -0.00000000000E+00 -0.00000000000E+00 -0.45593999997E+02  0.45594000000E+02  0.51100000000E-03 0. -1.
    9900012    2    1    2    0    0  0.32276994176E+00 -0.10651157099E+01 -0.39292231674E+00  0.90007728905E+02  0.89999990127E+02 0.  0.
         12    1    1    2    0    0 -0.32276994176E+00  0.10651157099E+01  0.39292231674E+00  0.11802710950E+01  0.00000000000E+00 0. -1.
         11    1    3    3    0    0 -0.17513570845E+02 -0.22526710282E+02 -0.27474216948E+02  0.39610736386E+02  0.51100000000E-03 0. -1.
        -11    1    3    3    0    0  0.30350845840E+01 -0.69799986769E+01 -0.11242524250E+01  0.76938978248E+01  0.51100000000E-03 0.  1.
        -12    1    3    3    0    0  0.14801256203E+02  0.28441593249E+02  0.28205547056E+02  0.42703094694E+02  0.00000000000E+00 0.  1.
</event>
<event>
 7    1  0.3032584E-015  0.9000772E+02  0.7816164E-02  0.1186339E+00
        -11   -1    0    0    0    0  0.00000000000E+00  0.00000000000E+00  0.45593999997E+02  0.45594000000E+02  0.51100000000E-03 0.  1.
         11   -1    0    0    0    0 -0.00000000000E+00 -0.00000000000E+00 -0.45593999997E+02  0.45594000000E+02  0.51100000000E-03 0. -1.
    9900012    2    1    2    0    0  0.16746433200E+00  0.94239958347E+00  0.69058049797E+00  0.90007719228E+02  0.89999980321E+02 0.  0.
         12    1    1    2    0    0 -0.16746433200E+00 -0.94239958347E+00 -0.69058049797E+00  0.11802807724E+01  0.00000000000E+00 0. -1.
         11    1    3    3    0    0  0.23117382128E+01 -0.18115362135E+01 -0.13839120866E+02  0.14147334153E+02  0.51100000000E-03 0. -1.
        -11    1    3    3    0    0  0.99357581700E+01 -0.21910944251E+02  0.34388354817E+02  0.41968651583E+02  0.51100000000E-03 0.  1.
         12    1    3    3    0    0 -0.12080032051E+02  0.24664880048E+02 -0.19858653453E+02  0.33891733492E+02  0.00000000000E+00 0. -1.
</event>
<event>
 7    1  0.3032584E-015  0.9000749E+02  0.7816164E-02  0.1186340E+00
        -11   -1    0    0    0    0  0.00000000000E+00  0.00000000000E+00  0.45593999997E+02  0.45594000000E+02  0.51100000000E-03 0. -1.
         11   -1    0    0    0    0 -0.00000000000E+00 -0.00000000000E+00 -0.45593999997E+02  0.45594000000E+02  0.51100000000E-03 0.  1.
    9900012    2    1    2    0    0  0.62959940232E+00 -0.83084347794E+00 -0.55398804882E+00  0.90007492037E+02  0.89999750132E+02 0.  0.
         12    1    1    2    0    0 -0.62959940232E+00  0.83084347794E+00  0.55398804882E+00  0.11805079629E+01  0.00000000000E+00 0. -1.
         11    1    3    3    0    0  0.17313976149E+02 -0.68197055493E+01  0.15734626497E+02  0.24369255736E+02  0.51100000000E-03 0. -1.
        -11    1    3    3    0    0  0.16800387223E+02 -0.15311132554E+02 -0.12050335484E+02  0.25727307991E+02  0.51100000000E-03 0.  1.
         12    1    3    3    0    0 -0.33484763970E+02  0.21299994625E+02 -0.42382790615E+01  0.39910928310E+02  0.00000000000E+00 0. -1.
</event>
<event>
 7    1  0.3032584E-015  0.9000772E+02  0.7816164E-02  0.1186339E+00
        -11   -1    0    0    0    0  0.00000000000E+00  0.00000000000E+00  0.45593999997E+02  0.45594000000E+02  0.51100000000E-03 0. -1.
         11   -1    0    0    0    0 -0.00000000000E+00 -0.00000000000E+00 -0.45593999997E+02  0.45594000000E+02  0.51100000000E-03 0.  1.
    9900012    2    1    2    0    0  0.11597411726E+01 -0.19805907579E+00 -0.94007732951E-01  0.90007718492E+02  0.89999979576E+02 0.  0.
         12    1    1    2    0    0 -0.11597411726E+01  0.19805907579E+00  0.94007732951E-01  0.11802815083E+01  0.00000000000E+00 0. -1.
         11    1    3    3    0    0  0.17897221375E+02  0.17402576732E+02  0.31480331146E+00  0.24965161951E+02  0.51100000000E-03 0. -1.
        -11    1    3    3    0    0  0.67871739347E+01  0.16521238319E+02  0.12306923650E+02  0.21690491364E+02  0.51100000000E-03 0.  1.
        -12    1    3    3    0    0 -0.23524654137E+02 -0.34121874127E+02 -0.12715734695E+02  0.43352065176E+02  0.00000000000E+00 0.  1.
</event>
<event>
 7    1  0.3032584E-015  0.9000766E+02  0.7816164E-02  0.1186339E+00
        -11   -1    0    0    0    0  0.00000000000E+00  0.00000000000E+00  0.45593999997E+02  0.45594000000E+02  0.51100000000E-03 0. -1.
         11   -1    0    0    0    0 -0.00000000000E+00 -0.00000000000E+00 -0.45593999997E+02  0.45594000000E+02  0.51100000000E-03 0.  1.
    9900012    2    1    2    0    0  0.80711452309E+00  0.60920604918E+00 -0.60879251076E+00  0.90007663529E+02  0.89999923887E+02 0.  0.
         12    1    1    2    0    0 -0.80711452309E+00 -0.60920604918E+00  0.60879251076E+00  0.11803364711E+01  0.00000000000E+00 0. -1.
         11    1    3    3    0    0 -0.81463504129E+01 -0.16069431007E+01  0.14023191684E+02  0.16297091656E+02  0.51100000000E-03 0. -1.
        -11    1    3    3    0    0 -0.24458065379E+01 -0.53897412305E+01  0.28161344787E+02  0.28776598490E+02  0.51100000000E-03 0.  1.
        -12    1    3    3    0    0  0.11399271474E+02  0.76058903804E+01 -0.42793328982E+02  0.44933973383E+02  0.00000000000E+00 0.  1.
</event>
<event>
 7    1  0.3032584E-015  0.9000790E+02  0.7816164E-02  0.1186339E+00
        -11   -1    0    0    0    0  0.00000000000E+00  0.00000000000E+00  0.45593999997E+02  0.45594000000E+02  0.51100000000E-03 0. -1.
         11   -1    0    0    0    0 -0.00000000000E+00 -0.00000000000E+00 -0.45593999997E+02  0.45594000000E+02  0.51100000000E-03 0.  1.
    9900012    2    1    2    0    0  0.27920938151E+00  0.94136404142E+00  0.65460939937E+00  0.90007899325E+02  0.90000162796E+02 0.  0.
         12    1    1    2    0    0 -0.27920938151E+00 -0.94136404142E+00 -0.65460939937E+00  0.11801006749E+01  0.00000000000E+00 0. -1.
         11    1    3    3    0    0 -0.23851853614E+01 -0.82774045412E+01 -0.41227635850E+00  0.86240655843E+01  0.51100000000E-03 0. -1.
        -11    1    3    3    0    0 -0.13487843403E+02 -0.31842384589E+02 -0.97971382222E+01  0.35942221600E+02  0.51100000000E-03 0.  1.
         12    1    3    3    0    0  0.16152238146E+02  0.41061153171E+02  0.10864023980E+02  0.45441612140E+02  0.00000000000E+00 0. -1.
</event>
<event>
 8    1  0.3032584E-015  0.9000781E+02  0.7816164E-02  0.1186339E+00
        -11   -1    0    0    0    0  0.00000000000E+00  0.00000000000E+00  0.45593999997E+02  0.45594000000E+02  0.51100000000E-03 0. -1.
         11   -1    0    0    0    0 -0.00000000000E+00 -0.00000000000E+00 -0.45593999997E+02  0.45594000000E+02  0.51100000000E-03 0.  1.
    9900012    2    1    2    0    0  0.46817587832E+00  0.10256607765E+01 -0.34883331246E+00  0.90007807913E+02  0.90000070178E+02 0.  0.
         23    2    3    3    0    0 -0.16248022698E+02  0.21339719310E+02  0.11009744504E+02  0.61352798597E+02  0.54070043090E+02 0.  0.
         12    1    1    2    0    0 -0.46817587832E+00 -0.10256607765E+01  0.34883331246E+00  0.11801920867E+01  0.00000000000E+00 0. -1.
         11    1    4    4    0    0 -0.10302457575E+02  0.31350143248E+02 -0.12364008848E+02  0.35239762042E+02  0.51100000000E-03 0. -1.
        -11    1    4    4    0    0 -0.59455651228E+01 -0.10010423938E+02  0.23373753352E+02  0.26113036554E+02  0.51100000000E-03 0.  1.
        -12    1    3    3    0    0  0.16716198576E+02 -0.20314058533E+02 -0.11358577817E+02  0.28655009317E+02  0.00000000000E+00 0.  1.
</event>
<event>
 7    1  0.3458251E-015  0.9000769E+02  0.7816164E-02  0.1186339E+00
        -11   -1    0    0    0    0  0.00000000000E+00  0.00000000000E+00  0.45593999997E+02  0.45594000000E+02  0.51100000000E-03 0.  1.
         11   -1    0    0    0    0 -0.00000000000E+00 -0.00000000000E+00 -0.45593999997E+02  0.45594000000E+02  0.51100000000E-03 0. -1.
    9900012    2    1    2    0    0 -0.46865040112E+00  0.25523921105E+00  0.10527876616E+01  0.90007685587E+02  0.89999946237E+02 0.  0.
         12    1    1    2    0    0  0.46865040112E+00 -0.25523921105E+00 -0.10527876616E+01  0.11803144131E+01  0.00000000000E+00 0. -1.
         11    1    3    3    0    0 -0.38060739629E+01 -0.67829012906E+01 -0.35281809822E+02  0.36128936512E+02  0.51100000000E-03 0. -1.
        -11    1    3    3    0    0  0.40729413957E+01  0.42924671106E+01 -0.77231527849E+01  0.97293995040E+01  0.51100000000E-03 0.  1.
        -12    1    3    3    0    0 -0.73551783391E+00  0.27456733911E+01  0.44057750268E+02  0.44149349571E+02  0.00000000000E+00 0.  1.
</event>
<event>
 7    1  0.3032584E-015  0.9000777E+02  0.7816164E-02  0.1186339E+00
        -11   -1    0    0    0    0  0.00000000000E+00  0.00000000000E+00  0.45593999997E+02  0.45594000000E+02  0.51100000000E-03 0.  1.
         11   -1    0    0    0    0 -0.00000000000E+00 -0.00000000000E+00 -0.45593999997E+02  0.45594000000E+02  0.51100000000E-03 0. -1.
    9900012    2    1    2    0    0  0.35792064127E+00  0.10341380298E+01  0.44202717565E+00  0.90007772618E+02  0.90000034416E+02 0.  0.
         12    1    1    2    0    0 -0.35792064127E+00 -0.10341380298E+01 -0.44202717565E+00  0.11802273824E+01  0.00000000000E+00 0. -1.
         11    1    3    3    0    0 -0.23371898187E+02 -0.27636064823E+02  0.20651264109E+01  0.36252757842E+02  0.51100000000E-03 0. -1.
        -11    1    3    3    0    0 -0.65751343028E+01 -0.12207752567E+01  0.76807405588E+01  0.10184127804E+02  0.51100000000E-03 0.  1.
        -12    1    3    3    0    0  0.30304953132E+02  0.29890978109E+02 -0.93038397941E+01  0.43570886972E+02  0.00000000000E+00 0.  1.
</event>
<event>
 7    1  0.3032584E-015  0.9000773E+02  0.7816164E-02  0.1186339E+00
        -11   -1    0    0    0    0  0.00000000000E+00  0.00000000000E+00  0.45593999997E+02  0.45594000000E+02  0.51100000000E-03 0.  1.
         11   -1    0    0    0    0 -0.00000000000E+00 -0.00000000000E+00 -0.45593999997E+02  0.45594000000E+02  0.51100000000E-03 0. -1.
    9900012    2    1    2    0    0  0.10020121170E+00 -0.10737999959E+01 -0.47952714432E+00  0.90007731812E+02  0.89999993072E+02 0.  0.
         12    1    1    2    0    0 -0.10020121170E+00  0.10737999959E+01  0.47952714432E+00  0.11802681883E+01  0.00000000000E+00 0. -1.
         11    1    3    3    0    0  0.46796992350E+01  0.74100934903E+01 -0.37123993749E+01  0.95179293885E+01  0.51100000000E-03 0. -1.
        -11    1    3    3    0    0 -0.21189507995E+02  0.18148294360E+02  0.28733157896E+02  0.40049347063E+02  0.51100000000E-03 0.  1.
         12    1    3    3    0    0  0.16610009971E+02 -0.26632187847E+02 -0.25500285665E+02  0.40440455360E+02  0.00000000000E+00 0. -1.
</event>
<event>
 7    1  0.3032584E-015  0.9000766E+02  0.7816164E-02  0.1186339E+00
        -11   -1    0    0    0    0  0.00000000000E+00  0.00000000000E+00  0.45593999997E+02  0.45594000000E+02  0.51100000000E-03 0. -1.
         11   -1    0    0    0    0 -0.00000000000E+00 -0.00000000000E+00 -0.45593999997E+02  0.45594000000E+02  0.51100000000E-03 0.  1.
    9900012    2    1    2    0    0  0.10072956504E+01  0.59146757920E-01  0.61242183983E+00  0.90007659635E+02  0.89999919943E+02 0.  0.
         12    1    1    2    0    0 -0.10072956504E+01 -0.59146757920E-01 -0.61242183983E+00  0.11803403645E+01  0.00000000000E+00 0. -1.
         11    1    3    3    0    0  0.51608006016E+01 -0.10809419468E+01 -0.81431675842E+01  0.97012100743E+01  0.51100000000E-03 0. -1.
        -11    1    3    3    0    0  0.19636294092E+01 -0.12191094427E+02 -0.33433187950E+02  0.35640660496E+02  0.51100000000E-03 0.  1.
         12    1    3    3    0    0 -0.61171343603E+01  0.13331183132E+02  0.42188777374E+02  0.44665789065E+02  0.00000000000E+00 0. -1.
</event>
<event>
 7    1  0.3032584E-015  0.9000773E+02  0.7816164E-02  0.1186339E+00
        -11   -1    0    0    0    0  0.00000000000E+00  0.00000000000E+00  0.45593999997E+02  0.45594000000E+02  0.51100000000E-03 0.  1.
         11   -1    0    0    0    0 -0.00000000000E+00 -0.00000000000E+00 -0.45593999997E+02  0.45594000000E+02  0.51100000000E-03 0. -1.
    9900012    2    1    2    0    0  0.66436182516E+00 -0.57606444582E+00 -0.78727862739E+00  0.90007731167E+02  0.89999992419E+02 0.  0.
         12    1    1    2    0    0 -0.66436182516E+00  0.57606444582E+00  0.78727862739E+00  0.11802688328E+01  0.00000000000E+00 0. -1.
         11    1    3    3    0    0 -0.20990855601E+02  0.21794191923E+01 -0.33839396171E+02  0.39880704863E+02  0.51100000000E-03 0. -1.
        -11    1    3    3    0    0  0.66231033344E+01  0.65124692302E+01 -0.31820697797E+01  0.98185193179E+01  0.51100000000E-03 0.  1.
        -12    1    3    3    0    0  0.15032114092E+02 -0.92679528683E+01  0.36234187324E+02  0.40308506986E+02  0.00000000000E+00 0.  1.
</event>
<event>
 7    1  0.3032584E-015  0.9000777E+02  0.7816164E-02  0.1186339E+00
        -11   -1    0    0    0    0  0.00000000000E+00  0.00000000000E+00  0.45593999997E+02  0.45594000000E+02  0.51100000000E-03 0. -1.
         11   -1    0    0    0    0 -0.00000000000E+00 -0.00000000000E+00 -0.45593999997E+02  0.45594000000E+02  0.51100000000E-03 0.  1.
    9900012    2    1    2    0    0 -0.81037268522E+00  0.32952672508E+00 -0.79225001483E+00  0.90007766194E+02  0.90000027907E+02 0.  0.
         12    1    1    2    0    0  0.81037268522E+00 -0.32952672508E+00  0.79225001483E+00  0.11802338063E+01  0.00000000000E+00 0. -1.
         11    1    3    3    0    0 -0.18259882205E+02  0.17148415636E+02  0.27865403184E+02  0.37469616382E+02  0.51100000000E-03 0. -1.
        -11    1    3    3    0    0 -0.25428298003E+01  0.64678472627E+01  0.37557500318E+01  0.78996639276E+01  0.51100000000E-03 0.  1.
        -12    1    3    3    0    0  0.19992339320E+02 -0.23286736173E+02 -0.32413403230E+02  0.44638485884E+02  0.00000000000E+00 0.  1.
</event>
<event>
 7    1  0.3032584E-015  0.9000725E+02  0.7816164E-02  0.1186340E+00
        -11   -1    0    0    0    0  0.00000000000E+00  0.00000000000E+00  0.45593999997E+02  0.45594000000E+02  0.51100000000E-03 0.  1.
         11   -1    0    0    0    0 -0.00000000000E+00 -0.00000000000E+00 -0.45593999997E+02  0.45594000000E+02  0.51100000000E-03 0. -1.
    9900012    2    1    2    0    0 -0.12056035829E+00 -0.37930476787E+00  0.11116498424E+01  0.90007249273E+02  0.89999504162E+02 0.  0.
         12    1    1    2    0    0  0.12056035829E+00  0.37930476787E+00 -0.11116498424E+01  0.11807507269E+01  0.00000000000E+00 0. -1.
         11    1    3    3    0    0 -0.22422593219E+02  0.20752424377E+02  0.18453405029E+02  0.35692631755E+02  0.51100000000E-03 0. -1.
        -11    1    3    3    0    0 -0.78737768414E+01  0.52677290076E+01  0.21796853269E+01  0.97209237746E+01  0.51100000000E-03 0.  1.
        -12    1    3    3    0    0  0.30175809702E+02 -0.26399458152E+02 -0.19521440514E+02  0.44593693743E+02  0.00000000000E+00 0.  1.
</event>
<event>
 7    1  0.3032584E-015  0.9000773E+02  0.7816164E-02  0.1186339E+00
        -11   -1    0    0    0    0  0.00000000000E+00  0.00000000000E+00  0.45593999997E+02  0.45594000000E+02  0.51100000000E-03 0.  1.
         11   -1    0    0    0    0 -0.00000000000E+00 -0.00000000000E+00 -0.45593999997E+02  0.45594000000E+02  0.51100000000E-03 0. -1.
    9900012    2    1    2    0    0  0.36181827797E+00 -0.83590401321E+00  0.75059095839E+00  0.90007731059E+02  0.89999992309E+02 0.  0.
         12    1    1    2    0    0 -0.36181827797E+00  0.83590401321E+00 -0.75059095839E+00  0.11802689407E+01  0.00000000000E+00 0. -1.
         11    1    3    3    0    0  0.91244670512E+01  0.60479821417E+01 -0.28704895754E+01  0.11316965036E+02  0.51100000000E-03 0. -1.
        -11    1    3    3    0    0  0.26280648125E+02 -0.15219510032E+02 -0.19311330768E+02  0.35989351866E+02  0.51100000000E-03 0.  1.
         12    1    3    3    0    0 -0.35043296898E+02  0.83356238769E+01  0.22932411301E+02  0.42701414157E+02  0.00000000000E+00 0. -1.
</event>
<event>
 7    1  0.3032584E-015  0.9000778E+02  0.7816164E-02  0.1186339E+00
        -11   -1    0    0    0    0  0.00000000000E+00  0.00000000000E+00  0.45593999997E+02  0.45594000000E+02  0.51100000000E-03 0.  1.
         11   -1    0    0    0    0 -0.00000000000E+00 -0.00000000000E+00 -0.45593999997E+02  0.45594000000E+02  0.51100000000E-03 0. -1.
    9900012    2    1    2    0    0 -0.54362548757E+00  0.10338237159E+01  0.16912062412E+00  0.90007778863E+02  0.90000040744E+02 0.  0.
         12    1    1    2    0    0  0.54362548757E+00 -0.10338237159E+01 -0.16912062412E+00  0.11802211369E+01  0.00000000000E+00 0. -1.
         11    1    3    3    0    0  0.18270863095E+02 -0.26933890440E+02  0.17644965511E+02  0.37021665287E+02  0.51100000000E-03 0. -1.
        -11    1    3    3    0    0 -0.29516357929E+01 -0.63577046306E+01 -0.13181737112E+02  0.14929526301E+02  0.51100000000E-03 0.  1.
        -12    1    3    3    0    0 -0.15862852789E+02  0.34325418786E+02 -0.42941077749E+01  0.38056587275E+02  0.00000000000E+00 0.  1.
</event>
<event>
 7    1  0.3032584E-015  0.9000776E+02  0.7816164E-02  0.1186339E+00
        -11   -1    0    0    0    0  0.00000000000E+00  0.00000000000E+00  0.45593999997E+02  0.45594000000E+02  0.51100000000E-03 0. -1.
         11   -1    0    0    0    0 -0.00000000000E+00 -0.00000000000E+00 -0.45593999997E+02  0.45594000000E+02  0.51100000000E-03 0.  1.
    9900012    2    1    2    0    0 -0.65803467298E+00 -0.53775751730E+00  0.81901224932E+00  0.90007756871E+02  0.90000018462E+02 0.  0.
         12    1    1    2    0    0  0.65803467298E+00  0.53775751730E+00 -0.81901224932E+00  0.11802431287E+01  0.00000000000E+00 0. -1.
         11    1    3    3    0    0 -0.84352599793E+01  0.39359755114E+01  0.37412588888E+00  0.93158727228E+01  0.51100000000E-03 0. -1.
        -11    1    3    3    0    0 -0.46549147352E+01  0.10353031779E+02 -0.36913833455E+02  0.38619743640E+02  0.51100000000E-03 0.  1.
         12    1    3    3    0    0  0.12432140042E+02 -0.14826764808E+02  0.37358719816E+02  0.42072140508E+02  0.00000000000E+00 0. -1.
</event>
<event>
 7    1  0.3032584E-015  0.9000777E+02  0.7816164E-02  0.1186339E+00
        -11   -1    0    0    0    0  0.00000000000E+00  0.00000000000E+00  0.45593999997E+02  0.45594000000E+02  0.51100000000E-03 0. -1.
         11   -1    0    0    0    0 -0.00000000000E+00 -0.00000000000E+00 -0.45593999997E+02  0.45594000000E+02  0.51100000000E-03 0.  1.
    9900012    2    1    2    0    0 -0.92182937753E+00 -0.57192761403E+00 -0.46483631798E+00  0.90007769768E+02  0.90000031529E+02 0.  0.
         12    1    1    2    0    0  0.92182937753E+00  0.57192761403E+00  0.46483631798E+00  0.11802302316E+01  0.00000000000E+00 0. -1.
         11    1    3    3    0    0  0.69854169666E+01 -0.85269717740E+01 -0.44134935261E+00  0.11031776255E+02  0.51100000000E-03 0. -1.
        -11    1    3    3    0    0 -0.29939612269E+02 -0.74998777414E+01 -0.26899673573E+02  0.40941677879E+02  0.51100000000E-03 0.  1.
         12    1    3    3    0    0  0.22032365925E+02  0.15454921901E+02  0.26876186607E+02  0.38034315634E+02  0.00000000000E+00 0. -1.
</event>
<event>
 7    1  0.3032584E-015  0.9000775E+02  0.7816164E-02  0.1186339E+00
        -11   -1    0    0    0    0  0.00000000000E+00  0.00000000000E+00  0.45593999997E+02  0.45594000000E+02  0.51100000000E-03 0. -1.
         11   -1    0    0    0    0 -0.00000000000E+00 -0.00000000000E+00 -0.45593999997E+02  0.45594000000E+02  0.51100000000E-03 0.  1.
    9900012    2    1    2    0    0  0.92087054588E+00 -0.73130299871E+00 -0.10092069693E+00  0.90007749338E+02  0.90000010829E+02 0.  0.
         12    1    1    2    0    0 -0.92087054588E+00  0.73130299871E+00  0.10092069693E+00  0.11802506620E+01  0.00000000000E+00 0. -1.
         11    1    3    3    0    0 -0.15356226028E+01  0.61557636859E+01 -0.22446514209E+01  0.67297862966E+01  0.51100000000E-03 0. -1.
        -11    1    3    3    0    0 -0.11518134155E+02  0.28267514938E+02 -0.22682300054E+02  0.38029022485E+02  0.51100000000E-03 0.  1.
         12    1    3    3    0    0  0.13974627303E+02 -0.35154581622E+02  0.24826030778E+02  0.45248940557E+02  0.00000000000E+00 0. -1.
</event>
<event>
 7    1  0.3032584E-015  0.9000796E+02  0.7816164E-02  0.1186339E+00
        -11   -1    0    0    0    0  0.00000000000E+00  0.00000000000E+00  0.45593999997E+02  0.45594000000E+02  0.51100000000E-03 0. -1.
         11   -1    0    0    0    0 -0.00000000000E+00 -0.00000000000E+00 -0.45593999997E+02  0.45594000000E+02  0.51100000000E-03 0.  1.
    9900012    2    1    2    0    0  0.10767305210E+01  0.66371838963E-01 -0.47827932700E+00  0.90007955530E+02  0.90000219743E+02 0.  0.
         12    1    1    2    0    0 -0.10767305210E+01 -0.66371838963E-01  0.47827932700E+00  0.11800444697E+01  0.00000000000E+00 0. -1.
         11    1    3    3    0    0 -0.65165192524E-01 -0.18916961283E+01  0.99806142379E+01  0.10158514733E+02  0.51100000000E-03 0. -1.
        -11    1    3    3    0    0 -0.37132684318E+02  0.13416936252E+01 -0.17260637269E+02  0.40970306145E+02  0.51100000000E-03 0.  1.
         12    1    3    3    0    0  0.38274580032E+02  0.61637434206E+00  0.68017437038E+01  0.38879134653E+02  0.00000000000E+00 0. -1.
</event>
<event>
 7    1  0.3032584E-015  0.9000769E+02  0.7816164E-02  0.1186339E+00
        -11   -1    0    0    0    0  0.00000000000E+00  0.00000000000E+00  0.45593999997E+02  0.45594000000E+02  0.51100000000E-03 0.  1.
         11   -1    0    0    0    0 -0.00000000000E+00 -0.00000000000E+00 -0.45593999997E+02  0.45594000000E+02  0.51100000000E-03 0. -1.
    9900012    2    1    2    0    0  0.75444085491E-01 -0.21735873739E+00  0.11576726485E+01  0.90007685384E+02  0.89999946031E+02 0.  0.
         12    1    1    2    0    0 -0.75444085491E-01  0.21735873739E+00 -0.11576726485E+01  0.11803146157E+01  0.00000000000E+00 0. -1.
         11    1    3    3    0    0 -0.12415578236E+02  0.30116277753E+02 -0.26392899617E+02  0.41925194323E+02  0.51100000000E-03 0. -1.
        -11    1    3    3    0    0  0.22499628945E+01 -0.15506118022E+02  0.62231132966E+00  0.15680857783E+02  0.51100000000E-03 0.  1.
        -12    1    3    3    0    0  0.10241059427E+02 -0.14827518468E+02  0.26928260936E+02  0.32401633278E+02  0.00000000000E+00 0.  1.
</event>
<event>
 7    1  0.3032584E-015  0.9000777E+02  0.7816164E-02  0.1186339E+00
        -11   -1    0    0    0    0  0.00000000000E+00  0.00000000000E+00  0.45593999997E+02  0.45594000000E+02  0.51100000000E-03 0. -1.
         11   -1    0    0    0    0 -0.00000000000E+00 -0.00000000000E+00 -0.45593999997E+02  0.45594000000E+02  0.51100000000E-03 0.  1.
    9900012    2    1    2    0    0 -0.59859954423E+00  0.10138805292E+01 -0.81586510254E-01  0.90007774809E+02  0.90000036637E+02 0.  0.
         12    1    1    2    0    0  0.59859954423E+00 -0.10138805292E+01  0.81586510254E-01  0.11802251906E+01  0.00000000000E+00 0. -1.
         11    1    3    3    0    0 -0.71563353136E+01  0.72921618072E+01 -0.14803280791E+01  0.10323765322E+02  0.51100000000E-03 0. -1.
        -11    1    3    3    0    0 -0.16033614290E+02  0.30925970484E+02 -0.65289907089E+01  0.35441785473E+02  0.51100000000E-03 0.  1.
         12    1    3    3    0    0  0.22591350060E+02 -0.37204251762E+02  0.79277322777E+01  0.44242224014E+02  0.00000000000E+00 0. -1.
</event>
<event>
 7    1  0.3032584E-015  0.9000754E+02  0.7816164E-02  0.1186339E+00
        -11   -1    0    0    0    0  0.00000000000E+00  0.00000000000E+00  0.45593999997E+02  0.45594000000E+02  0.51100000000E-03 0. -1.
         11   -1    0    0    0    0 -0.00000000000E+00 -0.00000000000E+00 -0.45593999997E+02  0.45594000000E+02  0.51100000000E-03 0.  1.
    9900012    2    1    2    0    0 -0.47822578422E+00  0.74395130604E+00 -0.78187406435E+00  0.90007538015E+02  0.89999796716E+02 0.  0.
         12    1    1    2    0    0  0.47822578422E+00 -0.74395130604E+00  0.78187406435E+00  0.11804619854E+01  0.00000000000E+00 0. -1.
         11    1    3    3    0    0 -0.28959999396E+01 -0.46645206821E+01  0.78315702152E+01  0.95644164035E+01  0.51100000000E-03 0. -1.
        -11    1    3    3    0    0 -0.29857299596E+02 -0.19179029994E+02  0.83668469893E+01  0.36459534548E+02  0.51100000000E-03 0.  1.
         12    1    3    3    0    0  0.32275073751E+02  0.24587501982E+02 -0.16980291269E+02  0.43983587063E+02  0.00000000000E+00 0. -1.
</event>
<event>
 7    1  0.3032584E-015  0.9000782E+02  0.7816164E-02  0.1186339E+00
        -11   -1    0    0    0    0  0.00000000000E+00  0.00000000000E+00  0.45593999997E+02  0.45594000000E+02  0.51100000000E-03 0. -1.
         11   -1    0    0    0    0 -0.00000000000E+00 -0.00000000000E+00 -0.45593999997E+02  0.45594000000E+02  0.51100000000E-03 0.  1.
    9900012    2    1    2    0    0 -0.23852660192E+00 -0.11537579760E+01 -0.69072416709E-01  0.90007820604E+02  0.90000083036E+02 0.  0.
         12    1    1    2    0    0  0.23852660192E+00  0.11537579760E+01  0.69072416709E-01  0.11801793956E+01  0.00000000000E+00 0. -1.
         11    1    3    3    0    0 -0.82284476958E+00  0.59733018530E+01 -0.87718085142E+01  0.10644342789E+02  0.51100000000E-03 0. -1.
        -11    1    3    3    0    0  0.90424852958E+01 -0.29755574866E+02 -0.23590530425E+02  0.39034265740E+02  0.51100000000E-03 0.  1.
         12    1    3    3    0    0 -0.84581671282E+01  0.22628515037E+02  0.32293266522E+02  0.40329212075E+02  0.00000000000E+00 0. -1.
</event>
<event>
 7    1  0.3032584E-015  0.9000773E+02  0.7816164E-02  0.1186339E+00
        -11   -1    0    0    0    0  0.00000000000E+00  0.00000000000E+00  0.45593999997E+02  0.45594000000E+02  0.51100000000E-03 0.  1.
         11   -1    0    0    0    0 -0.00000000000E+00 -0.00000000000E+00 -0.45593999997E+02  0.45594000000E+02  0.51100000000E-03 0. -1.
    9900012    2    1    2    0    0  0.38662010618E+00 -0.45636690459E+00  0.10174969539E+01  0.90007726341E+02  0.89999987529E+02 0.  0.
         12    1    1    2    0    0 -0.38662010618E+00  0.45636690459E+00 -0.10174969539E+01  0.11802736586E+01  0.00000000000E+00 0. -1.
         11    1    3    3    0    0 -0.71139724554E+01 -0.41070322233E+02 -0.11350697127E+02  0.43199748818E+02  0.51100000000E-03 0. -1.
        -11    1    3    3    0    0  0.23232603576E+01  0.59248670425E+01 -0.45933732467E+01  0.78486091892E+01  0.51100000000E-03 0.  1.
        -12    1    3    3    0    0  0.51773322040E+01  0.34689088285E+02  0.16961567327E+02  0.38959368334E+02  0.00000000000E+00 0.  1.
</event>
<event>
 7    1  0.3032584E-015  0.9000726E+02  0.7816164E-02  0.1186340E+00
        -11   -1    0    0    0    0  0.00000000000E+00  0.00000000000E+00  0.45593999997E+02  0.45594000000E+02  0.51100000000E-03 0.  1.
         11   -1    0    0    0    0 -0.00000000000E+00 -0.00000000000E+00 -0.45593999997E+02  0.45594000000E+02  0.51100000000E-03 0. -1.
    9900012    2    1    2    0    0 -0.32737320400E-01  0.11720346585E+01  0.13928209873E+00  0.90007264434E+02  0.89999519524E+02 0.  0.
         12    1    1    2    0    0  0.32737320400E-01 -0.11720346585E+01 -0.13928209873E+00  0.11807355656E+01  0.00000000000E+00 0. -1.
         11    1    3    3    0    0  0.22896262073E+01 -0.82337295875E+01  0.39583976106E+01  0.94183651975E+01  0.51100000000E-03 0. -1.
        -11    1    3    3    0    0 -0.26713245463E+02 -0.80747170663E+01  0.26102805889E+02  0.38211974752E+02  0.51100000000E-03 0.  1.
         12    1    3    3    0    0  0.24390881935E+02  0.17480481312E+02 -0.29921921401E+02  0.42376924485E+02  0.00000000000E+00 0. -1.
</event>
<event>
 7    1  0.3032584E-015  0.9000775E+02  0.7816164E-02  0.1186339E+00
        -11   -1    0    0    0    0  0.00000000000E+00  0.00000000000E+00  0.45593999997E+02  0.45594000000E+02  0.51100000000E-03 0. -1.
         11   -1    0    0    0    0 -0.00000000000E+00 -0.00000000000E+00 -0.45593999997E+02  0.45594000000E+02  0.51100000000E-03 0.  1.
    9900012    2    1    2    0    0  0.91886895710E+00  0.72943051598E+00 -0.12884530241E+00  0.90007749963E+02  0.90000011462E+02 0.  0.
         12    1    1    2    0    0 -0.91886895710E+00 -0.72943051598E+00  0.12884530241E+00  0.11802500370E+01  0.00000000000E+00 0. -1.
         11    1    3    3    0    0 -0.74933748659E+01 -0.13166120072E+02 -0.81061713126E+01  0.17181600573E+02  0.51100000000E-03 0. -1.
        -11    1    3    3    0    0  0.95127211981E+01 -0.11106953906E+01 -0.30257576176E+02  0.31737145825E+02  0.51100000000E-03 0.  1.
         12    1    3    3    0    0 -0.11004773751E+01  0.15006245979E+02  0.38234902186E+02  0.41089003565E+02  0.00000000000E+00 0. -1.
</event>
<event>
 7    1  0.3032584E-015  0.9000755E+02  0.7816164E-02  0.1186339E+00
        -11   -1    0    0    0    0  0.00000000000E+00  0.00000000000E+00  0.45593999997E+02  0.45594000000E+02  0.51100000000E-03 0. -1.
         11   -1    0    0    0    0 -0.00000000000E+00 -0.00000000000E+00 -0.45593999997E+02  0.45594000000E+02  0.51100000000E-03 0.  1.
    9900012    2    1    2    0    0 -0.79019512935E+00 -0.86852984080E+00  0.12130706827E+00  0.90007547616E+02  0.89999806444E+02 0.  0.
         12    1    1    2    0    0  0.79019512935E+00  0.86852984080E+00 -0.12130706827E+00  0.11804523843E+01  0.00000000000E+00 0. -1.
         11    1    3    3    0    0  0.31578310437E+01  0.66963081769E-02  0.82033305402E+01  0.87901407243E+01  0.51100000000E-03 0. -1.
        -11    1    3    3    0    0 -0.16810656567E+02 -0.32466214692E+02  0.15541376199E+02  0.39726409919E+02  0.51100000000E-03 0.  1.
         12    1    3    3    0    0  0.12862630394E+02  0.31590988543E+02 -0.23623399671E+02  0.41490996973E+02  0.00000000000E+00 0. -1.
</event>
<event>
 7    1  0.3032584E-015  0.9000773E+02  0.7816164E-02  0.1186339E+00
        -11   -1    0    0    0    0  0.00000000000E+00  0.00000000000E+00  0.45593999997E+02  0.45594000000E+02  0.51100000000E-03 0.  1.
         11   -1    0    0    0    0 -0.00000000000E+00 -0.00000000000E+00 -0.45593999997E+02  0.45594000000E+02  0.51100000000E-03 0. -1.
    9900012    2    1    2    0    0 -0.31126583192E+00  0.11334367280E+01 -0.10714473342E+00  0.90007726630E+02  0.89999987821E+02 0.  0.
         12    1    1    2    0    0  0.31126583192E+00 -0.11334367280E+01  0.10714473342E+00  0.11802733702E+01  0.00000000000E+00 0. -1.
         11    1    3    3    0    0  0.83013980219E+01  0.40020691252E+01  0.48603357804E+00  0.92285424256E+01  0.51100000000E-03 0. -1.
        -11    1    3    3    0    0  0.22755834989E+02 -0.23611512434E+02  0.19489062216E+02  0.38146495144E+02  0.51100000000E-03 0.  1.
         12    1    3    3    0    0 -0.31368498843E+02  0.20742880036E+02 -0.20082240528E+02  0.42632689060E+02  0.00000000000E+00 0. -1.
</event>
<event>
 7    1  0.3032584E-015  0.9000789E+02  0.7816164E-02  0.1186339E+00
        -11   -1    0    0    0    0  0.00000000000E+00  0.00000000000E+00  0.45593999997E+02  0.45594000000E+02  0.51100000000E-03 0. -1.
         11   -1    0    0    0    0 -0.00000000000E+00 -0.00000000000E+00 -0.45593999997E+02  0.45594000000E+02  0.51100000000E-03 0.  1.
    9900012    2    1    2    0    0 -0.21840516008E+00  0.11433060778E+01  0.19445875731E+00  0.90007888222E+02  0.90000151546E+02 0.  0.
         12    1    1    2    0    0  0.21840516008E+00 -0.11433060778E+01 -0.19445875731E+00  0.11801117785E+01  0.00000000000E+00 0. -1.
         11    1    3    3    0    0 -0.18930050252E+02  0.25272643769E+02 -0.20389721056E+02  0.37587152734E+02  0.51100000000E-03 0. -1.
        -11    1    3    3    0    0 -0.10760547651E+02 -0.31382990125E+01  0.93844569158E+00  0.11248065923E+02  0.51100000000E-03 0.  1.
        -12    1    3    3    0    0  0.29472192743E+02 -0.20991038679E+02  0.19645734122E+02  0.41172669564E+02  0.00000000000E+00 0.  1.
</event>
<event>
 7    1  0.3032584E-015  0.9000807E+02  0.7816164E-02  0.1186338E+00
        -11   -1    0    0    0    0  0.00000000000E+00  0.00000000000E+00  0.45593999997E+02  0.45594000000E+02  0.51100000000E-03 0.  1.
         11   -1    0    0    0    0 -0.00000000000E+00 -0.00000000000E+00 -0.45593999997E+02  0.45594000000E+02  0.51100000000E-03 0. -1.
    9900012    2    1    2    0    0  0.70094725552E+00 -0.16696738642E+00  0.93435523015E+00  0.90008074215E+02  0.90000339994E+02 0.  0.
         12    1    1    2    0    0 -0.70094725552E+00  0.16696738642E+00 -0.93435523015E+00  0.11799257855E+01  0.00000000000E+00 0. -1.
         11    1    3    3    0    0  0.90795814086E+01  0.36411123082E+02 -0.29836867490E+01  0.37644535720E+02  0.51100000000E-03 0. -1.
        -11    1    3    3    0    0 -0.10718616400E+01  0.20607741736E+01 -0.10292207603E+02  0.10551076494E+02  0.51100000000E-03 0.  1.
        -12    1    3    3    0    0 -0.73067725131E+01 -0.38638864642E+02  0.14210249582E+02  0.41812462001E+02  0.00000000000E+00 0.  1.
</event>
<event>
 7    1  0.3032584E-015  0.9000772E+02  0.7816164E-02  0.1186339E+00
        -11   -1    0    0    0    0  0.00000000000E+00  0.00000000000E+00  0.45593999997E+02  0.45594000000E+02  0.51100000000E-03 0.  1.
         11   -1    0    0    0    0 -0.00000000000E+00 -0.00000000000E+00 -0.45593999997E+02  0.45594000000E+02  0.51100000000E-03 0. -1.
    9900012    2    1    2    0    0  0.18296248711E-01 -0.46356542146E+00  0.10852818708E+01  0.90007718512E+02  0.89999979596E+02 0.  0.
         12    1    1    2    0    0 -0.18296248711E-01  0.46356542146E+00 -0.10852818708E+01  0.11802814883E+01  0.00000000000E+00 0. -1.
         11    1    3    3    0    0 -0.22693385922E+02 -0.50603070972E+01 -0.37437729779E+01  0.23550208256E+02  0.51100000000E-03 0.  1.
        -11    1    3    3    0    0  0.17828341867E+01 -0.26747534852E+02  0.95858845035E+01  0.28469251841E+02  0.51100000000E-03 0. -1.
        -12    1    3    3    0    0  0.20928847984E+02  0.31344276528E+02 -0.47568296548E+01  0.37988258415E+02  0.00000000000E+00 0.  1.
</event>
<event>
 7    1  0.3032584E-015  0.9000777E+02  0.7816164E-02  0.1186339E+00
        -11   -1    0    0    0    0  0.00000000000E+00  0.00000000000E+00  0.45593999997E+02  0.45594000000E+02  0.51100000000E-03 0.  1.
         11   -1    0    0    0    0 -0.00000000000E+00 -0.00000000000E+00 -0.45593999997E+02  0.45594000000E+02  0.51100000000E-03 0. -1.
    9900012    2    1    2    0    0  0.81858133802E-01  0.62880545548E-01  0.11757103567E+01  0.90007767159E+02  0.90000028885E+02 0.  0.
         12    1    1    2    0    0 -0.81858133802E-01 -0.62880545548E-01 -0.11757103567E+01  0.11802328414E+01  0.00000000000E+00 0. -1.
         11    1    3    3    0    0 -0.12272071663E+01  0.82079459057E+01 -0.70795971584E+01  0.10908579633E+02  0.51100000000E-03 0. -1.
        -11    1    3    3    0    0 -0.11057433051E+02 -0.22112679099E+01  0.41569478522E+02  0.43071778189E+02  0.51100000000E-03 0.  1.
         12    1    3    3    0    0  0.12366498351E+02 -0.59337974503E+01 -0.33314171007E+02  0.36027409337E+02  0.00000000000E+00 0. -1.
</event>
<event>
 7    1  0.3032584E-015  0.9000760E+02  0.7816164E-02  0.1186339E+00
        -11   -1    0    0    0    0  0.00000000000E+00  0.00000000000E+00  0.45593999997E+02  0.45594000000E+02  0.51100000000E-03 0. -1.
         11   -1    0    0    0    0 -0.00000000000E+00 -0.00000000000E+00 -0.45593999997E+02  0.45594000000E+02  0.51100000000E-03 0.  1.
    9900012    2    1    2    0    0 -0.12739062642E+00  0.12206540370E+00 -0.11671371990E+01  0.90007602789E+02  0.89999862346E+02 0.  0.
         12    1    1    2    0    0  0.12739062642E+00 -0.12206540370E+00  0.11671371990E+01  0.11803972110E+01  0.00000000000E+00 0. -1.
         11    1    3    3    0    0 -0.60649532021E+01 -0.49038902489E+01 -0.64548534466E+01  0.10124076758E+02  0.51100000000E-03 0. -1.
        -11    1    3    3    0    0 -0.12518997505E+02 -0.25851205282E+02 -0.20785980141E+02  0.35455141852E+02  0.51100000000E-03 0.  1.
         12    1    3    3    0    0  0.18456560081E+02  0.30877160935E+02  0.26073696389E+02  0.44428384179E+02  0.00000000000E+00 0. -1.
</event>
<event>
 7    1  0.3032584E-015  0.9000785E+02  0.7816164E-02  0.1186339E+00
        -11   -1    0    0    0    0  0.00000000000E+00  0.00000000000E+00  0.45593999997E+02  0.45594000000E+02  0.51100000000E-03 0.  1.
         11   -1    0    0    0    0 -0.00000000000E+00 -0.00000000000E+00 -0.45593999997E+02  0.45594000000E+02  0.51100000000E-03 0. -1.
    9900012    2    1    2    0    0 -0.57193108505E+00 -0.10176385662E+01 -0.17340974855E+00  0.90007845621E+02  0.90000108383E+02 0.  0.
         12    1    1    2    0    0  0.57193108505E+00  0.10176385662E+01  0.17340974855E+00  0.11801543791E+01  0.00000000000E+00 0. -1.
         11    1    3    3    0    0 -0.83338596018E+01 -0.10743376323E+01  0.25465824985E+01  0.87802334760E+01  0.51100000000E-03 0. -1.
        -11    1    3    3    0    0  0.26334088300E+01  0.20098707224E+02  0.33708943082E+02  0.39334281716E+02  0.51100000000E-03 0.  1.
         12    1    3    3    0    0  0.51285196867E+01 -0.20042008158E+02 -0.36428935329E+02  0.41893330429E+02  0.00000000000E+00 0. -1.
</event>
<event>
 7    1  0.3032584E-015  0.9000771E+02  0.7816164E-02  0.1186339E+00
        -11   -1    0    0    0    0  0.00000000000E+00  0.00000000000E+00  0.45593999997E+02  0.45594000000E+02  0.51100000000E-03 0. -1.
         11   -1    0    0    0    0 -0.00000000000E+00 -0.00000000000E+00 -0.45593999997E+02  0.45594000000E+02  0.51100000000E-03 0.  1.
    9900012    2    1    2    0    0 -0.64980374992E+00 -0.34783776021E+00 -0.92187599142E+00  0.90007707085E+02  0.89999968019E+02 0.  0.
         12    1    1    2    0    0  0.64980374992E+00  0.34783776021E+00  0.92187599142E+00  0.11802929147E+01  0.00000000000E+00 0. -1.
         11    1    3    3    0    0  0.66518232272E+01  0.51949892589E+01 -0.38012600408E+01  0.92565784070E+01  0.51100000000E-03 0. -1.
        -11    1    3    3    0    0  0.31190735557E+02 -0.10576872152E+02  0.19772473959E+02  0.38414618778E+02  0.51100000000E-03 0.  1.
         12    1    3    3    0    0 -0.38492362534E+02  0.50340451332E+01 -0.16893089909E+02  0.42336509901E+02  0.00000000000E+00 0. -1.
</event>
<event>
 7    1  0.3032584E-015  0.9000775E+02  0.7816164E-02  0.1186339E+00
        -11   -1    0    0    0    0  0.00000000000E+00  0.00000000000E+00  0.45593999997E+02  0.45594000000E+02  0.51100000000E-03 0. -1.
         11   -1    0    0    0    0 -0.00000000000E+00 -0.00000000000E+00 -0.45593999997E+02  0.45594000000E+02  0.51100000000E-03 0.  1.
    9900012    2    1    2    0    0  0.94833577267E+00 -0.70125469041E+00 -0.43570460029E-01  0.90007746949E+02  0.90000008409E+02 0.  0.
         12    1    1    2    0    0 -0.94833577267E+00  0.70125469041E+00  0.43570460029E-01  0.11802530506E+01  0.00000000000E+00 0. -1.
         11    1    3    3    0    0 -0.14111803200E+02  0.16444085133E+02  0.15845588002E+02  0.26844619290E+02  0.51100000000E-03 0. -1.
        -11    1    3    3    0    0 -0.19741310968E+02 -0.86743431496E+01 -0.16798356049E+02  0.27334014597E+02  0.51100000000E-03 0.  1.
        -12    1    3    3    0    0  0.34801449941E+02 -0.84709966735E+01  0.90919758691E+00  0.35829113063E+02  0.00000000000E+00 0.  1.
</event>
<event>
 7    1  0.3032584E-015  0.9000793E+02  0.7816164E-02  0.1186339E+00
        -11   -1    0    0    0    0  0.00000000000E+00  0.00000000000E+00  0.45593999997E+02  0.45594000000E+02  0.51100000000E-03 0. -1.
         11   -1    0    0    0    0 -0.00000000000E+00 -0.00000000000E+00 -0.45593999997E+02  0.45594000000E+02  0.51100000000E-03 0.  1.
    9900012    2    1    2    0    0  0.20564300725E+00 -0.10474148952E+01 -0.50319876107E+00  0.90007925425E+02  0.90000189241E+02 0.  0.
         12    1    1    2    0    0 -0.20564300725E+00  0.10474148952E+01  0.50319876107E+00  0.11800745749E+01  0.00000000000E+00 0. -1.
         11    1    3    3    0    0 -0.19318490625E+02 -0.14484450960E+02  0.33186885928E+02  0.41041111066E+02  0.51100000000E-03 0. -1.
        -11    1    3    3    0    0 -0.38754463674E+01  0.75469681271E+01 -0.13093075667E+01  0.85842937405E+01  0.51100000000E-03 0.  1.
        -12    1    3    3    0    0  0.23399580000E+02  0.58900679374E+01 -0.32380777123E+02  0.40382520619E+02  0.00000000000E+00 0.  1.
</event>
<event>
 7    1  0.3032584E-015  0.9000806E+02  0.7816164E-02  0.1186338E+00
        -11   -1    0    0    0    0  0.00000000000E+00  0.00000000000E+00  0.45593999997E+02  0.45594000000E+02  0.51100000000E-03 0. -1.
         11   -1    0    0    0    0 -0.00000000000E+00 -0.00000000000E+00 -0.45593999997E+02  0.45594000000E+02  0.51100000000E-03 0.  1.
    9900012    2    1    2    0    0  0.29939920552E+00 -0.10190408751E+01 -0.51398652757E+00  0.90008056637E+02  0.90000322184E+02 0.  0.
         12    1    1    2    0    0 -0.29939920552E+00  0.10190408751E+01  0.51398652757E+00  0.11799433631E+01  0.00000000000E+00 0. -1.
         11    1    3    3    0    0 -0.14062842206E+02  0.33128190496E+02  0.23987408339E+01  0.36069301272E+02  0.51100000000E-03 0. -1.
        -11    1    3    3    0    0 -0.44851671337E+01  0.63755911918E+01  0.39244963210E+01  0.87273454668E+01  0.51100000000E-03 0.  1.
        -12    1    3    3    0    0  0.18847408545E+02 -0.40522822562E+02 -0.68372236824E+01  0.45211409898E+02  0.00000000000E+00 0.  1.
</event>
<event>
 7    1  0.3032584E-015  0.9000778E+02  0.7816164E-02  0.1186339E+00
        -11   -1    0    0    0    0  0.00000000000E+00  0.00000000000E+00  0.45593999997E+02  0.45594000000E+02  0.51100000000E-03 0.  1.
         11   -1    0    0    0    0 -0.00000000000E+00 -0.00000000000E+00 -0.45593999997E+02  0.45594000000E+02  0.51100000000E-03 0. -1.
    9900012    2    1    2    0    0  0.11014289123E+01 -0.39606554427E+00  0.15132261367E+00  0.90007783029E+02  0.90000044965E+02 0.  0.
         12    1    1    2    0    0 -0.11014289123E+01  0.39606554427E+00 -0.15132261367E+00  0.11802169706E+01  0.00000000000E+00 0. -1.
         11    1    3    3    0    0  0.26328033694E+02  0.29986475883E+02 -0.61713197841E+01  0.40378698372E+02  0.51100000000E-03 0. -1.
        -11    1    3    3    0    0 -0.53480033237E+01  0.55813506248E+01 -0.12926061230E+01  0.78373110948E+01  0.51100000000E-03 0.  1.
        -12    1    3    3    0    0 -0.19878601458E+02 -0.35963892052E+02  0.76152485208E+01  0.41791773562E+02  0.00000000000E+00 0.  1.
</event>
<event>
 7    1  0.3032584E-015  0.9000779E+02  0.7816164E-02  0.1186339E+00
        -11   -1    0    0    0    0  0.00000000000E+00  0.00000000000E+00  0.45593999997E+02  0.45594000000E+02  0.51100000000E-03 0.  1.
         11   -1    0    0    0    0 -0.00000000000E+00 -0.00000000000E+00 -0.45593999997E+02  0.45594000000E+02  0.51100000000E-03 0. -1.
    9900012    2    1    2    0    0  0.80546790977E+00 -0.55869021830E+00  0.65724977580E+00  0.90007792145E+02  0.90000054201E+02 0.  0.
         12    1    1    2    0    0 -0.80546790977E+00  0.55869021830E+00 -0.65724977580E+00  0.11802078552E+01  0.00000000000E+00 0. -1.
         11    1    3    3    0    0  0.31913942593E+02  0.16776711460E+02 -0.25446198844E+02  0.44130112340E+02  0.51100000000E-03 0. -1.
        -11    1    3    3    0    0 -0.54324224817E+01 -0.60551466860E+01  0.92242553511E+00  0.81869948417E+01  0.51100000000E-03 0.  1.
        -12    1    3    3    0    0 -0.25676052202E+02 -0.11280254992E+02  0.25181023085E+02  0.37690684963E+02  0.00000000000E+00 0.  1.
</event>
<event>
 7    1  0.3032584E-015  0.9000774E+02  0.7816164E-02  0.1186339E+00
        -11   -1    0    0    0    0  0.00000000000E+00  0.00000000000E+00  0.45593999997E+02  0.45594000000E+02  0.51100000000E-03 0.  1.
         11   -1    0    0    0    0 -0.00000000000E+00 -0.00000000000E+00 -0.45593999997E+02  0.45594000000E+02  0.51100000000E-03 0. -1.
    9900012    2    1    2    0    0  0.10489976161E+01  0.80394499332E-01  0.53494004192E+00  0.90007737265E+02  0.89999998597E+02 0.  0.
         12    1    1    2    0    0 -0.10489976161E+01 -0.80394499332E-01 -0.53494004192E+00  0.11802627345E+01  0.00000000000E+00 0. -1.
         11    1    3    3    0    0  0.43064681002E+01  0.73130350091E+00  0.99649377488E+01  0.10880278347E+02  0.51100000000E-03 0. -1.
        -11    1    3    3    0    0 -0.59435989473E+01  0.36935984906E+02  0.69282623926E+01  0.38047262312E+02  0.51100000000E-03 0.  1.
         12    1    3    3    0    0  0.26861284631E+01 -0.37586893907E+02 -0.16358260099E+02  0.41080196606E+02  0.00000000000E+00 0. -1.
</event>
<event>
 7    1  0.3032584E-015  0.9000758E+02  0.7816164E-02  0.1186339E+00
        -11   -1    0    0    0    0  0.00000000000E+00  0.00000000000E+00  0.45593999997E+02  0.45594000000E+02  0.51100000000E-03 0.  1.
         11   -1    0    0    0    0 -0.00000000000E+00 -0.00000000000E+00 -0.45593999997E+02  0.45594000000E+02  0.51100000000E-03 0. -1.
    9900012    2    1    2    0    0 -0.33251779753E+00  0.28351700873E+00  0.10965582277E+01  0.90007580614E+02  0.89999839878E+02 0.  0.
         12    1    1    2    0    0  0.33251779753E+00 -0.28351700873E+00 -0.10965582277E+01  0.11804193860E+01  0.00000000000E+00 0. -1.
         11    1    3    3    0    0  0.30190932962E+01  0.71109180071E+00  0.11060556667E+02  0.11487231604E+02  0.51100000000E-03 0. -1.
        -11    1    3    3    0    0  0.19299950359E+01 -0.11385129052E+02  0.32425373524E+02  0.34420210528E+02  0.51100000000E-03 0.  1.
         12    1    3    3    0    0 -0.52816061296E+01  0.10957554260E+02 -0.42389371963E+02  0.44100138482E+02  0.00000000000E+00 0. -1.
</event>
<event>
 7    1  0.3032584E-015  0.9000789E+02  0.7816164E-02  0.1186339E+00
        -11   -1    0    0    0    0  0.00000000000E+00  0.00000000000E+00  0.45593999997E+02  0.45594000000E+02  0.51100000000E-03 0.  1.
         11   -1    0    0    0    0 -0.00000000000E+00 -0.00000000000E+00 -0.45593999997E+02  0.45594000000E+02  0.51100000000E-03 0. -1.
    9900012    2    1    2    0    0  0.20395396127E+00  0.41140848802E+00  0.10871072158E+01  0.90007891420E+02  0.90000154786E+02 0.  0.
         12    1    1    2    0    0 -0.20395396127E+00 -0.41140848802E+00 -0.10871072158E+01  0.11801085802E+01  0.00000000000E+00 0. -1.
         11    1    3    3    0    0  0.19257968890E+02  0.30388150869E+02  0.46353949842E+01  0.36273901995E+02  0.51100000000E-03 0. -1.
        -11    1    3    3    0    0 -0.10192733469E+02  0.89049685684E+01  0.11297877963E+01  0.13581851917E+02  0.51100000000E-03 0.  1.
        -12    1    3    3    0    0 -0.88612814594E+01 -0.38881710949E+02 -0.46780755647E+01  0.40152137508E+02  0.00000000000E+00 0.  1.
</event>
<event>
 7    1  0.3032584E-015  0.9000875E+02  0.7816164E-02  0.1186337E+00
        -11   -1    0    0    0    0  0.00000000000E+00  0.00000000000E+00  0.45593999997E+02  0.45594000000E+02  0.51100000000E-03 0. -1.
         11   -1    0    0    0    0 -0.00000000000E+00 -0.00000000000E+00 -0.45593999997E+02  0.45594000000E+02  0.51100000000E-03 0.  1.
    9900012    2    1    2    0    0  0.10809289628E+01  0.34731249070E+00  0.31874690217E+00  0.90008748976E+02  0.90001023657E+02 0.  0.
         12    1    1    2    0    0 -0.10809289628E+01 -0.34731249070E+00 -0.31874690217E+00  0.11792510235E+01  0.00000000000E+00 0. -1.
         11    1    3    3    0    0  0.62318157087E+01  0.54318830252E+01  0.40711246509E+01  0.92149300817E+01  0.51100000000E-03 0. -1.
        -11    1    3    3    0    0 -0.64482196160E+01 -0.37790576640E+02 -0.21088849594E+02  0.43754391739E+02  0.51100000000E-03 0.  1.
         12    1    3    3    0    0  0.12973328701E+01  0.32706006106E+02  0.17336471845E+02  0.37039427156E+02  0.00000000000E+00 0. -1.
</event>
<event>
 7    1  0.3032584E-015  0.9000771E+02  0.7816164E-02  0.1186339E+00
        -11   -1    0    0    0    0  0.00000000000E+00  0.00000000000E+00  0.45593999997E+02  0.45594000000E+02  0.51100000000E-03 0.  1.
         11   -1    0    0    0    0 -0.00000000000E+00 -0.00000000000E+00 -0.45593999997E+02  0.45594000000E+02  0.51100000000E-03 0. -1.
    9900012    2    1    2    0    0  0.29960115021E-02  0.64035552052E+00  0.99147591102E+00  0.90007708235E+02  0.89999969184E+02 0.  0.
         12    1    1    2    0    0 -0.29960115021E-02 -0.64035552052E+00 -0.99147591102E+00  0.11802917651E+01  0.00000000000E+00 0. -1.
         11    1    3    3    0    0 -0.57543406462E+01 -0.51582475520E+01 -0.61473773333E+00  0.77522807497E+01  0.51100000000E-03 0. -1.
        -11    1    3    3    0    0  0.12369107545E+01 -0.33548866520E+02  0.19467742154E+02  0.38807852013E+02  0.51100000000E-03 0.  1.
         12    1    3    3    0    0  0.45204259031E+01  0.39347469593E+02 -0.17861528510E+02  0.43447575472E+02  0.00000000000E+00 0. -1.
</event>
<event>
 7    1  0.3032584E-015  0.9000775E+02  0.7816164E-02  0.1186339E+00
        -11   -1    0    0    0    0  0.00000000000E+00  0.00000000000E+00  0.45593999997E+02  0.45594000000E+02  0.51100000000E-03 0. -1.
         11   -1    0    0    0    0 -0.00000000000E+00 -0.00000000000E+00 -0.45593999997E+02  0.45594000000E+02  0.51100000000E-03 0.  1.
    9900012    2    1    2    0    0  0.33758571641E+00  0.39333104074E+00 -0.10603400610E+01  0.90007748133E+02  0.90000009609E+02 0.  0.
         12    1    1    2    0    0 -0.33758571641E+00 -0.39333104074E+00  0.10603400610E+01  0.11802518666E+01  0.00000000000E+00 0. -1.
         11    1    3    3    0    0  0.20148151001E+01  0.29395461060E+02  0.16194527896E+01  0.29508901003E+02  0.51100000000E-03 0. -1.
        -11    1    3    3    0    0  0.19547449934E+02  0.40693718458E+01  0.47077025501E+01  0.20514020808E+02  0.51100000000E-03 0.  1.
        -12    1    3    3    0    0 -0.21224679318E+02 -0.33071501865E+02 -0.73874954008E+01  0.39984826322E+02  0.00000000000E+00 0.  1.
</event>
<event>
 7    1  0.3032584E-015  0.9000776E+02  0.7816164E-02  0.1186339E+00
        -11   -1    0    0    0    0  0.00000000000E+00  0.00000000000E+00  0.45593999997E+02  0.45594000000E+02  0.51100000000E-03 0.  1.
         11   -1    0    0    0    0 -0.00000000000E+00 -0.00000000000E+00 -0.45593999997E+02  0.45594000000E+02  0.51100000000E-03 0. -1.
    9900012    2    1    2    0    0 -0.20249203396E+00  0.89992731392E+00  0.73627643480E+00  0.90007756304E+02  0.90000017887E+02 0.  0.
         12    1    1    2    0    0  0.20249203396E+00 -0.89992731392E+00 -0.73627643480E+00  0.11802436963E+01  0.00000000000E+00 0. -1.
         11    1    3    3    0    0 -0.29726403119E+02  0.24109540260E+02  0.19271243123E+01  0.38322875444E+02  0.51100000000E-03 0. -1.
        -11    1    3    3    0    0 -0.71594548205E+01 -0.27569643935E+01 -0.55362759751E+01  0.94609195075E+01  0.51100000000E-03 0.  1.
        -12    1    3    3    0    0  0.36683365905E+02 -0.20452648553E+02  0.43454280976E+01  0.42223961352E+02  0.00000000000E+00 0.  1.
</event>
<event>
 7    1  0.3032584E-015  0.9000800E+02  0.7816164E-02  0.1186339E+00
        -11   -1    0    0    0    0  0.00000000000E+00  0.00000000000E+00  0.45593999997E+02  0.45594000000E+02  0.51100000000E-03 0.  1.
         11   -1    0    0    0    0 -0.00000000000E+00 -0.00000000000E+00 -0.45593999997E+02  0.45594000000E+02  0.51100000000E-03 0. -1.
    9900012    2    1    2    0    0  0.45944835499E+00 -0.23144197861E+00  0.10619514483E+01  0.90008000399E+02  0.90000265204E+02 0.  0.
         12    1    1    2    0    0 -0.45944835499E+00  0.23144197861E+00 -0.10619514483E+01  0.11799996012E+01  0.00000000000E+00 0. -1.
         11    1    3    3    0    0 -0.12187688134E+02 -0.13310747754E+00 -0.39303685528E+01  0.12806453720E+02  0.51100000000E-03 0. -1.
        -11    1    3    3    0    0 -0.23466426869E+02  0.75884073634E+01 -0.20717371713E+02  0.32209728457E+02  0.51100000000E-03 0.  1.
         12    1    3    3    0    0  0.36113563358E+02 -0.76867418644E+01  0.25709691714E+02  0.44991818222E+02  0.00000000000E+00 0. -1.
</event>
<event>
 7    1  0.3364650E-015  0.9000730E+02  0.7816164E-02  0.1186340E+00
        -11   -1    0    0    0    0  0.00000000000E+00  0.00000000000E+00  0.45593999997E+02  0.45594000000E+02  0.51100000000E-03 0. -1.
         11   -1    0    0    0    0 -0.00000000000E+00 -0.00000000000E+00 -0.45593999997E+02  0.45594000000E+02  0.51100000000E-03 0.  1.
    9900012    2    1    2    0    0  0.39061653998E-01  0.32949349987E-01 -0.11795951357E+01  0.90007298447E+02  0.89999553986E+02 0.  0.
         12    1    1    2    0    0 -0.39061653998E-01 -0.32949349987E-01  0.11795951357E+01  0.11807015528E+01  0.00000000000E+00 0. -1.
         11    1    3    3    0    0 -0.14344676996E+01 -0.39204665543E+02 -0.72774713156E-01  0.39230967288E+02  0.51100000000E-03 0. -1.
        -11    1    3    3    0    0  0.94196323013E+01 -0.12506822808E+01 -0.34891834152E+00  0.95087024946E+01  0.51100000000E-03 0.  1.
        -12    1    3    3    0    0 -0.79461029477E+01  0.40488297174E+02 -0.75790208107E+00  0.41267628665E+02  0.00000000000E+00 0.  1.
</event>
<event>
 7    1  0.3032584E-015  0.9000767E+02  0.7816164E-02  0.1186339E+00
        -11   -1    0    0    0    0  0.00000000000E+00  0.00000000000E+00  0.45593999997E+02  0.45594000000E+02  0.51100000000E-03 0.  1.
         11   -1    0    0    0    0 -0.00000000000E+00 -0.00000000000E+00 -0.45593999997E+02  0.45594000000E+02  0.51100000000E-03 0. -1.
    9900012    2    1    2    0    0 -0.22791345495E+00  0.48503808498E+00  0.10516538674E+01  0.90007668545E+02  0.89999928970E+02 0.  0.
         12    1    1    2    0    0  0.22791345495E+00 -0.48503808498E+00 -0.10516538674E+01  0.11803314550E+01  0.00000000000E+00 0. -1.
         11    1    3    3    0    0  0.26549458441E+01 -0.81968985179E+01 -0.79470790333E+01  0.11721516462E+02  0.51100000000E-03 0. -1.
        -11    1    3    3    0    0 -0.38562885275E+02  0.12067624185E+02  0.12446291750E+02  0.42280419260E+02  0.51100000000E-03 0.  1.
         12    1    3    3    0    0  0.35680025976E+02 -0.33856875820E+01 -0.34475588490E+01  0.36005732823E+02  0.00000000000E+00 0. -1.
</event>
<event>
 7    1  0.3032584E-015  0.9000777E+02  0.7816164E-02  0.1186339E+00
        -11   -1    0    0    0    0  0.00000000000E+00  0.00000000000E+00  0.45593999997E+02  0.45594000000E+02  0.51100000000E-03 0. -1.
         11   -1    0    0    0    0 -0.00000000000E+00 -0.00000000000E+00 -0.45593999997E+02  0.45594000000E+02  0.51100000000E-03 0.  1.
    9900012    2    1    2    0    0  0.67464805846E+00 -0.69841059428E-01 -0.96587733763E+00  0.90007768325E+02  0.90000030066E+02 0.  0.
         12    1    1    2    0    0 -0.67464805846E+00  0.69841059428E-01  0.96587733763E+00  0.11802316754E+01  0.00000000000E+00 0. -1.
         11    1    3    3    0    0  0.99896668566E+01 -0.30150069527E+02  0.22238056681E+02  0.38773074441E+02  0.51100000000E-03 0. -1.
        -11    1    3    3    0    0  0.18503330037E+01  0.90064211063E+00 -0.19687333522E+02  0.19794594967E+02  0.51100000000E-03 0.  1.
        -12    1    3    3    0    0 -0.11165351802E+02  0.29179586357E+02 -0.35166004967E+01  0.31440098917E+02  0.00000000000E+00 0.  1.
</event>
<event>
 7    1  0.3032584E-015  0.9000770E+02  0.7816164E-02  0.1186339E+00
        -11   -1    0    0    0    0  0.00000000000E+00  0.00000000000E+00  0.45593999997E+02  0.45594000000E+02  0.51100000000E-03 0.  1.
         11   -1    0    0    0    0 -0.00000000000E+00 -0.00000000000E+00 -0.45593999997E+02  0.45594000000E+02  0.51100000000E-03 0. -1.
    9900012    2    1    2    0    0  0.98647586911E+00 -0.63553860396E+00  0.12671380630E+00  0.90007703280E+02  0.89999964164E+02 0.  0.
         12    1    1    2    0    0 -0.98647586911E+00  0.63553860396E+00 -0.12671380630E+00  0.11802967195E+01  0.00000000000E+00 0. -1.
         11    1    3    3    0    0 -0.23653085241E+02 -0.20629280131E+01 -0.23896814672E+02  0.33686523494E+02  0.51100000000E-03 0. -1.
        -11    1    3    3    0    0 -0.93297831861E+01  0.96598885040E+01 -0.79515378423E+00  0.13453273580E+02  0.51100000000E-03 0.  1.
        -12    1    3    3    0    0  0.33969344296E+02 -0.82324990948E+01  0.24818682263E+02  0.42867906206E+02  0.00000000000E+00 0.  1.
</event>
<event>
 7    1  0.3032584E-015  0.9000781E+02  0.7816164E-02  0.1186339E+00
        -11   -1    0    0    0    0  0.00000000000E+00  0.00000000000E+00  0.45593999997E+02  0.45594000000E+02  0.51100000000E-03 0. -1.
         11   -1    0    0    0    0 -0.00000000000E+00 -0.00000000000E+00 -0.45593999997E+02  0.45594000000E+02  0.51100000000E-03 0.  1.
    9900012    2    1    2    0    0 -0.61267153565E+00 -0.20521361775E+00 -0.98760228611E+00  0.90007814712E+02  0.90000077066E+02 0.  0.
         12    1    1    2    0    0  0.61267153565E+00  0.20521361775E+00  0.98760228611E+00  0.11801852884E+01  0.00000000000E+00 0. -1.
         11    1    3    3    0    0  0.50541111116E+01 -0.78956383188E+01  0.14771052271E+01  0.94903626750E+01  0.51100000000E-03 0. -1.
        -11    1    3    3    0    0 -0.20903834255E+01  0.69489136213E+01 -0.41086979905E+02  0.41722859697E+02  0.51100000000E-03 0.  1.
         12    1    3    3    0    0 -0.35763992218E+01  0.74151107977E+00  0.38622272392E+02  0.38794592339E+02  0.00000000000E+00 0. -1.
</event>
<event>
 7    1  0.3032584E-015  0.9000769E+02  0.7816164E-02  0.1186339E+00
        -11   -1    0    0    0    0  0.00000000000E+00  0.00000000000E+00  0.45593999997E+02  0.45594000000E+02  0.51100000000E-03 0.  1.
         11   -1    0    0    0    0 -0.00000000000E+00 -0.00000000000E+00 -0.45593999997E+02  0.45594000000E+02  0.51100000000E-03 0. -1.
    9900012    2    1    2    0    0 -0.73117860177E+00  0.75318425905E+00  0.53966027874E+00  0.90007685681E+02  0.89999946332E+02 0.  0.
         12    1    1    2    0    0  0.73117860177E+00 -0.75318425905E+00 -0.53966027874E+00  0.11803143192E+01  0.00000000000E+00 0. -1.
         11    1    3    3    0    0 -0.49073976333E+01  0.58898885597E+01  0.61497893542E+01  0.98281864115E+01  0.51100000000E-03 0. -1.
        -11    1    3    3    0    0  0.13030553302E+02 -0.11703541109E+02  0.34441135120E+02  0.38638840335E+02  0.51100000000E-03 0.  1.
         12    1    3    3    0    0 -0.88543342705E+01  0.65668368089E+01 -0.40051264195E+02  0.41540658934E+02  0.00000000000E+00 0. -1.
</event>
<event>
 7    1  0.3032584E-015  0.9000718E+02  0.7816164E-02  0.1186340E+00
        -11   -1    0    0    0    0  0.00000000000E+00  0.00000000000E+00  0.45593999997E+02  0.45594000000E+02  0.51100000000E-03 0.  1.
         11   -1    0    0    0    0 -0.00000000000E+00 -0.00000000000E+00 -0.45593999997E+02  0.45594000000E+02  0.51100000000E-03 0. -1.
    9900012    2    1    2    0    0 -0.35381136355E-01 -0.11802441609E+01  0.10662900007E-01  0.90007177489E+02  0.89999431430E+02 0.  0.
         12    1    1    2    0    0  0.35381136355E-01  0.11802441609E+01 -0.10662900007E-01  0.11808225106E+01  0.00000000000E+00 0. -1.
         11    1    3    3    0    0  0.76493433749E+01  0.26576778403E+01  0.62974565664E+01  0.10258346116E+02  0.51100000000E-03 0. -1.
        -11    1    3    3    0    0  0.31517127755E+02  0.15875181969E+02 -0.64232668370E+01  0.35869333721E+02  0.51100000000E-03 0.  1.
         12    1    3    3    0    0 -0.39201852266E+02 -0.19713103971E+02  0.13647317057E+00  0.43879497652E+02  0.00000000000E+00 0. -1.
</event>
<event>
 7    1  0.3032584E-015  0.9000776E+02  0.7816164E-02  0.1186339E+00
        -11   -1    0    0    0    0  0.00000000000E+00  0.00000000000E+00  0.45593999997E+02  0.45594000000E+02  0.51100000000E-03 0. -1.
         11   -1    0    0    0    0 -0.00000000000E+00 -0.00000000000E+00 -0.45593999997E+02  0.45594000000E+02  0.51100000000E-03 0.  1.
    9900012    2    1    2    0    0 -0.28234401798E+00  0.97111554702E+00 -0.60842751655E+00  0.90007759519E+02  0.90000021145E+02 0.  0.
         12    1    1    2    0    0  0.28234401798E+00 -0.97111554702E+00  0.60842751655E+00  0.11802404810E+01  0.00000000000E+00 0. -1.
         11    1    3    3    0    0 -0.30087713748E+02  0.50556036642E-01  0.17007764379E+02  0.34562076384E+02  0.51100000000E-03 0. -1.
        -11    1    3    3    0    0 -0.90277658881E+01  0.42027266248E+01  0.41722563535E+01  0.10796813945E+02  0.51100000000E-03 0.  1.
        -12    1    3    3    0    0  0.38833135618E+02 -0.32821671145E+01 -0.21788448249E+02  0.44648869191E+02  0.00000000000E+00 0.  1.
</event>
<event>
 7    1  0.3032584E-015  0.9000767E+02  0.7816164E-02  0.1186339E+00
        -11   -1    0    0    0    0  0.00000000000E+00  0.00000000000E+00  0.45593999997E+02  0.45594000000E+02  0.51100000000E-03 0.  1.
         11   -1    0    0    0    0 -0.00000000000E+00 -0.00000000000E+00 -0.45593999997E+02  0.45594000000E+02  0.51100000000E-03 0. -1.
    9900012    2    1    2    0    0 -0.10978582786E+01 -0.36389988594E+00  0.23549625229E+00  0.90007671905E+02  0.89999932374E+02 0.  0.
         12    1    1    2    0    0  0.10978582786E+01  0.36389988594E+00 -0.23549625229E+00  0.11803280949E+01  0.00000000000E+00 0. -1.
         11    1    3    3    0    0  0.12607236710E+02 -0.89339866632E+01 -0.68583565843E+01  0.16905489950E+02  0.51100000000E-03 0. -1.
        -11    1    3    3    0    0  0.94151198667E+01 -0.40936522881E+01  0.33951088257E+02  0.35469407456E+02  0.51100000000E-03 0.  1.
         12    1    3    3    0    0 -0.23120214855E+02  0.12663739065E+02 -0.26857235421E+02  0.37632774499E+02  0.00000000000E+00 0. -1.
</event>
<event>
 7    1  0.3032584E-015  0.9000752E+02  0.7816164E-02  0.1186339E+00
        -11   -1    0    0    0    0  0.00000000000E+00  0.00000000000E+00  0.45593999997E+02  0.45594000000E+02  0.51100000000E-03 0. -1.
         11   -1    0    0    0    0 -0.00000000000E+00 -0.00000000000E+00 -0.45593999997E+02  0.45594000000E+02  0.51100000000E-03 0.  1.
    9900012    2    1    2    0    0 -0.60061848439E+00  0.33974031913E+00 -0.95779845936E+00  0.90007515380E+02  0.89999773783E+02 0.  0.
         12    1    1    2    0    0  0.60061848439E+00 -0.33974031913E+00  0.95779845936E+00  0.11804846195E+01  0.00000000000E+00 0. -1.
         11    1    3    3    0    0  0.77652492758E+01  0.31798659687E+01 -0.49568476790E+01  0.97458187479E+01  0.51100000000E-03 0. -1.
        -11    1    3    3    0    0  0.17479451974E+01  0.38017883511E+02  0.11827532296E+01  0.38076419009E+02  0.51100000000E-03 0.  1.
         12    1    3    3    0    0 -0.10113812958E+02 -0.40858009160E+02  0.28162959900E+01  0.42185277624E+02  0.00000000000E+00 0. -1.
</event>
<event>
 7    1  0.3032584E-015  0.9000777E+02  0.7816164E-02  0.1186339E+00
        -11   -1    0    0    0    0  0.00000000000E+00  0.00000000000E+00  0.45593999997E+02  0.45594000000E+02  0.51100000000E-03 0. -1.
         11   -1    0    0    0    0 -0.00000000000E+00 -0.00000000000E+00 -0.45593999997E+02  0.45594000000E+02  0.51100000000E-03 0.  1.
    9900012    2    1    2    0    0  0.10863996318E+01 -0.46097196865E+00 -0.13688557433E-01  0.90007768373E+02  0.90000030116E+02 0.  0.
         12    1    1    2    0    0 -0.10863996318E+01  0.46097196865E+00  0.13688557433E-01  0.11802316266E+01  0.00000000000E+00 0. -1.
         11    1    3    3    0    0  0.21059319661E+02 -0.30631910750E+02  0.87204311543E+01  0.38181865075E+02  0.51100000000E-03 0. -1.
        -11    1    3    3    0    0 -0.11735853773E+01 -0.74702256835E+01 -0.60170379408E+01  0.96636597748E+01  0.51100000000E-03 0.  1.
        -12    1    3    3    0    0 -0.18799334652E+02  0.37641164465E+02 -0.27170817709E+01  0.42162243524E+02  0.00000000000E+00 0.  1.
</event>
<event>
 7    1  0.3032584E-015  0.9000762E+02  0.7816164E-02  0.1186339E+00
        -11   -1    0    0    0    0  0.00000000000E+00  0.00000000000E+00  0.45593999997E+02  0.45594000000E+02  0.51100000000E-03 0. -1.
         11   -1    0    0    0    0 -0.00000000000E+00 -0.00000000000E+00 -0.45593999997E+02  0.45594000000E+02  0.51100000000E-03 0.  1.
    9900012    2    1    2    0    0 -0.84718042887E+00 -0.81112780289E+00 -0.13287674845E+00  0.90007619035E+02  0.89999878806E+02 0.  0.
         12    1    1    2    0    0  0.84718042887E+00  0.81112780289E+00  0.13287674845E+00  0.11803809648E+01  0.00000000000E+00 0. -1.
         11    1    3    3    0    0  0.68448581907E+01  0.65501741905E+01  0.15112760291E+01  0.95937907562E+01  0.51100000000E-03 0. -1.
        -11    1    3    3    0    0  0.24023729494E+02  0.25246309833E+02  0.81632424665E+00  0.34859462482E+02  0.51100000000E-03 0.  1.
         12    1    3    3    0    0 -0.31715768113E+02 -0.32607611826E+02 -0.24604770242E+01  0.45554365798E+02  0.00000000000E+00 0. -1.
</event>
<event>
 7    1  0.3032584E-015  0.9000776E+02  0.7816164E-02  0.1186339E+00
        -11   -1    0    0    0    0  0.00000000000E+00  0.00000000000E+00  0.45593999997E+02  0.45594000000E+02  0.51100000000E-03 0.  1.
         11   -1    0    0    0    0 -0.00000000000E+00 -0.00000000000E+00 -0.45593999997E+02  0.45594000000E+02  0.51100000000E-03 0. -1.
    9900012    2    1    2    0    0  0.59723957492E+00  0.80104553385E+00  0.62816813553E+00  0.90007760929E+02  0.90000022574E+02 0.  0.
         12    1    1    2    0    0 -0.59723957492E+00 -0.80104553385E+00 -0.62816813553E+00  0.11802390705E+01  0.00000000000E+00 0. -1.
         11    1    3    3    0    0 -0.12088104172E+01  0.19643139740E+02 -0.35628465487E+02  0.40702600835E+02  0.51100000000E-03 0. -1.
        -11    1    3    3    0    0  0.14826781109E+01  0.71981759329E+01  0.72545856983E+01  0.10326717051E+02  0.51100000000E-03 0.  1.
        -12    1    3    3    0    0  0.32337188129E+00 -0.26040270139E+02  0.29002047924E+02  0.38978443044E+02  0.00000000000E+00 0.  1.
</event>
<event>
 7    1  0.3032584E-015  0.9000778E+02  0.7816164E-02  0.1186339E+00
        -11   -1    0    0    0    0  0.00000000000E+00  0.00000000000E+00  0.45593999997E+02  0.45594000000E+02  0.51100000000E-03 0.  1.
         11   -1    0    0    0    0 -0.00000000000E+00 -0.00000000000E+00 -0.45593999997E+02  0.45594000000E+02  0.51100000000E-03 0. -1.
    9900012    2    1    2    0    0 -0.90785547385E-01  0.99558008733E+00 -0.62729865405E+00  0.90007777425E+02  0.90000039287E+02 0.  0.
         12    1    1    2    0    0  0.90785547385E-01 -0.99558008733E+00  0.62729865405E+00  0.11802225753E+01  0.00000000000E+00 0. -1.
         11    1    3    3    0    0 -0.35219319538E+01  0.13004588655E+02 -0.10582954876E+00  0.13473475087E+02  0.51100000000E-03 0. -1.
        -11    1    3    3    0    0 -0.64774368193E+01 -0.22095447104E+02  0.32950640739E+02  0.40198391707E+02  0.51100000000E-03 0.  1.
         12    1    3    3    0    0  0.99085832258E+01  0.10086438537E+02 -0.33472109845E+02  0.36335910630E+02  0.00000000000E+00 0. -1.
</event>
<event>
 7    1  0.3032584E-015  0.9000769E+02  0.7816164E-02  0.1186339E+00
        -11   -1    0    0    0    0  0.00000000000E+00  0.00000000000E+00  0.45593999997E+02  0.45594000000E+02  0.51100000000E-03 0.  1.
         11   -1    0    0    0    0 -0.00000000000E+00 -0.00000000000E+00 -0.45593999997E+02  0.45594000000E+02  0.51100000000E-03 0. -1.
    9900012    2    1    2    0    0  0.51067143303E+00  0.52399511843E+00  0.92616441974E+00  0.90007687868E+02  0.89999948548E+02 0.  0.
         12    1    1    2    0    0 -0.51067143303E+00 -0.52399511843E+00 -0.92616441974E+00  0.11803121320E+01  0.00000000000E+00 0. -1.
         11    1    3    3    0    0 -0.77144459147E+01 -0.25383105678E+02  0.15579602366E+02  0.30765869723E+02  0.51100000000E-03 0. -1.
        -11    1    3    3    0    0  0.86595215971E+01 -0.13915460964E+02  0.10713520564E+01  0.16424833747E+02  0.51100000000E-03 0.  1.
        -12    1    3    3    0    0 -0.43440424941E+00  0.39822561761E+02 -0.15724790003E+02  0.42816984398E+02  0.00000000000E+00 0.  1.
</event>
<event>
 7    1  0.3032584E-015  0.9000758E+02  0.7816164E-02  0.1186339E+00
        -11   -1    0    0    0    0  0.00000000000E+00  0.00000000000E+00  0.45593999997E+02  0.45594000000E+02  0.51100000000E-03 0. -1.
         11   -1    0    0    0    0 -0.00000000000E+00 -0.00000000000E+00 -0.45593999997E+02  0.45594000000E+02  0.51100000000E-03 0.  1.
    9900012    2    1    2    0    0 -0.65780479067E+00  0.21129156296E+00 -0.95709428036E+00  0.90007584510E+02  0.89999843826E+02 0.  0.
         12    1    1    2    0    0  0.65780479067E+00 -0.21129156296E+00  0.95709428036E+00  0.11804154899E+01  0.00000000000E+00 0. -1.
         11    1    3    3    0    0  0.67680033365E+01 -0.19417445238E+02  0.60339854558E+01  0.21430166342E+02  0.51100000000E-03 0. -1.
        -11    1    3    3    0    0  0.19483987966E+02  0.24898469483E+02 -0.20831317230E+02  0.37861634242E+02  0.51100000000E-03 0.  1.
         12    1    3    3    0    0 -0.26909796093E+02 -0.52697326830E+01  0.13840237494E+02  0.30715783926E+02  0.00000000000E+00 0. -1.
</event>
<event>
 7    1  0.3032584E-015  0.9000765E+02  0.7816164E-02  0.1186339E+00
        -11   -1    0    0    0    0  0.00000000000E+00  0.00000000000E+00  0.45593999997E+02  0.45594000000E+02  0.51100000000E-03 0.  1.
         11   -1    0    0    0    0 -0.00000000000E+00 -0.00000000000E+00 -0.45593999997E+02  0.45594000000E+02  0.51100000000E-03 0. -1.
    9900012    2    1    2    0    0 -0.82409086252E-01  0.10038858622E+01  0.61534370128E+00  0.90007650072E+02  0.89999910253E+02 0.  0.
         12    1    1    2    0    0  0.82409086252E-01 -0.10038858622E+01 -0.61534370128E+00  0.11803499280E+01  0.00000000000E+00 0. -1.
         11    1    3    3    0    0 -0.30725864151E+01 -0.93570429879E+01 -0.18953254963E+01  0.10029321999E+02  0.51100000000E-03 0. -1.
        -11    1    3    3    0    0 -0.24605501753E+02 -0.22037371045E+02  0.14032243594E+02  0.35888442424E+02  0.51100000000E-03 0.  1.
         12    1    3    3    0    0  0.27595679081E+02  0.32398299895E+02 -0.11521574396E+02  0.44089885650E+02  0.00000000000E+00 0. -1.
</event>
<event>
 7    1  0.3032584E-015  0.9000777E+02  0.7816164E-02  0.1186339E+00
        -11   -1    0    0    0    0  0.00000000000E+00  0.00000000000E+00  0.45593999997E+02  0.45594000000E+02  0.51100000000E-03 0.  1.
         11   -1    0    0    0    0 -0.00000000000E+00 -0.00000000000E+00 -0.45593999997E+02  0.45594000000E+02  0.51100000000E-03 0. -1.
    9900012    2    1    2    0    0 -0.94530235783E+00  0.44363557201E+00  0.55002536087E+00  0.90007772494E+02  0.90000034291E+02 0.  0.
         12    1    1    2    0    0  0.94530235783E+00 -0.44363557201E+00 -0.55002536087E+00  0.11802275061E+01  0.00000000000E+00 0. -1.
         11    1    3    3    0    0 -0.55131303585E+01 -0.53964791731E+01 -0.27294117696E+01  0.81832928998E+01  0.51100000000E-03 0. -1.
        -11    1    3    3    0    0 -0.28335534428E+02 -0.24155983021E+02  0.15314011121E+01  0.37266059849E+02  0.51100000000E-03 0.  1.
         12    1    3    3    0    0  0.32903362429E+02  0.29996097766E+02  0.17480360184E+01  0.44558419745E+02  0.00000000000E+00 0. -1.
</event>
<event>
 7    1  0.3032584E-015  0.9000791E+02  0.7816164E-02  0.1186339E+00
        -11   -1    0    0    0    0  0.00000000000E+00  0.00000000000E+00  0.45593999997E+02  0.45594000000E+02  0.51100000000E-03 0.  1.
         11   -1    0    0    0    0 -0.00000000000E+00 -0.00000000000E+00 -0.45593999997E+02  0.45594000000E+02  0.51100000000E-03 0. -1.
    9900012    2    1    2    0    0 -0.87534459701E+00 -0.73807471947E+00  0.28571452856E+00  0.90007908797E+02  0.90000172393E+02 0.  0.
         12    1    1    2    0    0  0.87534459701E+00  0.73807471947E+00 -0.28571452856E+00  0.11800912028E+01  0.00000000000E+00 0. -1.
         11    1    3    3    0    0 -0.33724574940E+02  0.19187318470E+02 -0.46650349100E+01  0.39080208494E+02  0.51100000000E-03 0. -1.
        -11    1    3    3    0    0  0.53947561994E+01  0.91629858019E+01  0.77698136630E-01  0.10633425625E+02  0.51100000000E-03 0.  1.
        -12    1    3    3    0    0  0.27454474144E+02 -0.29088378991E+02  0.48730513019E+01  0.40294274678E+02  0.00000000000E+00 0.  1.
</event>
<event>
 7    1  0.3032584E-015  0.9000769E+02  0.7816164E-02  0.1186339E+00
        -11   -1    0    0    0    0  0.00000000000E+00  0.00000000000E+00  0.45593999997E+02  0.45594000000E+02  0.51100000000E-03 0.  1.
         11   -1    0    0    0    0 -0.00000000000E+00 -0.00000000000E+00 -0.45593999997E+02  0.45594000000E+02  0.51100000000E-03 0. -1.
    9900012    2    1    2    0    0  0.90821632311E+00  0.75203569319E+00  0.52079185608E-01  0.90007692068E+02  0.89999952803E+02 0.  0.
         12    1    1    2    0    0 -0.90821632311E+00 -0.75203569319E+00 -0.52079185608E-01  0.11803079323E+01  0.00000000000E+00 0. -1.
         11    1    3    3    0    0  0.22822344147E+00  0.12520220883E+02 -0.83145050872E+01  0.15031267811E+02  0.51100000000E-03 0. -1.
        -11    1    3    3    0    0  0.25666393517E+02  0.16229213013E+02 -0.11554456593E+02  0.32490869158E+02  0.51100000000E-03 0.  1.
         12    1    3    3    0    0 -0.24986400635E+02 -0.27997398203E+02  0.19921040866E+02  0.42485555099E+02  0.00000000000E+00 0. -1.
</event>
<event>
 7    1  0.3032584E-015  0.9000783E+02  0.7816164E-02  0.1186339E+00
        -11   -1    0    0    0    0  0.00000000000E+00  0.00000000000E+00  0.45593999997E+02  0.45594000000E+02  0.51100000000E-03 0. -1.
         11   -1    0    0    0    0 -0.00000000000E+00 -0.00000000000E+00 -0.45593999997E+02  0.45594000000E+02  0.51100000000E-03 0.  1.
    9900012    2    1    2    0    0 -0.71030228525E+00  0.78666563444E+00  0.51905635643E+00  0.90007834055E+02  0.90000096664E+02 0.  0.
         12    1    1    2    0    0  0.71030228525E+00 -0.78666563444E+00 -0.51905635643E+00  0.11801659451E+01  0.00000000000E+00 0. -1.
         11    1    3    3    0    0 -0.29938943941E+02 -0.10368243714E+02  0.17371287842E+02  0.36133121697E+02  0.51100000000E-03 0. -1.
        -11    1    3    3    0    0 -0.84192166520E+01  0.42690825023E+01  0.40438422441E+01  0.10269417452E+02  0.51100000000E-03 0.  1.
        -12    1    3    3    0    0  0.37647858308E+02  0.68858268462E+01 -0.20896073730E+02  0.43605294906E+02  0.00000000000E+00 0.  1.
</event>
<event>
 7    1  0.3032584E-015  0.9000774E+02  0.7816164E-02  0.1186339E+00
        -11   -1    0    0    0    0  0.00000000000E+00  0.00000000000E+00  0.45593999997E+02  0.45594000000E+02  0.51100000000E-03 0. -1.
         11   -1    0    0    0    0 -0.00000000000E+00 -0.00000000000E+00 -0.45593999997E+02  0.45594000000E+02  0.51100000000E-03 0.  1.
    9900012    2    1    2    0    0 -0.29142177879E+00  0.65134341477E+00 -0.94012982447E+00  0.90007737748E+02  0.89999999086E+02 0.  0.
         12    1    1    2    0    0  0.29142177879E+00 -0.65134341477E+00  0.94012982447E+00  0.11802622522E+01  0.00000000000E+00 0. -1.
         11    1    3    3    0    0 -0.31621620469E+01  0.12736357888E+02 -0.72082323788E+00  0.13142818094E+02  0.51100000000E-03 0. -1.
        -11    1    3    3    0    0 -0.10397028636E+02  0.27987257620E+02 -0.13283677590E+02  0.32677834752E+02  0.51100000000E-03 0.  1.
         12    1    3    3    0    0  0.13267768904E+02 -0.40072272092E+02  0.13064371004E+02  0.44187084901E+02  0.00000000000E+00 0. -1.
</event>
<event>
 7    1  0.3032584E-015  0.9000778E+02  0.7816164E-02  0.1186339E+00
        -11   -1    0    0    0    0  0.00000000000E+00  0.00000000000E+00  0.45593999997E+02  0.45594000000E+02  0.51100000000E-03 0. -1.
         11   -1    0    0    0    0 -0.00000000000E+00 -0.00000000000E+00 -0.45593999997E+02  0.45594000000E+02  0.51100000000E-03 0.  1.
    9900012    2    1    2    0    0 -0.22850082706E+00  0.11267008246E+01 -0.26692366164E+00  0.90007781538E+02  0.90000043455E+02 0.  0.
         12    1    1    2    0    0  0.22850082706E+00 -0.11267008246E+01  0.26692366164E+00  0.11802184616E+01  0.00000000000E+00 0. -1.
         11    1    3    3    0    0  0.72363884371E+01 -0.70143655761E+01  0.43055664355E+01  0.10959221899E+02  0.51100000000E-03 0. -1.
        -11    1    3    3    0    0  0.21624739349E+02 -0.25764165916E+02  0.28699035705E+01  0.33758820240E+02  0.51100000000E-03 0.  1.
         12    1    3    3    0    0 -0.29089628613E+02  0.33905232316E+02 -0.74423936676E+01  0.45289739399E+02  0.00000000000E+00 0. -1.
</event>
<event>
 7    1  0.3032584E-015  0.9000774E+02  0.7816164E-02  0.1186339E+00
        -11   -1    0    0    0    0  0.00000000000E+00  0.00000000000E+00  0.45593999997E+02  0.45594000000E+02  0.51100000000E-03 0.  1.
         11   -1    0    0    0    0 -0.00000000000E+00 -0.00000000000E+00 -0.45593999997E+02  0.45594000000E+02  0.51100000000E-03 0. -1.
    9900012    2    1    2    0    0  0.70171128575E-01  0.12734546026E+00  0.11712677947E+01  0.90007741935E+02  0.90000003328E+02 0.  0.
         12    1    1    2    0    0 -0.70171128575E-01 -0.12734546026E+00 -0.11712677947E+01  0.11802580651E+01  0.00000000000E+00 0. -1.
         11    1    3    3    0    0 -0.23702202269E+01  0.74068237947E+01 -0.54860473947E+01  0.95171266109E+01  0.51100000000E-03 0. -1.
        -11    1    3    3    0    0 -0.30009222833E+02 -0.47646668954E+01 -0.21687711259E+02  0.37331117390E+02  0.51100000000E-03 0.  1.
         12    1    3    3    0    0  0.32449614189E+02 -0.25148114391E+01  0.28345026448E+02  0.43159497934E+02  0.00000000000E+00 0. -1.
</event>
<event>
 7    1  0.3032584E-015  0.9000774E+02  0.7816164E-02  0.1186339E+00
        -11   -1    0    0    0    0  0.00000000000E+00  0.00000000000E+00  0.45593999997E+02  0.45594000000E+02  0.51100000000E-03 0. -1.
         11   -1    0    0    0    0 -0.00000000000E+00 -0.00000000000E+00 -0.45593999997E+02  0.45594000000E+02  0.51100000000E-03 0.  1.
    9900012    2    1    2    0    0 -0.10849549438E+01  0.28569913135E+00 -0.36642164391E+00  0.90007738993E+02  0.90000000348E+02 0.  0.
         12    1    1    2    0    0  0.10849549438E+01 -0.28569913135E+00  0.36642164391E+00  0.11802610071E+01  0.00000000000E+00 0. -1.
         11    1    3    3    0    0  0.90493169406E+01  0.17132824049E+01  0.46042485424E+01  0.10296823714E+02  0.51100000000E-03 0. -1.
        -11    1    3    3    0    0  0.27519733485E+02 -0.11907905211E+01 -0.24878652077E+02  0.37117395418E+02  0.51100000000E-03 0.  1.
         12    1    3    3    0    0 -0.37654005370E+02 -0.23679275247E+00  0.19907981891E+02  0.42593519861E+02  0.00000000000E+00 0. -1.
</event>
<event>
 7    1  0.3032584E-015  0.9000778E+02  0.7816164E-02  0.1186339E+00
        -11   -1    0    0    0    0  0.00000000000E+00  0.00000000000E+00  0.45593999997E+02  0.45594000000E+02  0.51100000000E-03 0. -1.
         11   -1    0    0    0    0 -0.00000000000E+00 -0.00000000000E+00 -0.45593999997E+02  0.45594000000E+02  0.51100000000E-03 0.  1.
    9900012    2    1    2    0    0  0.65324160552E+00 -0.34893581583E+00 -0.91892874302E+00  0.90007783565E+02  0.90000045508E+02 0.  0.
         12    1    1    2    0    0 -0.65324160552E+00  0.34893581583E+00  0.91892874302E+00  0.11802164350E+01  0.00000000000E+00 0. -1.
         11    1    3    3    0    0 -0.23151130341E+02 -0.81047393916E+01  0.28233191897E+02  0.37400197347E+02  0.51100000000E-03 0. -1.
        -11    1    3    3    0    0 -0.18042966071E+01 -0.29476688166E+01  0.65380175578E+01  0.73952627774E+01  0.51100000000E-03 0.  1.
        -12    1    3    3    0    0  0.25608668554E+02  0.10703472392E+02 -0.35690138197E+02  0.45212323441E+02  0.00000000000E+00 0.  1.
</event>
<event>
 7    1  0.3083099E-015  0.9000777E+02  0.7816164E-02  0.1186339E+00
        -11   -1    0    0    0    0  0.00000000000E+00  0.00000000000E+00  0.45593999997E+02  0.45594000000E+02  0.51100000000E-03 0.  1.
         11   -1    0    0    0    0 -0.00000000000E+00 -0.00000000000E+00 -0.45593999997E+02  0.45594000000E+02  0.51100000000E-03 0. -1.
    9900012    2    1    2    0    0  0.35802109489E+00 -0.61160597010E+00  0.94377311340E+00  0.90007767541E+02  0.90000029273E+02 0.  0.
         12    1    1    2    0    0 -0.35802109489E+00  0.61160597010E+00 -0.94377311340E+00  0.11802324587E+01  0.00000000000E+00 0. -1.
         11    1    3    3    0    0  0.10111489320E+02 -0.75216568012E+01 -0.36039640237E+02  0.38179486717E+02  0.51100000000E-03 0. -1.
        -11    1    3    3    0    0  0.73524441490E+01 -0.61511537822E+01  0.66180331454E+00  0.96090120046E+01  0.51100000000E-03 0.  1.
        -12    1    3    3    0    0 -0.17105912375E+02  0.13061204613E+02  0.36321610035E+02  0.42219268820E+02  0.00000000000E+00 0.  1.
</event>
<event>
 7    1  0.3032584E-015  0.9000774E+02  0.7816164E-02  0.1186339E+00
        -11   -1    0    0    0    0  0.00000000000E+00  0.00000000000E+00  0.45593999997E+02  0.45594000000E+02  0.51100000000E-03 0. -1.
         11   -1    0    0    0    0 -0.00000000000E+00 -0.00000000000E+00 -0.45593999997E+02  0.45594000000E+02  0.51100000000E-03 0.  1.
    9900012    2    1    2    0    0  0.72365241417E+00  0.33139393908E+00 -0.87149932494E+00  0.90007743319E+02  0.90000004731E+02 0.  0.
         12    1    1    2    0    0 -0.72365241417E+00 -0.33139393908E+00  0.87149932494E+00  0.11802566809E+01  0.00000000000E+00 0. -1.
         11    1    3    3    0    0 -0.14332504442E+02 -0.25981058395E+02  0.23344299129E+02  0.37754369032E+02  0.51100000000E-03 0. -1.
        -11    1    3    3    0    0 -0.10080673622E+02  0.75926743433E+00 -0.27646391719E+01  0.10480443584E+02  0.51100000000E-03 0.  1.
        -12    1    3    3    0    0  0.25136830478E+02  0.25553184900E+02 -0.21451159282E+02  0.41772930703E+02  0.00000000000E+00 0.  1.
</event>
<event>
 7    1  0.3032584E-015  0.9000770E+02  0.7816164E-02  0.1186339E+00
        -11   -1    0    0    0    0  0.00000000000E+00  0.00000000000E+00  0.45593999997E+02  0.45594000000E+02  0.51100000000E-03 0.  1.
         11   -1    0    0    0    0 -0.00000000000E+00 -0.00000000000E+00 -0.45593999997E+02  0.45594000000E+02  0.51100000000E-03 0. -1.
    9900012    2    1    2    0    0  0.68777177503E+00 -0.54173645332E+00  0.79157701751E+00  0.90007702337E+02  0.89999963208E+02 0.  0.
         12    1    1    2    0    0 -0.68777177503E+00  0.54173645332E+00 -0.79157701751E+00  0.11802976633E+01  0.00000000000E+00 0. -1.
         11    1    3    3    0    0 -0.18743116377E+01 -0.88158743163E+01  0.23451702233E+01  0.93130289226E+01  0.51100000000E-03 0. -1.
        -11    1    3    3    0    0  0.42763171517E+00  0.28628544679E+02  0.31027148395E+02  0.42219194416E+02  0.51100000000E-03 0.  1.
         12    1    3    3    0    0  0.21344516976E+01 -0.20354406816E+02 -0.32580741601E+02  0.38475478998E+02  0.00000000000E+00 0. -1.
</event>
<event>
 7    1  0.3032584E-015  0.9000779E+02  0.7816164E-02  0.1186339E+00
        -11   -1    0    0    0    0  0.00000000000E+00  0.00000000000E+00  0.45593999997E+02  0.45594000000E+02  0.51100000000E-03 0.  1.
         11   -1    0    0    0    0 -0.00000000000E+00 -0.00000000000E+00 -0.45593999997E+02  0.45594000000E+02  0.51100000000E-03 0. -1.
    9900012    2    1    2    0    0 -0.94385530537E+00 -0.62579582988E+00  0.33229941024E+00  0.90007785547E+02  0.90000047516E+02 0.  0.
         12    1    1    2    0    0  0.94385530537E+00  0.62579582988E+00 -0.33229941024E+00  0.11802144535E+01  0.00000000000E+00 0. -1.
         11    1    3    3    0    0  0.38707781180E+02 -0.52854899888E+01  0.36878874702E+01  0.39240658029E+02  0.51100000000E-03 0. -1.
        -11    1    3    3    0    0 -0.39669427550E+01 -0.10915034406E+02  0.61444693545E+00  0.11629796051E+02  0.51100000000E-03 0.  1.
        -12    1    3    3    0    0 -0.35684693730E+02  0.15574728564E+02 -0.39700349954E+01  0.39137331467E+02  0.00000000000E+00 0.  1.
</event>
<event>
 7    1  0.3032584E-015  0.9000777E+02  0.7816164E-02  0.1186339E+00
        -11   -1    0    0    0    0  0.00000000000E+00  0.00000000000E+00  0.45593999997E+02  0.45594000000E+02  0.51100000000E-03 0.  1.
         11   -1    0    0    0    0 -0.00000000000E+00 -0.00000000000E+00 -0.45593999997E+02  0.45594000000E+02  0.51100000000E-03 0. -1.
    9900012    2    1    2    0    0 -0.42668789978E-01  0.11066577244E+01  0.40795564599E+00  0.90007771313E+02  0.90000033094E+02 0.  0.
         12    1    1    2    0    0  0.42668789978E-01 -0.11066577244E+01 -0.40795564599E+00  0.11802286870E+01  0.00000000000E+00 0. -1.
         11    1    3    3    0    0 -0.10547792736E+02  0.33350147837E+02  0.18657710422E+02  0.39643391011E+02  0.51100000000E-03 0. -1.
        -11    1    3    3    0    0 -0.56232307245E+01 -0.32359599799E+01  0.63297549336E+01  0.90641027440E+01  0.51100000000E-03 0.  1.
        -12    1    3    3    0    0  0.16128354671E+02 -0.29007530133E+02 -0.24579509710E+02  0.41300277558E+02  0.00000000000E+00 0.  1.
</event>
<event>
 7    1  0.3032584E-015  0.9000785E+02  0.7816164E-02  0.1186339E+00
        -11   -1    0    0    0    0  0.00000000000E+00  0.00000000000E+00  0.45593999997E+02  0.45594000000E+02  0.51100000000E-03 0. -1.
         11   -1    0    0    0    0 -0.00000000000E+00 -0.00000000000E+00 -0.45593999997E+02  0.45594000000E+02  0.51100000000E-03 0.  1.
    9900012    2    1    2    0    0 -0.31925320506E+00  0.10501710714E+01  0.43355742236E+00  0.90007850041E+02  0.90000112861E+02 0.  0.
         12    1    1    2    0    0  0.31925320506E+00 -0.10501710714E+01 -0.43355742236E+00  0.11801499594E+01  0.00000000000E+00 0. -1.
         11    1    3    3    0    0  0.46536540746E+01  0.11965233897E+01  0.89319162640E+01  0.10142351447E+02  0.51100000000E-03 0. -1.
        -11    1    3    3    0    0 -0.30542872028E+01 -0.26619874686E+02 -0.33842825432E+02  0.43165764584E+02  0.51100000000E-03 0.  1.
         12    1    3    3    0    0 -0.19186200768E+01  0.26473522368E+02  0.25344466591E+02  0.36699734009E+02  0.00000000000E+00 0. -1.
</event>
<event>
 7    1  0.3032584E-015  0.9000772E+02  0.7816164E-02  0.1186339E+00
        -11   -1    0    0    0    0  0.00000000000E+00  0.00000000000E+00  0.45593999997E+02  0.45594000000E+02  0.51100000000E-03 0. -1.
         11   -1    0    0    0    0 -0.00000000000E+00 -0.00000000000E+00 -0.45593999997E+02  0.45594000000E+02  0.51100000000E-03 0.  1.
    9900012    2    1    2    0    0  0.10508017150E+01  0.53263081031E+00  0.72002205092E-01  0.90007718617E+02  0.89999979703E+02 0.  0.
         12    1    1    2    0    0 -0.10508017150E+01 -0.53263081031E+00 -0.72002205092E-01  0.11802813825E+01  0.00000000000E+00 0. -1.
         11    1    3    3    0    0  0.51356791853E+01  0.47618227835E+01 -0.67210793742E+01  0.97068566040E+01  0.51100000000E-03 0. -1.
        -11    1    3    3    0    0 -0.29665224003E+02 -0.53421366814E+00 -0.25371454909E+02  0.39038719547E+02  0.51100000000E-03 0.  1.
         12    1    3    3    0    0  0.25580346533E+02 -0.36949783050E+01  0.32164536489E+02  0.41262142467E+02  0.00000000000E+00 0. -1.
</event>
<event>
 7    1  0.3032584E-015  0.9000792E+02  0.7816164E-02  0.1186339E+00
        -11   -1    0    0    0    0  0.00000000000E+00  0.00000000000E+00  0.45593999997E+02  0.45594000000E+02  0.51100000000E-03 0.  1.
         11   -1    0    0    0    0 -0.00000000000E+00 -0.00000000000E+00 -0.45593999997E+02  0.45594000000E+02  0.51100000000E-03 0. -1.
    9900012    2    1    2    0    0 -0.59524450963E+00  0.56204191002E+00  0.84993341423E+00  0.90007917823E+02  0.90000181539E+02 0.  0.
         12    1    1    2    0    0  0.59524450963E+00 -0.56204191002E+00 -0.84993341423E+00  0.11800821766E+01  0.00000000000E+00 0. -1.
         11    1    3    3    0    0 -0.14221307795E+02  0.68670838672E+01 -0.31689910111E+02  0.35406960323E+02  0.51100000000E-03 0. -1.
        -11    1    3    3    0    0 -0.57277040497E+01  0.42198653919E+01 -0.65887921518E+01  0.96967025265E+01  0.51100000000E-03 0.  1.
        -12    1    3    3    0    0  0.19353767335E+02 -0.10524907349E+02  0.39128635677E+02  0.44904254973E+02  0.00000000000E+00 0.  1.
</event>
<event>
 7    1  0.3032584E-015  0.9000775E+02  0.7816164E-02  0.1186339E+00
        -11   -1    0    0    0    0  0.00000000000E+00  0.00000000000E+00  0.45593999997E+02  0.45594000000E+02  0.51100000000E-03 0.  1.
         11   -1    0    0    0    0 -0.00000000000E+00 -0.00000000000E+00 -0.45593999997E+02  0.45594000000E+02  0.51100000000E-03 0. -1.
    9900012    2    1    2    0    0  0.47872544066E-01 -0.46360616510E+00  0.10843279284E+01  0.90007750233E+02  0.90000011736E+02 0.  0.
         12    1    1    2    0    0 -0.47872544066E-01  0.46360616510E+00 -0.10843279284E+01  0.11802497673E+01  0.00000000000E+00 0. -1.
         11    1    3    3    0    0  0.10500021019E+02 -0.54631210253E+01  0.25567828085E+02  0.28174633378E+02  0.51100000000E-03 0. -1.
        -11    1    3    3    0    0  0.93841783753E+01  0.86423795421E+01  0.13656952566E+02  0.18688656495E+02  0.51100000000E-03 0.  1.
         12    1    3    3    0    0 -0.19836326850E+02 -0.36428646819E+01 -0.38140452722E+02  0.43144460361E+02  0.00000000000E+00 0. -1.
</event>
<event>
 7    1  0.3032584E-015  0.9000775E+02  0.7816164E-02  0.1186339E+00
        -11   -1    0    0    0    0  0.00000000000E+00  0.00000000000E+00  0.45593999997E+02  0.45594000000E+02  0.51100000000E-03 0.  1.
         11   -1    0    0    0    0 -0.00000000000E+00 -0.00000000000E+00 -0.45593999997E+02  0.45594000000E+02  0.51100000000E-03 0. -1.
    9900012    2    1    2    0    0  0.24700796753E+00 -0.17715038273E-01  0.11539773310E+01  0.90007749840E+02  0.90000011338E+02 0.  0.
         12    1    1    2    0    0 -0.24700796753E+00  0.17715038273E-01 -0.11539773310E+01  0.11802501596E+01  0.00000000000E+00 0. -1.
         11    1    3    3    0    0 -0.14572695649E+02  0.27341498028E+02 -0.21799159667E+02  0.37883034928E+02  0.51100000000E-03 0. -1.
        -11    1    3    3    0    0 -0.87333869436E+01  0.12848148254E+01  0.65180021653E+00  0.88514202491E+01  0.51100000000E-03 0.  1.
        -12    1    3    3    0    0  0.23553090560E+02 -0.28644027892E+02  0.22301336782E+02  0.43273294664E+02  0.00000000000E+00 0.  1.
</event>
<event>
 7    1  0.3032584E-015  0.9000771E+02  0.7816164E-02  0.1186339E+00
        -11   -1    0    0    0    0  0.00000000000E+00  0.00000000000E+00  0.45593999997E+02  0.45594000000E+02  0.51100000000E-03 0.  1.
         11   -1    0    0    0    0 -0.00000000000E+00 -0.00000000000E+00 -0.45593999997E+02  0.45594000000E+02  0.51100000000E-03 0. -1.
    9900012    2    1    2    0    0 -0.53929225898E-01  0.85100357264E+00  0.81606453195E+00  0.90007713271E+02  0.89999974286E+02 0.  0.
         12    1    1    2    0    0  0.53929225898E-01 -0.85100357264E+00 -0.81606453195E+00  0.11802867289E+01  0.00000000000E+00 0. -1.
         11    1    3    3    0    0 -0.17411691644E+02 -0.26182468825E+01 -0.36245697584E+02  0.40296064526E+02  0.51100000000E-03 0. -1.
        -11    1    3    3    0    0 -0.75879957543E+01  0.24987133287E+01  0.11294761118E+02  0.13834481444E+02  0.51100000000E-03 0.  1.
        -12    1    3    3    0    0  0.24945758172E+02  0.97053712646E+00  0.25767000998E+02  0.35877167301E+02  0.00000000000E+00 0.  1.
</event>
<event>
 7    1  0.3032584E-015  0.9000763E+02  0.7816164E-02  0.1186339E+00
        -11   -1    0    0    0    0  0.00000000000E+00  0.00000000000E+00  0.45593999997E+02  0.45594000000E+02  0.51100000000E-03 0.  1.
         11   -1    0    0    0    0 -0.00000000000E+00 -0.00000000000E+00 -0.45593999997E+02  0.45594000000E+02  0.51100000000E-03 0. -1.
    9900012    2    1    2    0    0 -0.41202049178E+00 -0.11000650425E+01  0.11562182442E+00  0.90007630401E+02  0.89999890322E+02 0.  0.
         12    1    1    2    0    0  0.41202049178E+00  0.11000650425E+01 -0.11562182442E+00  0.11803695988E+01  0.00000000000E+00 0. -1.
         11    1    3    3    0    0 -0.21856974727E+02  0.13090835773E+02 -0.16521778912E+02  0.30365547980E+02  0.51100000000E-03 0. -1.
        -11    1    3    3    0    0  0.17613482432E+02  0.16209078233E+02 -0.15906835657E+01  0.23989565545E+02  0.51100000000E-03 0.  1.
        -12    1    3    3    0    0  0.38314718028E+01 -0.30399979049E+02  0.18228084302E+02  0.35652516877E+02  0.00000000000E+00 0.  1.
</event>
<event>
 7    1  0.3032584E-015  0.9000764E+02  0.7816164E-02  0.1186339E+00
        -11   -1    0    0    0    0  0.00000000000E+00  0.00000000000E+00  0.45593999997E+02  0.45594000000E+02  0.51100000000E-03 0. -1.
         11   -1    0    0    0    0 -0.00000000000E+00 -0.00000000000E+00 -0.45593999997E+02  0.45594000000E+02  0.51100000000E-03 0.  1.
    9900012    2    1    2    0    0  0.86633137409E+00 -0.79716926138E+00 -0.85104867408E-01  0.90007639157E+02  0.89999899194E+02 0.  0.
         12    1    1    2    0    0 -0.86633137409E+00  0.79716926138E+00  0.85104867408E-01  0.11803608429E+01  0.00000000000E+00 0. -1.
         11    1    3    3    0    0  0.16573387694E+02 -0.36430545041E+02  0.11882916608E+01  0.40040901950E+02  0.51100000000E-03 0. -1.
        -11    1    3    3    0    0 -0.58377506809E+01 -0.40916942558E+01 -0.52324109565E+01  0.88430435697E+01  0.51100000000E-03 0.  1.
        -12    1    3    3    0    0 -0.98693056385E+01  0.39725070036E+02  0.39590144282E+01  0.41123693637E+02  0.00000000000E+00 0.  1.
</event>
<event>
 7    1  0.3032584E-015  0.9000768E+02  0.7816164E-02  0.1186339E+00
        -11   -1    0    0    0    0  0.00000000000E+00  0.00000000000E+00  0.45593999997E+02  0.45594000000E+02  0.51100000000E-03 0.  1.
         11   -1    0    0    0    0 -0.00000000000E+00 -0.00000000000E+00 -0.45593999997E+02  0.45594000000E+02  0.51100000000E-03 0. -1.
    9900012    2    1    2    0    0 -0.71185441708E+00  0.91167909371E+00  0.23507087517E+00  0.90007680638E+02  0.89999941222E+02 0.  0.
         12    1    1    2    0    0  0.71185441708E+00 -0.91167909371E+00 -0.23507087517E+00  0.11803193625E+01  0.00000000000E+00 0. -1.
         11    1    3    3    0    0  0.31256190463E+01 -0.63464403348E+00 -0.11335437561E+02  0.11775585439E+02  0.51100000000E-03 0. -1.
        -11    1    3    3    0    0 -0.28951624009E+02  0.25672770498E+02  0.18232689188E+02  0.42775210497E+02  0.51100000000E-03 0.  1.
         12    1    3    3    0    0  0.25114150546E+02 -0.24126447371E+02 -0.66621807521E+01  0.35456884702E+02  0.00000000000E+00 0. -1.
</event>
<event>
 7    1  0.3032584E-015  0.9000771E+02  0.7816164E-02  0.1186339E+00
        -11   -1    0    0    0    0  0.00000000000E+00  0.00000000000E+00  0.45593999997E+02  0.45594000000E+02  0.51100000000E-03 0.  1.
         11   -1    0    0    0    0 -0.00000000000E+00 -0.00000000000E+00 -0.45593999997E+02  0.45594000000E+02  0.51100000000E-03 0. -1.
    9900012    2    1    2    0    0 -0.59691721815E+00 -0.10759319260E+00  0.10125219277E+01  0.90007708886E+02  0.89999969843E+02 0.  0.
         12    1    1    2    0    0  0.59691721815E+00  0.10759319260E+00 -0.10125219277E+01  0.11802911143E+01  0.00000000000E+00 0. -1.
         11    1    3    3    0    0  0.10984206923E+01  0.24124418139E+01  0.97923284839E+01  0.10144757312E+02  0.51100000000E-03 0. -1.
        -11    1    3    3    0    0 -0.24822306914E+02  0.55482853061E+01  0.26618339968E+02  0.36816659453E+02  0.51100000000E-03 0.  1.
         12    1    3    3    0    0  0.23126969003E+02 -0.80683203126E+01 -0.35398146525E+02  0.43046292120E+02  0.00000000000E+00 0. -1.
</event>
<event>
 7    1  0.3032584E-015  0.9000770E+02  0.7816164E-02  0.1186339E+00
        -11   -1    0    0    0    0  0.00000000000E+00  0.00000000000E+00  0.45593999997E+02  0.45594000000E+02  0.51100000000E-03 0. -1.
         11   -1    0    0    0    0 -0.00000000000E+00 -0.00000000000E+00 -0.45593999997E+02  0.45594000000E+02  0.51100000000E-03 0.  1.
    9900012    2    1    2    0    0 -0.12509941185E+00  0.11711259807E+01 -0.77022188955E-01  0.90007695657E+02  0.89999956439E+02 0.  0.
         12    1    1    2    0    0  0.12509941185E+00 -0.11711259807E+01  0.77022188955E-01  0.11803043434E+01  0.00000000000E+00 0. -1.
         11    1    3    3    0    0  0.31293204364E+02 -0.11147345037E+02 -0.93822372517E+01  0.34518897967E+02  0.51100000000E-03 0. -1.
        -11    1    3    3    0    0  0.47845967230E+01 -0.87465946750E+01 -0.50962056789E+01  0.11196722592E+02  0.51100000000E-03 0.  1.
        -12    1    3    3    0    0 -0.36202900498E+02  0.21065065693E+02  0.14401420742E+02  0.44292075098E+02  0.00000000000E+00 0.  1.
</event>
<event>
 7    1  0.3032584E-015  0.9000772E+02  0.7816164E-02  0.1186339E+00
        -11   -1    0    0    0    0  0.00000000000E+00  0.00000000000E+00  0.45593999997E+02  0.45594000000E+02  0.51100000000E-03 0.  1.
         11   -1    0    0    0    0 -0.00000000000E+00 -0.00000000000E+00 -0.45593999997E+02  0.45594000000E+02  0.51100000000E-03 0. -1.
    9900012    2    1    2    0    0 -0.11512987947E+01  0.18745680229E+00 -0.18009904497E+00  0.90007718409E+02  0.89999979492E+02 0.  0.
         12    1    1    2    0    0  0.11512987947E+01 -0.18745680229E+00  0.18009904497E+00  0.11802815907E+01  0.00000000000E+00 0. -1.
         11    1    3    3    0    0  0.23399808776E+02 -0.16594841756E+02 -0.25390495251E+02  0.38309490639E+02  0.51100000000E-03 0. -1.
        -11    1    3    3    0    0  0.38831267587E+01 -0.68641076648E+01  0.23831309582E+01  0.82385654627E+01  0.51100000000E-03 0.  1.
        -12    1    3    3    0    0 -0.28434234330E+02  0.23646406223E+02  0.22827265248E+02  0.43459662308E+02  0.00000000000E+00 0.  1.
</event>
<event>
 7    1  0.3032584E-015  0.9000708E+02  0.7816164E-02  0.1186340E+00
        -11   -1    0    0    0    0  0.00000000000E+00  0.00000000000E+00  0.45593999997E+02  0.45594000000E+02  0.51100000000E-03 0.  1.
         11   -1    0    0    0    0 -0.00000000000E+00 -0.00000000000E+00 -0.45593999997E+02  0.45594000000E+02  0.51100000000E-03 0. -1.
    9900012    2    1    2    0    0 -0.49971240118E+00 -0.99123252192E+00  0.40288740691E+00  0.90007079741E+02  0.89999332391E+02 0.  0.
         12    1    1    2    0    0  0.49971240118E+00  0.99123252192E+00 -0.40288740691E+00  0.11809202594E+01  0.00000000000E+00 0. -1.
         11    1    3    3    0    0  0.25582570541E+02  0.17322400411E+02 -0.16629102027E+02  0.35086471836E+02  0.51100000000E-03 0. -1.
        -11    1    3    3    0    0  0.68444164560E+01  0.76257337586E+01  0.24076214096E+01  0.10525896308E+02  0.51100000000E-03 0.  1.
        -12    1    3    3    0    0 -0.32926699398E+02 -0.25939366691E+02  0.14624368024E+02  0.44394711596E+02  0.00000000000E+00 0.  1.
</event>
<event>
 7    1  0.3032584E-015  0.9000771E+02  0.7816164E-02  0.1186339E+00
        -11   -1    0    0    0    0  0.00000000000E+00  0.00000000000E+00  0.45593999997E+02  0.45594000000E+02  0.51100000000E-03 0. -1.
         11   -1    0    0    0    0 -0.00000000000E+00 -0.00000000000E+00 -0.45593999997E+02  0.45594000000E+02  0.51100000000E-03 0.  1.
    9900012    2    1    2    0    0 -0.10888296675E+01  0.44222746063E+00  0.10935473137E+00  0.90007714598E+02  0.89999975631E+02 0.  0.
         12    1    1    2    0    0  0.10888296675E+01 -0.44222746063E+00 -0.10935473137E+00  0.11802854015E+01  0.00000000000E+00 0. -1.
         11    1    3    3    0    0 -0.13158447944E+00  0.81849791031E+00 -0.80176948314E+01  0.80604394406E+01  0.51100000000E-03 0. -1.
        -11    1    3    3    0    0 -0.28899016625E+02  0.22251489076E+02 -0.14737592980E+02  0.39338004209E+02  0.51100000000E-03 0.  1.
         12    1    3    3    0    0  0.27941771437E+02 -0.22627759526E+02  0.22864642543E+02  0.42609270949E+02  0.00000000000E+00 0. -1.
</event>
<event>
 7    1  0.3032584E-015  0.9000769E+02  0.7816164E-02  0.1186339E+00
        -11   -1    0    0    0    0  0.00000000000E+00  0.00000000000E+00  0.45593999997E+02  0.45594000000E+02  0.51100000000E-03 0. -1.
         11   -1    0    0    0    0 -0.00000000000E+00 -0.00000000000E+00 -0.45593999997E+02  0.45594000000E+02  0.51100000000E-03 0.  1.
    9900012    2    1    2    0    0  0.32665633723E+00  0.80395335934E+00 -0.80004710773E+00  0.90007694641E+02  0.89999955410E+02 0.  0.
         12    1    1    2    0    0 -0.32665633723E+00 -0.80395335934E+00  0.80004710773E+00  0.11803053593E+01  0.00000000000E+00 0. -1.
         11    1    3    3    0    0  0.26852627908E+02  0.26010696775E+01  0.22856618000E+02  0.35358933463E+02  0.51100000000E-03 0. -1.
        -11    1    3    3    0    0  0.92300675544E+01  0.77601480542E+01 -0.79439910044E+01  0.14440257554E+02  0.51100000000E-03 0.  1.
        -12    1    3    3    0    0 -0.35756039125E+02 -0.95572643724E+01 -0.15712674103E+02  0.40208503624E+02  0.00000000000E+00 0.  1.
</event>
<event>
 7    1  0.3032584E-015  0.9000782E+02  0.7816164E-02  0.1186339E+00
        -11   -1    0    0    0    0  0.00000000000E+00  0.00000000000E+00  0.45593999997E+02  0.45594000000E+02  0.51100000000E-03 0.  1.
         11   -1    0    0    0    0 -0.00000000000E+00 -0.00000000000E+00 -0.45593999997E+02  0.45594000000E+02  0.51100000000E-03 0. -1.
    9900012    2    1    2    0    0  0.53044259308E+00 -0.25910048922E+00  0.10219169667E+01  0.90007823448E+02  0.90000085917E+02 0.  0.
         12    1    1    2    0    0 -0.53044259308E+00  0.25910048922E+00 -0.10219169667E+01  0.11801765524E+01  0.00000000000E+00 0. -1.
         11    1    3    3    0    0  0.37760141931E+02 -0.76439963615E+01 -0.33203393494E+01  0.38668897743E+02  0.51100000000E-03 0. -1.
        -11    1    3    3    0    0  0.39600566490E+01  0.13595858681E+01 -0.70326669337E+01  0.81846763441E+01  0.51100000000E-03 0.  1.
        -12    1    3    3    0    0 -0.41189755987E+02  0.60253100042E+01  0.11374923250E+02  0.43154249360E+02  0.00000000000E+00 0.  1.
</event>
<event>
 7    1  0.3032584E-015  0.9000839E+02  0.7816164E-02  0.1186338E+00
        -11   -1    0    0    0    0  0.00000000000E+00  0.00000000000E+00  0.45593999997E+02  0.45594000000E+02  0.51100000000E-03 0.  1.
         11   -1    0    0    0    0 -0.00000000000E+00 -0.00000000000E+00 -0.45593999997E+02  0.45594000000E+02  0.51100000000E-03 0. -1.
    9900012    2    1    2    0    0  0.40812783715E-01  0.45976682362E+00  0.10855584079E+01  0.90008386388E+02  0.90000656286E+02 0.  0.
         12    1    1    2    0    0 -0.40812783715E-01 -0.45976682362E+00 -0.10855584079E+01  0.11796136115E+01  0.00000000000E+00 0. -1.
         11    1    3    3    0    0  0.26742379241E+01  0.66226296852E+00  0.75022453850E+01  0.79921102840E+01  0.51100000000E-03 0. -1.
        -11    1    3    3    0    0 -0.81993050366E+01 -0.29200690005E+02  0.24703262569E+02  0.39117260662E+02  0.51100000000E-03 0.  1.
         12    1    3    3    0    0  0.55658798963E+01  0.28998193860E+02 -0.31119949546E+02  0.42899015443E+02  0.00000000000E+00 0. -1.
</event>
<event>
 7    1  0.3032584E-015  0.9000777E+02  0.7816164E-02  0.1186339E+00
        -11   -1    0    0    0    0  0.00000000000E+00  0.00000000000E+00  0.45593999997E+02  0.45594000000E+02  0.51100000000E-03 0. -1.
         11   -1    0    0    0    0 -0.00000000000E+00 -0.00000000000E+00 -0.45593999997E+02  0.45594000000E+02  0.51100000000E-03 0.  1.
    9900012    2    1    2    0    0 -0.17039985306E+00  0.10444681607E+01  0.52247877161E+00  0.90007773786E+02  0.90000035600E+02 0.  0.
         12    1    1    2    0    0  0.17039985306E+00 -0.10444681607E+01 -0.52247877161E+00  0.11802262137E+01  0.00000000000E+00 0. -1.
         11    1    3    3    0    0 -0.50649258115E+01  0.37603024715E+02  0.19390074653E+02  0.42610045019E+02  0.51100000000E-03 0. -1.
        -11    1    3    3    0    0  0.19369207898E+01 -0.11119577890E+00 -0.94365997914E+01  0.96339733512E+01  0.51100000000E-03 0.  1.
        -12    1    3    3    0    0  0.29576051686E+01 -0.36447360776E+02 -0.94309960901E+01  0.37763755416E+02  0.00000000000E+00 0.  1.
</event>
<event>
 7    1  0.3032584E-015  0.9000781E+02  0.7816164E-02  0.1186339E+00
        -11   -1    0    0    0    0  0.00000000000E+00  0.00000000000E+00  0.45593999997E+02  0.45594000000E+02  0.51100000000E-03 0.  1.
         11   -1    0    0    0    0 -0.00000000000E+00 -0.00000000000E+00 -0.45593999997E+02  0.45594000000E+02  0.51100000000E-03 0. -1.
    9900012    2    1    2    0    0  0.10238978814E+01 -0.58619781205E+00  0.29109736135E-01  0.90007812675E+02  0.90000075002E+02 0.  0.
         12    1    1    2    0    0 -0.10238978814E+01  0.58619781205E+00 -0.29109736135E-01  0.11801873254E+01  0.00000000000E+00 0. -1.
         11    1    3    3    0    0  0.98335478551E+01 -0.11521312917E+01 -0.13767369036E+01  0.99960729636E+01  0.51100000000E-03 0. -1.
        -11    1    3    3    0    0  0.18981658583E+00  0.35430382865E+02  0.18704169335E+02  0.40064872533E+02  0.51100000000E-03 0.  1.
         12    1    3    3    0    0 -0.89994665595E+01 -0.34864449385E+02 -0.17298322696E+02  0.39946867178E+02  0.00000000000E+00 0. -1.
</event>
<event>
 7    1  0.3032584E-015  0.9000778E+02  0.7816164E-02  0.1186339E+00
        -11   -1    0    0    0    0  0.00000000000E+00  0.00000000000E+00  0.45593999997E+02  0.45594000000E+02  0.51100000000E-03 0. -1.
         11   -1    0    0    0    0 -0.00000000000E+00 -0.00000000000E+00 -0.45593999997E+02  0.45594000000E+02  0.51100000000E-03 0.  1.
    9900012    2    1    2    0    0  0.20810940496E+00  0.11522057121E+01  0.14840966973E+00  0.90007782665E+02  0.90000044596E+02 0.  0.
         12    1    1    2    0    0 -0.20810940496E+00 -0.11522057121E+01 -0.14840966973E+00  0.11802173348E+01  0.00000000000E+00 0. -1.
         11    1    3    3    0    0  0.15514296994E+02  0.79575736008E+01  0.38184823681E+02  0.41977340895E+02  0.51100000000E-03 0. -1.
        -11    1    3    3    0    0 -0.10502429473E+02  0.49150457303E+01 -0.49605492186E+01  0.12612127028E+02  0.51100000000E-03 0.  1.
        -12    1    3    3    0    0 -0.48037581160E+01 -0.11720413619E+02 -0.33075864792E+02  0.35418314742E+02  0.00000000000E+00 0.  1.
</event>
<event>
 7    1  0.3032584E-015  0.9000772E+02  0.7816164E-02  0.1186339E+00
        -11   -1    0    0    0    0  0.00000000000E+00  0.00000000000E+00  0.45593999997E+02  0.45594000000E+02  0.51100000000E-03 0.  1.
         11   -1    0    0    0    0 -0.00000000000E+00 -0.00000000000E+00 -0.45593999997E+02  0.45594000000E+02  0.51100000000E-03 0. -1.
    9900012    2    1    2    0    0  0.78326235695E+00  0.85199774978E+00  0.23163753109E+00  0.90007722053E+02  0.89999983184E+02 0.  0.
         12    1    1    2    0    0 -0.78326235695E+00 -0.85199774978E+00 -0.23163753109E+00  0.11802779466E+01  0.00000000000E+00 0. -1.
         11    1    3    3    0    0  0.51351541053E+01 -0.60529303467E+01 -0.78475309190E+01  0.11162056945E+02  0.51100000000E-03 0. -1.
        -11    1    3    3    0    0  0.17328994756E+02 -0.14035296315E+02  0.32936770130E+02  0.39775802051E+02  0.51100000000E-03 0.  1.
         12    1    3    3    0    0 -0.21680886505E+02  0.20940224412E+02 -0.24857601680E+02  0.39069863057E+02  0.00000000000E+00 0. -1.
</event>
<event>
 7    1  0.3032584E-015  0.9000773E+02  0.7816164E-02  0.1186339E+00
        -11   -1    0    0    0    0  0.00000000000E+00  0.00000000000E+00  0.45593999997E+02  0.45594000000E+02  0.51100000000E-03 0. -1.
         11   -1    0    0    0    0 -0.00000000000E+00 -0.00000000000E+00 -0.45593999997E+02  0.45594000000E+02  0.51100000000E-03 0.  1.
    9900012    2    1    2    0    0 -0.87490899010E+00  0.78896189596E+00  0.71465392370E-01  0.90007731422E+02  0.89999992677E+02 0.  0.
         12    1    1    2    0    0  0.87490899010E+00 -0.78896189596E+00 -0.71465392371E-01  0.11802685781E+01  0.00000000000E+00 0. -1.
         11    1    3    3    0    0  0.20007096889E+02  0.95818574324E+01  0.29557370482E+02  0.36955839428E+02  0.51100000000E-03 0. -1.
        -11    1    3    3    0    0 -0.31231898414E+01 -0.56359832138E+00  0.91806379044E+01  0.97137052893E+01  0.51100000000E-03 0.  1.
        -12    1    3    3    0    0 -0.17758816037E+02 -0.82292972150E+01 -0.38666542994E+02  0.43338186704E+02  0.00000000000E+00 0.  1.
</event>
<event>
 7    1  0.3032584E-015  0.9000776E+02  0.7816164E-02  0.1186339E+00
        -11   -1    0    0    0    0  0.00000000000E+00  0.00000000000E+00  0.45593999997E+02  0.45594000000E+02  0.51100000000E-03 0. -1.
         11   -1    0    0    0    0 -0.00000000000E+00 -0.00000000000E+00 -0.45593999997E+02  0.45594000000E+02  0.51100000000E-03 0.  1.
    9900012    2    1    2    0    0  0.95889439532E-01 -0.10935768554E+01  0.43342120888E+00  0.90007763131E+02  0.90000024804E+02 0.  0.
         12    1    1    2    0    0 -0.95889439532E-01  0.10935768554E+01 -0.43342120888E+00  0.11802368693E+01  0.00000000000E+00 0. -1.
         11    1    3    3    0    0  0.55839224385E+01 -0.75493106730E+01 -0.13893022024E+01  0.94922306287E+01  0.51100000000E-03 0. -1.
        -11    1    3    3    0    0  0.79711100456E+01 -0.26842392972E+02 -0.23512433757E+02  0.36563468069E+02  0.51100000000E-03 0.  1.
         12    1    3    3    0    0 -0.13459143045E+02  0.33298126789E+02  0.25335157168E+02  0.43952064433E+02  0.00000000000E+00 0. -1.
</event>
<event>
 7    1  0.3068179E-015  0.9000773E+02  0.7816164E-02  0.1186339E+00
        -11   -1    0    0    0    0  0.00000000000E+00  0.00000000000E+00  0.45593999997E+02  0.45594000000E+02  0.51100000000E-03 0. -1.
         11   -1    0    0    0    0 -0.00000000000E+00 -0.00000000000E+00 -0.45593999997E+02  0.45594000000E+02  0.51100000000E-03 0.  1.
    9900012    2    1    2    0    0  0.11221630948E+01 -0.31874053980E+00  0.17942724717E+00  0.90007728980E+02  0.89999990203E+02 0.  0.
         12    1    1    2    0    0 -0.11221630948E+01  0.31874053980E+00 -0.17942724717E+00  0.11802710197E+01  0.00000000000E+00 0. -1.
         11    1    3    3    0    0  0.42150606729E+02 -0.53751319410E+01  0.13134106767E+01  0.42512242223E+02  0.51100000000E-03 0. -1.
        -11    1    3    3    0    0 -0.51646445104E+01 -0.78242410730E+01 -0.26803082015E+00  0.93789200908E+01  0.51100000000E-03 0.  1.
        -12    1    3    3    0    0 -0.35863799123E+02  0.12880632474E+02 -0.86595260943E+00  0.38116566666E+02  0.00000000000E+00 0.  1.
</event>
<event>
 7    1  0.3032584E-015  0.9000777E+02  0.7816164E-02  0.1186339E+00
        -11   -1    0    0    0    0  0.00000000000E+00  0.00000000000E+00  0.45593999997E+02  0.45594000000E+02  0.51100000000E-03 0.  1.
         11   -1    0    0    0    0 -0.00000000000E+00 -0.00000000000E+00 -0.45593999997E+02  0.45594000000E+02  0.51100000000E-03 0. -1.
    9900012    2    1    2    0    0  0.93646093117E-01  0.78979259786E+00  0.87200458442E+00  0.90007773779E+02  0.90000035592E+02 0.  0.
         12    1    1    2    0    0 -0.93646093117E-01 -0.78979259786E+00 -0.87200458442E+00  0.11802262214E+01  0.00000000000E+00 0. -1.
         11    1    3    3    0    0 -0.44547850122E+01 -0.99579315886E+00 -0.86764752906E+01  0.98039755839E+01  0.51100000000E-03 0. -1.
        -11    1    3    3    0    0  0.34306002318E+01 -0.38273555132E+02 -0.20582979657E+01  0.38482081949E+02  0.51100000000E-03 0.  1.
         12    1    3    3    0    0  0.11178308735E+01  0.40059140889E+02  0.11606777841E+02  0.41721716245E+02  0.00000000000E+00 0. -1.
</event>
<event>
 7    1  0.3032584E-015  0.9000774E+02  0.7816164E-02  0.1186339E+00
        -11   -1    0    0    0    0  0.00000000000E+00  0.00000000000E+00  0.45593999997E+02  0.45594000000E+02  0.51100000000E-03 0. -1.
         11   -1    0    0    0    0 -0.00000000000E+00 -0.00000000000E+00 -0.45593999997E+02  0.45594000000E+02  0.51100000000E-03 0.  1.
    9900012    2    1    2    0    0  0.68457480694E+00  0.95839921962E+00 -0.76372135915E-01  0.90007743912E+02  0.90000005331E+02 0.  0.
         12    1    1    2    0    0 -0.68457480694E+00 -0.95839921962E+00  0.76372135915E-01  0.11802560881E+01  0.00000000000E+00 0. -1.
         11    1    3    3    0    0  0.42482665453E+00 -0.10637228216E+02 -0.67656137571E+01  0.12613668443E+02  0.51100000000E-03 0. -1.
        -11    1    3    3    0    0  0.81115766562E+00  0.15765673927E+02 -0.33474735132E+02  0.37010435603E+02  0.51100000000E-03 0.  1.
         12    1    3    3    0    0 -0.55140951322E+00 -0.41700464909E+01  0.40163976753E+02  0.40383639866E+02  0.00000000000E+00 0. -1.
</event>
<event>
 7    1  0.3032584E-015  0.9000783E+02  0.7816164E-02  0.1186339E+00
        -11   -1    0    0    0    0  0.00000000000E+00  0.00000000000E+00  0.45593999997E+02  0.45594000000E+02  0.51100000000E-03 0.  1.
         11   -1    0    0    0    0 -0.00000000000E+00 -0.00000000000E+00 -0.45593999997E+02  0.45594000000E+02  0.51100000000E-03 0. -1.
    9900012    2    1    2    0    0  0.84340361108E+00 -0.74488841907E+00  0.35582907324E+00  0.90007829361E+02  0.90000091908E+02 0.  0.
         12    1    1    2    0    0 -0.84340361108E+00  0.74488841907E+00 -0.35582907324E+00  0.11801706391E+01  0.00000000000E+00 0. -1.
         11    1    3    3    0    0  0.25471089261E+01  0.89222961575E+01 -0.26653356883E+01  0.96539705404E+01  0.51100000000E-03 0. -1.
        -11    1    3    3    0    0  0.24500130106E+02  0.24383872275E+02  0.11751786318E+02  0.36509369814E+02  0.51100000000E-03 0.  1.
         12    1    3    3    0    0 -0.26203835421E+02 -0.34051056851E+02 -0.87306215564E+01  0.43844489006E+02  0.00000000000E+00 0. -1.
</event>
<event>
 7    1  0.3032584E-015  0.9000772E+02  0.7816164E-02  0.1186339E+00
        -11   -1    0    0    0    0  0.00000000000E+00  0.00000000000E+00  0.45593999997E+02  0.45594000000E+02  0.51100000000E-03 0. -1.
         11   -1    0    0    0    0 -0.00000000000E+00 -0.00000000000E+00 -0.45593999997E+02  0.45594000000E+02  0.51100000000E-03 0.  1.
    9900012    2    1    2    0    0  0.70831825623E-01  0.71570494746E+00 -0.93584406753E+00  0.90007722559E+02  0.89999983697E+02 0.  0.
         12    1    1    2    0    0 -0.70831825623E-01 -0.71570494746E+00  0.93584406753E+00  0.11802774411E+01  0.00000000000E+00 0. -1.
         11    1    3    3    0    0  0.87958934212E+01  0.50069894170E+01 -0.38338933176E+01  0.10822958114E+02  0.51100000000E-03 0. -1.
        -11    1    3    3    0    0 -0.22105570017E+02 -0.11788645138E+02 -0.32249150147E+02  0.40836699982E+02  0.51100000000E-03 0.  1.
         12    1    3    3    0    0  0.13380508422E+02  0.74973606684E+01  0.35147199397E+02  0.38348064463E+02  0.00000000000E+00 0. -1.
</event>
<event>
 7    1  0.3032584E-015  0.9000679E+02  0.7816164E-02  0.1186341E+00
        -11   -1    0    0    0    0  0.00000000000E+00  0.00000000000E+00  0.45593999997E+02  0.45594000000E+02  0.51100000000E-03 0. -1.
         11   -1    0    0    0    0 -0.00000000000E+00 -0.00000000000E+00 -0.45593999997E+02  0.45594000000E+02  0.51100000000E-03 0.  1.
    9900012    2    1    2    0    0  0.94369508586E+00  0.35740239595E+00  0.61397466511E+00  0.90006788005E+02  0.89999036802E+02 0.  0.
         12    1    1    2    0    0 -0.94369508586E+00 -0.35740239595E+00 -0.61397466511E+00  0.11812119950E+01  0.00000000000E+00 0. -1.
         11    1    3    3    0    0  0.75657226242E+01 -0.19940052582E+00 -0.49888286788E+01  0.90646749111E+01  0.51100000000E-03 0. -1.
        -11    1    3    3    0    0 -0.68073914820E+01  0.67406714579E+01 -0.36832612044E+02  0.38058094287E+02  0.51100000000E-03 0.  1.
         12    1    3    3    0    0  0.18536394360E+00 -0.61838685361E+01  0.42435415388E+02  0.42884018807E+02  0.00000000000E+00 0. -1.
</event>
<event>
 7    1  0.3032584E-015  0.9000766E+02  0.7816164E-02  0.1186339E+00
        -11   -1    0    0    0    0  0.00000000000E+00  0.00000000000E+00  0.45593999997E+02  0.45594000000E+02  0.51100000000E-03 0. -1.
         11   -1    0    0    0    0 -0.00000000000E+00 -0.00000000000E+00 -0.45593999997E+02  0.45594000000E+02  0.51100000000E-03 0.  1.
    9900012    2    1    2    0    0 -0.41999255023E+00  0.55435641755E+00 -0.95367184566E+00  0.90007663281E+02  0.89999923637E+02 0.  0.
         12    1    1    2    0    0  0.41999255023E+00 -0.55435641755E+00  0.95367184566E+00  0.11803367185E+01  0.00000000000E+00 0. -1.
         11    1    3    3    0    0  0.30785380697E+02  0.14975569486E+02  0.14251731333E+02  0.37082599590E+02  0.51100000000E-03 0. -1.
        -11    1    3    3    0    0 -0.19459232906E+01  0.11152500789E+02 -0.66650879724E+01  0.13137286221E+02  0.51100000000E-03 0.  1.
        -12    1    3    3    0    0 -0.29259449957E+02 -0.25573713857E+02 -0.85403152063E+01  0.39787777471E+02  0.00000000000E+00 0.  1.
</event>
<event>
 7    1  0.3032584E-015  0.9000766E+02  0.7816164E-02  0.1186339E+00
        -11   -1    0    0    0    0  0.00000000000E+00  0.00000000000E+00  0.45593999997E+02  0.45594000000E+02  0.51100000000E-03 0. -1.
         11   -1    0    0    0    0 -0.00000000000E+00 -0.00000000000E+00 -0.45593999997E+02  0.45594000000E+02  0.51100000000E-03 0.  1.
    9900012    2    1    2    0    0  0.24423462931E+00  0.11064041350E+01 -0.33080179977E+00  0.90007656620E+02  0.89999916887E+02 0.  0.
         12    1    1    2    0    0 -0.24423462931E+00 -0.11064041350E+01  0.33080179977E+00  0.11803433801E+01  0.00000000000E+00 0. -1.
         11    1    3    3    0    0 -0.60163796001E+01  0.41578812682E+01 -0.65091829258E+00  0.73422404631E+01  0.51100000000E-03 0. -1.
        -11    1    3    3    0    0  0.38610604103E+02 -0.83002373495E+01 -0.19831770050E+02  0.44192440449E+02  0.51100000000E-03 0.  1.
         12    1    3    3    0    0 -0.32349989873E+02  0.52487602163E+01  0.20151886543E+02  0.38472975708E+02  0.00000000000E+00 0. -1.
</event>
<event>
 7    1  0.3032584E-015  0.9000777E+02  0.7816164E-02  0.1186339E+00
        -11   -1    0    0    0    0  0.00000000000E+00  0.00000000000E+00  0.45593999997E+02  0.45594000000E+02  0.51100000000E-03 0. -1.
         11   -1    0    0    0    0 -0.00000000000E+00 -0.00000000000E+00 -0.45593999997E+02  0.45594000000E+02  0.51100000000E-03 0.  1.
    9900012    2    1    2    0    0 -0.11376414727E+01 -0.30466779068E+00  0.76711710096E-01  0.90007773213E+02  0.90000035019E+02 0.  0.
         12    1    1    2    0    0  0.11376414727E+01  0.30466779068E+00 -0.76711710096E-01  0.11802267874E+01  0.00000000000E+00 0. -1.
         11    1    3    3    0    0  0.62722323930E+01  0.14061299270E+01 -0.75051181463E+01  0.98815433619E+01  0.51100000000E-03 0. -1.
        -11    1    3    3    0    0 -0.42482858113E+01  0.32916353134E+02 -0.17244285544E+02  0.37401866533E+02  0.51100000000E-03 0.  1.
         12    1    3    3    0    0 -0.31615880544E+01 -0.34627150851E+02  0.24826115400E+02  0.42724363318E+02  0.00000000000E+00 0. -1.
</event>
<event>
 7    1  0.3032584E-015  0.9000779E+02  0.7816164E-02  0.1186339E+00
        -11   -1    0    0    0    0  0.00000000000E+00  0.00000000000E+00  0.45593999997E+02  0.45594000000E+02  0.51100000000E-03 0.  1.
         11   -1    0    0    0    0 -0.00000000000E+00 -0.00000000000E+00 -0.45593999997E+02  0.45594000000E+02  0.51100000000E-03 0. -1.
    9900012    2    1    2    0    0  0.17528903208E+00 -0.87194575264E+00 -0.77580266601E+00  0.90007794333E+02  0.90000056418E+02 0.  0.
         12    1    1    2    0    0 -0.17528903208E+00  0.87194575264E+00  0.77580266601E+00  0.11802056672E+01  0.00000000000E+00 0. -1.
         11    1    3    3    0    0  0.12457101790E+01  0.94604983959E+01  0.57422568933E+01  0.11136711285E+02  0.51100000000E-03 0. -1.
        -11    1    3    3    0    0 -0.17258253966E+02 -0.30483198956E+02  0.21220897747E+02  0.40956064874E+02  0.51100000000E-03 0.  1.
         12    1    3    3    0    0  0.16187832819E+02  0.20150754807E+02 -0.27738957306E+02  0.37915018174E+02  0.00000000000E+00 0. -1.
</event>
<event>
 7    1  0.3032584E-015  0.9000778E+02  0.7816164E-02  0.1186339E+00
        -11   -1    0    0    0    0  0.00000000000E+00  0.00000000000E+00  0.45593999997E+02  0.45594000000E+02  0.51100000000E-03 0. -1.
         11   -1    0    0    0    0 -0.00000000000E+00 -0.00000000000E+00 -0.45593999997E+02  0.45594000000E+02  0.51100000000E-03 0.  1.
    9900012    2    1    2    0    0  0.57486193461E+00  0.55383717636E+00  0.86932230287E+00  0.90007778356E+02  0.90000040231E+02 0.  0.
         12    1    1    2    0    0 -0.57486193461E+00 -0.55383717636E+00 -0.86932230287E+00  0.11802216436E+01  0.00000000000E+00 0. -1.
         11    1    3    3    0    0  0.85984532781E+01  0.44430716733E+01  0.31252766858E+01  0.10170626298E+02  0.51100000000E-03 0. -1.
        -11    1    3    3    0    0  0.18739359450E+02 -0.31882284087E+02 -0.13725130897E+02  0.39446455476E+02  0.51100000000E-03 0.  1.
         12    1    3    3    0    0 -0.26762950793E+02  0.27993049590E+02  0.11469176514E+02  0.40390696583E+02  0.00000000000E+00 0. -1.
</event>
<event>
 7    1  0.3032584E-015  0.9000786E+02  0.7816164E-02  0.1186339E+00
        -11   -1    0    0    0    0  0.00000000000E+00  0.00000000000E+00  0.45593999997E+02  0.45594000000E+02  0.51100000000E-03 0. -1.
         11   -1    0    0    0    0 -0.00000000000E+00 -0.00000000000E+00 -0.45593999997E+02  0.45594000000E+02  0.51100000000E-03 0.  1.
    9900012    2    1    2    0    0  0.41676455044E+00 -0.82627085666E+00  0.73233149983E+00  0.90007862023E+02  0.90000125002E+02 0.  0.
         12    1    1    2    0    0 -0.41676455044E+00  0.82627085666E+00 -0.73233149983E+00  0.11801379770E+01  0.00000000000E+00 0. -1.
         11    1    3    3    0    0 -0.20040188652E+02 -0.31062354405E+02  0.73242955354E+01  0.37684536985E+02  0.51100000000E-03 0. -1.
        -11    1    3    3    0    0  0.19938336681E+01 -0.85405762681E+01 -0.28095609605E+01  0.92092588594E+01  0.51100000000E-03 0.  1.
        -12    1    3    3    0    0  0.18463119534E+02  0.38776659817E+02 -0.37824030751E+01  0.43114066179E+02  0.00000000000E+00 0.  1.
</event>
<event>
 7    1  0.3032584E-015  0.9000775E+02  0.7816164E-02  0.1186339E+00
        -11   -1    0    0    0    0  0.00000000000E+00  0.00000000000E+00  0.45593999997E+02  0.45594000000E+02  0.51100000000E-03 0.  1.
         11   -1    0    0    0    0 -0.00000000000E+00 -0.00000000000E+00 -0.45593999997E+02  0.45594000000E+02  0.51100000000E-03 0. -1.
    9900012    2    1    2    0    0  0.59324562957E-01 -0.80605928223E-01  0.11760023835E+01  0.90007746499E+02  0.90000007953E+02 0.  0.
         12    1    1    2    0    0 -0.59324562957E-01  0.80605928223E-01 -0.11760023835E+01  0.11802535005E+01  0.00000000000E+00 0. -1.
         11    1    3    3    0    0 -0.15889539510E+02  0.22777149112E+02 -0.22979878409E+02  0.36046508839E+02  0.51100000000E-03 0. -1.
        -11    1    3    3    0    0 -0.12630681196E+02 -0.25102404587E+01  0.39225653514E+01  0.13461869626E+02  0.51100000000E-03 0.  1.
        -12    1    3    3    0    0  0.28579545269E+02 -0.20347514582E+02  0.20233315442E+02  0.40499368034E+02  0.00000000000E+00 0.  1.
</event>
<event>
 7    1  0.3032584E-015  0.9000773E+02  0.7816164E-02  0.1186339E+00
        -11   -1    0    0    0    0  0.00000000000E+00  0.00000000000E+00  0.45593999997E+02  0.45594000000E+02  0.51100000000E-03 0.  1.
         11   -1    0    0    0    0 -0.00000000000E+00 -0.00000000000E+00 -0.45593999997E+02  0.45594000000E+02  0.51100000000E-03 0. -1.
    9900012    2    1    2    0    0  0.10987448264E+01  0.40064574408E+00  0.15902508448E+00  0.90007726225E+02  0.89999987411E+02 0.  0.
         12    1    1    2    0    0 -0.10987448264E+01 -0.40064574408E+00 -0.15902508448E+00  0.11802737747E+01  0.00000000000E+00 0. -1.
         11    1    3    3    0    0  0.36851807002E+01  0.34614081656E+02 -0.14884338718E+02  0.37858403889E+02  0.51100000000E-03 0. -1.
        -11    1    3    3    0    0  0.36819098388E+00  0.74172814146E+01  0.57486740181E+01  0.93914259519E+01  0.51100000000E-03 0.  1.
        -12    1    3    3    0    0 -0.29546268577E+01 -0.41630717327E+02  0.92946897843E+01  0.42757896384E+02  0.00000000000E+00 0.  1.
</event>
<event>
 7    1  0.3032584E-015  0.9000816E+02  0.7816164E-02  0.1186338E+00
        -11   -1    0    0    0    0  0.00000000000E+00  0.00000000000E+00  0.45593999997E+02  0.45594000000E+02  0.51100000000E-03 0.  1.
         11   -1    0    0    0    0 -0.00000000000E+00 -0.00000000000E+00 -0.45593999997E+02  0.45594000000E+02  0.51100000000E-03 0. -1.
    9900012    2    1    2    0    0  0.11161691100E+01  0.34611863082E+00  0.16244294730E+00  0.90008161325E+02  0.90000428253E+02 0.  0.
         12    1    1    2    0    0 -0.11161691100E+01 -0.34611863082E+00 -0.16244294730E+00  0.11798386754E+01  0.00000000000E+00 0. -1.
         11    1    3    3    0    0  0.78237052394E+01  0.29566867301E+01 -0.25266972196E+01  0.87370795575E+01  0.51100000000E-03 0. -1.
        -11    1    3    3    0    0  0.18130878390E+02  0.32919877948E+02  0.46859301885E+01  0.37873540333E+02  0.51100000000E-03 0.  1.
         12    1    3    3    0    0 -0.24838414519E+02 -0.35530446048E+02 -0.19967900216E+01  0.43397541435E+02  0.00000000000E+00 0. -1.
</event>
<event>
 7    1  0.3032584E-015  0.9000796E+02  0.7816164E-02  0.1186339E+00
        -11   -1    0    0    0    0  0.00000000000E+00  0.00000000000E+00  0.45593999997E+02  0.45594000000E+02  0.51100000000E-03 0.  1.
         11   -1    0    0    0    0 -0.00000000000E+00 -0.00000000000E+00 -0.45593999997E+02  0.45594000000E+02  0.51100000000E-03 0. -1.
    9900012    2    1    2    0    0  0.89998901590E+00 -0.29137225971E+00  0.70541359509E+00  0.90007963406E+02  0.90000227723E+02 0.  0.
         12    1    1    2    0    0 -0.89998901590E+00  0.29137225971E+00 -0.70541359509E+00  0.11800365938E+01  0.00000000000E+00 0. -1.
         11    1    3    3    0    0 -0.76757406770E+00  0.43219506306E+01  0.89948857948E+01  0.10008816010E+02  0.51100000000E-03 0. -1.
        -11    1    3    3    0    0  0.17461332225E+02 -0.31089528936E+02  0.17578571075E+02  0.39755038596E+02  0.51100000000E-03 0.  1.
         12    1    3    3    0    0 -0.15793769142E+02  0.26476206045E+02 -0.25868043274E+02  0.40244108800E+02  0.00000000000E+00 0. -1.
</event>
<event>
 7    1  0.3032584E-015  0.9000771E+02  0.7816164E-02  0.1186339E+00
        -11   -1    0    0    0    0  0.00000000000E+00  0.00000000000E+00  0.45593999997E+02  0.45594000000E+02  0.51100000000E-03 0.  1.
         11   -1    0    0    0    0 -0.00000000000E+00 -0.00000000000E+00 -0.45593999997E+02  0.45594000000E+02  0.51100000000E-03 0. -1.
    9900012    2    1    2    0    0  0.93109167441E+00 -0.57445707494E+00 -0.44288355130E+00  0.90007712545E+02  0.89999973550E+02 0.  0.
         12    1    1    2    0    0 -0.93109167441E+00  0.57445707494E+00  0.44288355130E+00  0.11802874553E+01  0.00000000000E+00 0. -1.
         11    1    3    3    0    0 -0.37869164122E+01  0.78179841662E+01 -0.15615974481E+01  0.88261089495E+01  0.51100000000E-03 0. -1.
        -11    1    3    3    0    0 -0.20711657238E+02  0.45403807889E+01  0.32477977964E+02  0.38786684006E+02  0.51100000000E-03 0.  1.
         12    1    3    3    0    0  0.25429665324E+02 -0.12932822030E+02 -0.31359264068E+02  0.42394919590E+02  0.00000000000E+00 0. -1.
</event>
<event>
 7    1  0.3032584E-015  0.9000774E+02  0.7816164E-02  0.1186339E+00
        -11   -1    0    0    0    0  0.00000000000E+00  0.00000000000E+00  0.45593999997E+02  0.45594000000E+02  0.51100000000E-03 0. -1.
         11   -1    0    0    0    0 -0.00000000000E+00 -0.00000000000E+00 -0.45593999997E+02  0.45594000000E+02  0.51100000000E-03 0.  1.
    9900012    2    1    2    0    0  0.80366624488E+00 -0.73559091527E+00 -0.45391065781E+00  0.90007742268E+02  0.90000003666E+02 0.  0.
         12    1    1    2    0    0 -0.80366624488E+00  0.73559091527E+00  0.45391065781E+00  0.11802577316E+01  0.00000000000E+00 0. -1.
         11    1    3    3    0    0 -0.17111050474E+01  0.37836477207E+01 -0.84669257613E+01  0.94304137059E+01  0.51100000000E-03 0. -1.
        -11    1    3    3    0    0 -0.24754360522E+02 -0.17333441970E+02 -0.22514921971E+02  0.37684854875E+02  0.51100000000E-03 0.  1.
         12    1    3    3    0    0  0.27269131814E+02  0.12814203334E+02  0.30527937074E+02  0.42892473687E+02  0.00000000000E+00 0. -1.
</event>
<event>
 7    1  0.3032584E-015  0.9000778E+02  0.7816164E-02  0.1186339E+00
        -11   -1    0    0    0    0  0.00000000000E+00  0.00000000000E+00  0.45593999997E+02  0.45594000000E+02  0.51100000000E-03 0. -1.
         11   -1    0    0    0    0 -0.00000000000E+00 -0.00000000000E+00 -0.45593999997E+02  0.45594000000E+02  0.51100000000E-03 0.  1.
    9900012    2    1    2    0    0  0.15444379413E+00 -0.29172624716E+00 -0.11331229436E+01  0.90007777693E+02  0.90000039558E+02 0.  0.
         12    1    1    2    0    0 -0.15444379413E+00  0.29172624716E+00  0.11331229436E+01  0.11802223071E+01  0.00000000000E+00 0. -1.
         11    1    3    3    0    0  0.25125498743E+02 -0.25055190494E+02  0.20028782930E+02  0.40745618215E+02  0.51100000000E-03 0. -1.
        -11    1    3    3    0    0 -0.63210680146E+01 -0.57935036636E+01 -0.55036115157E+01  0.10188735227E+02  0.51100000000E-03 0.  1.
        -12    1    3    3    0    0 -0.18649986934E+02  0.30556967911E+02 -0.15658294358E+02  0.39073424251E+02  0.00000000000E+00 0.  1.
</event>
<event>
 7    1  0.3032584E-015  0.9000821E+02  0.7816164E-02  0.1186338E+00
        -11   -1    0    0    0    0  0.00000000000E+00  0.00000000000E+00  0.45593999997E+02  0.45594000000E+02  0.51100000000E-03 0.  1.
         11   -1    0    0    0    0 -0.00000000000E+00 -0.00000000000E+00 -0.45593999997E+02  0.45594000000E+02  0.51100000000E-03 0. -1.
    9900012    2    1    2    0    0 -0.58645869892E+00  0.94637784349E+00 -0.39030944530E+00  0.90008209217E+02  0.90000476778E+02 0.  0.
         12    1    1    2    0    0  0.58645869892E+00 -0.94637784349E+00  0.39030944530E+00  0.11797907828E+01  0.00000000000E+00 0. -1.
         11    1    3    3    0    0 -0.93431356266E+01 -0.52022743473E+00 -0.48326691281E+01  0.10531833225E+02  0.51100000000E-03 0. -1.
        -11    1    3    3    0    0 -0.17020908416E+02  0.23363051785E+02  0.26403722175E+02  0.39149713370E+02  0.51100000000E-03 0.  1.
         12    1    3    3    0    0  0.25777585343E+02 -0.21896446506E+02 -0.21961362492E+02  0.40326662622E+02  0.00000000000E+00 0. -1.
</event>
<event>
 7    1  0.3032584E-015  0.9000761E+02  0.7816164E-02  0.1186339E+00
        -11   -1    0    0    0    0  0.00000000000E+00  0.00000000000E+00  0.45593999997E+02  0.45594000000E+02  0.51100000000E-03 0.  1.
         11   -1    0    0    0    0 -0.00000000000E+00 -0.00000000000E+00 -0.45593999997E+02  0.45594000000E+02  0.51100000000E-03 0. -1.
    9900012    2    1    2    0    0  0.11172113805E+01  0.21219135793E+00  0.31644052223E+00  0.90007609791E+02  0.89999869440E+02 0.  0.
         12    1    1    2    0    0 -0.11172113805E+01 -0.21219135793E+00 -0.31644052223E+00  0.11803902089E+01  0.00000000000E+00 0. -1.
         11    1    3    3    0    0 -0.89331722614E+01 -0.10627260391E+01  0.68623202148E+01  0.11314698064E+02  0.51100000000E-03 0. -1.
        -11    1    3    3    0    0 -0.29269277528E+02 -0.85193030407E+01  0.13670256478E+02  0.33408756992E+02  0.51100000000E-03 0.  1.
         12    1    3    3    0    0  0.39319661170E+02  0.97942204377E+01 -0.20216136170E+02  0.45284154736E+02  0.00000000000E+00 0. -1.
</event>
<event>
 7    1  0.3032584E-015  0.9000766E+02  0.7816164E-02  0.1186339E+00
        -11   -1    0    0    0    0  0.00000000000E+00  0.00000000000E+00  0.45593999997E+02  0.45594000000E+02  0.51100000000E-03 0.  1.
         11   -1    0    0    0    0 -0.00000000000E+00 -0.00000000000E+00 -0.45593999997E+02  0.45594000000E+02  0.51100000000E-03 0. -1.
    9900012    2    1    2    0    0 -0.69148923001E+00  0.74919124281E+00  0.59477290718E+00  0.90007661199E+02  0.89999921527E+02 0.  0.
         12    1    1    2    0    0  0.69148923001E+00 -0.74919124281E+00 -0.59477290718E+00  0.11803388008E+01  0.00000000000E+00 0. -1.
         11    1    3    3    0    0 -0.16279760954E+02 -0.12206527792E+02 -0.34190502614E+02  0.39787188977E+02  0.51100000000E-03 0. -1.
        -11    1    3    3    0    0  0.75431158949E+01  0.13263316273E+01 -0.42104930135E+01  0.87399087334E+01  0.51100000000E-03 0.  1.
        -12    1    3    3    0    0  0.80451558286E+01  0.11629387407E+02  0.38995768535E+02  0.41480563489E+02  0.00000000000E+00 0.  1.
</event>
<event>
 7    1  0.3032584E-015  0.9000786E+02  0.7816164E-02  0.1186339E+00
        -11   -1    0    0    0    0  0.00000000000E+00  0.00000000000E+00  0.45593999997E+02  0.45594000000E+02  0.51100000000E-03 0.  1.
         11   -1    0    0    0    0 -0.00000000000E+00 -0.00000000000E+00 -0.45593999997E+02  0.45594000000E+02  0.51100000000E-03 0. -1.
    9900012    2    1    2    0    0  0.60735252536E+00  0.66478367473E+00  0.76283823770E+00  0.90007857381E+02  0.90000120298E+02 0.  0.
         12    1    1    2    0    0 -0.60735252536E+00 -0.66478367473E+00 -0.76283823770E+00  0.11801426190E+01  0.00000000000E+00 0. -1.
         11    1    3    3    0    0 -0.21705489971E+01 -0.89221923654E+01  0.56677150236E+01  0.10790727195E+02  0.51100000000E-03 0. -1.
        -11    1    3    3    0    0 -0.10102816309E+02 -0.29392623108E+02 -0.18259110897E+02  0.36047029302E+02  0.51100000000E-03 0.  1.
         12    1    3    3    0    0  0.12880717831E+02  0.38979599148E+02  0.13354234111E+02  0.43170100883E+02  0.00000000000E+00 0. -1.
</event>
<event>
 7    1  0.3032584E-015  0.9000762E+02  0.7816164E-02  0.1186339E+00
        -11   -1    0    0    0    0  0.00000000000E+00  0.00000000000E+00  0.45593999997E+02  0.45594000000E+02  0.51100000000E-03 0. -1.
         11   -1    0    0    0    0 -0.00000000000E+00 -0.00000000000E+00 -0.45593999997E+02  0.45594000000E+02  0.51100000000E-03 0.  1.
    9900012    2    1    2    0    0 -0.36471707744E+00  0.71211583429E+00 -0.86785868158E+00  0.90007616080E+02  0.89999875812E+02 0.  0.
         12    1    1    2    0    0  0.36471707744E+00 -0.71211583429E+00  0.86785868158E+00  0.11803839203E+01  0.00000000000E+00 0. -1.
         11    1    3    3    0    0 -0.10699965000E+01  0.91880885055E+00 -0.93507756621E+01  0.94565378420E+01  0.51100000000E-03 0. -1.
        -11    1    3    3    0    0 -0.98075617080E+01 -0.31445471988E+02 -0.18655951198E+02  0.37855653350E+02  0.51100000000E-03 0.  1.
         12    1    3    3    0    0  0.10512841131E+02  0.31238778972E+02  0.27138868178E+02  0.42695424887E+02  0.00000000000E+00 0. -1.
</event>
<event>
 7    1  0.3032584E-015  0.9000779E+02  0.7816164E-02  0.1186339E+00
        -11   -1    0    0    0    0  0.00000000000E+00  0.00000000000E+00  0.45593999997E+02  0.45594000000E+02  0.51100000000E-03 0.  1.
         11   -1    0    0    0    0 -0.00000000000E+00 -0.00000000000E+00 -0.45593999997E+02  0.45594000000E+02  0.51100000000E-03 0. -1.
    9900012    2    1    2    0    0  0.94646699417E+00  0.17528764244E+00  0.68290636551E+00  0.90007793818E+02  0.90000055896E+02 0.  0.
         12    1    1    2    0    0 -0.94646699417E+00 -0.17528764244E+00 -0.68290636551E+00  0.11802061823E+01  0.00000000000E+00 0. -1.
         11    1    3    3    0    0  0.46391258677E+01 -0.55338944237E+00 -0.67875118261E+00  0.47210626050E+01  0.51100000000E-03 0. -1.
        -11    1    3    3    0    0  0.28412928279E+02 -0.28542706008E+02 -0.74467212002E+01  0.40956491751E+02  0.51100000000E-03 0.  1.
         12    1    3    3    0    0 -0.32105587152E+02  0.29271383093E+02  0.88083787483E+01  0.44330239462E+02  0.00000000000E+00 0. -1.
</event>
<event>
 7    1  0.3032584E-015  0.9000772E+02  0.7816164E-02  0.1186339E+00
        -11   -1    0    0    0    0  0.00000000000E+00  0.00000000000E+00  0.45593999997E+02  0.45594000000E+02  0.51100000000E-03 0. -1.
         11   -1    0    0    0    0 -0.00000000000E+00 -0.00000000000E+00 -0.45593999997E+02  0.45594000000E+02  0.51100000000E-03 0.  1.
    9900012    2    1    2    0    0  0.25929750589E+00 -0.50828384745E+00 -0.10331840504E+01  0.90007721665E+02  0.89999982791E+02 0.  0.
         12    1    1    2    0    0 -0.25929750589E+00  0.50828384745E+00  0.10331840504E+01  0.11802783350E+01  0.00000000000E+00 0. -1.
         11    1    3    3    0    0  0.46295663582E+01 -0.46601447770E+01  0.15769358725E+02  0.17082813259E+02  0.51100000000E-03 0. -1.
        -11    1    3    3    0    0 -0.11912114124E+02 -0.23916547588E+02  0.14342710194E+02  0.30325122381E+02  0.51100000000E-03 0.  1.
         12    1    3    3    0    0  0.75418452714E+01  0.28068408518E+02 -0.31145252969E+02  0.42599786025E+02  0.00000000000E+00 0. -1.
</event>
<event>
 7    1  0.3032584E-015  0.9000745E+02  0.7816164E-02  0.1186340E+00
        -11   -1    0    0    0    0  0.00000000000E+00  0.00000000000E+00  0.45593999997E+02  0.45594000000E+02  0.51100000000E-03 0. -1.
         11   -1    0    0    0    0 -0.00000000000E+00 -0.00000000000E+00 -0.45593999997E+02  0.45594000000E+02  0.51100000000E-03 0.  1.
    9900012    2    1    2    0    0 -0.12872210886E+00 -0.20417910188E+00 -0.11556128599E+01  0.90007449464E+02  0.89999706996E+02 0.  0.
         12    1    1    2    0    0  0.12872210886E+00  0.20417910188E+00  0.11556128599E+01  0.11805505364E+01  0.00000000000E+00 0. -1.
         11    1    3    3    0    0  0.95581085787E-01  0.82018027268E+01 -0.36234096925E+01  0.89670397442E+01  0.51100000000E-03 0. -1.
        -11    1    3    3    0    0  0.40143088738E+02 -0.35680953912E+01 -0.12519359565E+00  0.40301545278E+02  0.51100000000E-03 0.  1.
         12    1    3    3    0    0 -0.40367391932E+02 -0.48378864374E+01  0.25929904282E+01  0.40738864441E+02  0.00000000000E+00 0. -1.
</event>
<event>
 7    1  0.3032584E-015  0.9000776E+02  0.7816164E-02  0.1186339E+00
        -11   -1    0    0    0    0  0.00000000000E+00  0.00000000000E+00  0.45593999997E+02  0.45594000000E+02  0.51100000000E-03 0. -1.
         11   -1    0    0    0    0 -0.00000000000E+00 -0.00000000000E+00 -0.45593999997E+02  0.45594000000E+02  0.51100000000E-03 0.  1.
    9900012    2    1    2    0    0  0.95264118550E+00  0.93625218435E-01 -0.69042198539E+00  0.90007757047E+02  0.90000018640E+02 0.  0.
         12    1    1    2    0    0 -0.95264118550E+00 -0.93625218435E-01  0.69042198539E+00  0.11802429529E+01  0.00000000000E+00 0. -1.
         11    1    3    3    0    0  0.10457403014E+02  0.22404897853E+02  0.42865895387E+01  0.25094054590E+02  0.51100000000E-03 0. -1.
        -11    1    3    3    0    0 -0.28937625618E+02  0.65967293069E+01  0.31333306880E+00  0.29681664236E+02  0.51100000000E-03 0.  1.
         12    1    3    3    0    0  0.19432863789E+02 -0.28908001942E+02 -0.52903445929E+01  0.35232038221E+02  0.00000000000E+00 0. -1.
</event>
<event>
 7    1  0.3032584E-015  0.9000776E+02  0.7816164E-02  0.1186339E+00
        -11   -1    0    0    0    0  0.00000000000E+00  0.00000000000E+00  0.45593999997E+02  0.45594000000E+02  0.51100000000E-03 0.  1.
         11   -1    0    0    0    0 -0.00000000000E+00 -0.00000000000E+00 -0.45593999997E+02  0.45594000000E+02  0.51100000000E-03 0. -1.
    9900012    2    1    2    0    0  0.91442210747E+00  0.74588825650E-01  0.74245527996E+00  0.90007758022E+02  0.90000019628E+02 0.  0.
         12    1    1    2    0    0 -0.91442210747E+00 -0.74588825650E-01 -0.74245527996E+00  0.11802419778E+01  0.00000000000E+00 0. -1.
         11    1    3    3    0    0 -0.31508691437E+02  0.13396178368E+02  0.66515380753E+01  0.34878334105E+02  0.51100000000E-03 0. -1.
        -11    1    3    3    0    0 -0.76624280227E+01  0.63766399297E+01  0.63359265428E+00  0.99887827040E+01  0.51100000000E-03 0.  1.
        -12    1    3    3    0    0  0.40085541567E+02 -0.19698229472E+02 -0.65426754497E+01  0.45140641213E+02  0.00000000000E+00 0.  1.
</event>
<event>
 7    1  0.3032584E-015  0.9000732E+02  0.7816164E-02  0.1186340E+00
        -11   -1    0    0    0    0  0.00000000000E+00  0.00000000000E+00  0.45593999997E+02  0.45594000000E+02  0.51100000000E-03 0.  1.
         11   -1    0    0    0    0 -0.00000000000E+00 -0.00000000000E+00 -0.45593999997E+02  0.45594000000E+02  0.51100000000E-03 0. -1.
    9900012    2    1    2    0    0  0.10980059604E+01  0.21349643686E+00  0.37790933764E+00  0.90007316602E+02  0.89999572381E+02 0.  0.
         12    1    1    2    0    0 -0.10980059604E+01 -0.21349643686E+00 -0.37790933764E+00  0.11806833975E+01  0.00000000000E+00 0. -1.
         11    1    3    3    0    0  0.30464167121E+02  0.12002542686E+02  0.15974949500E+02  0.36432478932E+02  0.51100000000E-03 0. -1.
        -11    1    3    3    0    0  0.55291365155E+00  0.64569760237E+01  0.87608381898E+01  0.10897272086E+02  0.51100000000E-03 0.  1.
        -12    1    3    3    0    0 -0.29919074812E+02 -0.18246022273E+02 -0.24357878353E+02  0.42677565584E+02  0.00000000000E+00 0.  1.
</event>
<event>
 7    1  0.3032584E-015  0.9000770E+02  0.7816164E-02  0.1186339E+00
        -11   -1    0    0    0    0  0.00000000000E+00  0.00000000000E+00  0.45593999997E+02  0.45594000000E+02  0.51100000000E-03 0.  1.
         11   -1    0    0    0    0 -0.00000000000E+00 -0.00000000000E+00 -0.45593999997E+02  0.45594000000E+02  0.51100000000E-03 0. -1.
    9900012    2    1    2    0    0  0.89828808437E+00 -0.46216976869E+00  0.61040267001E+00  0.90007697582E+02  0.89999958390E+02 0.  0.
         12    1    1    2    0    0 -0.89828808437E+00  0.46216976869E+00 -0.61040267001E+00  0.11803024177E+01  0.00000000000E+00 0. -1.
         11    1    3    3    0    0  0.33729911963E+02  0.10975452544E+02  0.49960326787E+01  0.35820774173E+02  0.51100000000E-03 0. -1.
        -11    1    3    3    0    0  0.62577323353E+01 -0.12758787594E+02  0.26270168510E+01  0.14451542916E+02  0.51100000000E-03 0.  1.
        -12    1    3    3    0    0 -0.39089356214E+02  0.13211652816E+01 -0.70126468597E+01  0.39735380493E+02  0.00000000000E+00 0.  1.
</event>
<event>
 7    1  0.3032584E-015  0.9000782E+02  0.7816164E-02  0.1186339E+00
        -11   -1    0    0    0    0  0.00000000000E+00  0.00000000000E+00  0.45593999997E+02  0.45594000000E+02  0.51100000000E-03 0.  1.
         11   -1    0    0    0    0 -0.00000000000E+00 -0.00000000000E+00 -0.45593999997E+02  0.45594000000E+02  0.51100000000E-03 0. -1.
    9900012    2    1    2    0    0  0.83815175294E+00 -0.80024699346E+00  0.22343262925E+00  0.90007823847E+02  0.90000086322E+02 0.  0.
         12    1    1    2    0    0 -0.83815175294E+00  0.80024699346E+00 -0.22343262925E+00  0.11801761527E+01  0.00000000000E+00 0. -1.
         11    1    3    3    0    0  0.47072074624E+01 -0.20450729042E+02 -0.34864207039E+02  0.40692788713E+02  0.51100000000E-03 0. -1.
        -11    1    3    3    0    0 -0.37478197171E+01  0.89065613902E+01 -0.26970901552E+01  0.10032311996E+02  0.51100000000E-03 0.  1.
        -12    1    3    3    0    0 -0.12123599238E+00  0.10743920659E+02  0.37784729824E+02  0.39282723138E+02  0.00000000000E+00 0.  1.
</event>
<event>
 7    1  0.3032584E-015  0.9000768E+02  0.7816164E-02  0.1186339E+00
        -11   -1    0    0    0    0  0.00000000000E+00  0.00000000000E+00  0.45593999997E+02  0.45594000000E+02  0.51100000000E-03 0.  1.
         11   -1    0    0    0    0 -0.00000000000E+00 -0.00000000000E+00 -0.45593999997E+02  0.45594000000E+02  0.51100000000E-03 0. -1.
    9900012    2    1    2    0    0 -0.95510450778E-01  0.36094308368E+00  0.11197079358E+01  0.90007683086E+02  0.89999943703E+02 0.  0.
         12    1    1    2    0    0  0.95510450778E-01 -0.36094308368E+00 -0.11197079358E+01  0.11803169139E+01  0.00000000000E+00 0. -1.
         11    1    3    3    0    0  0.84345901655E+01 -0.19624473891E+01  0.70108480490E+01  0.11142060027E+02  0.51100000000E-03 0. -1.
        -11    1    3    3    0    0  0.29388617190E+01 -0.37165611537E+02 -0.58952294153E+01  0.37744844936E+02  0.51100000000E-03 0.  1.
         12    1    3    3    0    0 -0.11468962335E+02  0.39489002010E+02  0.40893021247E-02  0.41120778123E+02  0.00000000000E+00 0. -1.
</event>
<event>
 7    1  0.3032584E-015  0.9000778E+02  0.7816164E-02  0.1186339E+00
        -11   -1    0    0    0    0  0.00000000000E+00  0.00000000000E+00  0.45593999997E+02  0.45594000000E+02  0.51100000000E-03 0.  1.
         11   -1    0    0    0    0 -0.00000000000E+00 -0.00000000000E+00 -0.45593999997E+02  0.45594000000E+02  0.51100000000E-03 0. -1.
    9900012    2    1    2    0    0 -0.21614361441E+00  0.59569262391E+00  0.99567212610E+00  0.90007775129E+02  0.90000036960E+02 0.  0.
         12    1    1    2    0    0  0.21614361441E+00 -0.59569262391E+00 -0.99567212610E+00  0.11802248713E+01  0.00000000000E+00 0. -1.
         11    1    3    3    0    0  0.15148621286E+02 -0.24220908286E+02 -0.18474774505E+02  0.34021322996E+02  0.51100000000E-03 0. -1.
        -11    1    3    3    0    0 -0.46474518763E+01 -0.12662875819E+02  0.57060042997E+01  0.14646013734E+02  0.51100000000E-03 0.  1.
        -12    1    3    3    0    0 -0.10717313025E+02  0.37479476729E+02  0.13764442332E+02  0.41340438400E+02  0.00000000000E+00 0.  1.
</event>
<event>
 7    1  0.3032584E-015  0.9000785E+02  0.7816164E-02  0.1186339E+00
        -11   -1    0    0    0    0  0.00000000000E+00  0.00000000000E+00  0.45593999997E+02  0.45594000000E+02  0.51100000000E-03 0. -1.
         11   -1    0    0    0    0 -0.00000000000E+00 -0.00000000000E+00 -0.45593999997E+02  0.45594000000E+02  0.51100000000E-03 0.  1.
    9900012    2    1    2    0    0  0.11432214518E+01  0.12602864002E+00  0.26443474404E+00  0.90007845671E+02  0.90000108434E+02 0.  0.
         12    1    1    2    0    0 -0.11432214518E+01 -0.12602864002E+00 -0.26443474404E+00  0.11801543288E+01  0.00000000000E+00 0. -1.
         11    1    3    3    0    0  0.19643828474E+02  0.25703385272E+02 -0.23054227228E+02  0.39724569285E+02  0.51100000000E-03 0. -1.
        -11    1    3    3    0    0  0.23281509767E+01 -0.56983305323E+01 -0.64170706803E+01  0.88921344009E+01  0.51100000000E-03 0.  1.
        -12    1    3    3    0    0 -0.20828757999E+02 -0.19879026100E+02  0.29735732652E+02  0.41391141985E+02  0.00000000000E+00 0.  1.
</event>
<event>
 7    1  0.3032584E-015  0.9000776E+02  0.7816164E-02  0.1186339E+00
        -11   -1    0    0    0    0  0.00000000000E+00  0.00000000000E+00  0.45593999997E+02  0.45594000000E+02  0.51100000000E-03 0.  1.
         11   -1    0    0    0    0 -0.00000000000E+00 -0.00000000000E+00 -0.45593999997E+02  0.45594000000E+02  0.51100000000E-03 0. -1.
    9900012    2    1    2    0    0  0.39175997274E+00 -0.93704900362E-01  0.11093704910E+01  0.90007763002E+02  0.90000024674E+02 0.  0.
         12    1    1    2    0    0 -0.39175997274E+00  0.93704900362E-01 -0.11093704910E+01  0.11802369978E+01  0.00000000000E+00 0. -1.
         11    1    3    3    0    0  0.34508646586E+02  0.66017242142E+01  0.20004539097E+02  0.40430323231E+02  0.51100000000E-03 0. -1.
        -11    1    3    3    0    0 -0.57403658541E+01  0.58983910966E+01  0.56649342014E+01  0.99917114367E+01  0.51100000000E-03 0.  1.
        -12    1    3    3    0    0 -0.28376520759E+02 -0.12593820211E+02 -0.24560102807E+02  0.39585728335E+02  0.00000000000E+00 0.  1.
</event>
<event>
 7    1  0.3032584E-015  0.9000779E+02  0.7816164E-02  0.1186339E+00
        -11   -1    0    0    0    0  0.00000000000E+00  0.00000000000E+00  0.45593999997E+02  0.45594000000E+02  0.51100000000E-03 0.  1.
         11   -1    0    0    0    0 -0.00000000000E+00 -0.00000000000E+00 -0.45593999997E+02  0.45594000000E+02  0.51100000000E-03 0. -1.
    9900012    2    1    2    0    0  0.55437384580E+00 -0.57842761474E-02  0.10418924670E+01  0.90007786574E+02  0.90000048556E+02 0.  0.
         12    1    1    2    0    0 -0.55437384580E+00  0.57842761474E-02 -0.10418924670E+01  0.11802134263E+01  0.00000000000E+00 0. -1.
         11    1    3    3    0    0  0.92804368540E+01 -0.11478952202E+00 -0.34981246163E+01  0.99184959005E+01  0.51100000000E-03 0. -1.
        -11    1    3    3    0    0  0.31362562189E+02  0.46452945635E+01 -0.15216497044E+02  0.35167184295E+02  0.51100000000E-03 0.  1.
         12    1    3    3    0    0 -0.40088625198E+02 -0.45362893176E+01  0.19756514127E+02  0.44922106378E+02  0.00000000000E+00 0. -1.
</event>
<event>
 7    1  0.3032584E-015  0.9000758E+02  0.7816164E-02  0.1186339E+00
        -11   -1    0    0    0    0  0.00000000000E+00  0.00000000000E+00  0.45593999997E+02  0.45594000000E+02  0.51100000000E-03 0. -1.
         11   -1    0    0    0    0 -0.00000000000E+00 -0.00000000000E+00 -0.45593999997E+02  0.45594000000E+02  0.51100000000E-03 0.  1.
    9900012    2    1    2    0    0  0.91146293221E+00  0.38721546139E+00 -0.64240897200E+00  0.90007580677E+02  0.89999839942E+02 0.  0.
         12    1    1    2    0    0 -0.91146293221E+00 -0.38721546139E+00  0.64240897200E+00  0.11804193228E+01  0.00000000000E+00 0. -1.
         11    1    3    3    0    0 -0.37015157724E+01  0.74917570911E+01  0.33220563526E+02  0.34255415405E+02  0.51100000000E-03 0. -1.
        -11    1    3    3    0    0 -0.16075378978E+01  0.16846093413E+01  0.10164132497E+02  0.10427448221E+02  0.51100000000E-03 0.  1.
        -12    1    3    3    0    0  0.62205166023E+01 -0.87891509710E+01 -0.44027104995E+02  0.45324717051E+02  0.00000000000E+00 0.  1.
</event>
<event>
 7    1  0.3032584E-015  0.9000763E+02  0.7816164E-02  0.1186339E+00
        -11   -1    0    0    0    0  0.00000000000E+00  0.00000000000E+00  0.45593999997E+02  0.45594000000E+02  0.51100000000E-03 0.  1.
         11   -1    0    0    0    0 -0.00000000000E+00 -0.00000000000E+00 -0.45593999997E+02  0.45594000000E+02  0.51100000000E-03 0. -1.
    9900012    2    1    2    0    0 -0.87126833544E+00 -0.57649729712E+00  0.54936829777E+00  0.90007634306E+02  0.89999894278E+02 0.  0.
         12    1    1    2    0    0  0.87126833544E+00  0.57649729712E+00 -0.54936829777E+00  0.11803656944E+01  0.00000000000E+00 0. -1.
         11    1    3    3    0    0 -0.10091178120E+02  0.35010711881E+02 -0.10065044716E+02  0.37800620995E+02  0.51100000000E-03 0. -1.
        -11    1    3    3    0    0 -0.93439645671E+01  0.16382382395E+01  0.27007962368E+01  0.98634577575E+01  0.51100000000E-03 0.  1.
        -12    1    3    3    0    0  0.18563874351E+02 -0.37225447417E+02  0.79136167773E+01  0.42343555553E+02  0.00000000000E+00 0.  1.
</event>
<event>
 7    1  0.3032584E-015  0.9000740E+02  0.7816164E-02  0.1186340E+00
        -11   -1    0    0    0    0  0.00000000000E+00  0.00000000000E+00  0.45593999997E+02  0.45594000000E+02  0.51100000000E-03 0. -1.
         11   -1    0    0    0    0 -0.00000000000E+00 -0.00000000000E+00 -0.45593999997E+02  0.45594000000E+02  0.51100000000E-03 0.  1.
    9900012    2    1    2    0    0  0.52351911306E-01  0.55555743842E-01 -0.11781326105E+01  0.90007396929E+02  0.89999653768E+02 0.  0.
         12    1    1    2    0    0 -0.52351911306E-01 -0.55555743842E-01  0.11781326105E+01  0.11806030710E+01  0.00000000000E+00 0. -1.
         11    1    3    3    0    0 -0.11956419257E+01  0.92806405598E+01  0.14166709450E+01  0.94639740935E+01  0.51100000000E-03 0. -1.
        -11    1    3    3    0    0  0.10183491600E+02 -0.14382836093E+02 -0.38950707778E+02  0.42751925242E+02  0.51100000000E-03 0.  1.
         12    1    3    3    0    0 -0.89354977630E+01  0.51577512766E+01  0.36355904223E+02  0.37791497593E+02  0.00000000000E+00 0. -1.
</event>
<event>
 7    1  0.3032584E-015  0.9000793E+02  0.7816164E-02  0.1186339E+00
        -11   -1    0    0    0    0  0.00000000000E+00  0.00000000000E+00  0.45593999997E+02  0.45594000000E+02  0.51100000000E-03 0. -1.
         11   -1    0    0    0    0 -0.00000000000E+00 -0.00000000000E+00 -0.45593999997E+02  0.45594000000E+02  0.51100000000E-03 0.  1.
    9900012    2    1    2    0    0 -0.70193567394E+00  0.64880594856E+00 -0.69203150148E+00  0.90007927778E+02  0.90000191625E+02 0.  0.
         12    1    1    2    0    0  0.70193567394E+00 -0.64880594856E+00  0.69203150148E+00  0.11800722216E+01  0.00000000000E+00 0. -1.
         11    1    3    3    0    0  0.46044139739E+01  0.56376045722E+01  0.84760924410E+01  0.11172616376E+02  0.51100000000E-03 0. -1.
        -11    1    3    3    0    0 -0.69122719595E+01  0.36217290164E+02 -0.70835710348E+01  0.37545287178E+02  0.51100000000E-03 0.  1.
         12    1    3    3    0    0  0.16059223117E+01 -0.41206088787E+02 -0.20845529076E+01  0.41290024224E+02  0.00000000000E+00 0. -1.
</event>
<event>
 7    1  0.3032584E-015  0.9000758E+02  0.7816164E-02  0.1186339E+00
        -11   -1    0    0    0    0  0.00000000000E+00  0.00000000000E+00  0.45593999997E+02  0.45594000000E+02  0.51100000000E-03 0. -1.
         11   -1    0    0    0    0 -0.00000000000E+00 -0.00000000000E+00 -0.45593999997E+02  0.45594000000E+02  0.51100000000E-03 0.  1.
    9900012    2    1    2    0    0  0.53395236088E-01  0.11430402594E+01  0.28983653560E+00  0.90007577490E+02  0.89999836712E+02 0.  0.
         12    1    1    2    0    0 -0.53395236088E-01 -0.11430402594E+01 -0.28983653560E+00  0.11804225105E+01  0.00000000000E+00 0. -1.
         11    1    3    3    0    0  0.27121006204E+02  0.19458863385E+02 -0.17738157366E+02  0.37799981069E+02  0.51100000000E-03 0. -1.
        -11    1    3    3    0    0  0.35984674625E+01  0.71505874317E+01 -0.94579571250E+00  0.80606698535E+01  0.51100000000E-03 0.  1.
        -12    1    3    3    0    0 -0.30666078431E+02 -0.25466410558E+02  0.18973789614E+02  0.44146926567E+02  0.00000000000E+00 0.  1.
</event>
<event>
 7    1  0.3032584E-015  0.9000773E+02  0.7816164E-02  0.1186339E+00
        -11   -1    0    0    0    0  0.00000000000E+00  0.00000000000E+00  0.45593999997E+02  0.45594000000E+02  0.51100000000E-03 0. -1.
         11   -1    0    0    0    0 -0.00000000000E+00 -0.00000000000E+00 -0.45593999997E+02  0.45594000000E+02  0.51100000000E-03 0.  1.
    9900012    2    1    2    0    0 -0.68665414042E+00 -0.48978226314E+00  0.82562578630E+00  0.90007729475E+02  0.89999990704E+02 0.  0.
         12    1    1    2    0    0  0.68665414042E+00  0.48978226314E+00 -0.82562578630E+00  0.11802705253E+01  0.00000000000E+00 0. -1.
         11    1    3    3    0    0 -0.30360846729E+01 -0.11970411155E+02 -0.18029111589E+02  0.21853087158E+02  0.51100000000E-03 0. -1.
        -11    1    3    3    0    0 -0.19498496541E+02 -0.16235283485E+02  0.20800872264E+02  0.32809329229E+02  0.51100000000E-03 0.  1.
         12    1    3    3    0    0  0.21847927074E+02  0.27715912377E+02 -0.19461348885E+01  0.35345313088E+02  0.00000000000E+00 0. -1.
</event>
<event>
 7    1  0.3032584E-015  0.9000777E+02  0.7816164E-02  0.1186339E+00
        -11   -1    0    0    0    0  0.00000000000E+00  0.00000000000E+00  0.45593999997E+02  0.45594000000E+02  0.51100000000E-03 0.  1.
         11   -1    0    0    0    0 -0.00000000000E+00 -0.00000000000E+00 -0.45593999997E+02  0.45594000000E+02  0.51100000000E-03 0. -1.
    9900012    2    1    2    0    0  0.48950312471E+00  0.66348037869E+00 -0.84446093926E+00  0.90007773835E+02  0.90000035650E+02 0.  0.
         12    1    1    2    0    0 -0.48950312471E+00 -0.66348037869E+00  0.84446093926E+00  0.11802261647E+01  0.00000000000E+00 0. -1.
         11    1    3    3    0    0  0.11038317962E+01  0.19498450166E+02 -0.37951227153E+02  0.42681420386E+02  0.51100000000E-03 0. -1.
        -11    1    3    3    0    0 -0.75180877129E+01 -0.53008739744E+01  0.25019414610E+01  0.95331327006E+01  0.51100000000E-03 0.  1.
        -12    1    3    3    0    0  0.69037590414E+01 -0.13534095813E+02  0.34604824753E+02  0.37793220748E+02  0.00000000000E+00 0.  1.
</event>
<event>
 7    1  0.3032584E-015  0.9000769E+02  0.7816164E-02  0.1186339E+00
        -11   -1    0    0    0    0  0.00000000000E+00  0.00000000000E+00  0.45593999997E+02  0.45594000000E+02  0.51100000000E-03 0.  1.
         11   -1    0    0    0    0 -0.00000000000E+00 -0.00000000000E+00 -0.45593999997E+02  0.45594000000E+02  0.51100000000E-03 0. -1.
    9900012    2    1    2    0    0  0.10790380663E+01 -0.25657912758E+00  0.40369810983E+00  0.90007691498E+02  0.89999952225E+02 0.  0.
         12    1    1    2    0    0 -0.10790380663E+01  0.25657912758E+00 -0.40369810983E+00  0.11803085025E+01  0.00000000000E+00 0. -1.
         11    1    3    3    0    0 -0.61464064869E+01  0.59146918489E+01  0.46639529581E+00  0.85427991433E+01  0.51100000000E-03 0. -1.
        -11    1    3    3    0    0 -0.29191210291E+02 -0.24959627690E+02  0.91105942244E+01  0.39472936299E+02  0.51100000000E-03 0.  1.
         12    1    3    3    0    0  0.36416654844E+02  0.18788356713E+02 -0.91732914104E+01  0.41991956055E+02  0.00000000000E+00 0. -1.
</event>
<event>
 7    1  0.3032584E-015  0.9000773E+02  0.7816164E-02  0.1186339E+00
        -11   -1    0    0    0    0  0.00000000000E+00  0.00000000000E+00  0.45593999997E+02  0.45594000000E+02  0.51100000000E-03 0. -1.
         11   -1    0    0    0    0 -0.00000000000E+00 -0.00000000000E+00 -0.45593999997E+02  0.45594000000E+02  0.51100000000E-03 0.  1.
    9900012    2    1    2    0    0 -0.33103118303E+00  0.64424395319E-01 -0.11310599676E+01  0.90007733591E+02  0.89999994874E+02 0.  0.
         12    1    1    2    0    0  0.33103118303E+00 -0.64424395319E-01  0.11310599676E+01  0.11802664094E+01  0.00000000000E+00 0. -1.
         11    1    3    3    0    0  0.74939279685E+01 -0.31821990946E+02  0.96968262853E+00  0.32706854768E+02  0.51100000000E-03 0. -1.
        -11    1    3    3    0    0 -0.17684239903E+02  0.24533471978E+01  0.13667950596E+02  0.22484753216E+02  0.51100000000E-03 0.  1.
        -12    1    3    3    0    0  0.98592807515E+01  0.29433068144E+02 -0.15768693192E+02  0.34816125607E+02  0.00000000000E+00 0.  1.
</event>
<event>
 7    1  0.3032584E-015  0.9000775E+02  0.7816164E-02  0.1186339E+00
        -11   -1    0    0    0    0  0.00000000000E+00  0.00000000000E+00  0.45593999997E+02  0.45594000000E+02  0.51100000000E-03 0.  1.
         11   -1    0    0    0    0 -0.00000000000E+00 -0.00000000000E+00 -0.45593999997E+02  0.45594000000E+02  0.51100000000E-03 0. -1.
    9900012    2    1    2    0    0 -0.63030030466E+00 -0.96877721424E+00 -0.23914876873E+00  0.90007745833E+02  0.90000007278E+02 0.  0.
         12    1    1    2    0    0  0.63030030466E+00  0.96877721424E+00  0.23914876873E+00  0.11802541669E+01  0.00000000000E+00 0. -1.
         11    1    3    3    0    0 -0.13710057669E+02  0.28289922183E+02 -0.12480396412E+02  0.33823744224E+02  0.51100000000E-03 0. -1.
        -11    1    3    3    0    0 -0.49495483578E+01  0.88099319714E+01 -0.42316146946E+01  0.10955340865E+02  0.51100000000E-03 0.  1.
        -12    1    3    3    0    0  0.18029305723E+02 -0.38068631369E+02  0.16472862338E+02  0.45228660744E+02  0.00000000000E+00 0.  1.
</event>
<event>
 7    1  0.3032584E-015  0.9000752E+02  0.7816164E-02  0.1186339E+00
        -11   -1    0    0    0    0  0.00000000000E+00  0.00000000000E+00  0.45593999997E+02  0.45594000000E+02  0.51100000000E-03 0.  1.
         11   -1    0    0    0    0 -0.00000000000E+00 -0.00000000000E+00 -0.45593999997E+02  0.45594000000E+02  0.51100000000E-03 0. -1.
    9900012    2    1    2    0    0 -0.65074180946E+00  0.98467751200E+00 -0.21614568865E-01  0.90007524717E+02  0.89999783243E+02 0.  0.
         12    1    1    2    0    0  0.65074180946E+00 -0.98467751200E+00  0.21614568865E-01  0.11804752834E+01  0.00000000000E+00 0. -1.
         11    1    3    3    0    0 -0.43383273721E+01 -0.13351747982E+01 -0.39873966472E+02  0.40131496092E+02  0.51100000000E-03 0. -1.
        -11    1    3    3    0    0 -0.29917829583E+01  0.96237313390E+01  0.14054287852E+01  0.10175568804E+02  0.51100000000E-03 0.  1.
        -12    1    3    3    0    0  0.66793685209E+01 -0.73038790288E+01  0.38446923118E+02  0.39700459820E+02  0.00000000000E+00 0.  1.
</event>
<event>
 7    1  0.3032584E-015  0.9000785E+02  0.7816164E-02  0.1186339E+00
        -11   -1    0    0    0    0  0.00000000000E+00  0.00000000000E+00  0.45593999997E+02  0.45594000000E+02  0.51100000000E-03 0. -1.
         11   -1    0    0    0    0 -0.00000000000E+00 -0.00000000000E+00 -0.45593999997E+02  0.45594000000E+02  0.51100000000E-03 0.  1.
    9900012    2    1    2    0    0  0.68895890385E+00  0.77376069346E+00 -0.56514917982E+00  0.90007845952E+02  0.90000108718E+02 0.  0.
         12    1    1    2    0    0 -0.68895890385E+00 -0.77376069346E+00  0.56514917982E+00  0.11801540482E+01  0.00000000000E+00 0. -1.
         11    1    3    3    0    0 -0.11160689178E+02 -0.18774927712E+02 -0.31542725071E+02  0.38366683446E+02  0.51100000000E-03 0. -1.
        -11    1    3    3    0    0  0.81321409922E+01 -0.71163488670E+01  0.27979678976E+00  0.10809830009E+02  0.51100000000E-03 0.  1.
        -12    1    3    3    0    0  0.37175070899E+01  0.26665037273E+02  0.30697779101E+02  0.40831332497E+02  0.00000000000E+00 0.  1.
</event>
<event>
 7    1  0.3032584E-015  0.9000785E+02  0.7816164E-02  0.1186339E+00
        -11   -1    0    0    0    0  0.00000000000E+00  0.00000000000E+00  0.45593999997E+02  0.45594000000E+02  0.51100000000E-03 0.  1.
         11   -1    0    0    0    0 -0.00000000000E+00 -0.00000000000E+00 -0.45593999997E+02  0.45594000000E+02  0.51100000000E-03 0. -1.
    9900012    2    1    2    0    0 -0.66220411220E+00 -0.28843833459E+00  0.93329447273E+00  0.90007851903E+02  0.90000114748E+02 0.  0.
         12    1    1    2    0    0  0.66220411220E+00  0.28843833459E+00 -0.93329447273E+00  0.11801480974E+01  0.00000000000E+00 0. -1.
         11    1    3    3    0    0 -0.57877884703E+00  0.14735772945E+01  0.98313182227E+01  0.99579733507E+01  0.51100000000E-03 0. -1.
        -11    1    3    3    0    0  0.12927772682E+02 -0.27634141390E+01  0.33327592845E+02  0.35853761439E+02  0.51100000000E-03 0.  1.
         12    1    3    3    0    0 -0.13011197948E+02  0.10013985099E+01 -0.42225616595E+02  0.44196117113E+02  0.00000000000E+00 0. -1.
</event>
<event>
 7    1  0.3032584E-015  0.9000777E+02  0.7816164E-02  0.1186339E+00
        -11   -1    0    0    0    0  0.00000000000E+00  0.00000000000E+00  0.45593999997E+02  0.45594000000E+02  0.51100000000E-03 0.  1.
         11   -1    0    0    0    0 -0.00000000000E+00 -0.00000000000E+00 -0.45593999997E+02  0.45594000000E+02  0.51100000000E-03 0. -1.
    9900012    2    1    2    0    0  0.70937842167E-01 -0.19922038392E+00  0.11611291255E+01  0.90007770452E+02  0.90000032222E+02 0.  0.
         12    1    1    2    0    0 -0.70937842167E-01  0.19922038392E+00 -0.11611291255E+01  0.11802295476E+01  0.00000000000E+00 0. -1.
         11    1    3    3    0    0 -0.15951567013E+02 -0.14721267973E+02 -0.32317776089E+02  0.38930795940E+02  0.51100000000E-03 0. -1.
        -11    1    3    3    0    0  0.83029997209E+01 -0.57877680162E+01 -0.11602798602E+01  0.10187458593E+02  0.51100000000E-03 0.  1.
        -12    1    3    3    0    0  0.77195051347E+01  0.20309815606E+02  0.34639185075E+02  0.40889515919E+02  0.00000000000E+00 0.  1.
</event>
<event>
 7    1  0.3032584E-015  0.9000771E+02  0.7816164E-02  0.1186339E+00
        -11   -1    0    0    0    0  0.00000000000E+00  0.00000000000E+00  0.45593999997E+02  0.45594000000E+02  0.51100000000E-03 0. -1.
         11   -1    0    0    0    0 -0.00000000000E+00 -0.00000000000E+00 -0.45593999997E+02  0.45594000000E+02  0.51100000000E-03 0.  1.
    9900012    2    1    2    0    0  0.42244097809E+00 -0.10728417216E+01 -0.25226227524E+00  0.90007711054E+02  0.89999972040E+02 0.  0.
         12    1    1    2    0    0 -0.42244097809E+00  0.10728417216E+01  0.25226227524E+00  0.11802889456E+01  0.00000000000E+00 0. -1.
         11    1    3    3    0    0  0.15191592084E+02 -0.10662439601E+01  0.13240868317E+00  0.15229539670E+02  0.51100000000E-03 0. -1.
        -11    1    3    3    0    0  0.27025815699E+02 -0.14034166933E+02 -0.30913747953E+01  0.30608971791E+02  0.51100000000E-03 0.  1.
         12    1    3    3    0    0 -0.41794966805E+02  0.14027569171E+02  0.27067038368E+01  0.44169199594E+02  0.00000000000E+00 0. -1.
</event>
<event>
 7    1  0.3032584E-015  0.9000772E+02  0.7816164E-02  0.1186339E+00
        -11   -1    0    0    0    0  0.00000000000E+00  0.00000000000E+00  0.45593999997E+02  0.45594000000E+02  0.51100000000E-03 0.  1.
         11   -1    0    0    0    0 -0.00000000000E+00 -0.00000000000E+00 -0.45593999997E+02  0.45594000000E+02  0.51100000000E-03 0. -1.
    9900012    2    1    2    0    0  0.10394911773E+01  0.55884616134E+00  0.14117995985E-01  0.90007724499E+02  0.89999985663E+02 0.  0.
         12    1    1    2    0    0 -0.10394911773E+01 -0.55884616134E+00 -0.14117995985E-01  0.11802755007E+01  0.00000000000E+00 0. -1.
         11    1    3    3    0    0  0.38169276134E+02 -0.87316379591E+01  0.54189714766E+01  0.39528475738E+02  0.51100000000E-03 0. -1.
        -11    1    3    3    0    0  0.17809415420E+01 -0.47167851977E+01  0.57487382301E+01  0.76464244504E+01  0.51100000000E-03 0.  1.
        -12    1    3    3    0    0 -0.38910726499E+02  0.14007269318E+02 -0.11153591711E+02  0.42832824311E+02  0.00000000000E+00 0.  1.
</event>
<event>
 7    1  0.3032584E-015  0.9000772E+02  0.7816164E-02  0.1186339E+00
        -11   -1    0    0    0    0  0.00000000000E+00  0.00000000000E+00  0.45593999997E+02  0.45594000000E+02  0.51100000000E-03 0. -1.
         11   -1    0    0    0    0 -0.00000000000E+00 -0.00000000000E+00 -0.45593999997E+02  0.45594000000E+02  0.51100000000E-03 0.  1.
    9900012    2    1    2    0    0 -0.68056040910E+00 -0.70550011630E+00 -0.65739050763E+00  0.90007722421E+02  0.89999983557E+02 0.  0.
         12    1    1    2    0    0  0.68056040910E+00  0.70550011630E+00  0.65739050763E+00  0.11802775792E+01  0.00000000000E+00 0. -1.
         11    1    3    3    0    0 -0.11695204580E+02  0.33919105549E+02 -0.88720219677E+01  0.36959387244E+02  0.51100000000E-03 0. -1.
        -11    1    3    3    0    0 -0.29604754257E+00  0.60323983630E+01 -0.60042056223E+01  0.85163348674E+01  0.51100000000E-03 0.  1.
        -12    1    3    3    0    0  0.11310691713E+02 -0.40657004028E+02  0.14218837082E+02  0.44532000309E+02  0.00000000000E+00 0.  1.
</event>
<event>
 7    1  0.3032584E-015  0.9000853E+02  0.7816164E-02  0.1186337E+00
        -11   -1    0    0    0    0  0.00000000000E+00  0.00000000000E+00  0.45593999997E+02  0.45594000000E+02  0.51100000000E-03 0. -1.
         11   -1    0    0    0    0 -0.00000000000E+00 -0.00000000000E+00 -0.45593999997E+02  0.45594000000E+02  0.51100000000E-03 0.  1.
    9900012    2    1    2    0    0 -0.10489262865E+01  0.25757819506E+00 -0.47386176717E+00  0.90008534928E+02  0.90000806786E+02 0.  0.
         12    1    1    2    0    0  0.10489262865E+01 -0.25757819506E+00  0.47386176717E+00  0.11794650717E+01  0.00000000000E+00 0. -1.
         11    1    3    3    0    0  0.33641123802E+02 -0.20675807413E+02  0.13273764899E+02  0.41658217169E+02  0.51100000000E-03 0. -1.
        -11    1    3    3    0    0 -0.32688803204E+01 -0.13874386414E+01 -0.88028180326E+01  0.94921109407E+01  0.51100000000E-03 0.  1.
        -12    1    3    3    0    0 -0.31421169768E+02  0.22320824250E+02 -0.49448086334E+01  0.38858206819E+02  0.00000000000E+00 0.  1.
</event>
<event>
 7    1  0.3032584E-015  0.9000771E+02  0.7816164E-02  0.1186339E+00
        -11   -1    0    0    0    0  0.00000000000E+00  0.00000000000E+00  0.45593999997E+02  0.45594000000E+02  0.51100000000E-03 0.  1.
         11   -1    0    0    0    0 -0.00000000000E+00 -0.00000000000E+00 -0.45593999997E+02  0.45594000000E+02  0.51100000000E-03 0. -1.
    9900012    2    1    2    0    0 -0.47169534579E+00 -0.99971226473E+00  0.41371111391E+00  0.90007712748E+02  0.89999973756E+02 0.  0.
         12    1    1    2    0    0  0.47169534579E+00  0.99971226473E+00 -0.41371111391E+00  0.11802872520E+01  0.00000000000E+00 0. -1.
         11    1    3    3    0    0  0.50805160558E+01  0.53546580918E+01 -0.58343411913E+01  0.94086951311E+01  0.51100000000E-03 0. -1.
        -11    1    3    3    0    0  0.32112876289E+02 -0.11304773569E+02  0.20825530390E+02  0.39909114815E+02  0.51100000000E-03 0.  1.
         12    1    3    3    0    0 -0.37665087691E+02  0.49504032126E+01 -0.14577478085E+02  0.40689902802E+02  0.00000000000E+00 0. -1.
</event>
<event>
 7    1  0.3032584E-015  0.9000772E+02  0.7816164E-02  0.1186339E+00
        -11   -1    0    0    0    0  0.00000000000E+00  0.00000000000E+00  0.45593999997E+02  0.45594000000E+02  0.51100000000E-03 0. -1.
         11   -1    0    0    0    0 -0.00000000000E+00 -0.00000000000E+00 -0.45593999997E+02  0.45594000000E+02  0.51100000000E-03 0.  1.
    9900012    2    1    2    0    0  0.36637536818E+00 -0.10318111212E+01  0.44067837886E+00  0.90007719299E+02  0.89999980393E+02 0.  0.
         12    1    1    2    0    0 -0.36637536818E+00  0.10318111212E+01 -0.44067837886E+00  0.11802807013E+01  0.00000000000E+00 0. -1.
         11    1    3    3    0    0 -0.78845567345E+01 -0.28098870674E+01 -0.93465323491E+01  0.12546687509E+02  0.51100000000E-03 0. -1.
        -11    1    3    3    0    0 -0.65833522977E+00 -0.19130225375E+02 -0.27671465872E+02  0.33646826774E+02  0.51100000000E-03 0.  1.
         12    1    3    3    0    0  0.89092673324E+01  0.20908301321E+02  0.37458676600E+02  0.43814205016E+02  0.00000000000E+00 0. -1.
</event>
<event>
 7    1  0.3032584E-015  0.9000765E+02  0.7816164E-02  0.1186339E+00
        -11   -1    0    0    0    0  0.00000000000E+00  0.00000000000E+00  0.45593999997E+02  0.45594000000E+02  0.51100000000E-03 0.  1.
         11   -1    0    0    0    0 -0.00000000000E+00 -0.00000000000E+00 -0.45593999997E+02  0.45594000000E+02  0.51100000000E-03 0. -1.
    9900012    2    1    2    0    0 -0.10685413886E+00  0.94929889473E+00  0.69327771769E+00  0.90007652512E+02  0.89999912725E+02 0.  0.
         12    1    1    2    0    0  0.10685413886E+00 -0.94929889473E+00 -0.69327771769E+00  0.11803474880E+01  0.00000000000E+00 0. -1.
         11    1    3    3    0    0  0.27001364726E+02  0.24742325673E+01 -0.23744991424E+02  0.36041922006E+02  0.51100000000E-03 0. -1.
        -11    1    3    3    0    0  0.65363725794E+01 -0.29215727949E+01 -0.54051871123E+01  0.89708306233E+01  0.51100000000E-03 0.  1.
        -12    1    3    3    0    0 -0.33644591444E+02  0.13966391223E+01  0.29843456254E+02  0.44994899883E+02  0.00000000000E+00 0.  1.
</event>
<event>
 7    1  0.3032584E-015  0.9000824E+02  0.7816164E-02  0.1186338E+00
        -11   -1    0    0    0    0  0.00000000000E+00  0.00000000000E+00  0.45593999997E+02  0.45594000000E+02  0.51100000000E-03 0. -1.
         11   -1    0    0    0    0 -0.00000000000E+00 -0.00000000000E+00 -0.45593999997E+02  0.45594000000E+02  0.51100000000E-03 0.  1.
    9900012    2    1    2    0    0 -0.99837459895E+00  0.20149886017E+00 -0.59538797685E+00  0.90008237111E+02  0.90000505040E+02 0.  0.
         12    1    1    2    0    0  0.99837459895E+00 -0.20149886017E+00  0.59538797685E+00  0.11797628887E+01  0.00000000000E+00 0. -1.
         11    1    3    3    0    0  0.12746115951E+00  0.85381788386E+01  0.29937447673E+01  0.90487155011E+01  0.51100000000E-03 0. -1.
        -11    1    3    3    0    0  0.10309397724E+01  0.17255499294E+02  0.32413630928E+02  0.36734977377E+02  0.51100000000E-03 0.  1.
         12    1    3    3    0    0 -0.21567755309E+01 -0.25592179272E+02 -0.36002763672E+02  0.44224544233E+02  0.00000000000E+00 0. -1.
</event>
<event>
 7    1  0.3032584E-015  0.9000772E+02  0.7816164E-02  0.1186339E+00
        -11   -1    0    0    0    0  0.00000000000E+00  0.00000000000E+00  0.45593999997E+02  0.45594000000E+02  0.51100000000E-03 0.  1.
         11   -1    0    0    0    0 -0.00000000000E+00 -0.00000000000E+00 -0.45593999997E+02  0.45594000000E+02  0.51100000000E-03 0. -1.
    9900012    2    1    2    0    0  0.48905359407E+00 -0.62141731851E+00  0.87620198887E+00  0.90007719175E+02  0.89999980268E+02 0.  0.
         12    1    1    2    0    0 -0.48905359407E+00  0.62141731851E+00 -0.87620198887E+00  0.11802808255E+01  0.00000000000E+00 0. -1.
         11    1    3    3    0    0  0.11054182284E+02 -0.59766295886E+01  0.85713894686E+01  0.15211303852E+02  0.51100000000E-03 0. -1.
        -11    1    3    3    0    0 -0.19604874486E+02 -0.14058834027E+02  0.25620705559E+02  0.35191227194E+02  0.51100000000E-03 0.  1.
         12    1    3    3    0    0  0.90397457965E+01  0.19414046297E+02 -0.33315893039E+02  0.39605188128E+02  0.00000000000E+00 0. -1.
</event>
<event>
 7    1  0.3032584E-015  0.9000773E+02  0.7816164E-02  0.1186339E+00
        -11   -1    0    0    0    0  0.00000000000E+00  0.00000000000E+00  0.45593999997E+02  0.45594000000E+02  0.51100000000E-03 0. -1.
         11   -1    0    0    0    0 -0.00000000000E+00 -0.00000000000E+00 -0.45593999997E+02  0.45594000000E+02  0.51100000000E-03 0.  1.
    9900012    2    1    2    0    0  0.44864833051E+00 -0.81549149718E+00 -0.72576579791E+00  0.90007725583E+02  0.89999986761E+02 0.  0.
         12    1    1    2    0    0 -0.44864833051E+00  0.81549149718E+00  0.72576579791E+00  0.11802744172E+01  0.00000000000E+00 0. -1.
         11    1    3    3    0    0 -0.82541336598E+01 -0.44476589985E+01 -0.16941084914E+02  0.19362663850E+02  0.51100000000E-03 0. -1.
        -11    1    3    3    0    0 -0.11459046545E+02  0.27139514814E+02 -0.88970476357E+01  0.30773697681E+02  0.51100000000E-03 0.  1.
         12    1    3    3    0    0  0.20161828535E+02 -0.23507347312E+02  0.25112366751E+02  0.39871364053E+02  0.00000000000E+00 0. -1.
</event>
<event>
 7    1  0.3032584E-015  0.9000774E+02  0.7816164E-02  0.1186339E+00
        -11   -1    0    0    0    0  0.00000000000E+00  0.00000000000E+00  0.45593999997E+02  0.45594000000E+02  0.51100000000E-03 0. -1.
         11   -1    0    0    0    0 -0.00000000000E+00 -0.00000000000E+00 -0.45593999997E+02  0.45594000000E+02  0.51100000000E-03 0.  1.
    9900012    2    1    2    0    0  0.23176406042E+00  0.11427639116E+01  0.18269779138E+00  0.90007744765E+02  0.90000006196E+02 0.  0.
         12    1    1    2    0    0 -0.23176406042E+00 -0.11427639116E+01 -0.18269779138E+00  0.11802552353E+01  0.00000000000E+00 0. -1.
         11    1    3    3    0    0  0.12891529069E+02  0.28776912523E+01 -0.12374296172E+02  0.18099608689E+02  0.51100000000E-03 0. -1.
        -11    1    3    3    0    0  0.69848811359E+01 -0.32642558012E+02  0.11376375600E+02  0.35266798552E+02  0.51100000000E-03 0.  1.
         12    1    3    3    0    0 -0.19644646144E+02  0.30907630671E+02  0.11806183640E+01  0.36641337524E+02  0.00000000000E+00 0. -1.
</event>
<event>
 7    1  0.3032584E-015  0.9000784E+02  0.7816164E-02  0.1186339E+00
        -11   -1    0    0    0    0  0.00000000000E+00  0.00000000000E+00  0.45593999997E+02  0.45594000000E+02  0.51100000000E-03 0. -1.
         11   -1    0    0    0    0 -0.00000000000E+00 -0.00000000000E+00 -0.45593999997E+02  0.45594000000E+02  0.51100000000E-03 0.  1.
    9900012    2    1    2    0    0  0.51151207839E+00 -0.86003890834E+00  0.62566980574E+00  0.90007841436E+02  0.90000104143E+02 0.  0.
         12    1    1    2    0    0 -0.51151207839E+00  0.86003890834E+00 -0.62566980574E+00  0.11801585639E+01  0.00000000000E+00 0. -1.
         11    1    3    3    0    0  0.59057893474E+01 -0.64504063733E+01  0.25567125385E+01  0.91116886175E+01  0.51100000000E-03 0. -1.
        -11    1    3    3    0    0 -0.58512198054E+01  0.31597481471E+02  0.27014042882E+02  0.41980901867E+02  0.51100000000E-03 0.  1.
         12    1    3    3    0    0  0.45694253634E+00 -0.26007114006E+02 -0.28945085614E+02  0.38915250951E+02  0.00000000000E+00 0. -1.
</event>
<event>
 7    1  0.3032584E-015  0.9000760E+02  0.7816164E-02  0.1186339E+00
        -11   -1    0    0    0    0  0.00000000000E+00  0.00000000000E+00  0.45593999997E+02  0.45594000000E+02  0.51100000000E-03 0.  1.
         11   -1    0    0    0    0 -0.00000000000E+00 -0.00000000000E+00 -0.45593999997E+02  0.45594000000E+02  0.51100000000E-03 0. -1.
    9900012    2    1    2    0    0 -0.84571381392E+00 -0.78500338218E+00  0.24876720792E+00  0.90007598675E+02  0.89999858177E+02 0.  0.
         12    1    1    2    0    0  0.84571381392E+00  0.78500338218E+00 -0.24876720792E+00  0.11804013253E+01  0.00000000000E+00 0. -1.
         11    1    3    3    0    0  0.13321809015E+01 -0.63373978957E+01  0.69298189158E+01  0.94847091948E+01  0.51100000000E-03 0. -1.
        -11    1    3    3    0    0  0.72531688830E+01  0.55070562566E+01  0.35834623727E+02  0.36973725609E+02  0.51100000000E-03 0.  1.
         12    1    3    3    0    0 -0.94310635984E+01  0.45338256965E-01 -0.42515675435E+02  0.43549163871E+02  0.00000000000E+00 0. -1.
</event>
<event>
 7    1  0.3032584E-015  0.9000774E+02  0.7816164E-02  0.1186339E+00
        -11   -1    0    0    0    0  0.00000000000E+00  0.00000000000E+00  0.45593999997E+02  0.45594000000E+02  0.51100000000E-03 0. -1.
         11   -1    0    0    0    0 -0.00000000000E+00 -0.00000000000E+00 -0.45593999997E+02  0.45594000000E+02  0.51100000000E-03 0.  1.
    9900012    2    1    2    0    0 -0.42583737100E+00  0.45178567311E+00 -0.10037815611E+01  0.90007735122E+02  0.89999996425E+02 0.  0.
         12    1    1    2    0    0  0.42583737100E+00 -0.45178567311E+00  0.10037815611E+01  0.11802648785E+01  0.00000000000E+00 0. -1.
         11    1    3    3    0    0 -0.11616844751E+00  0.66179856855E+01  0.46915378474E+01  0.81130609067E+01  0.51100000000E-03 0. -1.
        -11    1    3    3    0    0 -0.86872505199E+01  0.25663966877E+02 -0.30413872389E+02  0.40732188149E+02  0.51100000000E-03 0.  1.
         12    1    3    3    0    0  0.83775815964E+01 -0.31830166889E+02  0.24718552981E+02  0.41162486065E+02  0.00000000000E+00 0. -1.
</event>
<event>
 7    1  0.3032584E-015  0.9000775E+02  0.7816164E-02  0.1186339E+00
        -11   -1    0    0    0    0  0.00000000000E+00  0.00000000000E+00  0.45593999997E+02  0.45594000000E+02  0.51100000000E-03 0.  1.
         11   -1    0    0    0    0 -0.00000000000E+00 -0.00000000000E+00 -0.45593999997E+02  0.45594000000E+02  0.51100000000E-03 0. -1.
    9900012    2    1    2    0    0  0.64525045753E+00 -0.77017636772E+00  0.61924224492E+00  0.90007753946E+02  0.90000015498E+02 0.  0.
         12    1    1    2    0    0 -0.64525045753E+00  0.77017636772E+00 -0.61924224492E+00  0.11802460541E+01  0.00000000000E+00 0. -1.
         11    1    3    3    0    0  0.34965721984E+02 -0.22312355911E+02 -0.11661173360E+02  0.43086261204E+02  0.51100000000E-03 0. -1.
        -11    1    3    3    0    0 -0.42679453174E+01  0.10879819397E+02  0.92218990780E+01  0.14887217679E+02  0.51100000000E-03 0.  1.
        -12    1    3    3    0    0 -0.30052526209E+02  0.10662360146E+02  0.30585165271E+01  0.32034275063E+02  0.00000000000E+00 0.  1.
</event>
<event>
 7    1  0.3032584E-015  0.9000775E+02  0.7816164E-02  0.1186339E+00
        -11   -1    0    0    0    0  0.00000000000E+00  0.00000000000E+00  0.45593999997E+02  0.45594000000E+02  0.51100000000E-03 0.  1.
         11   -1    0    0    0    0 -0.00000000000E+00 -0.00000000000E+00 -0.45593999997E+02  0.45594000000E+02  0.51100000000E-03 0. -1.
    9900012    2    1    2    0    0 -0.60780833661E+00 -0.10095488047E+01  0.66099660845E-01  0.90007750480E+02  0.90000011987E+02 0.  0.
         12    1    1    2    0    0  0.60780833661E+00  0.10095488047E+01 -0.66099660845E-01  0.11802495195E+01  0.00000000000E+00 0. -1.
         11    1    3    3    0    0  0.27822277868E+02  0.10661609253E+02 -0.69474102230E+01  0.30594371487E+02  0.51100000000E-03 0. -1.
        -11    1    3    3    0    0  0.12966760555E+02 -0.11539538014E+02  0.45433968832E+01  0.17942694123E+02  0.51100000000E-03 0.  1.
        -12    1    3    3    0    0 -0.41396846759E+02 -0.13162004341E+00  0.24701130007E+01  0.41470684871E+02  0.00000000000E+00 0.  1.
</event>
<event>
 7    1  0.3032584E-015  0.9000780E+02  0.7816164E-02  0.1186339E+00
        -11   -1    0    0    0    0  0.00000000000E+00  0.00000000000E+00  0.45593999997E+02  0.45594000000E+02  0.51100000000E-03 0.  1.
         11   -1    0    0    0    0 -0.00000000000E+00 -0.00000000000E+00 -0.45593999997E+02  0.45594000000E+02  0.51100000000E-03 0. -1.
    9900012    2    1    2    0    0 -0.80267660588E+00  0.86273964443E+00  0.65326895064E-01  0.90007797886E+02  0.90000060018E+02 0.  0.
         12    1    1    2    0    0  0.80267660588E+00 -0.86273964443E+00 -0.65326895064E-01  0.11802021144E+01  0.00000000000E+00 0. -1.
         11    1    3    3    0    0 -0.11657302442E+02  0.79567966744E+01 -0.36061367698E+02  0.38724999083E+02  0.51100000000E-03 0. -1.
        -11    1    3    3    0    0 -0.97074698972E+01  0.38364450051E+01  0.31315289700E+01  0.10897694987E+02  0.51100000000E-03 0.  1.
        -12    1    3    3    0    0  0.20562095733E+02 -0.10930502035E+02  0.32995165623E+02  0.40385103815E+02  0.00000000000E+00 0.  1.
</event>
<event>
 7    1  0.3032584E-015  0.9000750E+02  0.7816164E-02  0.1186340E+00
        -11   -1    0    0    0    0  0.00000000000E+00  0.00000000000E+00  0.45593999997E+02  0.45594000000E+02  0.51100000000E-03 0. -1.
         11   -1    0    0    0    0 -0.00000000000E+00 -0.00000000000E+00 -0.45593999997E+02  0.45594000000E+02  0.51100000000E-03 0.  1.
    9900012    2    1    2    0    0 -0.73505127632E+00  0.10798821055E+00 -0.91739591712E+00  0.90007501334E+02  0.89999759551E+02 0.  0.
         12    1    1    2    0    0  0.73505127632E+00 -0.10798821055E+00  0.91739591712E+00  0.11804986663E+01  0.00000000000E+00 0. -1.
         11    1    3    3    0    0  0.37617652497E+01 -0.53994833432E+01 -0.67283146265E+01  0.94114566429E+01  0.51100000000E-03 0. -1.
        -11    1    3    3    0    0 -0.18612034825E+01  0.18473257618E+02 -0.33947921989E+02  0.38693497297E+02  0.51100000000E-03 0.  1.
         12    1    3    3    0    0 -0.26356130435E+01 -0.12965786064E+02  0.39758840699E+02  0.41902547394E+02  0.00000000000E+00 0. -1.
</event>
<event>
 7    1  0.3032584E-015  0.9000783E+02  0.7816164E-02  0.1186339E+00
        -11   -1    0    0    0    0  0.00000000000E+00  0.00000000000E+00  0.45593999997E+02  0.45594000000E+02  0.51100000000E-03 0.  1.
         11   -1    0    0    0    0 -0.00000000000E+00 -0.00000000000E+00 -0.45593999997E+02  0.45594000000E+02  0.51100000000E-03 0. -1.
    9900012    2    1    2    0    0 -0.61836317254E+00 -0.73377894022E+00 -0.68702638383E+00  0.90007826369E+02  0.90000088877E+02 0.  0.
         12    1    1    2    0    0  0.61836317254E+00  0.73377894022E+00  0.68702638383E+00  0.11801736306E+01  0.00000000000E+00 0. -1.
         11    1    3    3    0    0  0.13530404175E+02  0.35126432659E+02  0.51546824475E+01  0.37993537080E+02  0.51100000000E-03 0. -1.
        -11    1    3    3    0    0 -0.75125602045E+01  0.32958574539E+01  0.64560050696E+01  0.10439407977E+02  0.51100000000E-03 0.  1.
        -12    1    3    3    0    0 -0.66362071426E+01 -0.39156069053E+02 -0.12297713901E+02  0.41574881312E+02  0.00000000000E+00 0.  1.
</event>
<event>
 7    1  0.3032584E-015  0.9000783E+02  0.7816164E-02  0.1186339E+00
        -11   -1    0    0    0    0  0.00000000000E+00  0.00000000000E+00  0.45593999997E+02  0.45594000000E+02  0.51100000000E-03 0. -1.
         11   -1    0    0    0    0 -0.00000000000E+00 -0.00000000000E+00 -0.45593999997E+02  0.45594000000E+02  0.51100000000E-03 0.  1.
    9900012    2    1    2    0    0 -0.18586943072E-01 -0.99141371864E-01 -0.11758545462E+01  0.90007826962E+02  0.90000089478E+02 0.  0.
         12    1    1    2    0    0  0.18586943072E-01  0.99141371864E-01  0.11758545462E+01  0.11801730381E+01  0.00000000000E+00 0. -1.
         11    1    3    3    0    0  0.92828711182E+01  0.73978560779E+01 -0.35376430276E+01  0.12386076425E+02  0.51100000000E-03 0. -1.
        -11    1    3    3    0    0  0.24730225579E+02  0.21568209270E+02  0.18767344252E+00  0.32814736474E+02  0.51100000000E-03 0.  1.
         12    1    3    3    0    0 -0.34031683640E+02 -0.29065206720E+02  0.21741150389E+01  0.44807014063E+02  0.00000000000E+00 0. -1.
</event>
<event>
 7    1  0.3032584E-015  0.9000778E+02  0.7816164E-02  0.1186339E+00
        -11   -1    0    0    0    0  0.00000000000E+00  0.00000000000E+00  0.45593999997E+02  0.45594000000E+02  0.51100000000E-03 0.  1.
         11   -1    0    0    0    0 -0.00000000000E+00 -0.00000000000E+00 -0.45593999997E+02  0.45594000000E+02  0.51100000000E-03 0. -1.
    9900012    2    1    2    0    0 -0.53546753642E+00  0.33409702045E+00  0.99728321543E+00  0.90007779634E+02  0.90000041525E+02 0.  0.
         12    1    1    2    0    0  0.53546753642E+00 -0.33409702045E+00 -0.99728321543E+00  0.11802203665E+01  0.00000000000E+00 0. -1.
         11    1    3    3    0    0 -0.10528729005E+02 -0.29073274694E+02 -0.18809092512E+02  0.36192421821E+02  0.51100000000E-03 0. -1.
        -11    1    3    3    0    0 -0.73117089860E+01 -0.66923517511E+01  0.52608910914E+01  0.11221659217E+02  0.51100000000E-03 0.  1.
        -12    1    3    3    0    0  0.17304970455E+02  0.36099723465E+02  0.14545484636E+02  0.42593698595E+02  0.00000000000E+00 0.  1.
</event>
<event>
 7    1  0.3032584E-015  0.9000775E+02  0.7816164E-02  0.1186339E+00
        -11   -1    0    0    0    0  0.00000000000E+00  0.00000000000E+00  0.45593999997E+02  0.45594000000E+02  0.51100000000E-03 0.  1.
         11   -1    0    0    0    0 -0.00000000000E+00 -0.00000000000E+00 -0.45593999997E+02  0.45594000000E+02  0.51100000000E-03 0. -1.
    9900012    2    1    2    0    0 -0.96542738563E+00  0.44803803809E+00 -0.51009815282E+00  0.90007750770E+02  0.90000012280E+02 0.  0.
         12    1    1    2    0    0  0.96542738563E+00 -0.44803803809E+00  0.51009815282E+00  0.11802492305E+01  0.00000000000E+00 0. -1.
         11    1    3    3    0    0  0.83794958212E-01 -0.42798746809E+01  0.82303189524E+01  0.92769876144E+01  0.51100000000E-03 0. -1.
        -11    1    3    3    0    0 -0.30039586204E+02 -0.57670595068E+01  0.21622164671E+02  0.37458693516E+02  0.51100000000E-03 0.  1.
         12    1    3    3    0    0  0.28990363860E+02  0.10494972226E+02 -0.30362581776E+02  0.43272069639E+02  0.00000000000E+00 0. -1.
</event>
<event>
 7    1  0.3032584E-015  0.9000762E+02  0.7816164E-02  0.1186339E+00
        -11   -1    0    0    0    0  0.00000000000E+00  0.00000000000E+00  0.45593999997E+02  0.45594000000E+02  0.51100000000E-03 0. -1.
         11   -1    0    0    0    0 -0.00000000000E+00 -0.00000000000E+00 -0.45593999997E+02  0.45594000000E+02  0.51100000000E-03 0.  1.
    9900012    2    1    2    0    0 -0.99038090225E+00  0.20536489294E+00 -0.60848946835E+00  0.90007623575E+02  0.89999883406E+02 0.  0.
         12    1    1    2    0    0  0.99038090225E+00 -0.20536489294E+00  0.60848946835E+00  0.11803764247E+01  0.00000000000E+00 0. -1.
         11    1    3    3    0    0 -0.34375965265E+01 -0.58746346833E+00  0.78678787186E+01  0.86061430965E+01  0.51100000000E-03 0. -1.
        -11    1    3    3    0    0 -0.13403990036E+02 -0.17983168171E+02  0.28954659999E+02  0.36625586989E+02  0.51100000000E-03 0.  1.
         12    1    3    3    0    0  0.15851205660E+02  0.18775996533E+02 -0.37431028186E+02  0.44775893489E+02  0.00000000000E+00 0. -1.
</event>
<event>
 7    1  0.3032584E-015  0.9000772E+02  0.7816164E-02  0.1186339E+00
        -11   -1    0    0    0    0  0.00000000000E+00  0.00000000000E+00  0.45593999997E+02  0.45594000000E+02  0.51100000000E-03 0.  1.
         11   -1    0    0    0    0 -0.00000000000E+00 -0.00000000000E+00 -0.45593999997E+02  0.45594000000E+02  0.51100000000E-03 0. -1.
    9900012    2    1    2    0    0  0.47259149299E+00 -0.77641616639E+00  0.75293252896E+00  0.90007715214E+02  0.89999976255E+02 0.  0.
         12    1    1    2    0    0 -0.47259149299E+00  0.77641616639E+00 -0.75293252896E+00  0.11802847859E+01  0.00000000000E+00 0. -1.
         11    1    3    3    0    0  0.22396430984E+02  0.68276909243E+01 -0.11702178392E+02  0.26175531772E+02  0.51100000000E-03 0. -1.
        -11    1    3    3    0    0 -0.11786181729E+02 -0.13818980895E+02 -0.21330255624E+02  0.28015319344E+02  0.51100000000E-03 0.  1.
        -12    1    3    3    0    0 -0.10137657762E+02  0.62148738041E+01  0.33785366544E+02  0.35816864098E+02  0.00000000000E+00 0.  1.
</event>
<event>
 7    1  0.3032584E-015  0.9000762E+02  0.7816164E-02  0.1186339E+00
        -11   -1    0    0    0    0  0.00000000000E+00  0.00000000000E+00  0.45593999997E+02  0.45594000000E+02  0.51100000000E-03 0. -1.
         11   -1    0    0    0    0 -0.00000000000E+00 -0.00000000000E+00 -0.45593999997E+02  0.45594000000E+02  0.51100000000E-03 0.  1.
    9900012    2    1    2    0    0  0.18661373719E+00 -0.78827570823E+00 -0.85854442528E+00  0.90007617939E+02  0.89999877696E+02 0.  0.
         12    1    1    2    0    0 -0.18661373719E+00  0.78827570823E+00  0.85854442528E+00  0.11803820607E+01  0.00000000000E+00 0. -1.
         11    1    3    3    0    0 -0.64356129270E+01 -0.24368580642E+01  0.38330903325E+02  0.38943722741E+02  0.51100000000E-03 0. -1.
        -11    1    3    3    0    0 -0.62582561572E+01 -0.22015241148E+01  0.26301830863E+01  0.71365497186E+01  0.51100000000E-03 0.  1.
        -12    1    3    3    0    0  0.12880482821E+02  0.38501064707E+01 -0.41819630837E+02  0.43927345479E+02  0.00000000000E+00 0.  1.
</event>
<event>
 7    1  0.3032584E-015  0.9000773E+02  0.7816164E-02  0.1186339E+00
        -11   -1    0    0    0    0  0.00000000000E+00  0.00000000000E+00  0.45593999997E+02  0.45594000000E+02  0.51100000000E-03 0.  1.
         11   -1    0    0    0    0 -0.00000000000E+00 -0.00000000000E+00 -0.45593999997E+02  0.45594000000E+02  0.51100000000E-03 0. -1.
    9900012    2    1    2    0    0 -0.18545427871E+00 -0.10695959927E+01  0.46325650880E+00  0.90007730764E+02  0.89999992010E+02 0.  0.
         12    1    1    2    0    0  0.18545427871E+00  0.10695959927E+01 -0.46325650880E+00  0.11802692362E+01  0.00000000000E+00 0. -1.
         11    1    3    3    0    0 -0.44131326296E+01  0.67894983236E+01 -0.34208411247E+02  0.35153782547E+02  0.51100000000E-03 0. -1.
        -11    1    3    3    0    0 -0.83483605829E+00  0.10493982842E+01 -0.94568497649E+01  0.95514499287E+01  0.51100000000E-03 0.  1.
        -12    1    3    3    0    0  0.50625144092E+01 -0.89084926005E+01  0.44128517520E+02  0.45302498288E+02  0.00000000000E+00 0.  1.
</event>
<event>
 7    1  0.3032584E-015  0.9000752E+02  0.7816164E-02  0.1186339E+00
        -11   -1    0    0    0    0  0.00000000000E+00  0.00000000000E+00  0.45593999997E+02  0.45594000000E+02  0.51100000000E-03 0.  1.
         11   -1    0    0    0    0 -0.00000000000E+00 -0.00000000000E+00 -0.45593999997E+02  0.45594000000E+02  0.51100000000E-03 0. -1.
    9900012    2    1    2    0    0  0.34333271902E-01  0.97920729128E+00  0.65840860457E+00  0.90007522307E+02  0.89999780801E+02 0.  0.
         12    1    1    2    0    0 -0.34333271902E-01 -0.97920729128E+00 -0.65840860457E+00  0.11804776929E+01  0.00000000000E+00 0. -1.
         11    1    3    3    0    0 -0.93799887121E+01 -0.28078860953E+02  0.16844119225E+02  0.34060695433E+02  0.51100000000E-03 0. -1.
        -11    1    3    3    0    0 -0.56010447975E+01 -0.74319665127E+01  0.56123405454E+01  0.10867575430E+02  0.51100000000E-03 0.  1.
        -12    1    3    3    0    0  0.15015366782E+02  0.36490034757E+02 -0.21798051165E+02  0.45079251444E+02  0.00000000000E+00 0.  1.
</event>
<event>
 7    1  0.3032584E-015  0.9000779E+02  0.7816164E-02  0.1186339E+00
        -11   -1    0    0    0    0  0.00000000000E+00  0.00000000000E+00  0.45593999997E+02  0.45594000000E+02  0.51100000000E-03 0.  1.
         11   -1    0    0    0    0 -0.00000000000E+00 -0.00000000000E+00 -0.45593999997E+02  0.45594000000E+02  0.51100000000E-03 0. -1.
    9900012    2    1    2    0    0 -0.17689433232E+00 -0.10754144051E+01 -0.45285811080E+00  0.90007793147E+02  0.90000055216E+02 0.  0.
         12    1    1    2    0    0  0.17689433232E+00  0.10754144051E+01  0.45285811080E+00  0.11802068531E+01  0.00000000000E+00 0. -1.
         11    1    3    3    0    0  0.62481848481E+01  0.74983429224E+01 -0.21801267983E+01  0.10000895640E+02  0.51100000000E-03 0. -1.
        -11    1    3    3    0    0 -0.36512991018E+00 -0.43010033496E+02 -0.79207239876E+01  0.43734816450E+02  0.51100000000E-03 0.  1.
         12    1    3    3    0    0 -0.60599492702E+01  0.34436276169E+02  0.96479926751E+01  0.36272081057E+02  0.00000000000E+00 0. -1.
</event>
<event>
 7    1  0.3032584E-015  0.9000771E+02  0.7816164E-02  0.1186339E+00
        -11   -1    0    0    0    0  0.00000000000E+00  0.00000000000E+00  0.45593999997E+02  0.45594000000E+02  0.51100000000E-03 0.  1.
         11   -1    0    0    0    0 -0.00000000000E+00 -0.00000000000E+00 -0.45593999997E+02  0.45594000000E+02  0.51100000000E-03 0. -1.
    9900012    2    1    2    0    0 -0.75926946306E+00  0.18890957214E+00  0.88368847661E+00  0.90007710939E+02  0.89999971923E+02 0.  0.
         12    1    1    2    0    0  0.75926946306E+00 -0.18890957214E+00 -0.88368847661E+00  0.11802890611E+01  0.00000000000E+00 0. -1.
         11    1    3    3    0    0  0.10614861551E+01 -0.10783419298E+02 -0.40012081387E+01  0.11550694847E+02  0.51100000000E-03 0. -1.
        -11    1    3    3    0    0  0.33571903702E+01 -0.27129102661E+02 -0.18909192338E+02  0.33238779964E+02  0.51100000000E-03 0.  1.
         12    1    3    3    0    0 -0.51779459884E+01  0.38101431532E+02  0.23794088953E+02  0.45218236128E+02  0.00000000000E+00 0. -1.
</event>
<event>
 7    1  0.3032584E-015  0.9000776E+02  0.7816164E-02  0.1186339E+00
        -11   -1    0    0    0    0  0.00000000000E+00  0.00000000000E+00  0.45593999997E+02  0.45594000000E+02  0.51100000000E-03 0. -1.
         11   -1    0    0    0    0 -0.00000000000E+00 -0.00000000000E+00 -0.45593999997E+02  0.45594000000E+02  0.51100000000E-03 0.  1.
    9900012    2    1    2    0    0  0.80131244686E+00 -0.82396726983E+00  0.26822124239E+00  0.90007760052E+02  0.90000021685E+02 0.  0.
         12    1    1    2    0    0 -0.80131244686E+00  0.82396726983E+00 -0.26822124239E+00  0.11802399477E+01  0.00000000000E+00 0. -1.
         11    1    3    3    0    0  0.28372094430E+01 -0.83893609950E+01  0.19576772461E+01  0.90699303078E+01  0.51100000000E-03 0. -1.
        -11    1    3    3    0    0  0.27937999825E+02 -0.61590708379E+01 -0.27029136934E+02  0.39357848410E+02  0.51100000000E-03 0.  1.
         12    1    3    3    0    0 -0.29973896821E+02  0.13724464563E+02  0.25339680930E+02  0.41579981335E+02  0.00000000000E+00 0. -1.
</event>
<event>
 7    1  0.3032584E-015  0.9000777E+02  0.7816164E-02  0.1186339E+00
        -11   -1    0    0    0    0  0.00000000000E+00  0.00000000000E+00  0.45593999997E+02  0.45594000000E+02  0.51100000000E-03 0.  1.
         11   -1    0    0    0    0 -0.00000000000E+00 -0.00000000000E+00 -0.45593999997E+02  0.45594000000E+02  0.51100000000E-03 0. -1.
    9900012    2    1    2    0    0 -0.48272531390E+00  0.10518917593E+01  0.23117965746E+00  0.90007769499E+02  0.90000031256E+02 0.  0.
         12    1    1    2    0    0  0.48272531390E+00 -0.10518917593E+01 -0.23117965746E+00  0.11802305012E+01  0.00000000000E+00 0. -1.
         11    1    3    3    0    0 -0.12097594905E+02  0.24075207514E+02 -0.11278460889E+02  0.29209092756E+02  0.51100000000E-03 0. -1.
        -11    1    3    3    0    0 -0.12807484472E+02  0.85965235618E+01  0.13913687776E+02  0.20773121663E+02  0.51100000000E-03 0.  1.
        -12    1    3    3    0    0  0.24422354063E+02 -0.31619839316E+02 -0.24040472292E+01  0.40025555080E+02  0.00000000000E+00 0.  1.
</event>
<event>
 7    1  0.3032584E-015  0.9000773E+02  0.7816164E-02  0.1186339E+00
        -11   -1    0    0    0    0  0.00000000000E+00  0.00000000000E+00  0.45593999997E+02  0.45594000000E+02  0.51100000000E-03 0. -1.
         11   -1    0    0    0    0 -0.00000000000E+00 -0.00000000000E+00 -0.45593999997E+02  0.45594000000E+02  0.51100000000E-03 0.  1.
    9900012    2    1    2    0    0  0.87707289279E+00 -0.47166797523E+00 -0.63348987194E+00  0.90007730134E+02  0.89999991372E+02 0.  0.
         12    1    1    2    0    0 -0.87707289279E+00  0.47166797523E+00  0.63348987194E+00  0.11802698657E+01  0.00000000000E+00 0. -1.
         11    1    3    3    0    0 -0.24021447887E+02 -0.25183751559E+02 -0.91775915659E+01  0.35992769946E+02  0.51100000000E-03 0. -1.
        -11    1    3    3    0    0 -0.77857131081E+01 -0.46567570366E+01 -0.74664630582E+00  0.91027575859E+01  0.51100000000E-03 0.  1.
        -12    1    3    3    0    0  0.32684233888E+02  0.29368840620E+02  0.92907479998E+01  0.44912202603E+02  0.00000000000E+00 0.  1.
</event>
<event>
 7    1  0.3032584E-015  0.9000781E+02  0.7816164E-02  0.1186339E+00
        -11   -1    0    0    0    0  0.00000000000E+00  0.00000000000E+00  0.45593999997E+02  0.45594000000E+02  0.51100000000E-03 0.  1.
         11   -1    0    0    0    0 -0.00000000000E+00 -0.00000000000E+00 -0.45593999997E+02  0.45594000000E+02  0.51100000000E-03 0. -1.
    9900012    2    1    2    0    0  0.11149017912E+01 -0.34620612144E+00  0.17312411644E+00  0.90007814997E+02  0.90000077355E+02 0.  0.
         12    1    1    2    0    0 -0.11149017912E+01  0.34620612144E+00 -0.17312411644E+00  0.11801850034E+01  0.00000000000E+00 0. -1.
         11    1    3    3    0    0 -0.26633682904E+01  0.60954714140E+01  0.74770033801E+01  0.10007691153E+02  0.51100000000E-03 0. -1.
        -11    1    3    3    0    0 -0.32187628218E+02  0.16020332235E+02 -0.10556268063E+02  0.37471712677E+02  0.51100000000E-03 0.  1.
         12    1    3    3    0    0  0.35965898300E+02 -0.22462009771E+02  0.32523887991E+01  0.42528411167E+02  0.00000000000E+00 0. -1.
</event>
<event>
 7    1  0.3032584E-015  0.9000777E+02  0.7816164E-02  0.1186339E+00
        -11   -1    0    0    0    0  0.00000000000E+00  0.00000000000E+00  0.45593999997E+02  0.45594000000E+02  0.51100000000E-03 0. -1.
         11   -1    0    0    0    0 -0.00000000000E+00 -0.00000000000E+00 -0.45593999997E+02  0.45594000000E+02  0.51100000000E-03 0.  1.
    9900012    2    1    2    0    0 -0.21203231267E+00 -0.84735427116E+00 -0.79371537492E+00  0.90007766524E+02  0.90000028242E+02 0.  0.
         12    1    1    2    0    0  0.21203231267E+00  0.84735427116E+00  0.79371537492E+00  0.11802334764E+01  0.00000000000E+00 0. -1.
         11    1    3    3    0    0  0.21988021205E+02  0.84741999578E+01  0.26207660928E+02  0.35243816947E+02  0.51100000000E-03 0. -1.
        -11    1    3    3    0    0  0.73823303951E+01  0.10397255397E+01  0.57615805162E+01  0.94220826555E+01  0.51100000000E-03 0.  1.
        -12    1    3    3    0    0 -0.29582383913E+02 -0.10361279769E+02 -0.32762956819E+02  0.45341866921E+02  0.00000000000E+00 0.  1.
</event>
<event>
 7    1  0.3032584E-015  0.9000794E+02  0.7816164E-02  0.1186339E+00
        -11   -1    0    0    0    0  0.00000000000E+00  0.00000000000E+00  0.45593999997E+02  0.45594000000E+02  0.51100000000E-03 0.  1.
         11   -1    0    0    0    0 -0.00000000000E+00 -0.00000000000E+00 -0.45593999997E+02  0.45594000000E+02  0.51100000000E-03 0. -1.
    9900012    2    1    2    0    0  0.86581962026E+00  0.23402880335E+00  0.76689092202E+00  0.90007942890E+02  0.90000206936E+02 0.  0.
         12    1    1    2    0    0 -0.86581962026E+00 -0.23402880335E+00 -0.76689092202E+00  0.11800571096E+01  0.00000000000E+00 0. -1.
         11    1    3    3    0    0  0.30775234165E+02  0.45116679042E+00 -0.18482077416E+02  0.35901333892E+02  0.51100000000E-03 0. -1.
        -11    1    3    3    0    0  0.43974146646E+01  0.52768876175E+01 -0.75654967880E+01  0.10218587993E+02  0.51100000000E-03 0.  1.
        -12    1    3    3    0    0 -0.34306829209E+02 -0.54940256046E+01  0.26814465126E+02  0.43888021005E+02  0.00000000000E+00 0.  1.
</event>
<event>
 7    1  0.3032584E-015  0.9000777E+02  0.7816164E-02  0.1186339E+00
        -11   -1    0    0    0    0  0.00000000000E+00  0.00000000000E+00  0.45593999997E+02  0.45594000000E+02  0.51100000000E-03 0.  1.
         11   -1    0    0    0    0 -0.00000000000E+00 -0.00000000000E+00 -0.45593999997E+02  0.45594000000E+02  0.51100000000E-03 0. -1.
    9900012    2    1    2    0    0  0.43955308555E+00 -0.50726433448E+00  0.97077806552E+00  0.90007773720E+02  0.90000035533E+02 0.  0.
         12    1    1    2    0    0 -0.43955308555E+00  0.50726433448E+00 -0.97077806552E+00  0.11802262802E+01  0.00000000000E+00 0. -1.
         11    1    3    3    0    0  0.60072313701E+01 -0.12050172303E+01  0.51084072255E+01  0.79771373250E+01  0.51100000000E-03 0. -1.
        -11    1    3    3    0    0 -0.40791447700E+02  0.10069759804E+02  0.95647160688E+01  0.43090904628E+02  0.51100000000E-03 0.  1.
         12    1    3    3    0    0  0.35223769415E+02 -0.93720069080E+01 -0.13702345229E+02  0.38939731767E+02  0.00000000000E+00 0. -1.
</event>
<event>
 7    1  0.3032584E-015  0.9000762E+02  0.7816164E-02  0.1186339E+00
        -11   -1    0    0    0    0  0.00000000000E+00  0.00000000000E+00  0.45593999997E+02  0.45594000000E+02  0.51100000000E-03 0. -1.
         11   -1    0    0    0    0 -0.00000000000E+00 -0.00000000000E+00 -0.45593999997E+02  0.45594000000E+02  0.51100000000E-03 0.  1.
    9900012    2    1    2    0    0 -0.66369849337E+00 -0.99746655549E-01 -0.97100081357E+00  0.90007623931E+02  0.89999883766E+02 0.  0.
         12    1    1    2    0    0  0.66369849337E+00  0.99746655549E-01  0.97100081357E+00  0.11803760695E+01  0.00000000000E+00 0. -1.
         11    1    3    3    0    0 -0.26325892432E+01  0.32051331197E+01 -0.83782485594E+01  0.93487140091E+01  0.51100000000E-03 0. -1.
        -11    1    3    3    0    0 -0.23134250615E+02 -0.21628010920E+01 -0.28538093259E+02  0.36800734058E+02  0.51100000000E-03 0.  1.
         12    1    3    3    0    0  0.25103141365E+02 -0.11420786832E+01  0.35945341005E+02  0.43858175863E+02  0.00000000000E+00 0. -1.
</event>
<event>
 7    1  0.3032584E-015  0.9000783E+02  0.7816164E-02  0.1186339E+00
        -11   -1    0    0    0    0  0.00000000000E+00  0.00000000000E+00  0.45593999997E+02  0.45594000000E+02  0.51100000000E-03 0.  1.
         11   -1    0    0    0    0 -0.00000000000E+00 -0.00000000000E+00 -0.45593999997E+02  0.45594000000E+02  0.51100000000E-03 0. -1.
    9900012    2    1    2    0    0 -0.11051448829E+01 -0.26191744653E+00 -0.32071989452E+00  0.90007827465E+02  0.90000089988E+02 0.  0.
         12    1    1    2    0    0  0.11051448829E+01  0.26191744653E+00  0.32071989452E+00  0.11801725347E+01  0.00000000000E+00 0. -1.
         11    1    3    3    0    0 -0.56477259021E+01  0.65450691333E+01 -0.10897817270E+02  0.13910325637E+02  0.51100000000E-03 0. -1.
        -11    1    3    3    0    0 -0.32535357551E+02  0.82783928490E+01  0.12985388274E+02  0.35995855151E+02  0.51100000000E-03 0.  1.
         12    1    3    3    0    0  0.37077938571E+02 -0.15085379429E+02 -0.24082908985E+01  0.40101646677E+02  0.00000000000E+00 0. -1.
</event>
<event>
 7    1  0.3032584E-015  0.9000775E+02  0.7816164E-02  0.1186339E+00
        -11   -1    0    0    0    0  0.00000000000E+00  0.00000000000E+00  0.45593999997E+02  0.45594000000E+02  0.51100000000E-03 0.  1.
         11   -1    0    0    0    0 -0.00000000000E+00 -0.00000000000E+00 -0.45593999997E+02  0.45594000000E+02  0.51100000000E-03 0. -1.
    9900012    2    1    2    0    0  0.77175370881E+00 -0.51118072782E+00  0.73218212781E+00  0.90007745709E+02  0.90000007152E+02 0.  0.
         12    1    1    2    0    0 -0.77175370881E+00  0.51118072782E+00 -0.73218212781E+00  0.11802542912E+01  0.00000000000E+00 0. -1.
         11    1    3    3    0    0  0.62048806070E+01 -0.25626479420E+01  0.20529419736E+01  0.70201338185E+01  0.51100000000E-03 0. -1.
        -11    1    3    3    0    0 -0.38791950649E+02 -0.26137242025E-01 -0.21090964627E+02  0.44154783518E+02  0.51100000000E-03 0.  1.
         12    1    3    3    0    0  0.33358823751E+02  0.20776044562E+01  0.19770204782E+02  0.38832828373E+02  0.00000000000E+00 0. -1.
</event>
<event>
 7    1  0.3032584E-015  0.9000772E+02  0.7816164E-02  0.1186339E+00
        -11   -1    0    0    0    0  0.00000000000E+00  0.00000000000E+00  0.45593999997E+02  0.45594000000E+02  0.51100000000E-03 0.  1.
         11   -1    0    0    0    0 -0.00000000000E+00 -0.00000000000E+00 -0.45593999997E+02  0.45594000000E+02  0.51100000000E-03 0. -1.
    9900012    2    1    2    0    0 -0.92747133917E+00  0.25035299237E+00  0.68569511868E+00  0.90007721431E+02  0.89999982553E+02 0.  0.
         12    1    1    2    0    0  0.92747133917E+00 -0.25035299237E+00 -0.68569511868E+00  0.11802785695E+01  0.00000000000E+00 0. -1.
         11    1    3    3    0    0  0.93695163432E+01 -0.31156130265E+02  0.22377561916E+02  0.39487308938E+02  0.51100000000E-03 0. -1.
        -11    1    3    3    0    0  0.67975152201E+01  0.36226018342E+01 -0.15511354312E+02  0.17318532561E+02  0.51100000000E-03 0.  1.
        -12    1    3    3    0    0 -0.17094502902E+02  0.27783881423E+02 -0.61805124857E+01  0.33201879932E+02  0.00000000000E+00 0.  1.
</event>
<event>
 7    1  0.3032584E-015  0.9000774E+02  0.7816164E-02  0.1186339E+00
        -11   -1    0    0    0    0  0.00000000000E+00  0.00000000000E+00  0.45593999997E+02  0.45594000000E+02  0.51100000000E-03 0.  1.
         11   -1    0    0    0    0 -0.00000000000E+00 -0.00000000000E+00 -0.45593999997E+02  0.45594000000E+02  0.51100000000E-03 0. -1.
    9900012    2    1    2    0    0  0.10306589038E+01 -0.56697287911E+00  0.96459814402E-01  0.90007737098E+02  0.89999998428E+02 0.  0.
         12    1    1    2    0    0 -0.10306589038E+01  0.56697287911E+00 -0.96459814402E-01  0.11802629018E+01  0.00000000000E+00 0. -1.
         11    1    3    3    0    0  0.76180352569E+01  0.23519027633E+01 -0.42697590076E+02  0.43435585714E+02  0.51100000000E-03 0. -1.
        -11    1    3    3    0    0  0.38489765053E+01 -0.38676384703E+01  0.51730478364E+01  0.75188876607E+01  0.51100000000E-03 0.  1.
        -12    1    3    3    0    0 -0.10436352858E+02  0.94876282796E+00  0.37621002054E+02  0.39053263723E+02  0.00000000000E+00 0.  1.
</event>
<event>
 7    1  0.3032584E-015  0.9000789E+02  0.7816164E-02  0.1186339E+00
        -11   -1    0    0    0    0  0.00000000000E+00  0.00000000000E+00  0.45593999997E+02  0.45594000000E+02  0.51100000000E-03 0. -1.
         11   -1    0    0    0    0 -0.00000000000E+00 -0.00000000000E+00 -0.45593999997E+02  0.45594000000E+02  0.51100000000E-03 0.  1.
    9900012    2    1    2    0    0  0.38344779621E+00 -0.70154042543E+00 -0.86801896655E+00  0.90007894874E+02  0.90000158287E+02 0.  0.
         12    1    1    2    0    0 -0.38344779621E+00  0.70154042543E+00  0.86801896655E+00  0.11801051255E+01  0.00000000000E+00 0. -1.
         11    1    3    3    0    0 -0.32333880343E+00  0.81374366287E+01 -0.46338682012E+01  0.93699070238E+01  0.51100000000E-03 0. -1.
        -11    1    3    3    0    0 -0.36810127555E+02  0.63663128009E+00 -0.12191540787E+02  0.38781754177E+02  0.51100000000E-03 0.  1.
         12    1    3    3    0    0  0.37516914155E+02 -0.94756083343E+01  0.15957390022E+02  0.41856233673E+02  0.00000000000E+00 0. -1.
</event>
<event>
 7    1  0.3032584E-015  0.9000774E+02  0.7816164E-02  0.1186339E+00
        -11   -1    0    0    0    0  0.00000000000E+00  0.00000000000E+00  0.45593999997E+02  0.45594000000E+02  0.51100000000E-03 0. -1.
         11   -1    0    0    0    0 -0.00000000000E+00 -0.00000000000E+00 -0.45593999997E+02  0.45594000000E+02  0.51100000000E-03 0.  1.
    9900012    2    1    2    0    0 -0.10057901847E+01 -0.55501815747E+00 -0.27086037604E+00  0.90007735456E+02  0.89999996764E+02 0.  0.
         12    1    1    2    0    0  0.10057901847E+01  0.55501815747E+00  0.27086037604E+00  0.11802645441E+01  0.00000000000E+00 0. -1.
         11    1    3    3    0    0  0.35391497388E+02 -0.47698678099E+01  0.25312297427E+01  0.35801073316E+02  0.51100000000E-03 0. -1.
        -11    1    3    3    0    0  0.66092654942E+01  0.18108738396E+01  0.72493883687E+01  0.99757348811E+01  0.51100000000E-03 0.  1.
        -12    1    3    3    0    0 -0.43006553067E+02  0.24039758128E+01 -0.10051478487E+02  0.44230927259E+02  0.00000000000E+00 0.  1.
</event>
<event>
 7    1  0.3032584E-015  0.9000760E+02  0.7816164E-02  0.1186339E+00
        -11   -1    0    0    0    0  0.00000000000E+00  0.00000000000E+00  0.45593999997E+02  0.45594000000E+02  0.51100000000E-03 0.  1.
         11   -1    0    0    0    0 -0.00000000000E+00 -0.00000000000E+00 -0.45593999997E+02  0.45594000000E+02  0.51100000000E-03 0. -1.
    9900012    2    1    2    0    0 -0.10929083916E+01  0.51547166743E-01  0.44297724030E+00  0.90007604008E+02  0.89999863581E+02 0.  0.
         12    1    1    2    0    0  0.10929083916E+01 -0.51547166743E-01 -0.44297724030E+00  0.11803959921E+01  0.00000000000E+00 0. -1.
         11    1    3    3    0    0 -0.91222825555E+01 -0.10574723696E+01  0.17833938895E+01  0.93549335038E+01  0.51100000000E-03 0. -1.
        -11    1    3    3    0    0 -0.33478613206E+02 -0.71836618840E+01  0.11983220454E+02  0.36276991509E+02  0.51100000000E-03 0.  1.
         12    1    3    3    0    0  0.41507987370E+02  0.82926814203E+01 -0.13323637103E+02  0.44375678995E+02  0.00000000000E+00 0. -1.
</event>
<event>
 7    1  0.3032584E-015  0.9000767E+02  0.7816164E-02  0.1186339E+00
        -11   -1    0    0    0    0  0.00000000000E+00  0.00000000000E+00  0.45593999997E+02  0.45594000000E+02  0.51100000000E-03 0. -1.
         11   -1    0    0    0    0 -0.00000000000E+00 -0.00000000000E+00 -0.45593999997E+02  0.45594000000E+02  0.51100000000E-03 0.  1.
    9900012    2    1    2    0    0 -0.37965586573E+00 -0.35705473516E+00 -0.10590287147E+01  0.90007674418E+02  0.89999934921E+02 0.  0.
         12    1    1    2    0    0  0.37965586573E+00  0.35705473516E+00  0.10590287147E+01  0.11803255817E+01  0.00000000000E+00 0. -1.
         11    1    3    3    0    0  0.70007755532E+00  0.84507841908E+01 -0.48812848610E+01  0.97843141905E+01  0.51100000000E-03 0. -1.
        -11    1    3    3    0    0  0.22714038961E+02  0.15005926943E+02 -0.24198711631E+02  0.36423660637E+02  0.51100000000E-03 0.  1.
         12    1    3    3    0    0 -0.23793772382E+02 -0.23813765869E+02  0.28020967777E+02  0.43799699591E+02  0.00000000000E+00 0. -1.
</event>
<event>
 7    1  0.3032584E-015  0.9000775E+02  0.7816164E-02  0.1186339E+00
        -11   -1    0    0    0    0  0.00000000000E+00  0.00000000000E+00  0.45593999997E+02  0.45594000000E+02  0.51100000000E-03 0. -1.
         11   -1    0    0    0    0 -0.00000000000E+00 -0.00000000000E+00 -0.45593999997E+02  0.45594000000E+02  0.51100000000E-03 0.  1.
    9900012    2    1    2    0    0 -0.80446394565E+00 -0.86361298009E+00  0.32456221285E-02  0.90007745725E+02  0.90000007169E+02 0.  0.
         12    1    1    2    0    0  0.80446394565E+00  0.86361298009E+00 -0.32456221285E-02  0.11802542748E+01  0.00000000000E+00 0. -1.
         11    1    3    3    0    0  0.34640422026E+01 -0.35598725404E+02  0.84525908358E+01  0.36752076551E+02  0.51100000000E-03 0. -1.
        -11    1    3    3    0    0 -0.69431651944E+01 -0.67803534079E+01  0.29092623363E+01  0.10131364314E+02  0.51100000000E-03 0.  1.
        -12    1    3    3    0    0  0.26746590461E+01  0.41515465831E+02 -0.11358607550E+02  0.43124304860E+02  0.00000000000E+00 0.  1.
</event>
<event>
 7    1  0.3032584E-015  0.9000774E+02  0.7816164E-02  0.1186339E+00
        -11   -1    0    0    0    0  0.00000000000E+00  0.00000000000E+00  0.45593999997E+02  0.45594000000E+02  0.51100000000E-03 0. -1.
         11   -1    0    0    0    0 -0.00000000000E+00 -0.00000000000E+00 -0.45593999997E+02  0.45594000000E+02  0.51100000000E-03 0.  1.
    9900012    2    1    2    0    0 -0.48044644907E+00  0.85168437508E-01 -0.10746775735E+01  0.90007739715E+02  0.90000001079E+02 0.  0.
         12    1    1    2    0    0  0.48044644907E+00 -0.85168437508E-01  0.10746775735E+01  0.11802602850E+01  0.00000000000E+00 0. -1.
         11    1    3    3    0    0  0.76506003276E+01  0.30680327911E+02  0.13943828824E+02  0.34557843808E+02  0.51100000000E-03 0. -1.
        -11    1    3    3    0    0 -0.21329342824E+01  0.92969580697E+01  0.46024080925E+01  0.10590797822E+02  0.51100000000E-03 0.  1.
        -12    1    3    3    0    0 -0.59981124942E+01 -0.39892117543E+02 -0.19620914490E+02  0.44859098085E+02  0.00000000000E+00 0.  1.
</event>
<event>
 7    1  0.3032584E-015  0.9000777E+02  0.7816164E-02  0.1186339E+00
        -11   -1    0    0    0    0  0.00000000000E+00  0.00000000000E+00  0.45593999997E+02  0.45594000000E+02  0.51100000000E-03 0.  1.
         11   -1    0    0    0    0 -0.00000000000E+00 -0.00000000000E+00 -0.45593999997E+02  0.45594000000E+02  0.51100000000E-03 0. -1.
    9900012    2    1    2    0    0  0.17836037002E+00  0.10589130307E+01  0.48973590678E+00  0.90007766766E+02  0.90000028487E+02 0.  0.
         12    1    1    2    0    0 -0.17836037002E+00 -0.10589130307E+01 -0.48973590678E+00  0.11802332340E+01  0.00000000000E+00 0. -1.
         11    1    3    3    0    0 -0.88530213703E+01  0.66729462344E+00 -0.81990600743E+00  0.89159136167E+01  0.51100000000E-03 0. -1.
        -11    1    3    3    0    0 -0.13580858292E+02 -0.20051813176E+02  0.30459607675E+02  0.38914041470E+02  0.51100000000E-03 0.  1.
         12    1    3    3    0    0  0.22612240032E+02  0.20443431583E+02 -0.29149965761E+02  0.42177811679E+02  0.00000000000E+00 0. -1.
</event>
<event>
 7    1  0.3032584E-015  0.9000770E+02  0.7816164E-02  0.1186339E+00
        -11   -1    0    0    0    0  0.00000000000E+00  0.00000000000E+00  0.45593999997E+02  0.45594000000E+02  0.51100000000E-03 0.  1.
         11   -1    0    0    0    0 -0.00000000000E+00 -0.00000000000E+00 -0.45593999997E+02  0.45594000000E+02  0.51100000000E-03 0. -1.
    9900012    2    1    2    0    0  0.23286306854E+00 -0.76545012275E+00  0.86774016156E+00  0.90007698307E+02  0.89999959124E+02 0.  0.
         12    1    1    2    0    0 -0.23286306854E+00  0.76545012275E+00 -0.86774016156E+00  0.11803016932E+01  0.00000000000E+00 0. -1.
         11    1    3    3    0    0 -0.24852771166E+02  0.26441972527E+02  0.13891592603E+02  0.38856331415E+02  0.51100000000E-03 0. -1.
        -11    1    3    3    0    0 -0.38339414267E+01 -0.30569093464E+01  0.69510227488E+01  0.85064986411E+01  0.51100000000E-03 0.  1.
        -12    1    3    3    0    0  0.28919575661E+02 -0.24150513303E+02 -0.19974875190E+02  0.42644868250E+02  0.00000000000E+00 0.  1.
</event>
<event>
 7    1  0.3109606E-015  0.9000774E+02  0.7816164E-02  0.1186339E+00
        -11   -1    0    0    0    0  0.00000000000E+00  0.00000000000E+00  0.45593999997E+02  0.45594000000E+02  0.51100000000E-03 0. -1.
         11   -1    0    0    0    0 -0.00000000000E+00 -0.00000000000E+00 -0.45593999997E+02  0.45594000000E+02  0.51100000000E-03 0.  1.
    9900012    2    1    2    0    0 -0.60275933565E+00 -0.77698958032E+00 -0.65266812488E+00  0.90007742695E+02  0.90000004099E+02 0.  0.
         12    1    1    2    0    0  0.60275933565E+00  0.77698958032E+00  0.65266812488E+00  0.11802573049E+01  0.00000000000E+00 0. -1.
         11    1    3    3    0    0  0.37109191696E+02  0.74403498283E+01  0.94737672624E+00  0.37859588440E+02  0.51100000000E-03 0. -1.
        -11    1    3    3    0    0  0.14752044691E+01  0.84496387853E+01  0.34909448796E+01  0.92606328208E+01  0.51100000000E-03 0.  1.
        -12    1    3    3    0    0 -0.39187155501E+02 -0.16666978194E+02 -0.50909897307E+01  0.42887521435E+02  0.00000000000E+00 0.  1.
</event>
<event>
 7    1  0.3032584E-015  0.9000771E+02  0.7816164E-02  0.1186339E+00
        -11   -1    0    0    0    0  0.00000000000E+00  0.00000000000E+00  0.45593999997E+02  0.45594000000E+02  0.51100000000E-03 0.  1.
         11   -1    0    0    0    0 -0.00000000000E+00 -0.00000000000E+00 -0.45593999997E+02  0.45594000000E+02  0.51100000000E-03 0. -1.
    9900012    2    1    2    0    0  0.58031460895E+00  0.10274910720E+01 -0.24011435715E-01  0.90007712112E+02  0.89999973112E+02 0.  0.
         12    1    1    2    0    0 -0.58031460895E+00 -0.10274910720E+01  0.24011435715E-01  0.11802878876E+01  0.00000000000E+00 0. -1.
         11    1    3    3    0    0  0.37238607328E+01  0.47347891881E+01  0.72685778569E+01  0.94402114243E+01  0.51100000000E-03 0. -1.
        -11    1    3    3    0    0 -0.19513643220E+01 -0.16048156778E+02  0.33895738079E+02  0.37553591291E+02  0.51100000000E-03 0.  1.
         12    1    3    3    0    0 -0.11921818019E+01  0.12340858662E+02 -0.41188327371E+02  0.43013909397E+02  0.00000000000E+00 0. -1.
</event>
<event>
 7    1  0.3032584E-015  0.9000777E+02  0.7816164E-02  0.1186339E+00
        -11   -1    0    0    0    0  0.00000000000E+00  0.00000000000E+00  0.45593999997E+02  0.45594000000E+02  0.51100000000E-03 0.  1.
         11   -1    0    0    0    0 -0.00000000000E+00 -0.00000000000E+00 -0.45593999997E+02  0.45594000000E+02  0.51100000000E-03 0. -1.
    9900012    2    1    2    0    0 -0.56672261910E+00 -0.75009789058E+00  0.71353137086E+00  0.90007767654E+02  0.90000029387E+02 0.  0.
         12    1    1    2    0    0  0.56672261910E+00  0.75009789058E+00 -0.71353137086E+00  0.11802323456E+01  0.00000000000E+00 0. -1.
         11    1    3    3    0    0 -0.23464007165E+02 -0.30361456859E+02  0.79150077281E+01  0.39179395636E+02  0.51100000000E-03 0. -1.
        -11    1    3    3    0    0  0.39705968358E+01 -0.75881713515E+01 -0.16754020946E+01  0.87265661134E+01  0.51100000000E-03 0.  1.
        -12    1    3    3    0    0  0.18926687710E+02  0.37199530320E+02 -0.55260742626E+01  0.42101805905E+02  0.00000000000E+00 0.  1.
</event>
<event>
 8    1  0.3032584E-015  0.9000774E+02  0.7816164E-02  0.1186339E+00
        -11   -1    0    0    0    0  0.00000000000E+00  0.00000000000E+00  0.45593999997E+02  0.45594000000E+02  0.51100000000E-03 0.  1.
         11   -1    0    0    0    0 -0.00000000000E+00 -0.00000000000E+00 -0.45593999997E+02  0.45594000000E+02  0.51100000000E-03 0. -1.
    9900012    2    1    2    0    0  0.11057388578E+01 -0.33756909426E+00  0.23751017938E+00  0.90007736300E+02  0.89999997620E+02 0.  0.
         23    2    3    3    0    0 -0.99884219331E+01 -0.18839501044E+02 -0.19034218783E+02  0.61080216069E+02  0.53979588161E+02 0.  0.
         12    1    1    2    0    0 -0.11057388578E+01  0.33756909426E+00 -0.23751017938E+00  0.11802636995E+01  0.00000000000E+00 0. -1.
         11    1    4    4    0    0  0.22330992513E+02 -0.50822668044E+01 -0.80971389708E+01  0.24291280787E+02  0.51100000000E-03 0.  1.
        -11    1    4    4    0    0 -0.32319414446E+02 -0.13757234240E+02 -0.10937079812E+02  0.36788935282E+02  0.51100000000E-03 0. -1.
        -12    1    3    3    0    0  0.11094160791E+02  0.18501931950E+02  0.19271728962E+02  0.28927520231E+02  0.00000000000E+00 0.  1.
</event>
<event>
 7    1  0.3032584E-015  0.9000775E+02  0.7816164E-02  0.1186339E+00
        -11   -1    0    0    0    0  0.00000000000E+00  0.00000000000E+00  0.45593999997E+02  0.45594000000E+02  0.51100000000E-03 0.  1.
         11   -1    0    0    0    0 -0.00000000000E+00 -0.00000000000E+00 -0.45593999997E+02  0.45594000000E+02  0.51100000000E-03 0. -1.
    9900012    2    1    2    0    0  0.32050965280E-01 -0.99214889130E+00  0.63843384861E+00  0.90007752371E+02  0.90000013902E+02 0.  0.
         12    1    1    2    0    0 -0.32050965280E-01  0.99214889130E+00 -0.63843384861E+00  0.11802476291E+01  0.00000000000E+00 0. -1.
         11    1    3    3    0    0  0.30406564151E+02  0.74603582820E+01 -0.19547764180E+02  0.36909770710E+02  0.51100000000E-03 0. -1.
        -11    1    3    3    0    0 -0.58175122588E+00  0.12310191575E+02  0.84191588636E+01  0.14925196391E+02  0.51100000000E-03 0.  1.
        -12    1    3    3    0    0 -0.29792761960E+02 -0.20762698748E+02  0.11767039165E+02  0.38172785269E+02  0.00000000000E+00 0.  1.
</event>
<event>
 7    1  0.3032584E-015  0.9000777E+02  0.7816164E-02  0.1186339E+00
        -11   -1    0    0    0    0  0.00000000000E+00  0.00000000000E+00  0.45593999997E+02  0.45594000000E+02  0.51100000000E-03 0.  1.
         11   -1    0    0    0    0 -0.00000000000E+00 -0.00000000000E+00 -0.45593999997E+02  0.45594000000E+02  0.51100000000E-03 0. -1.
    9900012    2    1    2    0    0 -0.12455960471E+00  0.92349933036E+00  0.72428379361E+00  0.90007765650E+02  0.90000027356E+02 0.  0.
         12    1    1    2    0    0  0.12455960471E+00 -0.92349933036E+00 -0.72428379361E+00  0.11802343505E+01  0.00000000000E+00 0. -1.
         11    1    3    3    0    0 -0.16651514476E+01 -0.35030216096E+01  0.88538599376E+01  0.96661639649E+01  0.51100000000E-03 0. -1.
        -11    1    3    3    0    0 -0.13019216245E+02  0.11512214784E+01  0.33584628829E+02  0.36038210227E+02  0.51100000000E-03 0.  1.
         12    1    3    3    0    0  0.14559808087E+02  0.32752994615E+01 -0.41714204973E+02  0.44303391458E+02  0.00000000000E+00 0. -1.
</event>
<event>
 7    1  0.3032584E-015  0.9000775E+02  0.7816164E-02  0.1186339E+00
        -11   -1    0    0    0    0  0.00000000000E+00  0.00000000000E+00  0.45593999997E+02  0.45594000000E+02  0.51100000000E-03 0.  1.
         11   -1    0    0    0    0 -0.00000000000E+00 -0.00000000000E+00 -0.45593999997E+02  0.45594000000E+02  0.51100000000E-03 0. -1.
    9900012    2    1    2    0    0  0.87210978857E+00  0.79524145584E+00 -0.14685355897E-02  0.90007751461E+02  0.90000012981E+02 0.  0.
         12    1    1    2    0    0 -0.87210978857E+00 -0.79524145584E+00  0.14685355897E-02  0.11802485387E+01  0.00000000000E+00 0. -1.
         11    1    3    3    0    0  0.28632000724E+02 -0.55134723687E+01 -0.23174985813E+02  0.37246071078E+02  0.51100000000E-03 0. -1.
        -11    1    3    3    0    0  0.85985334647E+01 -0.35709696053E+01  0.19296896362E+01  0.95084333104E+01  0.51100000000E-03 0.  1.
        -12    1    3    3    0    0 -0.36358424400E+02  0.98796834299E+01  0.21243827641E+02  0.43253247073E+02  0.00000000000E+00 0.  1.
</event>
<event>
 7    1  0.3032584E-015  0.9000755E+02  0.7816164E-02  0.1186339E+00
        -11   -1    0    0    0    0  0.00000000000E+00  0.00000000000E+00  0.45593999997E+02  0.45594000000E+02  0.51100000000E-03 0.  1.
         11   -1    0    0    0    0 -0.00000000000E+00 -0.00000000000E+00 -0.45593999997E+02  0.45594000000E+02  0.51100000000E-03 0. -1.
    9900012    2    1    2    0    0  0.26802106060E+00 -0.11388148598E+01 -0.15725504686E+00  0.90007549356E+02  0.89999808207E+02 0.  0.
         12    1    1    2    0    0 -0.26802106060E+00  0.11388148598E+01  0.15725504686E+00  0.11804506443E+01  0.00000000000E+00 0. -1.
         11    1    3    3    0    0  0.46691096413E+01  0.33942561593E+01  0.14689976535E+02  0.15783439757E+02  0.51100000000E-03 0. -1.
        -11    1    3    3    0    0  0.31726035033E+02  0.10218739141E+02 -0.31182570204E+01  0.33476670319E+02  0.51100000000E-03 0.  1.
         12    1    3    3    0    0 -0.36127123614E+02 -0.14751810160E+02 -0.11728974561E+02  0.40747439280E+02  0.00000000000E+00 0. -1.
</event>
<event>
 7    1  0.3032584E-015  0.9000794E+02  0.7816164E-02  0.1186339E+00
        -11   -1    0    0    0    0  0.00000000000E+00  0.00000000000E+00  0.45593999997E+02  0.45594000000E+02  0.51100000000E-03 0. -1.
         11   -1    0    0    0    0 -0.00000000000E+00 -0.00000000000E+00 -0.45593999997E+02  0.45594000000E+02  0.51100000000E-03 0.  1.
    9900012    2    1    2    0    0 -0.10137792507E+01  0.49056620458E+00 -0.35232999998E+00  0.90007940680E+02  0.90000204697E+02 0.  0.
         12    1    1    2    0    0  0.10137792507E+01 -0.49056620458E+00  0.35232999998E+00  0.11800593202E+01  0.00000000000E+00 0. -1.
         11    1    3    3    0    0  0.30837039187E+02  0.80479711428E+01  0.14778373261E+02  0.35129661852E+02  0.51100000000E-03 0. -1.
        -11    1    3    3    0    0  0.80657482927E+01  0.29488617301E+00  0.49938920231E+01  0.94911649009E+01  0.51100000000E-03 0.  1.
        -12    1    3    3    0    0 -0.39916566730E+02 -0.78522911113E+01 -0.20124595284E+02  0.45387113927E+02  0.00000000000E+00 0.  1.
</event>
<event>
 7    1  0.3032584E-015  0.9000771E+02  0.7816164E-02  0.1186339E+00
        -11   -1    0    0    0    0  0.00000000000E+00  0.00000000000E+00  0.45593999997E+02  0.45594000000E+02  0.51100000000E-03 0. -1.
         11   -1    0    0    0    0 -0.00000000000E+00 -0.00000000000E+00 -0.45593999997E+02  0.45594000000E+02  0.51100000000E-03 0.  1.
    9900012    2    1    2    0    0 -0.11220642948E+01  0.14547025586E-01 -0.36583798552E+00  0.90007713031E+02  0.89999974043E+02 0.  0.
         12    1    1    2    0    0  0.11220642948E+01 -0.14547025586E-01  0.36583798552E+00  0.11802869690E+01  0.00000000000E+00 0. -1.
         11    1    3    3    0    0  0.81311097483E+01  0.32592254830E+01  0.70646287777E+01  0.11253731671E+02  0.51100000000E-03 0. -1.
        -11    1    3    3    0    0 -0.25044815534E+02  0.31307145401E+02 -0.25622363312E+00  0.40092964335E+02  0.51100000000E-03 0.  1.
         12    1    3    3    0    0  0.15791641491E+02 -0.34551823859E+02 -0.71742431301E+01  0.38661017026E+02  0.00000000000E+00 0. -1.
</event>
<event>
 7    1  0.3032584E-015  0.9000765E+02  0.7816164E-02  0.1186339E+00
        -11   -1    0    0    0    0  0.00000000000E+00  0.00000000000E+00  0.45593999997E+02  0.45594000000E+02  0.51100000000E-03 0.  1.
         11   -1    0    0    0    0 -0.00000000000E+00 -0.00000000000E+00 -0.45593999997E+02  0.45594000000E+02  0.51100000000E-03 0. -1.
    9900012    2    1    2    0    0 -0.18372692962E+00  0.11646926921E+01  0.54373081118E-01  0.90007652134E+02  0.89999912343E+02 0.  0.
         12    1    1    2    0    0  0.18372692962E+00 -0.11646926921E+01 -0.54373081118E-01  0.11803478655E+01  0.00000000000E+00 0. -1.
         11    1    3    3    0    0 -0.64665664437E+01  0.57060948933E+01  0.65435657986E+01  0.10825629502E+02  0.51100000000E-03 0. -1.
        -11    1    3    3    0    0  0.11685176060E+02  0.11286986019E+01  0.35022670902E+02  0.36937850201E+02  0.51100000000E-03 0.  1.
         12    1    3    3    0    0 -0.54023365463E+01 -0.56701008032E+01 -0.41511863619E+02  0.42244172431E+02  0.00000000000E+00 0. -1.
</event>
<event>
 7    1  0.3032584E-015  0.9000789E+02  0.7816164E-02  0.1186339E+00
        -11   -1    0    0    0    0  0.00000000000E+00  0.00000000000E+00  0.45593999997E+02  0.45594000000E+02  0.51100000000E-03 0.  1.
         11   -1    0    0    0    0 -0.00000000000E+00 -0.00000000000E+00 -0.45593999997E+02  0.45594000000E+02  0.51100000000E-03 0. -1.
    9900012    2    1    2    0    0  0.89236568601E+00 -0.25005565947E+00  0.73062654676E+00  0.90007890047E+02  0.90000153395E+02 0.  0.
         12    1    1    2    0    0 -0.89236568601E+00  0.25005565947E+00 -0.73062654676E+00  0.11801099530E+01  0.00000000000E+00 0. -1.
         11    1    3    3    0    0  0.47571674948E+01  0.70848085526E+01  0.44729706333E+01  0.96349686739E+01  0.51100000000E-03 0. -1.
        -11    1    3    3    0    0  0.24054984333E+02 -0.31672309230E+02  0.97578194487E+01  0.40951098690E+02  0.51100000000E-03 0.  1.
         12    1    3    3    0    0 -0.27919786142E+02  0.24337445018E+02 -0.13500163535E+02  0.39421822683E+02  0.00000000000E+00 0. -1.
</event>
<event>
 7    1  0.3032584E-015  0.9000775E+02  0.7816164E-02  0.1186339E+00
        -11   -1    0    0    0    0  0.00000000000E+00  0.00000000000E+00  0.45593999997E+02  0.45594000000E+02  0.51100000000E-03 0.  1.
         11   -1    0    0    0    0 -0.00000000000E+00 -0.00000000000E+00 -0.45593999997E+02  0.45594000000E+02  0.51100000000E-03 0. -1.
    9900012    2    1    2    0    0 -0.10868261147E+01  0.45408411760E+00  0.74908770336E-01  0.90007748030E+02  0.90000009504E+02 0.  0.
         12    1    1    2    0    0  0.10868261147E+01 -0.45408411760E+00 -0.74908770336E-01  0.11802519702E+01  0.00000000000E+00 0. -1.
         11    1    3    3    0    0  0.31169691169E+02  0.19405469359E+02 -0.62379760630E+01  0.37242908509E+02  0.51100000000E-03 0. -1.
        -11    1    3    3    0    0  0.70548601408E+01 -0.37058659751E+01  0.69827413877E+01  0.10595431647E+02  0.51100000000E-03 0.  1.
        -12    1    3    3    0    0 -0.39311377424E+02 -0.15245519266E+02 -0.66985655437E+00  0.42169407874E+02  0.00000000000E+00 0.  1.
</event>
<event>
 7    1  0.3032584E-015  0.9000780E+02  0.7816164E-02  0.1186339E+00
        -11   -1    0    0    0    0  0.00000000000E+00  0.00000000000E+00  0.45593999997E+02  0.45594000000E+02  0.51100000000E-03 0. -1.
         11   -1    0    0    0    0 -0.00000000000E+00 -0.00000000000E+00 -0.45593999997E+02  0.45594000000E+02  0.51100000000E-03 0.  1.
    9900012    2    1    2    0    0  0.77798013130E+00 -0.88064172401E+00 -0.10998130014E+00  0.90007797129E+02  0.90000059251E+02 0.  0.
         12    1    1    2    0    0 -0.77798013130E+00  0.88064172401E+00  0.10998130014E+00  0.11802028712E+01  0.00000000000E+00 0. -1.
         11    1    3    3    0    0  0.24712164685E+02  0.22893559406E+02 -0.20909667211E+00  0.33687532819E+02  0.51100000000E-03 0. -1.
        -11    1    3    3    0    0 -0.99324859132E+01  0.81649956457E+01  0.13791174275E+02  0.18855182801E+02  0.51100000000E-03 0.  1.
        -12    1    3    3    0    0 -0.14001698641E+02 -0.31939196776E+02 -0.13692058903E+02  0.37465081510E+02  0.00000000000E+00 0.  1.
</event>
<event>
 7    1  0.3032584E-015  0.9000785E+02  0.7816164E-02  0.1186339E+00
        -11   -1    0    0    0    0  0.00000000000E+00  0.00000000000E+00  0.45593999997E+02  0.45594000000E+02  0.51100000000E-03 0. -1.
         11   -1    0    0    0    0 -0.00000000000E+00 -0.00000000000E+00 -0.45593999997E+02  0.45594000000E+02  0.51100000000E-03 0.  1.
    9900012    2    1    2    0    0  0.71487726715E+00  0.20689951262E+00 -0.91591010890E+00  0.90007852449E+02  0.90000115301E+02 0.  0.
         12    1    1    2    0    0 -0.71487726715E+00 -0.20689951262E+00  0.91591010890E+00  0.11801475514E+01  0.00000000000E+00 0. -1.
         11    1    3    3    0    0  0.15302192686E+01  0.16514068874E+01 -0.84207403785E+01  0.87165121753E+01  0.51100000000E-03 0. -1.
        -11    1    3    3    0    0  0.29962731529E+02 -0.12209139057E+02 -0.20505942053E+02  0.38305639493E+02  0.51100000000E-03 0.  1.
         12    1    3    3    0    0 -0.30778073530E+02  0.10764631682E+02  0.28010772323E+02  0.42985700781E+02  0.00000000000E+00 0. -1.
</event>
<event>
 7    1  0.3032584E-015  0.9000768E+02  0.7816164E-02  0.1186339E+00
        -11   -1    0    0    0    0  0.00000000000E+00  0.00000000000E+00  0.45593999997E+02  0.45594000000E+02  0.51100000000E-03 0. -1.
         11   -1    0    0    0    0 -0.00000000000E+00 -0.00000000000E+00 -0.45593999997E+02  0.45594000000E+02  0.51100000000E-03 0.  1.
    9900012    2    1    2    0    0 -0.11542893145E+01 -0.22738716299E+00  0.95253119566E-01  0.90007677205E+02  0.89999937744E+02 0.  0.
         12    1    1    2    0    0  0.11542893145E+01  0.22738716299E+00 -0.95253119566E-01  0.11803227949E+01  0.00000000000E+00 0. -1.
         11    1    3    3    0    0 -0.75417357050E+01 -0.88918273415E+01 -0.18496477540E+01  0.11805234771E+02  0.51100000000E-03 0. -1.
        -11    1    3    3    0    0  0.36557586089E+02 -0.10462127898E+02 -0.11971873337E+02  0.39865260218E+02  0.51100000000E-03 0.  1.
         12    1    3    3    0    0 -0.30170139698E+02  0.19126568077E+02  0.13916774211E+02  0.38337182216E+02  0.00000000000E+00 0. -1.
</event>
<event>
 7    1  0.3032584E-015  0.9000773E+02  0.7816164E-02  0.1186339E+00
        -11   -1    0    0    0    0  0.00000000000E+00  0.00000000000E+00  0.45593999997E+02  0.45594000000E+02  0.51100000000E-03 0.  1.
         11   -1    0    0    0    0 -0.00000000000E+00 -0.00000000000E+00 -0.45593999997E+02  0.45594000000E+02  0.51100000000E-03 0. -1.
    9900012    2    1    2    0    0 -0.74172967946E+00 -0.15672436823E+00  0.90460702475E+00  0.90007729135E+02  0.89999990360E+02 0.  0.
         12    1    1    2    0    0  0.74172967946E+00  0.15672436823E+00 -0.90460702475E+00  0.11802708648E+01  0.00000000000E+00 0. -1.
         11    1    3    3    0    0 -0.44307651813E+01 -0.24208701032E+02 -0.14661213274E+02  0.28646885706E+02  0.51100000000E-03 0. -1.
        -11    1    3    3    0    0 -0.43670021414E+01 -0.13430003691E+02 -0.81259318526E+01  0.16293141980E+02  0.51100000000E-03 0.  1.
        -12    1    3    3    0    0  0.80560376432E+01  0.37481980355E+02  0.23691752151E+02  0.45067701449E+02  0.00000000000E+00 0.  1.
</event>
<event>
 7    1  0.3032584E-015  0.9000770E+02  0.7816164E-02  0.1186339E+00
        -11   -1    0    0    0    0  0.00000000000E+00  0.00000000000E+00  0.45593999997E+02  0.45594000000E+02  0.51100000000E-03 0.  1.
         11   -1    0    0    0    0 -0.00000000000E+00 -0.00000000000E+00 -0.45593999997E+02  0.45594000000E+02  0.51100000000E-03 0. -1.
    9900012    2    1    2    0    0 -0.25117963426E+00 -0.10194370873E+01 -0.53922909829E+00  0.90007698681E+02  0.89999959503E+02 0.  0.
         12    1    1    2    0    0  0.25117963426E+00  0.10194370873E+01  0.53922909829E+00  0.11803013192E+01  0.00000000000E+00 0. -1.
         11    1    3    3    0    0  0.52505023951E+01 -0.32936036144E+02 -0.17005411968E+02  0.37437071049E+02  0.51100000000E-03 0. -1.
        -11    1    3    3    0    0 -0.67710034076E+01 -0.61679475870E+01 -0.31838751884E+01  0.96967585336E+01  0.51100000000E-03 0.  1.
        -12    1    3    3    0    0  0.12693213783E+01  0.38084546643E+02  0.19650058058E+02  0.42873869098E+02  0.00000000000E+00 0.  1.
</event>
<event>
 7    1  0.3032584E-015  0.9000775E+02  0.7816164E-02  0.1186339E+00
        -11   -1    0    0    0    0  0.00000000000E+00  0.00000000000E+00  0.45593999997E+02  0.45594000000E+02  0.51100000000E-03 0. -1.
         11   -1    0    0    0    0 -0.00000000000E+00 -0.00000000000E+00 -0.45593999997E+02  0.45594000000E+02  0.51100000000E-03 0.  1.
    9900012    2    1    2    0    0  0.90532642847E+00  0.66891705331E+00 -0.35486058528E+00  0.90007749179E+02  0.90000010668E+02 0.  0.
         12    1    1    2    0    0 -0.90532642847E+00 -0.66891705331E+00  0.35486058528E+00  0.11802508213E+01  0.00000000000E+00 0. -1.
         11    1    3    3    0    0 -0.82943019534E+01 -0.28877336732E+01 -0.47797847062E+01  0.99990395919E+01  0.51100000000E-03 0. -1.
        -11    1    3    3    0    0 -0.30038006360E+02  0.69971081556E+01 -0.16951583379E+02  0.35193714324E+02  0.51100000000E-03 0.  1.
         12    1    3    3    0    0  0.39237634742E+02 -0.34404574291E+01  0.21376507500E+02  0.44814995262E+02  0.00000000000E+00 0. -1.
</event>
<event>
 7    1  0.3032584E-015  0.9000771E+02  0.7816164E-02  0.1186339E+00
        -11   -1    0    0    0    0  0.00000000000E+00  0.00000000000E+00  0.45593999997E+02  0.45594000000E+02  0.51100000000E-03 0.  1.
         11   -1    0    0    0    0 -0.00000000000E+00 -0.00000000000E+00 -0.45593999997E+02  0.45594000000E+02  0.51100000000E-03 0. -1.
    9900012    2    1    2    0    0  0.80193311393E+00  0.71051841807E+00  0.49511913202E+00  0.90007713553E+02  0.89999974572E+02 0.  0.
         12    1    1    2    0    0 -0.80193311393E+00 -0.71051841807E+00 -0.49511913202E+00  0.11802864468E+01  0.00000000000E+00 0. -1.
         11    1    3    3    0    0  0.33713499455E+02  0.22229070804E+02  0.19850840581E+01  0.40431079546E+02  0.51100000000E-03 0. -1.
        -11    1    3    3    0    0 -0.34840514893E+01  0.69097244668E+01 -0.37475341898E+01  0.85980765147E+01  0.51100000000E-03 0.  1.
        -12    1    3    3    0    0 -0.29427514851E+02 -0.28428276853E+02  0.22575692637E+01  0.40978557492E+02  0.00000000000E+00 0.  1.
</event>
<event>
 7    1  0.3032584E-015  0.9000773E+02  0.7816164E-02  0.1186339E+00
        -11   -1    0    0    0    0  0.00000000000E+00  0.00000000000E+00  0.45593999997E+02  0.45594000000E+02  0.51100000000E-03 0. -1.
         11   -1    0    0    0    0 -0.00000000000E+00 -0.00000000000E+00 -0.45593999997E+02  0.45594000000E+02  0.51100000000E-03 0.  1.
    9900012    2    1    2    0    0  0.33624463019E+00  0.54600286038E+00 -0.99089151637E+00  0.90007726484E+02  0.89999987674E+02 0.  0.
         12    1    1    2    0    0 -0.33624463019E+00 -0.54600286038E+00  0.99089151637E+00  0.11802735158E+01  0.00000000000E+00 0. -1.
         11    1    3    3    0    0  0.29135370394E+02  0.29710245150E+02 -0.18088951703E+01  0.41651417465E+02  0.51100000000E-03 0. -1.
        -11    1    3    3    0    0  0.10787627125E+01 -0.48011016133E+01  0.77557608227E+01  0.91851038041E+01  0.51100000000E-03 0.  1.
        -12    1    3    3    0    0 -0.29877888477E+02 -0.24363140676E+02 -0.69377571688E+01  0.39171205215E+02  0.00000000000E+00 0.  1.
</event>
<event>
 7    1  0.3032584E-015  0.9000776E+02  0.7816164E-02  0.1186339E+00
        -11   -1    0    0    0    0  0.00000000000E+00  0.00000000000E+00  0.45593999997E+02  0.45594000000E+02  0.51100000000E-03 0.  1.
         11   -1    0    0    0    0 -0.00000000000E+00 -0.00000000000E+00 -0.45593999997E+02  0.45594000000E+02  0.51100000000E-03 0. -1.
    9900012    2    1    2    0    0  0.12718566800E+00  0.68265184277E+00  0.95434287493E+00  0.90007762712E+02  0.90000024380E+02 0.  0.
         12    1    1    2    0    0 -0.12718566800E+00 -0.68265184277E+00 -0.95434287493E+00  0.11802372878E+01  0.00000000000E+00 0. -1.
         11    1    3    3    0    0 -0.71995326519E-01 -0.95372821136E+01  0.14267884443E+01  0.96436849268E+01  0.51100000000E-03 0. -1.
        -11    1    3    3    0    0  0.34587107848E+02 -0.81634921726E+01 -0.15240832657E+02  0.38667733501E+02  0.51100000000E-03 0.  1.
         12    1    3    3    0    0 -0.34387926854E+02  0.18383426129E+02  0.14768387087E+02  0.41696344285E+02  0.00000000000E+00 0. -1.
</event>
<event>
 7    1  0.3032584E-015  0.9000779E+02  0.7816164E-02  0.1186339E+00
        -11   -1    0    0    0    0  0.00000000000E+00  0.00000000000E+00  0.45593999997E+02  0.45594000000E+02  0.51100000000E-03 0.  1.
         11   -1    0    0    0    0 -0.00000000000E+00 -0.00000000000E+00 -0.45593999997E+02  0.45594000000E+02  0.51100000000E-03 0. -1.
    9900012    2    1    2    0    0 -0.10422915643E+01 -0.51630972695E+00  0.19989351551E+00  0.90007786097E+02  0.90000048074E+02 0.  0.
         12    1    1    2    0    0  0.10422915643E+01  0.51630972695E+00 -0.19989351551E+00  0.11802139029E+01  0.00000000000E+00 0. -1.
         11    1    3    3    0    0  0.48922655737E+00  0.75409345805E+01 -0.50220360927E+01  0.90733612156E+01  0.51100000000E-03 0. -1.
        -11    1    3    3    0    0 -0.12845963959E+02  0.18149345661E+02  0.33854679260E+02  0.40503788045E+02  0.51100000000E-03 0.  1.
         12    1    3    3    0    0  0.11314445837E+02 -0.26206589968E+02 -0.28632749652E+02  0.40430636836E+02  0.00000000000E+00 0. -1.
</event>
<event>
 7    1  0.3032584E-015  0.9000786E+02  0.7816164E-02  0.1186339E+00
        -11   -1    0    0    0    0  0.00000000000E+00  0.00000000000E+00  0.45593999997E+02  0.45594000000E+02  0.51100000000E-03 0.  1.
         11   -1    0    0    0    0 -0.00000000000E+00 -0.00000000000E+00 -0.45593999997E+02  0.45594000000E+02  0.51100000000E-03 0. -1.
    9900012    2    1    2    0    0 -0.11751525933E+01 -0.79699511437E-01  0.73431463732E-01  0.90007861106E+02  0.90000124072E+02 0.  0.
         12    1    1    2    0    0  0.11751525933E+01  0.79699511437E-01 -0.73431463732E-01  0.11801388941E+01  0.00000000000E+00 0. -1.
         11    1    3    3    0    0 -0.15567864699E+02  0.31272528695E+01  0.51138668922E+01  0.16682018962E+02  0.51100000000E-03 0. -1.
        -11    1    3    3    0    0 -0.19686756954E+02 -0.11154819967E+02 -0.24446550961E+02  0.33311143211E+02  0.51100000000E-03 0.  1.
         12    1    3    3    0    0  0.34079469060E+02  0.79478675862E+01  0.19406115533E+02  0.40014698932E+02  0.00000000000E+00 0. -1.
</event>
<event>
 7    1  0.3032584E-015  0.9000777E+02  0.7816164E-02  0.1186339E+00
        -11   -1    0    0    0    0  0.00000000000E+00  0.00000000000E+00  0.45593999997E+02  0.45594000000E+02  0.51100000000E-03 0. -1.
         11   -1    0    0    0    0 -0.00000000000E+00 -0.00000000000E+00 -0.45593999997E+02  0.45594000000E+02  0.51100000000E-03 0.  1.
    9900012    2    1    2    0    0  0.63539515135E-01  0.11247552225E+01 -0.35188119750E+00  0.90007774616E+02  0.90000036441E+02 0.  0.
         12    1    1    2    0    0 -0.63539515135E-01 -0.11247552225E+01  0.35188119750E+00  0.11802253843E+01  0.00000000000E+00 0. -1.
         11    1    3    3    0    0  0.27344687826E+02  0.12010941033E+02 -0.27981457310E+02  0.40926233766E+02  0.51100000000E-03 0. -1.
        -11    1    3    3    0    0  0.48609917150E+01  0.19785357534E+01  0.71073207285E+01  0.88350355053E+01  0.51100000000E-03 0.  1.
        -12    1    3    3    0    0 -0.32142140026E+02 -0.12864721564E+02  0.20522255384E+02  0.40246505344E+02  0.00000000000E+00 0.  1.
</event>
<event>
 7    1  0.3032584E-015  0.9000771E+02  0.7816164E-02  0.1186339E+00
        -11   -1    0    0    0    0  0.00000000000E+00  0.00000000000E+00  0.45593999997E+02  0.45594000000E+02  0.51100000000E-03 0. -1.
         11   -1    0    0    0    0 -0.00000000000E+00 -0.00000000000E+00 -0.45593999997E+02  0.45594000000E+02  0.51100000000E-03 0.  1.
    9900012    2    1    2    0    0 -0.86641199728E+00  0.46689938392E+00 -0.65147698522E+00  0.90007708915E+02  0.89999969872E+02 0.  0.
         12    1    1    2    0    0  0.86641199728E+00 -0.46689938392E+00  0.65147698522E+00  0.11802910853E+01  0.00000000000E+00 0. -1.
         11    1    3    3    0    0  0.10668025432E+02 -0.37847754760E+01  0.16400192602E+01  0.11437698871E+02  0.51100000000E-03 0. -1.
        -11    1    3    3    0    0  0.61455025793E+01  0.38481204311E+02  0.52256190780E+01  0.39317647211E+02  0.51100000000E-03 0.  1.
         12    1    3    3    0    0 -0.17679940009E+02 -0.34229529451E+02 -0.75171153233E+01  0.39252362833E+02  0.00000000000E+00 0. -1.
</event>
<event>
 7    1  0.3032584E-015  0.9000780E+02  0.7816164E-02  0.1186339E+00
        -11   -1    0    0    0    0  0.00000000000E+00  0.00000000000E+00  0.45593999997E+02  0.45594000000E+02  0.51100000000E-03 0.  1.
         11   -1    0    0    0    0 -0.00000000000E+00 -0.00000000000E+00 -0.45593999997E+02  0.45594000000E+02  0.51100000000E-03 0. -1.
    9900012    2    1    2    0    0  0.86834878878E+00 -0.67296370691E+00 -0.43124257050E+00  0.90007796660E+02  0.90000058776E+02 0.  0.
         12    1    1    2    0    0 -0.86834878878E+00  0.67296370691E+00  0.43124257050E+00  0.11802033403E+01  0.00000000000E+00 0. -1.
         11    1    3    3    0    0  0.11025086626E+02  0.18246264622E+01 -0.24826187206E+02  0.27225380958E+02  0.51100000000E-03 0. -1.
        -11    1    3    3    0    0  0.49139933036E+01 -0.12262243668E+02 -0.14698088856E+02  0.19762180200E+02  0.51100000000E-03 0.  1.
        -12    1    3    3    0    0 -0.15070731141E+02  0.97646534989E+01  0.39093033492E+02  0.43020235502E+02  0.00000000000E+00 0.  1.
</event>
<event>
 7    1  0.3032584E-015  0.9000773E+02  0.7816164E-02  0.1186339E+00
        -11   -1    0    0    0    0  0.00000000000E+00  0.00000000000E+00  0.45593999997E+02  0.45594000000E+02  0.51100000000E-03 0.  1.
         11   -1    0    0    0    0 -0.00000000000E+00 -0.00000000000E+00 -0.45593999997E+02  0.45594000000E+02  0.51100000000E-03 0. -1.
    9900012    2    1    2    0    0 -0.53462414136E+00 -0.57762901224E+00  0.87952515354E+00  0.90007727682E+02  0.89999988888E+02 0.  0.
         12    1    1    2    0    0  0.53462414136E+00  0.57762901224E+00 -0.87952515354E+00  0.11802723177E+01  0.00000000000E+00 0. -1.
         11    1    3    3    0    0  0.56180040712E+01  0.54131773176E+01 -0.60029899047E+00  0.78246289085E+01  0.51100000000E-03 0. -1.
        -11    1    3    3    0    0 -0.37417734375E+02  0.16702892856E+02 -0.94130446842E+01  0.42043773451E+02  0.51100000000E-03 0.  1.
         12    1    3    3    0    0  0.31265106162E+02 -0.22693699186E+02  0.10892868828E+02  0.40139325323E+02  0.00000000000E+00 0. -1.
</event>
<event>
 7    1  0.3032584E-015  0.9000771E+02  0.7816164E-02  0.1186339E+00
        -11   -1    0    0    0    0  0.00000000000E+00  0.00000000000E+00  0.45593999997E+02  0.45594000000E+02  0.51100000000E-03 0. -1.
         11   -1    0    0    0    0 -0.00000000000E+00 -0.00000000000E+00 -0.45593999997E+02  0.45594000000E+02  0.51100000000E-03 0.  1.
    9900012    2    1    2    0    0  0.58465106124E+00 -0.84597914916E+00 -0.57929128256E+00  0.90007713605E+02  0.89999974625E+02 0.  0.
         12    1    1    2    0    0 -0.58465106124E+00  0.84597914916E+00  0.57929128256E+00  0.11802863950E+01  0.00000000000E+00 0. -1.
         11    1    3    3    0    0  0.28129783617E+01 -0.81049792187E+01 -0.84765496477E+01  0.12060490437E+02  0.51100000000E-03 0. -1.
        -11    1    3    3    0    0  0.25100911301E+02  0.28006340721E+02 -0.10455514115E+02  0.39034966945E+02  0.51100000000E-03 0.  1.
         12    1    3    3    0    0 -0.27329238601E+02 -0.20747340651E+02  0.18352772480E+02  0.38912256223E+02  0.00000000000E+00 0. -1.
</event>
<event>
 7    1  0.3032584E-015  0.9000772E+02  0.7816164E-02  0.1186339E+00
        -11   -1    0    0    0    0  0.00000000000E+00  0.00000000000E+00  0.45593999997E+02  0.45594000000E+02  0.51100000000E-03 0. -1.
         11   -1    0    0    0    0 -0.00000000000E+00 -0.00000000000E+00 -0.45593999997E+02  0.45594000000E+02  0.51100000000E-03 0.  1.
    9900012    2    1    2    0    0 -0.79626820397E+00 -0.79423642464E+00 -0.35804932359E+00  0.90007722969E+02  0.89999984113E+02 0.  0.
         12    1    1    2    0    0  0.79626820397E+00  0.79423642464E+00  0.35804932359E+00  0.11802770306E+01  0.00000000000E+00 0. -1.
         11    1    3    3    0    0  0.62694509685E+01  0.66222719153E+01  0.24834977421E+01  0.94513629738E+01  0.51100000000E-03 0. -1.
        -11    1    3    3    0    0  0.24996438391E+02  0.14672890052E+02 -0.22731505069E+02  0.36835267851E+02  0.51100000000E-03 0.  1.
         12    1    3    3    0    0 -0.32062157564E+02 -0.22089398392E+02  0.19889958003E+02  0.43721092144E+02  0.00000000000E+00 0. -1.
</event>
<event>
 7    1  0.3032584E-015  0.9000770E+02  0.7816164E-02  0.1186339E+00
        -11   -1    0    0    0    0  0.00000000000E+00  0.00000000000E+00  0.45593999997E+02  0.45594000000E+02  0.51100000000E-03 0. -1.
         11   -1    0    0    0    0 -0.00000000000E+00 -0.00000000000E+00 -0.45593999997E+02  0.45594000000E+02  0.51100000000E-03 0.  1.
    9900012    2    1    2    0    0  0.15473120489E+00  0.20434061960E-01 -0.11699402696E+01  0.90007695153E+02  0.89999955929E+02 0.  0.
         12    1    1    2    0    0 -0.15473120489E+00 -0.20434061960E-01  0.11699402696E+01  0.11803048466E+01  0.00000000000E+00 0. -1.
         11    1    3    3    0    0  0.64830536661E+01  0.53401902991E+01  0.41119241000E+01  0.93517665354E+01  0.51100000000E-03 0. -1.
        -11    1    3    3    0    0 -0.23733433586E+02  0.29288054520E+02 -0.15235686751E+02  0.40659465791E+02  0.51100000000E-03 0.  1.
         12    1    3    3    0    0  0.17405111125E+02 -0.34607810757E+02  0.99538223815E+01  0.39996462827E+02  0.00000000000E+00 0. -1.
</event>
<event>
 7    1  0.3032584E-015  0.9000776E+02  0.7816164E-02  0.1186339E+00
        -11   -1    0    0    0    0  0.00000000000E+00  0.00000000000E+00  0.45593999997E+02  0.45594000000E+02  0.51100000000E-03 0.  1.
         11   -1    0    0    0    0 -0.00000000000E+00 -0.00000000000E+00 -0.45593999997E+02  0.45594000000E+02  0.51100000000E-03 0. -1.
    9900012    2    1    2    0    0  0.73833606750E+00  0.87806037253E+00 -0.27718466706E+00  0.90007762098E+02  0.90000023757E+02 0.  0.
         12    1    1    2    0    0 -0.73833606750E+00 -0.87806037253E+00  0.27718466706E+00  0.11802379023E+01  0.00000000000E+00 0. -1.
         11    1    3    3    0    0  0.90460487726E+00 -0.75590061829E+01  0.56574804817E+01  0.94849338489E+01  0.51100000000E-03 0. -1.
        -11    1    3    3    0    0  0.25069207828E+02 -0.19111215250E+02  0.17858305074E+02  0.36230136486E+02  0.51100000000E-03 0.  1.
         12    1    3    3    0    0 -0.25235476637E+02  0.27548281805E+02 -0.23792970223E+02  0.44292691763E+02  0.00000000000E+00 0. -1.
</event>
<event>
 7    1  0.3233460E-015  0.9000772E+02  0.7816164E-02  0.1186339E+00
        -11   -1    0    0    0    0  0.00000000000E+00  0.00000000000E+00  0.45593999997E+02  0.45594000000E+02  0.51100000000E-03 0.  1.
         11   -1    0    0    0    0 -0.00000000000E+00 -0.00000000000E+00 -0.45593999997E+02  0.45594000000E+02  0.51100000000E-03 0. -1.
    9900012    2    1    2    0    0 -0.36171654190E+00 -0.79811566860E+00  0.79071002570E+00  0.90007724684E+02  0.89999985850E+02 0.  0.
         12    1    1    2    0    0  0.36171654190E+00  0.79811566860E+00 -0.79071002570E+00  0.11802753161E+01  0.00000000000E+00 0. -1.
         11    1    3    3    0    0 -0.29685979862E+02  0.24652625728E+01 -0.20459533322E+02  0.36137617851E+02  0.51100000000E-03 0. -1.
        -11    1    3    3    0    0 -0.98658960144E+01  0.15995572763E+00  0.19774426313E+01  0.10063387582E+02  0.51100000000E-03 0.  1.
        -12    1    3    3    0    0  0.39190159334E+02 -0.34233339690E+01  0.19272800717E+02  0.43806719251E+02  0.00000000000E+00 0.  1.
</event>
<event>
 7    1  0.3032584E-015  0.9000772E+02  0.7816164E-02  0.1186339E+00
        -11   -1    0    0    0    0  0.00000000000E+00  0.00000000000E+00  0.45593999997E+02  0.45594000000E+02  0.51100000000E-03 0.  1.
         11   -1    0    0    0    0 -0.00000000000E+00 -0.00000000000E+00 -0.45593999997E+02  0.45594000000E+02  0.51100000000E-03 0. -1.
    9900012    2    1    2    0    0  0.11035670188E+01 -0.12200666366E+00  0.40038986658E+00  0.90007721289E+02  0.89999982410E+02 0.  0.
         12    1    1    2    0    0 -0.11035670188E+01  0.12200666366E+00 -0.40038986658E+00  0.11802787113E+01  0.00000000000E+00 0. -1.
         11    1    3    3    0    0  0.23619656633E+01 -0.55058648538E+01  0.64962883515E+01  0.88371484196E+01  0.51100000000E-03 0. -1.
        -11    1    3    3    0    0  0.28335298878E+02 -0.24283874150E+02 -0.11187006596E+02  0.38958244610E+02  0.51100000000E-03 0.  1.
         12    1    3    3    0    0 -0.29593697522E+02  0.29667732340E+02  0.50911081114E+01  0.42212328259E+02  0.00000000000E+00 0. -1.
</event>
<event>
 7    1  0.3032584E-015  0.9000778E+02  0.7816164E-02  0.1186339E+00
        -11   -1    0    0    0    0  0.00000000000E+00  0.00000000000E+00  0.45593999997E+02  0.45594000000E+02  0.51100000000E-03 0.  1.
         11   -1    0    0    0    0 -0.00000000000E+00 -0.00000000000E+00 -0.45593999997E+02  0.45594000000E+02  0.51100000000E-03 0. -1.
    9900012    2    1    2    0    0 -0.36385908800E+00  0.11046679214E+01  0.20056951551E+00  0.90007782739E+02  0.90000044671E+02 0.  0.
         12    1    1    2    0    0  0.36385908800E+00 -0.11046679214E+01 -0.20056951551E+00  0.11802172609E+01  0.00000000000E+00 0. -1.
         11    1    3    3    0    0  0.14140435275E+02 -0.19177922922E+02 -0.17130055580E+02  0.29345927176E+02  0.51100000000E-03 0. -1.
        -11    1    3    3    0    0  0.38742170073E+01 -0.11832688283E+02 -0.89006680301E+01  0.15305030580E+02  0.51100000000E-03 0.  1.
        -12    1    3    3    0    0 -0.18378511370E+02  0.32115279126E+02  0.26231293125E+02  0.45356824983E+02  0.00000000000E+00 0.  1.
</event>
<event>
 7    1  0.3032584E-015  0.9000805E+02  0.7816164E-02  0.1186338E+00
        -11   -1    0    0    0    0  0.00000000000E+00  0.00000000000E+00  0.45593999997E+02  0.45594000000E+02  0.51100000000E-03 0.  1.
         11   -1    0    0    0    0 -0.00000000000E+00 -0.00000000000E+00 -0.45593999997E+02  0.45594000000E+02  0.51100000000E-03 0. -1.
    9900012    2    1    2    0    0 -0.58872286874E+00  0.55933929063E+00  0.85605692932E+00  0.90008047236E+02  0.90000312659E+02 0.  0.
         12    1    1    2    0    0  0.58872286874E+00 -0.55933929063E+00 -0.85605692932E+00  0.11799527637E+01  0.00000000000E+00 0. -1.
         11    1    3    3    0    0  0.33233118416E+01 -0.61775471332E+01 -0.72980573689E+01  0.10122654385E+02  0.51100000000E-03 0. -1.
        -11    1    3    3    0    0  0.19062566159E+02 -0.16245562950E+02  0.31227413134E+02  0.40030626718E+02  0.51100000000E-03 0.  1.
         12    1    3    3    0    0 -0.22974600870E+02  0.22982449374E+02 -0.23073298836E+02  0.39854766133E+02  0.00000000000E+00 0. -1.
</event>
<event>
 7    1  0.3032584E-015  0.9000771E+02  0.7816164E-02  0.1186339E+00
        -11   -1    0    0    0    0  0.00000000000E+00  0.00000000000E+00  0.45593999997E+02  0.45594000000E+02  0.51100000000E-03 0. -1.
         11   -1    0    0    0    0 -0.00000000000E+00 -0.00000000000E+00 -0.45593999997E+02  0.45594000000E+02  0.51100000000E-03 0.  1.
    9900012    2    1    2    0    0 -0.55447291079E+00  0.88357817081E+00  0.55221754639E+00  0.90007705625E+02  0.89999966539E+02 0.  0.
         12    1    1    2    0    0  0.55447291079E+00 -0.88357817081E+00 -0.55221754639E+00  0.11802943748E+01  0.00000000000E+00 0. -1.
         11    1    3    3    0    0  0.27705237064E+02  0.22283212446E+02 -0.10047260399E+02  0.36946842347E+02  0.51100000000E-03 0. -1.
        -11    1    3    3    0    0  0.84747847429E+01 -0.10837326774E+02  0.23240762110E+01  0.13952453495E+02  0.51100000000E-03 0.  1.
        -12    1    3    3    0    0 -0.36734494717E+02 -0.10562307501E+02  0.82754017339E+01  0.39108409783E+02  0.00000000000E+00 0.  1.
</event>
<event>
 7    1  0.3032584E-015  0.9000766E+02  0.7816164E-02  0.1186339E+00
        -11   -1    0    0    0    0  0.00000000000E+00  0.00000000000E+00  0.45593999997E+02  0.45594000000E+02  0.51100000000E-03 0.  1.
         11   -1    0    0    0    0 -0.00000000000E+00 -0.00000000000E+00 -0.45593999997E+02  0.45594000000E+02  0.51100000000E-03 0. -1.
    9900012    2    1    2    0    0  0.31479831298E+00  0.93602272761E+00  0.64650707380E+00  0.90007657710E+02  0.89999917992E+02 0.  0.
         12    1    1    2    0    0 -0.31479831298E+00 -0.93602272761E+00 -0.64650707380E+00  0.11803422897E+01  0.00000000000E+00 0. -1.
         11    1    3    3    0    0 -0.56619338038E+01 -0.26102506898E+01 -0.37059271352E+02  0.37580054503E+02  0.51100000000E-03 0. -1.
        -11    1    3    3    0    0  0.27312882441E+01  0.55269991948E+01 -0.59728187333E+01  0.85838347755E+01  0.51100000000E-03 0.  1.
        -12    1    3    3    0    0  0.32454438727E+01 -0.19807257774E+01  0.43678597159E+02  0.43843768432E+02  0.00000000000E+00 0.  1.
</event>
<event>
 7    1  0.3032584E-015  0.9000775E+02  0.7816164E-02  0.1186339E+00
        -11   -1    0    0    0    0  0.00000000000E+00  0.00000000000E+00  0.45593999997E+02  0.45594000000E+02  0.51100000000E-03 0. -1.
         11   -1    0    0    0    0 -0.00000000000E+00 -0.00000000000E+00 -0.45593999997E+02  0.45594000000E+02  0.51100000000E-03 0.  1.
    9900012    2    1    2    0    0 -0.63185462177E-01  0.94438164744E+00  0.70509002657E+00  0.90007745348E+02  0.90000006786E+02 0.  0.
         12    1    1    2    0    0  0.63185462177E-01 -0.94438164744E+00 -0.70509002657E+00  0.11802546523E+01  0.00000000000E+00 0. -1.
         11    1    3    3    0    0  0.51876515210E+01  0.57331664996E+01  0.54376542169E+01  0.94524605294E+01  0.51100000000E-03 0. -1.
        -11    1    3    3    0    0  0.15480361099E+02  0.26999951621E+02 -0.22743011533E+02  0.38547159962E+02  0.51100000000E-03 0.  1.
         12    1    3    3    0    0 -0.20731198082E+02 -0.31788736473E+02  0.18010447342E+02  0.42008124856E+02  0.00000000000E+00 0. -1.
</event>
<event>
 8    1  0.3032584E-015  0.9000774E+02  0.7816164E-02  0.1186339E+00
        -11   -1    0    0    0    0  0.00000000000E+00  0.00000000000E+00  0.45593999997E+02  0.45594000000E+02  0.51100000000E-03 0. -1.
         11   -1    0    0    0    0 -0.00000000000E+00 -0.00000000000E+00 -0.45593999997E+02  0.45594000000E+02  0.51100000000E-03 0.  1.
    9900012    2    1    2    0    0 -0.38377046751E+00  0.94029947652E+00 -0.60131333295E+00  0.90007737062E+02  0.89999998392E+02 0.  0.
         23    2    3    3    0    0 -0.18722625145E+02  0.15890984428E+02  0.13436532593E+02  0.62495963408E+02  0.55876157310E+02 0.  0.
         12    1    1    2    0    0  0.38377046751E+00 -0.94029947652E+00  0.60131333295E+00  0.11802629375E+01  0.00000000000E+00 0. -1.
         11    1    4    4    0    0 -0.88471016681E+01  0.34522359596E+02  0.19407929765E+02  0.40579948965E+02  0.51100000000E-03 0. -1.
        -11    1    4    4    0    0 -0.98755234767E+01 -0.18631375168E+02 -0.59713971722E+01  0.21916014443E+02  0.51100000000E-03 0.  1.
        -12    1    3    3    0    0  0.18338854677E+02 -0.14950684951E+02 -0.14037845926E+02  0.27511773655E+02  0.00000000000E+00 0.  1.
</event>
<event>
 7    1  0.3032584E-015  0.9000774E+02  0.7816164E-02  0.1186339E+00
        -11   -1    0    0    0    0  0.00000000000E+00  0.00000000000E+00  0.45593999997E+02  0.45594000000E+02  0.51100000000E-03 0.  1.
         11   -1    0    0    0    0 -0.00000000000E+00 -0.00000000000E+00 -0.45593999997E+02  0.45594000000E+02  0.51100000000E-03 0. -1.
    9900012    2    1    2    0    0 -0.71974089653E+00  0.81218656115E+00  0.46403891573E+00  0.90007743213E+02  0.90000004623E+02 0.  0.
         12    1    1    2    0    0  0.71974089653E+00 -0.81218656115E+00 -0.46403891573E+00  0.11802567871E+01  0.00000000000E+00 0. -1.
         11    1    3    3    0    0  0.81265933052E+01  0.36766061563E+00 -0.71814681108E+00  0.81665432210E+01  0.51100000000E-03 0. -1.
        -11    1    3    3    0    0  0.35449645774E+02  0.84555010690E+01 -0.33568767853E+01  0.36598381192E+02  0.51100000000E-03 0.  1.
         12    1    3    3    0    0 -0.44295979976E+02 -0.80109751235E+01  0.45390625121E+01  0.45242818800E+02  0.00000000000E+00 0. -1.
</event>
<event>
 7    1  0.3032584E-015  0.9000777E+02  0.7816164E-02  0.1186339E+00
        -11   -1    0    0    0    0  0.00000000000E+00  0.00000000000E+00  0.45593999997E+02  0.45594000000E+02  0.51100000000E-03 0. -1.
         11   -1    0    0    0    0 -0.00000000000E+00 -0.00000000000E+00 -0.45593999997E+02  0.45594000000E+02  0.51100000000E-03 0.  1.
    9900012    2    1    2    0    0  0.11554489959E+01 -0.21573907898E+00  0.10651590420E+00  0.90007766392E+02  0.90000028108E+02 0.  0.
         12    1    1    2    0    0 -0.11554489959E+01  0.21573907898E+00 -0.10651590420E+00  0.11802336083E+01  0.00000000000E+00 0. -1.
         11    1    3    3    0    0 -0.18655922843E+02  0.45076447883E+01  0.37457462112E+02  0.42088285625E+02  0.51100000000E-03 0. -1.
        -11    1    3    3    0    0 -0.31066897305E+01 -0.62607690601E+01 -0.74622110110E+01  0.10224154916E+02  0.51100000000E-03 0.  1.
        -12    1    3    3    0    0  0.22918061570E+02  0.15373851928E+01 -0.29888735197E+02  0.37695325851E+02  0.00000000000E+00 0.  1.
</event>
<event>
 7    1  0.3032584E-015  0.9000774E+02  0.7816164E-02  0.1186339E+00
        -11   -1    0    0    0    0  0.00000000000E+00  0.00000000000E+00  0.45593999997E+02  0.45594000000E+02  0.51100000000E-03 0.  1.
         11   -1    0    0    0    0 -0.00000000000E+00 -0.00000000000E+00 -0.45593999997E+02  0.45594000000E+02  0.51100000000E-03 0. -1.
    9900012    2    1    2    0    0 -0.10656537470E+01 -0.68317365676E-01  0.50272555564E+00  0.90007738099E+02  0.89999999442E+02 0.  0.
         12    1    1    2    0    0  0.10656537470E+01  0.68317365676E-01 -0.50272555564E+00  0.11802619011E+01  0.00000000000E+00 0. -1.
         11    1    3    3    0    0  0.42014879322E+01 -0.81754725881E+01  0.45514108775E-01  0.91920033006E+01  0.51100000000E-03 0. -1.
        -11    1    3    3    0    0  0.27410946778E+02 -0.22214434160E+02  0.63503605730E+01  0.35849242223E+02  0.51100000000E-03 0.  1.
         12    1    3    3    0    0 -0.32678088457E+02  0.30321589382E+02 -0.58931491262E+01  0.44966492575E+02  0.00000000000E+00 0. -1.
</event>
<event>
 7    1  0.3032584E-015  0.9000781E+02  0.7816164E-02  0.1186339E+00
        -11   -1    0    0    0    0  0.00000000000E+00  0.00000000000E+00  0.45593999997E+02  0.45594000000E+02  0.51100000000E-03 0. -1.
         11   -1    0    0    0    0 -0.00000000000E+00 -0.00000000000E+00 -0.45593999997E+02  0.45594000000E+02  0.51100000000E-03 0.  1.
    9900012    2    1    2    0    0 -0.70216096647E+00 -0.78879729914E+00 -0.52690003708E+00  0.90007807282E+02  0.90000069538E+02 0.  0.
         12    1    1    2    0    0  0.70216096647E+00  0.78879729914E+00  0.52690003708E+00  0.11801927178E+01  0.00000000000E+00 0. -1.
         11    1    3    3    0    0  0.79976666614E+01 -0.35628850684E+02  0.10351951415E+02  0.37954453907E+02  0.51100000000E-03 0. -1.
        -11    1    3    3    0    0  0.81989287921E+01 -0.28231080863E+01  0.18269018340E+01  0.88617122035E+01  0.51100000000E-03 0.  1.
        -12    1    3    3    0    0 -0.16898756420E+02  0.37663161471E+02 -0.12705753286E+02  0.43191641171E+02  0.00000000000E+00 0.  1.
</event>
<event>
 7    1  0.3032584E-015  0.9000774E+02  0.7816164E-02  0.1186339E+00
        -11   -1    0    0    0    0  0.00000000000E+00  0.00000000000E+00  0.45593999997E+02  0.45594000000E+02  0.51100000000E-03 0.  1.
         11   -1    0    0    0    0 -0.00000000000E+00 -0.00000000000E+00 -0.45593999997E+02  0.45594000000E+02  0.51100000000E-03 0. -1.
    9900012    2    1    2    0    0  0.59001995843E-01  0.10804737179E+01 -0.47127436065E+00  0.90007744005E+02  0.90000005426E+02 0.  0.
         12    1    1    2    0    0 -0.59001995843E-01 -0.10804737179E+01  0.47127436065E+00  0.11802559950E+01  0.00000000000E+00 0. -1.
         11    1    3    3    0    0  0.34740114270E+02  0.23754235151E+01 -0.10563548609E+01  0.34837251072E+02  0.51100000000E-03 0. -1.
        -11    1    3    3    0    0  0.98053697457E+01 -0.38070745493E+01  0.13622752230E+01  0.10606360663E+02  0.51100000000E-03 0.  1.
        -12    1    3    3    0    0 -0.44486482020E+02  0.25121247522E+01 -0.77719472270E+00  0.44564132270E+02  0.00000000000E+00 0.  1.
</event>
<event>
 7    1  0.3032584E-015  0.9000784E+02  0.7816164E-02  0.1186339E+00
        -11   -1    0    0    0    0  0.00000000000E+00  0.00000000000E+00  0.45593999997E+02  0.45594000000E+02  0.51100000000E-03 0. -1.
         11   -1    0    0    0    0 -0.00000000000E+00 -0.00000000000E+00 -0.45593999997E+02  0.45594000000E+02  0.51100000000E-03 0.  1.
    9900012    2    1    2    0    0 -0.75960846329E+00  0.89214839585E+00 -0.14089026525E+00  0.90007837365E+02  0.90000100018E+02 0.  0.
         12    1    1    2    0    0  0.75960846329E+00 -0.89214839585E+00  0.14089026525E+00  0.11801626348E+01  0.00000000000E+00 0. -1.
         11    1    3    3    0    0 -0.29963066203E+01 -0.39244139014E+02  0.58353318203E+01  0.39788583765E+02  0.51100000000E-03 0. -1.
        -11    1    3    3    0    0  0.49911177797E+01 -0.23312046768E+01  0.36230311371E+01  0.65933395800E+01  0.51100000000E-03 0.  1.
        -12    1    3    3    0    0 -0.27544196227E+01  0.42467492087E+02 -0.95992532226E+01  0.43625914020E+02  0.00000000000E+00 0.  1.
</event>
<event>
 7    1  0.3032584E-015  0.9000732E+02  0.7816164E-02  0.1186340E+00
        -11   -1    0    0    0    0  0.00000000000E+00  0.00000000000E+00  0.45593999997E+02  0.45594000000E+02  0.51100000000E-03 0.  1.
         11   -1    0    0    0    0 -0.00000000000E+00 -0.00000000000E+00 -0.45593999997E+02  0.45594000000E+02  0.51100000000E-03 0. -1.
    9900012    2    1    2    0    0  0.10404320067E+01  0.80971001204E-01  0.55221243961E+00  0.90007324921E+02  0.89999580809E+02 0.  0.
         12    1    1    2    0    0 -0.10404320067E+01 -0.80971001204E-01 -0.55221243961E+00  0.11806750789E+01  0.00000000000E+00 0. -1.
         11    1    3    3    0    0 -0.65247114021E+01  0.13678171896E+02 -0.40424357700E+00  0.15160067890E+02  0.51100000000E-03 0. -1.
        -11    1    3    3    0    0 -0.26081147262E+02  0.14682975923E+02  0.62535024699E+01  0.30576499438E+02  0.51100000000E-03 0.  1.
         12    1    3    3    0    0  0.33646290671E+02 -0.28280176818E+02 -0.52970464533E+01  0.44270757593E+02  0.00000000000E+00 0. -1.
</event>
<event>
 7    1  0.3032584E-015  0.9000765E+02  0.7816164E-02  0.1186339E+00
        -11   -1    0    0    0    0  0.00000000000E+00  0.00000000000E+00  0.45593999997E+02  0.45594000000E+02  0.51100000000E-03 0. -1.
         11   -1    0    0    0    0 -0.00000000000E+00 -0.00000000000E+00 -0.45593999997E+02  0.45594000000E+02  0.51100000000E-03 0.  1.
    9900012    2    1    2    0    0  0.16695145036E-01  0.93676907594E-01 -0.11765046604E+01  0.90007653734E+02  0.89999913964E+02 0.  0.
         12    1    1    2    0    0 -0.16695145036E-01 -0.93676907594E-01  0.11765046604E+01  0.11803462657E+01  0.00000000000E+00 0. -1.
         11    1    3    3    0    0  0.64317249018E+01  0.65833859501E+01  0.91527753922E+01  0.12980036727E+02  0.51100000000E-03 0. -1.
        -11    1    3    3    0    0 -0.35725520984E+02  0.15376354320E+02 -0.11114882829E+02  0.40451028940E+02  0.51100000000E-03 0.  1.
         12    1    3    3    0    0  0.29310491227E+02 -0.21866063362E+02  0.78560277589E+00  0.36576588068E+02  0.00000000000E+00 0. -1.
</event>
<event>
 7    1  0.3032584E-015  0.9000773E+02  0.7816164E-02  0.1186339E+00
        -11   -1    0    0    0    0  0.00000000000E+00  0.00000000000E+00  0.45593999997E+02  0.45594000000E+02  0.51100000000E-03 0.  1.
         11   -1    0    0    0    0 -0.00000000000E+00 -0.00000000000E+00 -0.45593999997E+02  0.45594000000E+02  0.51100000000E-03 0. -1.
    9900012    2    1    2    0    0  0.20200399152E+00  0.10868008115E+01 -0.41362476956E+00  0.90007734324E+02  0.89999995617E+02 0.  0.
         12    1    1    2    0    0 -0.20200399152E+00 -0.10868008115E+01  0.41362476956E+00  0.11802656762E+01  0.00000000000E+00 0. -1.
         11    1    3    3    0    0 -0.11215757699E+02  0.40114974344E+01  0.14677293045E+00  0.11912467208E+02  0.51100000000E-03 0. -1.
        -11    1    3    3    0    0  0.15452749439E+02  0.35003866983E+02 -0.83545540951E+01  0.39164483188E+02  0.51100000000E-03 0.  1.
         12    1    3    3    0    0 -0.40349877491E+01 -0.37928563606E+02  0.77941563950E+01  0.38930783928E+02  0.00000000000E+00 0. -1.
</event>
<event>
 7    1  0.3032584E-015  0.9000706E+02  0.7816164E-02  0.1186340E+00
        -11   -1    0    0    0    0  0.00000000000E+00  0.00000000000E+00  0.45593999997E+02  0.45594000000E+02  0.51100000000E-03 0.  1.
         11   -1    0    0    0    0 -0.00000000000E+00 -0.00000000000E+00 -0.45593999997E+02  0.45594000000E+02  0.51100000000E-03 0. -1.
    9900012    2    1    2    0    0  0.48487851379E+00 -0.20091562486E+00 -0.10578925599E+01  0.90007063537E+02  0.89999315973E+02 0.  0.
         12    1    1    2    0    0 -0.48487851379E+00  0.20091562486E+00  0.10578925599E+01  0.11809364630E+01  0.00000000000E+00 0. -1.
         11    1    3    3    0    0 -0.32604336322E+01 -0.31740825064E+02 -0.27776256018E+02  0.42304028199E+02  0.51100000000E-03 0. -1.
        -11    1    3    3    0    0  0.26363173832E+01 -0.21997097832E+01  0.88826298620E+01  0.95231300527E+01  0.51100000000E-03 0.  1.
        -12    1    3    3    0    0  0.11089947628E+01  0.33739619222E+02  0.17835733596E+02  0.38179905285E+02  0.00000000000E+00 0.  1.
</event>
<event>
 7    1  0.3032584E-015  0.9000772E+02  0.7816164E-02  0.1186339E+00
        -11   -1    0    0    0    0  0.00000000000E+00  0.00000000000E+00  0.45593999997E+02  0.45594000000E+02  0.51100000000E-03 0.  1.
         11   -1    0    0    0    0 -0.00000000000E+00 -0.00000000000E+00 -0.45593999997E+02  0.45594000000E+02  0.51100000000E-03 0. -1.
    9900012    2    1    2    0    0 -0.76187089255E+00 -0.18846852198E+00  0.88152500125E+00  0.90007722927E+02  0.89999984070E+02 0.  0.
         12    1    1    2    0    0  0.76187089255E+00  0.18846852198E+00 -0.88152500125E+00  0.11802770728E+01  0.00000000000E+00 0. -1.
         11    1    3    3    0    0 -0.57715214481E+01  0.31850497461E+01 -0.39705318994E+01  0.76954613595E+01  0.51100000000E-03 0. -1.
        -11    1    3    3    0    0  0.75925995257E+01  0.33890062168E+02  0.22104103885E+02  0.41167648586E+02  0.51100000000E-03 0.  1.
         12    1    3    3    0    0 -0.25829489702E+01 -0.37263580436E+02 -0.17252046984E+02  0.41144612982E+02  0.00000000000E+00 0. -1.
</event>
<event>
 7    1  0.3032584E-015  0.9000767E+02  0.7816164E-02  0.1186339E+00
        -11   -1    0    0    0    0  0.00000000000E+00  0.00000000000E+00  0.45593999997E+02  0.45594000000E+02  0.51100000000E-03 0.  1.
         11   -1    0    0    0    0 -0.00000000000E+00 -0.00000000000E+00 -0.45593999997E+02  0.45594000000E+02  0.51100000000E-03 0. -1.
    9900012    2    1    2    0    0  0.36355247726E-01 -0.62200406721E+00  0.10024842379E+01  0.90007667246E+02  0.89999927653E+02 0.  0.
         12    1    1    2    0    0 -0.36355247726E-01  0.62200406721E+00 -0.10024842379E+01  0.11803327543E+01  0.00000000000E+00 0. -1.
         11    1    3    3    0    0  0.14000321661E+01  0.39417909506E+00  0.99148143492E+01  0.10020928653E+02  0.51100000000E-03 0. -1.
        -11    1    3    3    0    0 -0.27126490321E+02 -0.28707580923E+02  0.47310184944E+01  0.39778816170E+02  0.51100000000E-03 0.  1.
         12    1    3    3    0    0  0.25762813403E+02  0.27691397761E+02 -0.13643348606E+02  0.40207922423E+02  0.00000000000E+00 0. -1.
</event>
<event>
 7    1  0.3032584E-015  0.9000776E+02  0.7816164E-02  0.1186339E+00
        -11   -1    0    0    0    0  0.00000000000E+00  0.00000000000E+00  0.45593999997E+02  0.45594000000E+02  0.51100000000E-03 0. -1.
         11   -1    0    0    0    0 -0.00000000000E+00 -0.00000000000E+00 -0.45593999997E+02  0.45594000000E+02  0.51100000000E-03 0.  1.
    9900012    2    1    2    0    0  0.50696596850E+00  0.36412951699E+00 -0.10016801308E+01  0.90007759396E+02  0.90000021020E+02 0.  0.
         12    1    1    2    0    0 -0.50696596850E+00 -0.36412951699E+00  0.10016801308E+01  0.11802406038E+01  0.00000000000E+00 0. -1.
         11    1    3    3    0    0  0.30460505697E+02 -0.23798063433E+02 -0.13011480697E+02  0.40785890461E+02  0.51100000000E-03 0. -1.
        -11    1    3    3    0    0 -0.25700041814E+01 -0.61508817802E+01  0.33633162389E+01  0.74666032807E+01  0.51100000000E-03 0.  1.
        -12    1    3    3    0    0 -0.27383535548E+02  0.30313074730E+02  0.86464843271E+01  0.41755265655E+02  0.00000000000E+00 0.  1.
</event>
<event>
 7    1  0.3032584E-015  0.9000773E+02  0.7816164E-02  0.1186339E+00
        -11   -1    0    0    0    0  0.00000000000E+00  0.00000000000E+00  0.45593999997E+02  0.45594000000E+02  0.51100000000E-03 0.  1.
         11   -1    0    0    0    0 -0.00000000000E+00 -0.00000000000E+00 -0.45593999997E+02  0.45594000000E+02  0.51100000000E-03 0. -1.
    9900012    2    1    2    0    0 -0.47608085140E-01 -0.77489469554E+00  0.88899063737E+00  0.90007731949E+02  0.89999993211E+02 0.  0.
         12    1    1    2    0    0  0.47608085140E-01  0.77489469554E+00 -0.88899063737E+00  0.11802680510E+01  0.00000000000E+00 0. -1.
         11    1    3    3    0    0  0.32711128447E+02 -0.21350397936E+02 -0.16249208652E+01  0.39096007269E+02  0.51100000000E-03 0. -1.
        -11    1    3    3    0    0  0.38983649734E+01 -0.70777475664E+00  0.72481879396E+01  0.82604130187E+01  0.51100000000E-03 0.  1.
        -12    1    3    3    0    0 -0.36657101505E+02  0.21283277997E+02 -0.47342764370E+01  0.42651311661E+02  0.00000000000E+00 0.  1.
</event>
<event>
 7    1  0.3032584E-015  0.9000787E+02  0.7816164E-02  0.1186339E+00
        -11   -1    0    0    0    0  0.00000000000E+00  0.00000000000E+00  0.45593999997E+02  0.45594000000E+02  0.51100000000E-03 0.  1.
         11   -1    0    0    0    0 -0.00000000000E+00 -0.00000000000E+00 -0.45593999997E+02  0.45594000000E+02  0.51100000000E-03 0. -1.
    9900012    2    1    2    0    0 -0.63468653432E+00 -0.43032483442E+00 -0.89705041042E+00  0.90007870389E+02  0.90000133478E+02 0.  0.
         12    1    1    2    0    0  0.63468653432E+00  0.43032483442E+00  0.89705041042E+00  0.11801296110E+01  0.00000000000E+00 0. -1.
         11    1    3    3    0    0 -0.10235223936E+02  0.49313654225E+01  0.77989568519E+01  0.13780489911E+02  0.51100000000E-03 0. -1.
        -11    1    3    3    0    0 -0.14190670748E+01  0.15365004680E+02  0.28404064883E+02  0.32324727722E+02  0.51100000000E-03 0.  1.
         12    1    3    3    0    0  0.11019604477E+02 -0.20726694936E+02 -0.37100072145E+02  0.43902652756E+02  0.00000000000E+00 0. -1.
</event>
<event>
 7    1  0.3032584E-015  0.9000814E+02  0.7816164E-02  0.1186338E+00
        -11   -1    0    0    0    0  0.00000000000E+00  0.00000000000E+00  0.45593999997E+02  0.45594000000E+02  0.51100000000E-03 0. -1.
         11   -1    0    0    0    0 -0.00000000000E+00 -0.00000000000E+00 -0.45593999997E+02  0.45594000000E+02  0.51100000000E-03 0.  1.
    9900012    2    1    2    0    0 -0.57812408213E+00 -0.10277211961E+01 -0.40288329395E-01  0.90008143458E+02  0.90000410150E+02 0.  0.
         12    1    1    2    0    0  0.57812408213E+00  0.10277211961E+01  0.40288329395E-01  0.11798565424E+01  0.00000000000E+00 0. -1.
         11    1    3    3    0    0 -0.21502325066E+02 -0.25913096957E+01 -0.71751689153E+01  0.22815519245E+02  0.51100000000E-03 0. -1.
        -11    1    3    3    0    0 -0.21317575227E+01 -0.12619090986E+02 -0.23225033850E+02  0.26517693056E+02  0.51100000000E-03 0.  1.
        -12    1    3    3    0    0  0.23055958507E+02  0.14182679485E+02  0.30359914436E+02  0.40674931157E+02  0.00000000000E+00 0.  1.
</event>
<event>
 7    1  0.3032584E-015  0.9000769E+02  0.7816164E-02  0.1186339E+00
        -11   -1    0    0    0    0  0.00000000000E+00  0.00000000000E+00  0.45593999997E+02  0.45594000000E+02  0.51100000000E-03 0.  1.
         11   -1    0    0    0    0 -0.00000000000E+00 -0.00000000000E+00 -0.45593999997E+02  0.45594000000E+02  0.51100000000E-03 0. -1.
    9900012    2    1    2    0    0  0.37298010881E-01 -0.87249934130E+00  0.79403018142E+00  0.90007690646E+02  0.89999951362E+02 0.  0.
         12    1    1    2    0    0 -0.37298010881E-01  0.87249934130E+00 -0.79403018142E+00  0.11803093540E+01  0.00000000000E+00 0. -1.
         11    1    3    3    0    0  0.11866644697E+01 -0.52641999623E+01 -0.80059530316E+01  0.96548049184E+01  0.51100000000E-03 0. -1.
        -11    1    3    3    0    0 -0.11864132398E+02 -0.26471723758E+02  0.29742252707E+02  0.41546496755E+02  0.51100000000E-03 0.  1.
         12    1    3    3    0    0  0.10714765939E+02  0.30863424379E+02 -0.20942269494E+02  0.38806388973E+02  0.00000000000E+00 0. -1.
</event>
<event>
 7    1  0.3032584E-015  0.9000775E+02  0.7816164E-02  0.1186339E+00
        -11   -1    0    0    0    0  0.00000000000E+00  0.00000000000E+00  0.45593999997E+02  0.45594000000E+02  0.51100000000E-03 0. -1.
         11   -1    0    0    0    0 -0.00000000000E+00 -0.00000000000E+00 -0.45593999997E+02  0.45594000000E+02  0.51100000000E-03 0.  1.
    9900012    2    1    2    0    0 -0.58181917230E+00  0.81688671436E-01 -0.10236188584E+01  0.90007753350E+02  0.90000014894E+02 0.  0.
         12    1    1    2    0    0  0.58181917230E+00 -0.81688671436E-01  0.10236188584E+01  0.11802466503E+01  0.00000000000E+00 0. -1.
         11    1    3    3    0    0  0.32032934178E+02  0.63664346979E+01  0.64048367490E+01  0.33281560914E+02  0.51100000000E-03 0. -1.
        -11    1    3    3    0    0  0.56164768003E+01 -0.12886910140E+02 -0.10879574495E+02  0.17775893960E+02  0.51100000000E-03 0.  1.
        -12    1    3    3    0    0 -0.38231230151E+02  0.66021641140E+01  0.34511188873E+01  0.38950298476E+02  0.00000000000E+00 0.  1.
</event>
<event>
 7    1  0.3032584E-015  0.9000769E+02  0.7816164E-02  0.1186339E+00
        -11   -1    0    0    0    0  0.00000000000E+00  0.00000000000E+00  0.45593999997E+02  0.45594000000E+02  0.51100000000E-03 0.  1.
         11   -1    0    0    0    0 -0.00000000000E+00 -0.00000000000E+00 -0.45593999997E+02  0.45594000000E+02  0.51100000000E-03 0. -1.
    9900012    2    1    2    0    0 -0.57773527515E+00 -0.47718607629E+00  0.91194262442E+00  0.90007693281E+02  0.89999954033E+02 0.  0.
         12    1    1    2    0    0  0.57773527515E+00  0.47718607629E+00 -0.91194262442E+00  0.11803067185E+01  0.00000000000E+00 0. -1.
         11    1    3    3    0    0 -0.17624740209E+02  0.91781958739E+00 -0.34359516377E+02  0.38627065979E+02  0.51100000000E-03 0. -1.
        -11    1    3    3    0    0  0.53943163349E+01 -0.97097612231E+01 -0.21507761316E+01  0.11313883063E+02  0.51100000000E-03 0.  1.
        -12    1    3    3    0    0  0.11652688599E+02  0.83147555594E+01  0.37422235133E+02  0.40066744240E+02  0.00000000000E+00 0.  1.
</event>
<event>
 7    1  0.3032584E-015  0.9000775E+02  0.7816164E-02  0.1186339E+00
        -11   -1    0    0    0    0  0.00000000000E+00  0.00000000000E+00  0.45593999997E+02  0.45594000000E+02  0.51100000000E-03 0.  1.
         11   -1    0    0    0    0 -0.00000000000E+00 -0.00000000000E+00 -0.45593999997E+02  0.45594000000E+02  0.51100000000E-03 0. -1.
    9900012    2    1    2    0    0  0.97641997677E+00 -0.23547422026E+00  0.61980058686E+00  0.90007747126E+02  0.90000008588E+02 0.  0.
         12    1    1    2    0    0 -0.97641997677E+00  0.23547422026E+00 -0.61980058686E+00  0.11802528741E+01  0.00000000000E+00 0. -1.
         11    1    3    3    0    0 -0.20491185483E+01  0.26537591680E+01  0.10314972699E+02  0.10846196872E+02  0.51100000000E-03 0. -1.
        -11    1    3    3    0    0  0.63692946281E+01  0.21053263205E+02  0.27244002056E+02  0.35014903312E+02  0.51100000000E-03 0.  1.
         12    1    3    3    0    0 -0.33437561031E+01 -0.23942496593E+02 -0.36939174168E+02  0.44146646942E+02  0.00000000000E+00 0. -1.
</event>
<event>
 7    1  0.3032584E-015  0.9000669E+02  0.7816164E-02  0.1186341E+00
        -11   -1    0    0    0    0  0.00000000000E+00  0.00000000000E+00  0.45593999997E+02  0.45594000000E+02  0.51100000000E-03 0.  1.
         11   -1    0    0    0    0 -0.00000000000E+00 -0.00000000000E+00 -0.45593999997E+02  0.45594000000E+02  0.51100000000E-03 0. -1.
    9900012    2    1    2    0    0  0.10858412291E+01 -0.46491864649E+00 -0.16942517291E-01  0.90006692431E+02  0.89998939965E+02 0.  0.
         12    1    1    2    0    0 -0.10858412291E+01  0.46491864649E+00  0.16942517291E-01  0.11813075686E+01  0.00000000000E+00 0. -1.
         11    1    3    3    0    0 -0.64672939550E+01 -0.59313836059E+01  0.38652156282E+01  0.95889047703E+01  0.51100000000E-03 0. -1.
        -11    1    3    3    0    0  0.20306284250E+02 -0.21501823277E+02  0.25126414381E+02  0.38807348327E+02  0.51100000000E-03 0.  1.
         12    1    3    3    0    0 -0.12753149066E+02  0.26968288237E+02 -0.29008572527E+02  0.41610439334E+02  0.00000000000E+00 0. -1.
</event>
<event>
 7    1  0.3032584E-015  0.9000799E+02  0.7816164E-02  0.1186339E+00
        -11   -1    0    0    0    0  0.00000000000E+00  0.00000000000E+00  0.45593999997E+02  0.45594000000E+02  0.51100000000E-03 0.  1.
         11   -1    0    0    0    0 -0.00000000000E+00 -0.00000000000E+00 -0.45593999997E+02  0.45594000000E+02  0.51100000000E-03 0. -1.
    9900012    2    1    2    0    0  0.13516002283E+00  0.31015006526E+00  0.11304697173E+01  0.90007990222E+02  0.90000254892E+02 0.  0.
         12    1    1    2    0    0 -0.13516002283E+00 -0.31015006526E+00 -0.11304697173E+01  0.11800097782E+01  0.00000000000E+00 0. -1.
         11    1    3    3    0    0 -0.30036588786E+01 -0.25505846628E+02  0.33606062672E+02  0.42295834635E+02  0.51100000000E-03 0. -1.
        -11    1    3    3    0    0 -0.71327752906E+01  0.60859437137E+01 -0.13763560381E+01  0.94767900914E+01  0.51100000000E-03 0.  1.
        -12    1    3    3    0    0  0.10271594192E+02  0.19730052979E+02 -0.31099236917E+02  0.38235365496E+02  0.00000000000E+00 0.  1.
</event>
<event>
 7    1  0.3032584E-015  0.9000788E+02  0.7816164E-02  0.1186339E+00
        -11   -1    0    0    0    0  0.00000000000E+00  0.00000000000E+00  0.45593999997E+02  0.45594000000E+02  0.51100000000E-03 0.  1.
         11   -1    0    0    0    0 -0.00000000000E+00 -0.00000000000E+00 -0.45593999997E+02  0.45594000000E+02  0.51100000000E-03 0. -1.
    9900012    2    1    2    0    0  0.82038663769E+00  0.48629691051E+00  0.69510038643E+00  0.90007879893E+02  0.90000143107E+02 0.  0.
         12    1    1    2    0    0 -0.82038663769E+00 -0.48629691051E+00 -0.69510038643E+00  0.11801201073E+01  0.00000000000E+00 0. -1.
         11    1    3    3    0    0  0.10659486160E+02 -0.16403418833E+02 -0.17065330009E+01  0.19636930762E+02  0.51100000000E-03 0. -1.
        -11    1    3    3    0    0  0.18950937723E+02  0.26707624229E+02  0.16699488902E+02  0.36760143666E+02  0.51100000000E-03 0.  1.
         12    1    3    3    0    0 -0.28790037246E+02 -0.98179084851E+01 -0.14297855514E+02  0.33610805464E+02  0.00000000000E+00 0. -1.
</event>
<event>
 7    1  0.3032584E-015  0.9000778E+02  0.7816164E-02  0.1186339E+00
        -11   -1    0    0    0    0  0.00000000000E+00  0.00000000000E+00  0.45593999997E+02  0.45594000000E+02  0.51100000000E-03 0.  1.
         11   -1    0    0    0    0 -0.00000000000E+00 -0.00000000000E+00 -0.45593999997E+02  0.45594000000E+02  0.51100000000E-03 0. -1.
    9900012    2    1    2    0    0  0.10245882887E+00 -0.64820652454E+00  0.98094163151E+00  0.90007781379E+02  0.90000043293E+02 0.  0.
         12    1    1    2    0    0 -0.10245882887E+00  0.64820652454E+00 -0.98094163151E+00  0.11802186215E+01  0.00000000000E+00 0. -1.
         11    1    3    3    0    0 -0.23940970124E+02 -0.13669349316E+02 -0.26188654227E+02  0.38024554852E+02  0.51100000000E-03 0. -1.
        -11    1    3    3    0    0 -0.80761331166E+01  0.14570052694E+01 -0.22974624668E+00  0.82097243603E+01  0.51100000000E-03 0.  1.
        -12    1    3    3    0    0  0.32119562070E+02  0.11564137522E+02  0.27399342105E+02  0.43773502167E+02  0.00000000000E+00 0.  1.
</event>
<event>
 7    1  0.3032584E-015  0.9000768E+02  0.7816164E-02  0.1186339E+00
        -11   -1    0    0    0    0  0.00000000000E+00  0.00000000000E+00  0.45593999997E+02  0.45594000000E+02  0.51100000000E-03 0. -1.
         11   -1    0    0    0    0 -0.00000000000E+00 -0.00000000000E+00 -0.45593999997E+02  0.45594000000E+02  0.51100000000E-03 0.  1.
    9900012    2    1    2    0    0 -0.57007726634E+00  0.40919338826E+00 -0.94907088800E+00  0.90007676795E+02  0.89999937328E+02 0.  0.
         12    1    1    2    0    0  0.57007726634E+00 -0.40919338826E+00  0.94907088800E+00  0.11803232053E+01  0.00000000000E+00 0. -1.
         11    1    3    3    0    0 -0.46529340263E+01 -0.31332118214E+01  0.85850353283E+01  0.10255225167E+02  0.51100000000E-03 0. -1.
        -11    1    3    3    0    0 -0.62992550968E+01 -0.36855570168E+02 -0.62940223981E+01  0.37916070279E+02  0.51100000000E-03 0.  1.
         12    1    3    3    0    0  0.10382111857E+02  0.40397975378E+02 -0.32400838183E+01  0.41836381349E+02  0.00000000000E+00 0. -1.
</event>
<event>
 7    1  0.3032584E-015  0.9000782E+02  0.7816164E-02  0.1186339E+00
        -11   -1    0    0    0    0  0.00000000000E+00  0.00000000000E+00  0.45593999997E+02  0.45594000000E+02  0.51100000000E-03 0.  1.
         11   -1    0    0    0    0 -0.00000000000E+00 -0.00000000000E+00 -0.45593999997E+02  0.45594000000E+02  0.51100000000E-03 0. -1.
    9900012    2    1    2    0    0 -0.10662848035E+01  0.45187067274E+00  0.22731726464E+00  0.90007820554E+02  0.90000082985E+02 0.  0.
         12    1    1    2    0    0  0.10662848035E+01 -0.45187067274E+00 -0.22731726464E+00  0.11801794465E+01  0.00000000000E+00 0. -1.
         11    1    3    3    0    0  0.23267191141E+02  0.14153573404E+02 -0.27160101840E+02  0.38462409648E+02  0.51100000000E-03 0. -1.
        -11    1    3    3    0    0 -0.17769231970E+01  0.78437620991E+01 -0.24217726291E+01  0.83992287053E+01  0.51100000000E-03 0.  1.
        -12    1    3    3    0    0 -0.22556552747E+02 -0.21545464830E+02  0.29809191734E+02  0.43146182200E+02  0.00000000000E+00 0.  1.
</event>
<event>
 7    1  0.3032584E-015  0.9000775E+02  0.7816164E-02  0.1186339E+00
        -11   -1    0    0    0    0  0.00000000000E+00  0.00000000000E+00  0.45593999997E+02  0.45594000000E+02  0.51100000000E-03 0. -1.
         11   -1    0    0    0    0 -0.00000000000E+00 -0.00000000000E+00 -0.45593999997E+02  0.45594000000E+02  0.51100000000E-03 0.  1.
    9900012    2    1    2    0    0  0.59256829717E+00  0.84821643792E+00 -0.56778226190E+00  0.90007752141E+02  0.90000013669E+02 0.  0.
         12    1    1    2    0    0 -0.59256829717E+00 -0.84821643792E+00  0.56778226190E+00  0.11802478593E+01  0.00000000000E+00 0. -1.
         11    1    3    3    0    0  0.34234140448E+01  0.79280619597E+00 -0.88987449869E+01  0.95674431271E+01  0.51100000000E-03 0. -1.
        -11    1    3    3    0    0 -0.22244450399E+02 -0.21059385653E+02 -0.22743061750E+02  0.38151804094E+02  0.51100000000E-03 0.  1.
         12    1    3    3    0    0  0.19413604652E+02  0.21114795895E+02  0.31074024475E+02  0.42288504919E+02  0.00000000000E+00 0. -1.
</event>
<event>
 7    1  0.3032584E-015  0.9000772E+02  0.7816164E-02  0.1186339E+00
        -11   -1    0    0    0    0  0.00000000000E+00  0.00000000000E+00  0.45593999997E+02  0.45594000000E+02  0.51100000000E-03 0.  1.
         11   -1    0    0    0    0 -0.00000000000E+00 -0.00000000000E+00 -0.45593999997E+02  0.45594000000E+02  0.51100000000E-03 0. -1.
    9900012    2    1    2    0    0  0.72878119301E+00 -0.85392236790E+00 -0.36435478934E+00  0.90007720436E+02  0.89999981545E+02 0.  0.
         12    1    1    2    0    0 -0.72878119301E+00  0.85392236790E+00  0.36435478934E+00  0.11802795644E+01  0.00000000000E+00 0. -1.
         11    1    3    3    0    0  0.63311830484E+01 -0.78243925415E+01 -0.30020267364E+01  0.10503197714E+02  0.51100000000E-03 0. -1.
        -11    1    3    3    0    0  0.10335155055E+01 -0.24681145619E+02  0.28774324064E+02  0.37923460140E+02  0.51100000000E-03 0.  1.
         12    1    3    3    0    0 -0.66359173609E+01  0.31651615793E+02 -0.26136652117E+02  0.41581062581E+02  0.00000000000E+00 0. -1.
</event>
<event>
 7    1  0.3032584E-015  0.9000763E+02  0.7816164E-02  0.1186339E+00
        -11   -1    0    0    0    0  0.00000000000E+00  0.00000000000E+00  0.45593999997E+02  0.45594000000E+02  0.51100000000E-03 0. -1.
         11   -1    0    0    0    0 -0.00000000000E+00 -0.00000000000E+00 -0.45593999997E+02  0.45594000000E+02  0.51100000000E-03 0.  1.
    9900012    2    1    2    0    0  0.28761592170E+00  0.11446899656E+01  0.15677719247E-01  0.90007625557E+02  0.89999885414E+02 0.  0.
         12    1    1    2    0    0 -0.28761592170E+00 -0.11446899656E+01 -0.15677719247E-01  0.11803744434E+01  0.00000000000E+00 0. -1.
         11    1    3    3    0    0  0.14618609100E+01  0.30507668666E+01  0.10099030561E+02  0.10650569671E+02  0.51100000000E-03 0. -1.
        -11    1    3    3    0    0  0.32135821743E+01 -0.57555140320E+01 -0.44228271541E+02  0.44716809546E+02  0.51100000000E-03 0.  1.
         12    1    3    3    0    0 -0.43878271626E+01  0.38494371311E+01  0.34144918700E+02  0.34640246340E+02  0.00000000000E+00 0. -1.
</event>
<event>
 7    1  0.3032584E-015  0.9000779E+02  0.7816164E-02  0.1186339E+00
        -11   -1    0    0    0    0  0.00000000000E+00  0.00000000000E+00  0.45593999997E+02  0.45594000000E+02  0.51100000000E-03 0.  1.
         11   -1    0    0    0    0 -0.00000000000E+00 -0.00000000000E+00 -0.45593999997E+02  0.45594000000E+02  0.51100000000E-03 0. -1.
    9900012    2    1    2    0    0 -0.95796147680E+00  0.68752325820E+00 -0.50217860295E-01  0.90007788047E+02  0.90000050049E+02 0.  0.
         12    1    1    2    0    0  0.95796147680E+00 -0.68752325820E+00  0.50217860295E-01  0.11802119535E+01  0.00000000000E+00 0. -1.
         11    1    3    3    0    0 -0.47951249726E+01 -0.14733879870E+02  0.13269497787E+01  0.15551245465E+02  0.51100000000E-03 0. -1.
        -11    1    3    3    0    0  0.83685303557E+01  0.12521769171E+02  0.34780256713E+02  0.37901098412E+02  0.51100000000E-03 0.  1.
         12    1    3    3    0    0 -0.45313668599E+01  0.28996339569E+01 -0.36157424352E+02  0.36555444170E+02  0.00000000000E+00 0. -1.
</event>
<event>
 7    1  0.3032584E-015  0.9000757E+02  0.7816164E-02  0.1186339E+00
        -11   -1    0    0    0    0  0.00000000000E+00  0.00000000000E+00  0.45593999997E+02  0.45594000000E+02  0.51100000000E-03 0.  1.
         11   -1    0    0    0    0 -0.00000000000E+00 -0.00000000000E+00 -0.45593999997E+02  0.45594000000E+02  0.51100000000E-03 0. -1.
    9900012    2    1    2    0    0 -0.10513447668E+01  0.35399130270E+00  0.40346583367E+00  0.90007567732E+02  0.89999826826E+02 0.  0.
         12    1    1    2    0    0  0.10513447668E+01 -0.35399130270E+00 -0.40346583367E+00  0.11804322683E+01  0.00000000000E+00 0. -1.
         11    1    3    3    0    0  0.29180801540E+02 -0.15644854277E+02 -0.22988551512E+02  0.40308239168E+02  0.51100000000E-03 0. -1.
        -11    1    3    3    0    0 -0.31076460769E+01 -0.73843632894E+01  0.36193504511E+01  0.87912446945E+01  0.51100000000E-03 0.  1.
        -12    1    3    3    0    0 -0.27124500230E+02  0.23383208869E+02  0.19772666895E+02  0.40908083870E+02  0.00000000000E+00 0.  1.
</event>
<event>
 7    1  0.3032584E-015  0.9000773E+02  0.7816164E-02  0.1186339E+00
        -11   -1    0    0    0    0  0.00000000000E+00  0.00000000000E+00  0.45593999997E+02  0.45594000000E+02  0.51100000000E-03 0.  1.
         11   -1    0    0    0    0 -0.00000000000E+00 -0.00000000000E+00 -0.45593999997E+02  0.45594000000E+02  0.51100000000E-03 0. -1.
    9900012    2    1    2    0    0 -0.49799097581E+00  0.29372449471E+00  0.10289686787E+01  0.90007726459E+02  0.89999987648E+02 0.  0.
         12    1    1    2    0    0  0.49799097581E+00 -0.29372449471E+00 -0.10289686787E+01  0.11802735414E+01  0.00000000000E+00 0. -1.
         11    1    3    3    0    0 -0.67234907114E+01  0.36692564157E+01 -0.28759392950E+00  0.76649514362E+01  0.51100000000E-03 0. -1.
        -11    1    3    3    0    0 -0.36811084234E+02 -0.89701929520E+01  0.71398405739E+01  0.38555124274E+02  0.51100000000E-03 0.  1.
         12    1    3    3    0    0  0.43036583970E+02  0.55946610310E+01 -0.58232779656E+01  0.43787650749E+02  0.00000000000E+00 0. -1.
</event>
<event>
 7    1  0.3032584E-015  0.9000765E+02  0.7816164E-02  0.1186339E+00
        -11   -1    0    0    0    0  0.00000000000E+00  0.00000000000E+00  0.45593999997E+02  0.45594000000E+02  0.51100000000E-03 0. -1.
         11   -1    0    0    0    0 -0.00000000000E+00 -0.00000000000E+00 -0.45593999997E+02  0.45594000000E+02  0.51100000000E-03 0.  1.
    9900012    2    1    2    0    0 -0.73408444700E+00  0.73049029799E+00 -0.56632769973E+00  0.90007651274E+02  0.89999911471E+02 0.  0.
         12    1    1    2    0    0  0.73408444700E+00 -0.73049029799E+00  0.56632769973E+00  0.11803487257E+01  0.00000000000E+00 0. -1.
         11    1    3    3    0    0  0.74793609954E+01  0.36193801500E+02  0.16771681697E+02  0.40585975597E+02  0.51100000000E-03 0. -1.
        -11    1    3    3    0    0 -0.90271354937E+01  0.13333602787E+01 -0.59537392594E+01  0.10895597105E+02  0.51100000000E-03 0.  1.
        -12    1    3    3    0    0  0.81369005135E+00 -0.36796671481E+02 -0.11384270137E+02  0.38526078572E+02  0.00000000000E+00 0.  1.
</event>
<event>
 7    1  0.3032584E-015  0.9000775E+02  0.7816164E-02  0.1186339E+00
        -11   -1    0    0    0    0  0.00000000000E+00  0.00000000000E+00  0.45593999997E+02  0.45594000000E+02  0.51100000000E-03 0. -1.
         11   -1    0    0    0    0 -0.00000000000E+00 -0.00000000000E+00 -0.45593999997E+02  0.45594000000E+02  0.51100000000E-03 0.  1.
    9900012    2    1    2    0    0  0.85176479002E+00 -0.78594837865E+00  0.22309572879E+00  0.90007750105E+02  0.90000011606E+02 0.  0.
         12    1    1    2    0    0 -0.85176479002E+00  0.78594837865E+00 -0.22309572879E+00  0.11802498954E+01  0.00000000000E+00 0. -1.
         11    1    3    3    0    0 -0.17333391727E+02  0.13264158182E+02  0.21625763682E+02  0.30725527109E+02  0.51100000000E-03 0. -1.
        -11    1    3    3    0    0 -0.47982791918E+01 -0.45737737038E+01  0.14308721385E+02  0.15769666992E+02  0.51100000000E-03 0.  1.
        -12    1    3    3    0    0  0.22983435709E+02 -0.94763328570E+01 -0.35711389339E+02  0.43512556003E+02  0.00000000000E+00 0.  1.
</event>
<event>
 7    1  0.3032584E-015  0.9000773E+02  0.7816164E-02  0.1186339E+00
        -11   -1    0    0    0    0  0.00000000000E+00  0.00000000000E+00  0.45593999997E+02  0.45594000000E+02  0.51100000000E-03 0.  1.
         11   -1    0    0    0    0 -0.00000000000E+00 -0.00000000000E+00 -0.45593999997E+02  0.45594000000E+02  0.51100000000E-03 0. -1.
    9900012    2    1    2    0    0 -0.29401743090E+00  0.10086826624E+01  0.53773237149E+00  0.90007727546E+02  0.89999988749E+02 0.  0.
         12    1    1    2    0    0  0.29401743090E+00 -0.10086826624E+01 -0.53773237149E+00  0.11802724543E+01  0.00000000000E+00 0. -1.
         11    1    3    3    0    0 -0.48221622627E+01  0.83331343036E+01  0.28215291606E+01  0.10032716645E+02  0.51100000000E-03 0. -1.
        -11    1    3    3    0    0 -0.11419152906E+02  0.20789396988E+02 -0.29407017324E+02  0.37780533987E+02  0.51100000000E-03 0.  1.
         12    1    3    3    0    0  0.15947297738E+02 -0.28113848629E+02  0.27123220535E+02  0.42194476914E+02  0.00000000000E+00 0. -1.
</event>
<event>
 7    1  0.3032584E-015  0.9000783E+02  0.7816164E-02  0.1186339E+00
        -11   -1    0    0    0    0  0.00000000000E+00  0.00000000000E+00  0.45593999997E+02  0.45594000000E+02  0.51100000000E-03 0.  1.
         11   -1    0    0    0    0 -0.00000000000E+00 -0.00000000000E+00 -0.45593999997E+02  0.45594000000E+02  0.51100000000E-03 0. -1.
    9900012    2    1    2    0    0  0.67473121747E+00 -0.91454490177E+00  0.31805208154E+00  0.90007825555E+02  0.90000088053E+02 0.  0.
         12    1    1    2    0    0 -0.67473121747E+00  0.91454490177E+00 -0.31805208154E+00  0.11801744446E+01  0.00000000000E+00 0. -1.
         11    1    3    3    0    0  0.71547589495E+01 -0.61800695431E+01  0.13133694268E+01  0.95450916547E+01  0.51100000000E-03 0. -1.
        -11    1    3    3    0    0  0.33685687917E+02  0.14094224944E+02 -0.11004676604E+02  0.38137588474E+02  0.51100000000E-03 0.  1.
         12    1    3    3    0    0 -0.40165715649E+02 -0.88287003031E+01  0.10009359259E+02  0.42325145427E+02  0.00000000000E+00 0. -1.
</event>
<event>
 7    1  0.3032584E-015  0.9000813E+02  0.7816164E-02  0.1186338E+00
        -11   -1    0    0    0    0  0.00000000000E+00  0.00000000000E+00  0.45593999997E+02  0.45594000000E+02  0.51100000000E-03 0. -1.
         11   -1    0    0    0    0 -0.00000000000E+00 -0.00000000000E+00 -0.45593999997E+02  0.45594000000E+02  0.51100000000E-03 0.  1.
    9900012    2    1    2    0    0  0.11397244413E+01 -0.19380850285E+00  0.23570938250E+00  0.90008130325E+02  0.90000396844E+02 0.  0.
         12    1    1    2    0    0 -0.11397244413E+01  0.19380850285E+00 -0.23570938250E+00  0.11798696754E+01  0.00000000000E+00 0. -1.
         11    1    3    3    0    0  0.31767853931E+02 -0.21849271654E+02  0.17933964149E+02  0.42523102962E+02  0.51100000000E-03 0. -1.
        -11    1    3    3    0    0  0.28832923417E+01  0.48710978114E+01 -0.59376462129E+01  0.82034511901E+01  0.51100000000E-03 0.  1.
        -12    1    3    3    0    0 -0.33511421831E+02  0.16784365340E+02 -0.11760608554E+02  0.39281576172E+02  0.00000000000E+00 0.  1.
</event>
<event>
 7    1  0.3032584E-015  0.9000774E+02  0.7816164E-02  0.1186339E+00
        -11   -1    0    0    0    0  0.00000000000E+00  0.00000000000E+00  0.45593999997E+02  0.45594000000E+02  0.51100000000E-03 0. -1.
         11   -1    0    0    0    0 -0.00000000000E+00 -0.00000000000E+00 -0.45593999997E+02  0.45594000000E+02  0.51100000000E-03 0.  1.
    9900012    2    1    2    0    0  0.46893161637E+00  0.52086729266E+00 -0.94963557991E+00  0.90007742684E+02  0.90000004087E+02 0.  0.
         12    1    1    2    0    0 -0.46893161637E+00 -0.52086729266E+00  0.94963557991E+00  0.11802573160E+01  0.00000000000E+00 0. -1.
         11    1    3    3    0    0  0.16516880328E+02 -0.31149813129E+01  0.34111507094E+02  0.38027692026E+02  0.51100000000E-03 0. -1.
        -11    1    3    3    0    0  0.48690501295E+00 -0.12104918566E+02 -0.27588265955E+01  0.12424864362E+02  0.51100000000E-03 0.  1.
        -12    1    3    3    0    0 -0.16534853724E+02  0.15740767171E+02 -0.32302316079E+02  0.39555186295E+02  0.00000000000E+00 0.  1.
</event>
<event>
 7    1  0.3032584E-015  0.9000784E+02  0.7816164E-02  0.1186339E+00
        -11   -1    0    0    0    0  0.00000000000E+00  0.00000000000E+00  0.45593999997E+02  0.45594000000E+02  0.51100000000E-03 0. -1.
         11   -1    0    0    0    0 -0.00000000000E+00 -0.00000000000E+00 -0.45593999997E+02  0.45594000000E+02  0.51100000000E-03 0.  1.
    9900012    2    1    2    0    0  0.10896673812E+00 -0.11721245838E+01 -0.83868016835E-01  0.90007837454E+02  0.90000100109E+02 0.  0.
         12    1    1    2    0    0 -0.10896673812E+00  0.11721245838E+01  0.83868016835E-01  0.11801625457E+01  0.00000000000E+00 0. -1.
         11    1    3    3    0    0 -0.84295520891E+01  0.45807251626E+01 -0.43565294851E+01  0.10536590571E+02  0.51100000000E-03 0. -1.
        -11    1    3    3    0    0  0.12707002435E+02  0.27096057755E+02 -0.22047982658E+02  0.37172271874E+02  0.51100000000E-03 0.  1.
         12    1    3    3    0    0 -0.41684836076E+01 -0.32848907502E+02  0.26320644126E+02  0.42298975009E+02  0.00000000000E+00 0. -1.
</event>
<event>
 7    1  0.3032584E-015  0.9000771E+02  0.7816164E-02  0.1186339E+00
        -11   -1    0    0    0    0  0.00000000000E+00  0.00000000000E+00  0.45593999997E+02  0.45594000000E+02  0.51100000000E-03 0.  1.
         11   -1    0    0    0    0 -0.00000000000E+00 -0.00000000000E+00 -0.45593999997E+02  0.45594000000E+02  0.51100000000E-03 0. -1.
    9900012    2    1    2    0    0  0.19250892761E+00 -0.28601963916E+00  0.11288103803E+01  0.90007711986E+02  0.89999972984E+02 0.  0.
         12    1    1    2    0    0 -0.19250892761E+00  0.28601963916E+00 -0.11288103803E+01  0.11802880140E+01  0.00000000000E+00 0. -1.
         11    1    3    3    0    0  0.36593318404E+02  0.21806861844E+02  0.15061604298E+01  0.42624860056E+02  0.51100000000E-03 0. -1.
        -11    1    3    3    0    0 -0.33287459602E+01 -0.11304063567E+02 -0.39120482431E+01  0.12416381297E+02  0.51100000000E-03 0.  1.
        -12    1    3    3    0    0 -0.33072063516E+02 -0.10788817917E+02  0.35346981937E+01  0.34966470633E+02  0.00000000000E+00 0.  1.
</event>
<event>
 7    1  0.3770380E-015  0.9000783E+02  0.7816164E-02  0.1186339E+00
        -11   -1    0    0    0    0  0.00000000000E+00  0.00000000000E+00  0.45593999997E+02  0.45594000000E+02  0.51100000000E-03 0.  1.
         11   -1    0    0    0    0 -0.00000000000E+00 -0.00000000000E+00 -0.45593999997E+02  0.45594000000E+02  0.51100000000E-03 0. -1.
    9900012    2    1    2    0    0  0.34786035528E+00 -0.10218463640E+01  0.47711106916E+00  0.90007825525E+02  0.90000088022E+02 0.  0.
         12    1    1    2    0    0 -0.34786035528E+00  0.10218463640E+01 -0.47711106916E+00  0.11801744747E+01  0.00000000000E+00 0. -1.
         11    1    3    3    0    0 -0.21381156278E+01  0.38183080840E+02 -0.33180007724E+01  0.38386564450E+02  0.51100000000E-03 0. -1.
        -11    1    3    3    0    0  0.39168392925E+01  0.19366970573E+01 -0.77233331003E+01  0.88736858167E+01  0.51100000000E-03 0.  1.
        -12    1    3    3    0    0 -0.14308633094E+01 -0.41141624261E+02  0.11518444942E+02  0.42747575259E+02  0.00000000000E+00 0.  1.
</event>
<event>
 7    1  0.3032584E-015  0.9000767E+02  0.7816164E-02  0.1186339E+00
        -11   -1    0    0    0    0  0.00000000000E+00  0.00000000000E+00  0.45593999997E+02  0.45594000000E+02  0.51100000000E-03 0. -1.
         11   -1    0    0    0    0 -0.00000000000E+00 -0.00000000000E+00 -0.45593999997E+02  0.45594000000E+02  0.51100000000E-03 0.  1.
    9900012    2    1    2    0    0  0.73417177974E+00 -0.91800350399E+00  0.10696250700E+00  0.90007669702E+02  0.89999930142E+02 0.  0.
         12    1    1    2    0    0 -0.73417177974E+00  0.91800350399E+00 -0.10696250700E+00  0.11803302984E+01  0.00000000000E+00 0. -1.
         11    1    3    3    0    0 -0.17905651743E+01 -0.33281824341E+01  0.54643162755E+01  0.66439201213E+01  0.51100000000E-03 0. -1.
        -11    1    3    3    0    0  0.10870986111E+02 -0.38524164823E+02  0.49525499405E+01  0.40333824087E+02  0.51100000000E-03 0.  1.
         12    1    3    3    0    0 -0.83462491566E+01  0.40934343753E+02 -0.10309903709E+02  0.43029925493E+02  0.00000000000E+00 0. -1.
</event>
<event>
 7    1  0.3032584E-015  0.9000771E+02  0.7816164E-02  0.1186339E+00
        -11   -1    0    0    0    0  0.00000000000E+00  0.00000000000E+00  0.45593999997E+02  0.45594000000E+02  0.51100000000E-03 0.  1.
         11   -1    0    0    0    0 -0.00000000000E+00 -0.00000000000E+00 -0.45593999997E+02  0.45594000000E+02  0.51100000000E-03 0. -1.
    9900012    2    1    2    0    0  0.93847160141E+00  0.26324352557E+00  0.66563241929E+00  0.90007706554E+02  0.89999967481E+02 0.  0.
         12    1    1    2    0    0 -0.93847160141E+00 -0.26324352557E+00 -0.66563241929E+00  0.11802934457E+01  0.00000000000E+00 0. -1.
         11    1    3    3    0    0  0.20437042894E+02 -0.29322499307E+02 -0.38493848797E+01  0.35948566760E+02  0.51100000000E-03 0. -1.
        -11    1    3    3    0    0  0.42044301932E+00 -0.92996625410E+01 -0.28863604322E+01  0.97463620143E+01  0.51100000000E-03 0.  1.
        -12    1    3    3    0    0 -0.19919014312E+02  0.38885405374E+02  0.74013777312E+01  0.44312777780E+02  0.00000000000E+00 0.  1.
</event>
<event>
 7    1  0.3032584E-015  0.9000776E+02  0.7816164E-02  0.1186339E+00
        -11   -1    0    0    0    0  0.00000000000E+00  0.00000000000E+00  0.45593999997E+02  0.45594000000E+02  0.51100000000E-03 0. -1.
         11   -1    0    0    0    0 -0.00000000000E+00 -0.00000000000E+00 -0.45593999997E+02  0.45594000000E+02  0.51100000000E-03 0.  1.
    9900012    2    1    2    0    0 -0.10536733497E+01 -0.52502458385E+00  0.84124608782E-01  0.90007764731E+02  0.90000026425E+02 0.  0.
         12    1    1    2    0    0  0.10536733497E+01  0.52502458385E+00 -0.84124608782E-01  0.11802352694E+01  0.00000000000E+00 0. -1.
         11    1    3    3    0    0 -0.86737273246E+01 -0.34219777693E+01  0.38037259459E+02  0.39163459818E+02  0.51100000000E-03 0. -1.
        -11    1    3    3    0    0 -0.42937326142E+01  0.83358236312E+01  0.12978362364E+01  0.94660696453E+01  0.51100000000E-03 0.  1.
        -12    1    3    3    0    0  0.11913786589E+02 -0.54388704457E+01 -0.39250971086E+02  0.41378235267E+02  0.00000000000E+00 0.  1.
</event>
<event>
 7    1  0.3032584E-015  0.9000761E+02  0.7816164E-02  0.1186339E+00
        -11   -1    0    0    0    0  0.00000000000E+00  0.00000000000E+00  0.45593999997E+02  0.45594000000E+02  0.51100000000E-03 0. -1.
         11   -1    0    0    0    0 -0.00000000000E+00 -0.00000000000E+00 -0.45593999997E+02  0.45594000000E+02  0.51100000000E-03 0.  1.
    9900012    2    1    2    0    0 -0.31738982174E-01 -0.90821163735E+00 -0.75330418276E+00  0.90007608991E+02  0.89999868630E+02 0.  0.
         12    1    1    2    0    0  0.31738982174E-01  0.90821163735E+00  0.75330418276E+00  0.11803910085E+01  0.00000000000E+00 0. -1.
         11    1    3    3    0    0 -0.10063786214E-01  0.42233324289E+01 -0.30397101266E+01  0.52035061256E+01  0.51100000000E-03 0. -1.
        -11    1    3    3    0    0 -0.28545615173E-01  0.31323559779E+02 -0.24333270395E+02  0.39664521433E+02  0.51100000000E-03 0.  1.
         12    1    3    3    0    0  0.68704192130E-02 -0.36455103845E+02  0.26619676339E+02  0.45139581433E+02  0.00000000000E+00 0. -1.
</event>
<event>
 7    1  0.6689046E-015  0.9000768E+02  0.7816164E-02  0.1186339E+00
        -11   -1    0    0    0    0  0.00000000000E+00  0.00000000000E+00  0.45593999997E+02  0.45594000000E+02  0.51100000000E-03 0. -1.
         11   -1    0    0    0    0 -0.00000000000E+00 -0.00000000000E+00 -0.45593999997E+02  0.45594000000E+02  0.51100000000E-03 0.  1.
    9900012    2    1    2    0    0 -0.53553798175E-01 -0.34344803472E+00 -0.11279780271E+01  0.90007678437E+02  0.89999938993E+02 0.  0.
         12    1    1    2    0    0  0.53553798175E-01  0.34344803472E+00  0.11279780271E+01  0.11803215627E+01  0.00000000000E+00 0. -1.
         11    1    3    3    0    0  0.10171880563E+02  0.54068509566E+01  0.37361604170E+02  0.39097195013E+02  0.51100000000E-03 0. -1.
        -11    1    3    3    0    0 -0.90809426758E+01 -0.17250383685E+00  0.25848678923E+01  0.94432420141E+01  0.51100000000E-03 0.  1.
        -12    1    3    3    0    0 -0.11444916858E+01 -0.55777951545E+01 -0.41074450090E+02  0.41467241410E+02  0.00000000000E+00 0.  1.
</event>
<event>
 7    1  0.3807910E-015  0.9000774E+02  0.7816164E-02  0.1186339E+00
        -11   -1    0    0    0    0  0.00000000000E+00  0.00000000000E+00  0.45593999997E+02  0.45594000000E+02  0.51100000000E-03 0. -1.
         11   -1    0    0    0    0 -0.00000000000E+00 -0.00000000000E+00 -0.45593999997E+02  0.45594000000E+02  0.51100000000E-03 0.  1.
    9900012    2    1    2    0    0 -0.17629915739E-01 -0.10959071561E+01 -0.43783675398E+00  0.90007735482E+02  0.89999996791E+02 0.  0.
         12    1    1    2    0    0  0.17629915739E-01  0.10959071561E+01  0.43783675398E+00  0.11802645177E+01  0.00000000000E+00 0. -1.
         11    1    3    3    0    0 -0.20471408241E+02  0.40969501187E+01  0.32187365851E+02  0.38365219618E+02  0.51100000000E-03 0. -1.
        -11    1    3    3    0    0 -0.82756135569E+01 -0.51102621784E+01 -0.25597733997E+01  0.10057484745E+02  0.51100000000E-03 0.  1.
        -12    1    3    3    0    0  0.28729391882E+02 -0.82595096338E-01 -0.30065429205E+02  0.41585031119E+02  0.00000000000E+00 0.  1.
</event>
<event>
 7    1  0.3032584E-015  0.9000775E+02  0.7816164E-02  0.1186339E+00
        -11   -1    0    0    0    0  0.00000000000E+00  0.00000000000E+00  0.45593999997E+02  0.45594000000E+02  0.51100000000E-03 0. -1.
         11   -1    0    0    0    0 -0.00000000000E+00 -0.00000000000E+00 -0.45593999997E+02  0.45594000000E+02  0.51100000000E-03 0.  1.
    9900012    2    1    2    0    0  0.62040600352E+00 -0.31583971098E+00 -0.95306198500E+00  0.90007751942E+02  0.90000013467E+02 0.  0.
         12    1    1    2    0    0 -0.62040600352E+00  0.31583971098E+00  0.95306198500E+00  0.11802480585E+01  0.00000000000E+00 0. -1.
         11    1    3    3    0    0  0.26227309179E+02  0.26603418299E+02  0.61349572673E+01  0.37858305732E+02  0.51100000000E-03 0. -1.
        -11    1    3    3    0    0 -0.30702096658E+01  0.85116809161E+01 -0.44288730696E+01  0.10074215420E+02  0.51100000000E-03 0.  1.
        -12    1    3    3    0    0 -0.22536693510E+02 -0.35430938926E+02 -0.26591461827E+01  0.42075230789E+02  0.00000000000E+00 0.  1.
</event>
<event>
 7    1  0.3032584E-015  0.9000778E+02  0.7816164E-02  0.1186339E+00
        -11   -1    0    0    0    0  0.00000000000E+00  0.00000000000E+00  0.45593999997E+02  0.45594000000E+02  0.51100000000E-03 0.  1.
         11   -1    0    0    0    0 -0.00000000000E+00 -0.00000000000E+00 -0.45593999997E+02  0.45594000000E+02  0.51100000000E-03 0. -1.
    9900012    2    1    2    0    0  0.65081447284E+00 -0.15355379489E-01  0.98444086219E+00  0.90007780073E+02  0.90000041970E+02 0.  0.
         12    1    1    2    0    0 -0.65081447284E+00  0.15355379489E-01 -0.98444086219E+00  0.11802199273E+01  0.00000000000E+00 0. -1.
         11    1    3    3    0    0  0.36879721304E+01  0.98209465779E+01 -0.39677807035E+01  0.11215855478E+02  0.51100000000E-03 0. -1.
        -11    1    3    3    0    0  0.28832994650E+02  0.25403908854E+01  0.25777907003E+02  0.38759458923E+02  0.51100000000E-03 0.  1.
         12    1    3    3    0    0 -0.31870152308E+02 -0.12376692843E+02 -0.20825685437E+02  0.40032465672E+02  0.00000000000E+00 0. -1.
</event>
<event>
 8    1  0.3032584E-015  0.9000778E+02  0.7816164E-02  0.1186339E+00
        -11   -1    0    0    0    0  0.00000000000E+00  0.00000000000E+00  0.45593999997E+02  0.45594000000E+02  0.51100000000E-03 0. -1.
         11   -1    0    0    0    0 -0.00000000000E+00 -0.00000000000E+00 -0.45593999997E+02  0.45594000000E+02  0.51100000000E-03 0.  1.
    9900012    2    1    2    0    0  0.84591865627E+00  0.79706099229E+00 -0.20502330530E+00  0.90007780040E+02  0.90000041936E+02 0.  0.
         23    2    3    3    0    0 -0.14079357169E+01 -0.11286046017E+02  0.17598329580E+02  0.68373531533E+02  0.65083649964E+02 0.  0.
         12    1    1    2    0    0 -0.84591865627E+00 -0.79706099229E+00  0.20502330530E+00  0.11802199601E+01  0.00000000000E+00 0. -1.
         11    1    4    4    0    0  0.45220934739E+01 -0.37709550901E+02  0.16100204776E+02  0.41251377585E+02  0.51100000000E-03 0. -1.
        -11    1    4    4    0    0 -0.59300291908E+01  0.26423504885E+02  0.14981248043E+01  0.27122153948E+02  0.51100000000E-03 0.  1.
        -12    1    3    3    0    0  0.22538543732E+01  0.12083107009E+02 -0.17803352885E+02  0.21634248507E+02  0.00000000000E+00 0.  1.
</event>
<event>
 7    1  0.3032584E-015  0.9000775E+02  0.7816164E-02  0.1186339E+00
        -11   -1    0    0    0    0  0.00000000000E+00  0.00000000000E+00  0.45593999997E+02  0.45594000000E+02  0.51100000000E-03 0. -1.
         11   -1    0    0    0    0 -0.00000000000E+00 -0.00000000000E+00 -0.45593999997E+02  0.45594000000E+02  0.51100000000E-03 0.  1.
    9900012    2    1    2    0    0  0.66368706083E+00 -0.27665499243E+00 -0.93593782016E+00  0.90007746594E+02  0.90000008049E+02 0.  0.
         12    1    1    2    0    0 -0.66368706083E+00  0.27665499243E+00  0.93593782016E+00  0.11802534062E+01  0.00000000000E+00 0. -1.
         11    1    3    3    0    0 -0.63604875878E+01  0.68903956690E+01 -0.18520084549E+01  0.95584146389E+01  0.51100000000E-03 0. -1.
        -11    1    3    3    0    0 -0.21857469538E+02  0.26289800760E+02 -0.85641256874E+01  0.35245522378E+02  0.51100000000E-03 0.  1.
         12    1    3    3    0    0  0.28881644187E+02 -0.33456851422E+02  0.94801963221E+01  0.45203809577E+02  0.00000000000E+00 0. -1.
</event>
<event>
 7    1  0.3032584E-015  0.9000774E+02  0.7816164E-02  0.1186339E+00
        -11   -1    0    0    0    0  0.00000000000E+00  0.00000000000E+00  0.45593999997E+02  0.45594000000E+02  0.51100000000E-03 0.  1.
         11   -1    0    0    0    0 -0.00000000000E+00 -0.00000000000E+00 -0.45593999997E+02  0.45594000000E+02  0.51100000000E-03 0. -1.
    9900012    2    1    2    0    0  0.44020329560E+00 -0.10194735074E+01  0.39987222590E+00  0.90007744532E+02  0.90000005959E+02 0.  0.
         12    1    1    2    0    0 -0.44020329560E+00  0.10194735074E+01 -0.39987222590E+00  0.11802554684E+01  0.00000000000E+00 0. -1.
         11    1    3    3    0    0 -0.83730858125E+01  0.99336534954E+00  0.96394680362E+00  0.84867269570E+01  0.51100000000E-03 0. -1.
        -11    1    3    3    0    0  0.29205941641E+01 -0.34068354376E+02  0.23081444853E+02  0.41254523836E+02  0.51100000000E-03 0.  1.
         12    1    3    3    0    0  0.58926949440E+01  0.32055515519E+02 -0.23645519430E+02  0.40266493739E+02  0.00000000000E+00 0. -1.
</event>
<event>
 7    1  0.3032584E-015  0.9000759E+02  0.7816164E-02  0.1186339E+00
        -11   -1    0    0    0    0  0.00000000000E+00  0.00000000000E+00  0.45593999997E+02  0.45594000000E+02  0.51100000000E-03 0. -1.
         11   -1    0    0    0    0 -0.00000000000E+00 -0.00000000000E+00 -0.45593999997E+02  0.45594000000E+02  0.51100000000E-03 0.  1.
    9900012    2    1    2    0    0 -0.98776639642E+00  0.12133749856E+00 -0.63478657510E+00  0.90007593613E+02  0.89999853049E+02 0.  0.
         12    1    1    2    0    0  0.98776639642E+00 -0.12133749856E+00  0.63478657510E+00  0.11804063870E+01  0.00000000000E+00 0. -1.
         11    1    3    3    0    0 -0.32380922297E+02 -0.10224906936E+02 -0.16580087006E+02  0.37788518574E+02  0.51100000000E-03 0. -1.
        -11    1    3    3    0    0 -0.63677864691E+01 -0.51896622206E+01 -0.42977816028E+00  0.82259350841E+01  0.51100000000E-03 0.  1.
        -12    1    3    3    0    0  0.37760942369E+02  0.15535906655E+02  0.16375078591E+02  0.43993139955E+02  0.00000000000E+00 0.  1.
</event>
<event>
 7    1  0.3032584E-015  0.9000771E+02  0.7816164E-02  0.1186339E+00
        -11   -1    0    0    0    0  0.00000000000E+00  0.00000000000E+00  0.45593999997E+02  0.45594000000E+02  0.51100000000E-03 0.  1.
         11   -1    0    0    0    0 -0.00000000000E+00 -0.00000000000E+00 -0.45593999997E+02  0.45594000000E+02  0.51100000000E-03 0. -1.
    9900012    2    1    2    0    0  0.88849740272E+00 -0.49952182886E+00  0.59509617843E+00  0.90007708022E+02  0.89999968968E+02 0.  0.
         12    1    1    2    0    0 -0.88849740272E+00  0.49952182886E+00 -0.59509617843E+00  0.11802919782E+01  0.00000000000E+00 0. -1.
         11    1    3    3    0    0 -0.32843481754E+01 -0.90533584974E+01  0.13186390763E+01  0.97205479421E+01  0.51100000000E-03 0. -1.
        -11    1    3    3    0    0  0.34663923659E+02 -0.54940189729E+01  0.20427221804E+02  0.40608413399E+02  0.51100000000E-03 0.  1.
         12    1    3    3    0    0 -0.30491078081E+02  0.14047855642E+02 -0.21150764702E+02  0.39678746681E+02  0.00000000000E+00 0. -1.
</event>
<event>
 7    1  0.3032584E-015  0.9000773E+02  0.7816164E-02  0.1186339E+00
        -11   -1    0    0    0    0  0.00000000000E+00  0.00000000000E+00  0.45593999997E+02  0.45594000000E+02  0.51100000000E-03 0.  1.
         11   -1    0    0    0    0 -0.00000000000E+00 -0.00000000000E+00 -0.45593999997E+02  0.45594000000E+02  0.51100000000E-03 0. -1.
    9900012    2    1    2    0    0 -0.23019523089E+00  0.99528114979E+00  0.59115125441E+00  0.90007731295E+02  0.89999992548E+02 0.  0.
         12    1    1    2    0    0  0.23019523089E+00 -0.99528114979E+00 -0.59115125441E+00  0.11802687054E+01  0.00000000000E+00 0. -1.
         11    1    3    3    0    0  0.78638156278E+01 -0.38164389911E+01  0.31954066038E+01  0.93067409132E+01  0.51100000000E-03 0. -1.
        -11    1    3    3    0    0  0.99568098212E+01  0.11219114053E+01  0.36298475068E+02  0.37656022619E+02  0.51100000000E-03 0.  1.
         12    1    3    3    0    0 -0.18050820680E+02  0.36898087356E+01 -0.38902730417E+02  0.43044967762E+02  0.00000000000E+00 0. -1.
</event>
<event>
 7    1  0.3032584E-015  0.9000762E+02  0.7816164E-02  0.1186339E+00
        -11   -1    0    0    0    0  0.00000000000E+00  0.00000000000E+00  0.45593999997E+02  0.45594000000E+02  0.51100000000E-03 0. -1.
         11   -1    0    0    0    0 -0.00000000000E+00 -0.00000000000E+00 -0.45593999997E+02  0.45594000000E+02  0.51100000000E-03 0.  1.
    9900012    2    1    2    0    0  0.22218336865E+00 -0.71864068820E+00 -0.90965777642E+00  0.90007624145E+02  0.89999883984E+02 0.  0.
         12    1    1    2    0    0 -0.22218336865E+00  0.71864068820E+00  0.90965777642E+00  0.11803758547E+01  0.00000000000E+00 0. -1.
         11    1    3    3    0    0 -0.21264596813E+01 -0.82222545368E+01 -0.59052684305E+01  0.10344056068E+02  0.51100000000E-03 0. -1.
        -11    1    3    3    0    0 -0.27164386890E+02 -0.23807226581E+02 -0.14825533478E+01  0.36150877130E+02  0.51100000000E-03 0.  1.
         12    1    3    3    0    0  0.29513029940E+02  0.31310840430E+02  0.64781640019E+01  0.43512690947E+02  0.00000000000E+00 0. -1.
</event>
<event>
 7    1  0.3322110E-015  0.9000766E+02  0.7816164E-02  0.1186339E+00
        -11   -1    0    0    0    0  0.00000000000E+00  0.00000000000E+00  0.45593999997E+02  0.45594000000E+02  0.51100000000E-03 0.  1.
         11   -1    0    0    0    0 -0.00000000000E+00 -0.00000000000E+00 -0.45593999997E+02  0.45594000000E+02  0.51100000000E-03 0. -1.
    9900012    2    1    2    0    0  0.95975182992E+00 -0.59802183494E+00  0.33830748923E+00  0.90007658673E+02  0.89999918968E+02 0.  0.
         12    1    1    2    0    0 -0.95975182992E+00  0.59802183494E+00 -0.33830748923E+00  0.11803413266E+01  0.00000000000E+00 0. -1.
         11    1    3    3    0    0 -0.17551797833E+02 -0.31709641353E+02 -0.77714203512E+01  0.37066992547E+02  0.51100000000E-03 0. -1.
        -11    1    3    3    0    0 -0.96901844315E+01 -0.37158092261E+00 -0.84872072466E+00  0.97343758829E+01  0.51100000000E-03 0.  1.
        -12    1    3    3    0    0  0.28201734095E+02  0.31483200441E+02  0.89584485650E+01  0.43206290244E+02  0.00000000000E+00 0.  1.
</event>
<event>
 7    1  0.3032584E-015  0.9000764E+02  0.7816164E-02  0.1186339E+00
        -11   -1    0    0    0    0  0.00000000000E+00  0.00000000000E+00  0.45593999997E+02  0.45594000000E+02  0.51100000000E-03 0.  1.
         11   -1    0    0    0    0 -0.00000000000E+00 -0.00000000000E+00 -0.45593999997E+02  0.45594000000E+02  0.51100000000E-03 0. -1.
    9900012    2    1    2    0    0  0.80733267563E+00  0.28420717452E+00  0.81282776383E+00  0.90007640419E+02  0.89999900472E+02 0.  0.
         12    1    1    2    0    0 -0.80733267563E+00 -0.28420717452E+00 -0.81282776383E+00  0.11803595812E+01  0.00000000000E+00 0. -1.
         11    1    3    3    0    0  0.82042930373E+00 -0.17693508080E+01  0.10826857511E+02  0.11001115868E+02  0.51100000000E-03 0. -1.
        -11    1    3    3    0    0 -0.33001806586E+02  0.11506918701E+02  0.13434918365E+02  0.37443630269E+02  0.51100000000E-03 0.  1.
         12    1    3    3    0    0  0.32988709958E+02 -0.94533607183E+01 -0.23448948112E+02  0.41562894282E+02  0.00000000000E+00 0. -1.
</event>
<event>
 7    1  0.3032584E-015  0.9000766E+02  0.7816164E-02  0.1186339E+00
        -11   -1    0    0    0    0  0.00000000000E+00  0.00000000000E+00  0.45593999997E+02  0.45594000000E+02  0.51100000000E-03 0.  1.
         11   -1    0    0    0    0 -0.00000000000E+00 -0.00000000000E+00 -0.45593999997E+02  0.45594000000E+02  0.51100000000E-03 0. -1.
    9900012    2    1    2    0    0 -0.79949560391E+00 -0.57656160920E+00  0.64930422055E+00  0.90007655779E+02  0.89999916035E+02 0.  0.
         12    1    1    2    0    0  0.79949560391E+00  0.57656160920E+00 -0.64930422055E+00  0.11803442213E+01  0.00000000000E+00 0. -1.
         11    1    3    3    0    0 -0.38596061067E+02  0.70939476404E+01 -0.17944362832E+02  0.43150668369E+02  0.51100000000E-03 0. -1.
        -11    1    3    3    0    0  0.80302046950E+01  0.46290686327E+01 -0.72972232742E+00  0.92975781141E+01  0.51100000000E-03 0.  1.
        -12    1    3    3    0    0  0.29766360768E+02 -0.12299577882E+02  0.19323389380E+02  0.37559409295E+02  0.00000000000E+00 0.  1.
</event>
<event>
 7    1  0.3032584E-015  0.9000776E+02  0.7816164E-02  0.1186339E+00
        -11   -1    0    0    0    0  0.00000000000E+00  0.00000000000E+00  0.45593999997E+02  0.45594000000E+02  0.51100000000E-03 0. -1.
         11   -1    0    0    0    0 -0.00000000000E+00 -0.00000000000E+00 -0.45593999997E+02  0.45594000000E+02  0.51100000000E-03 0.  1.
    9900012    2    1    2    0    0  0.61772611625E+00 -0.93545146872E+00 -0.36919266883E+00  0.90007763485E+02  0.90000025163E+02 0.  0.
         12    1    1    2    0    0 -0.61772611625E+00  0.93545146872E+00  0.36919266883E+00  0.11802365152E+01  0.00000000000E+00 0. -1.
         11    1    3    3    0    0 -0.92495597921E+01  0.18093284259E+00  0.62866951777E+00  0.92726651328E+01  0.51100000000E-03 0. -1.
        -11    1    3    3    0    0 -0.78205095092E+01  0.93738016539E+01 -0.37171393337E+02  0.39124685422E+02  0.51100000000E-03 0.  1.
         12    1    3    3    0    0  0.17687795418E+02 -0.10490185965E+02  0.36173531151E+02  0.41610412930E+02  0.00000000000E+00 0. -1.
</event>
<event>
 7    1  0.3032584E-015  0.9000774E+02  0.7816164E-02  0.1186339E+00
        -11   -1    0    0    0    0  0.00000000000E+00  0.00000000000E+00  0.45593999997E+02  0.45594000000E+02  0.51100000000E-03 0. -1.
         11   -1    0    0    0    0 -0.00000000000E+00 -0.00000000000E+00 -0.45593999997E+02  0.45594000000E+02  0.51100000000E-03 0.  1.
    9900012    2    1    2    0    0  0.11740517100E+01 -0.11887435223E+00 -0.21953438955E-01  0.90007741349E+02  0.90000002735E+02 0.  0.
         12    1    1    2    0    0 -0.11740517100E+01  0.11887435223E+00  0.21953438955E-01  0.11802586508E+01  0.00000000000E+00 0. -1.
         11    1    3    3    0    0  0.53710830784E+01  0.62046335198E+00 -0.68270861598E+01  0.87087664971E+01  0.51100000000E-03 0. -1.
        -11    1    3    3    0    0  0.33497970194E+02 -0.14684449075E+02 -0.97165676930E+01  0.37843873213E+02  0.51100000000E-03 0.  1.
         12    1    3    3    0    0 -0.37695001562E+02  0.13945111370E+02  0.16521700414E+02  0.43455101639E+02  0.00000000000E+00 0. -1.
</event>
<event>
 7    1  0.3032584E-015  0.9000763E+02  0.7816164E-02  0.1186339E+00
        -11   -1    0    0    0    0  0.00000000000E+00  0.00000000000E+00  0.45593999997E+02  0.45594000000E+02  0.51100000000E-03 0. -1.
         11   -1    0    0    0    0 -0.00000000000E+00 -0.00000000000E+00 -0.45593999997E+02  0.45594000000E+02  0.51100000000E-03 0.  1.
    9900012    2    1    2    0    0 -0.90691212910E-01 -0.11133710821E+01 -0.38137594998E+00  0.90007632397E+02  0.89999892345E+02 0.  0.
         12    1    1    2    0    0  0.90691212910E-01  0.11133710821E+01  0.38137594998E+00  0.11803676028E+01  0.00000000000E+00 0. -1.
         11    1    3    3    0    0  0.19564429126E+02 -0.27310559141E+02  0.14944907763E+02  0.36769332275E+02  0.51100000000E-03 0. -1.
        -11    1    3    3    0    0 -0.18209924174E-01 -0.86173693210E+01 -0.95318399052E+01  0.12849722093E+02  0.51100000000E-03 0.  1.
        -12    1    3    3    0    0 -0.19636910415E+02  0.34814557380E+02 -0.57944438077E+01  0.40388578030E+02  0.00000000000E+00 0.  1.
</event>
<event>
 7    1  0.3032584E-015  0.9000766E+02  0.7816164E-02  0.1186339E+00
        -11   -1    0    0    0    0  0.00000000000E+00  0.00000000000E+00  0.45593999997E+02  0.45594000000E+02  0.51100000000E-03 0.  1.
         11   -1    0    0    0    0 -0.00000000000E+00 -0.00000000000E+00 -0.45593999997E+02  0.45594000000E+02  0.51100000000E-03 0. -1.
    9900012    2    1    2    0    0 -0.48104680583E+00 -0.95610365813E+00  0.49765542289E+00  0.90007660577E+02  0.89999920896E+02 0.  0.
         12    1    1    2    0    0  0.48104680583E+00  0.95610365813E+00 -0.49765542289E+00  0.11803394234E+01  0.00000000000E+00 0. -1.
         11    1    3    3    0    0  0.44374678143E+01 -0.60940534865E+01  0.46975936279E+01  0.88823417325E+01  0.51100000000E-03 0. -1.
        -11    1    3    3    0    0  0.23626574364E+01 -0.35513430970E+02  0.10788723238E+02  0.37191161299E+02  0.51100000000E-03 0.  1.
         12    1    3    3    0    0 -0.72811720564E+01  0.40651380798E+02 -0.14988661443E+02  0.43934157545E+02  0.00000000000E+00 0. -1.
</event>
<event>
 7    1  0.3032584E-015  0.9000773E+02  0.7816164E-02  0.1186339E+00
        -11   -1    0    0    0    0  0.00000000000E+00  0.00000000000E+00  0.45593999997E+02  0.45594000000E+02  0.51100000000E-03 0. -1.
         11   -1    0    0    0    0 -0.00000000000E+00 -0.00000000000E+00 -0.45593999997E+02  0.45594000000E+02  0.51100000000E-03 0.  1.
    9900012    2    1    2    0    0 -0.10181791418E+01 -0.57514828985E+00 -0.15984763997E+00  0.90007730714E+02  0.89999991959E+02 0.  0.
         12    1    1    2    0    0  0.10181791418E+01  0.57514828985E+00  0.15984763997E+00  0.11802692863E+01  0.00000000000E+00 0. -1.
         11    1    3    3    0    0  0.20104317492E+02 -0.17415601577E+02  0.17952485043E+02  0.32090161726E+02  0.51100000000E-03 0. -1.
        -11    1    3    3    0    0 -0.50786647218E+00 -0.10479373257E+02  0.93372051986E+01  0.14044877835E+02  0.51100000000E-03 0.  1.
        -12    1    3    3    0    0 -0.20614630161E+02  0.27319826544E+02 -0.27449537882E+02  0.43872691153E+02  0.00000000000E+00 0.  1.
</event>
<event>
 7    1  0.3032584E-015  0.9000775E+02  0.7816164E-02  0.1186339E+00
        -11   -1    0    0    0    0  0.00000000000E+00  0.00000000000E+00  0.45593999997E+02  0.45594000000E+02  0.51100000000E-03 0.  1.
         11   -1    0    0    0    0 -0.00000000000E+00 -0.00000000000E+00 -0.45593999997E+02  0.45594000000E+02  0.51100000000E-03 0. -1.
    9900012    2    1    2    0    0 -0.63561493487E+00  0.10954408845E+00  0.98841946754E+00  0.90007754561E+02  0.90000016121E+02 0.  0.
         12    1    1    2    0    0  0.63561493487E+00 -0.10954408845E+00 -0.98841946754E+00  0.11802454391E+01  0.00000000000E+00 0. -1.
         11    1    3    3    0    0 -0.34203190882E+02  0.22779605967E+02 -0.17398139889E+02  0.44625821969E+02  0.51100000000E-03 0. -1.
        -11    1    3    3    0    0  0.60971154863E+01 -0.30414167709E+01  0.69555380324E+01  0.97367624397E+01  0.51100000000E-03 0.  1.
        -12    1    3    3    0    0  0.27470460461E+02 -0.19628645107E+02  0.11431021325E+02  0.35645170153E+02  0.00000000000E+00 0.  1.
</event>
<event>
 7    1  0.3032584E-015  0.9000775E+02  0.7816164E-02  0.1186339E+00
        -11   -1    0    0    0    0  0.00000000000E+00  0.00000000000E+00  0.45593999997E+02  0.45594000000E+02  0.51100000000E-03 0. -1.
         11   -1    0    0    0    0 -0.00000000000E+00 -0.00000000000E+00 -0.45593999997E+02  0.45594000000E+02  0.51100000000E-03 0.  1.
    9900012    2    1    2    0    0  0.41892801647E+00  0.33710751171E+00 -0.10506402807E+01  0.90007751231E+02  0.90000012747E+02 0.  0.
         12    1    1    2    0    0 -0.41892801647E+00 -0.33710751171E+00  0.10506402807E+01  0.11802487691E+01  0.00000000000E+00 0. -1.
         11    1    3    3    0    0  0.66358521046E+01  0.48509163232E+01 -0.34345428422E+01  0.89085356331E+01  0.51100000000E-03 0. -1.
        -11    1    3    3    0    0  0.15373728315E+02  0.24292013831E+01 -0.34472791485E+02  0.37823615569E+02  0.51100000000E-03 0.  1.
         12    1    3    3    0    0 -0.21590652403E+02 -0.69430101946E+01  0.36856694047E+02  0.43275600029E+02  0.00000000000E+00 0. -1.
</event>
<event>
 7    1  0.3032584E-015  0.9000907E+02  0.7816164E-02  0.1186336E+00
        -11   -1    0    0    0    0  0.00000000000E+00  0.00000000000E+00  0.45593999997E+02  0.45594000000E+02  0.51100000000E-03 0. -1.
         11   -1    0    0    0    0 -0.00000000000E+00 -0.00000000000E+00 -0.45593999997E+02  0.45594000000E+02  0.51100000000E-03 0.  1.
    9900012    2    1    2    0    0  0.56481972067E+00 -0.27757626927E-01 -0.10344513210E+01  0.90009067713E+02  0.90001346596E+02 0.  0.
         12    1    1    2    0    0 -0.56481972067E+00  0.27757626927E-01  0.10344513210E+01  0.11789322874E+01  0.00000000000E+00 0. -1.
         11    1    3    3    0    0  0.79393623681E+01 -0.53127446736E+01  0.12678749996E+01  0.96367130316E+01  0.51100000000E-03 0. -1.
        -11    1    3    3    0    0  0.25265242954E+01 -0.81359223340E+01 -0.39075779020E+02  0.39993662792E+02  0.51100000000E-03 0.  1.
         12    1    3    3    0    0 -0.99010669428E+01  0.13420909381E+02  0.36773452700E+02  0.40378691889E+02  0.00000000000E+00 0. -1.
</event>
<event>
 7    1  0.3032584E-015  0.9000745E+02  0.7816164E-02  0.1186340E+00
        -11   -1    0    0    0    0  0.00000000000E+00  0.00000000000E+00  0.45593999997E+02  0.45594000000E+02  0.51100000000E-03 0.  1.
         11   -1    0    0    0    0 -0.00000000000E+00 -0.00000000000E+00 -0.45593999997E+02  0.45594000000E+02  0.51100000000E-03 0. -1.
    9900012    2    1    2    0    0  0.10062571013E+01  0.18105310015E+00 -0.59022585564E+00  0.90007449222E+02  0.89999706751E+02 0.  0.
         12    1    1    2    0    0 -0.10062571013E+01 -0.18105310015E+00  0.59022585564E+00  0.11805507781E+01  0.00000000000E+00 0. -1.
         11    1    3    3    0    0  0.14729106178E+02 -0.11367814783E+02 -0.13180604225E+02  0.22801362015E+02  0.51100000000E-03 0. -1.
        -11    1    3    3    0    0  0.23287935414E+02 -0.74012618345E+01  0.47642846688E+01  0.24895883621E+02  0.51100000000E-03 0.  1.
        -12    1    3    3    0    0 -0.37010784491E+02  0.18950129717E+02  0.78260937007E+01  0.42310203586E+02  0.00000000000E+00 0.  1.
</event>
<event>
 7    1  0.3032584E-015  0.9000755E+02  0.7816164E-02  0.1186339E+00
        -11   -1    0    0    0    0  0.00000000000E+00  0.00000000000E+00  0.45593999997E+02  0.45594000000E+02  0.51100000000E-03 0. -1.
         11   -1    0    0    0    0 -0.00000000000E+00 -0.00000000000E+00 -0.45593999997E+02  0.45594000000E+02  0.51100000000E-03 0.  1.
    9900012    2    1    2    0    0 -0.63825377552E+00  0.55669549638E+00 -0.82231004153E+00  0.90007546036E+02  0.89999804843E+02 0.  0.
         12    1    1    2    0    0  0.63825377552E+00 -0.55669549638E+00  0.82231004153E+00  0.11804539644E+01  0.00000000000E+00 0. -1.
         11    1    3    3    0    0 -0.30591574024E+02  0.13011633982E+02 -0.14577883570E+02  0.36299610326E+02  0.51100000000E-03 0. -1.
        -11    1    3    3    0    0 -0.88216521332E+01 -0.46396403313E+00 -0.36348468933E+01  0.95524301192E+01  0.51100000000E-03 0.  1.
        -12    1    3    3    0    0  0.38774972381E+02 -0.11990974453E+02  0.17390420422E+02  0.44155505591E+02  0.00000000000E+00 0.  1.
</event>
<event>
 7    1  0.3032584E-015  0.9000839E+02  0.7816164E-02  0.1186338E+00
        -11   -1    0    0    0    0  0.00000000000E+00  0.00000000000E+00  0.45593999997E+02  0.45594000000E+02  0.51100000000E-03 0.  1.
         11   -1    0    0    0    0 -0.00000000000E+00 -0.00000000000E+00 -0.45593999997E+02  0.45594000000E+02  0.51100000000E-03 0. -1.
    9900012    2    1    2    0    0 -0.55413779638E+00 -0.56586721938E+00  0.87419171415E+00  0.90008387538E+02  0.90000657451E+02 0.  0.
         12    1    1    2    0    0  0.55413779638E+00  0.56586721938E+00 -0.87419171415E+00  0.11796124620E+01  0.00000000000E+00 0. -1.
         11    1    3    3    0    0  0.60951025218E+01  0.43067582702E+01  0.71451705831E+01  0.10332081323E+02  0.51100000000E-03 0. -1.
        -11    1    3    3    0    0  0.24074196864E+02 -0.25673879475E+02  0.13425998542E+02  0.37669251108E+02  0.51100000000E-03 0.  1.
         12    1    3    3    0    0 -0.30723437182E+02  0.20801253985E+02 -0.19696977411E+02  0.42007055107E+02  0.00000000000E+00 0. -1.
</event>
<event>
 7    1  0.3032584E-015  0.9000765E+02  0.7816164E-02  0.1186339E+00
        -11   -1    0    0    0    0  0.00000000000E+00  0.00000000000E+00  0.45593999997E+02  0.45594000000E+02  0.51100000000E-03 0. -1.
         11   -1    0    0    0    0 -0.00000000000E+00 -0.00000000000E+00 -0.45593999997E+02  0.45594000000E+02  0.51100000000E-03 0.  1.
    9900012    2    1    2    0    0 -0.13933897272E-01  0.19467901006E+00 -0.11641061863E+01  0.90007645272E+02  0.89999905390E+02 0.  0.
         12    1    1    2    0    0  0.13933897272E-01 -0.19467901006E+00  0.11641061863E+01  0.11803547278E+01  0.00000000000E+00 0. -1.
         11    1    3    3    0    0 -0.80792289942E+01 -0.81615034594E+00 -0.53542437649E+01  0.97266627927E+01  0.51100000000E-03 0. -1.
        -11    1    3    3    0    0 -0.35057337131E+02 -0.69707336207E+01  0.66499850077E+01  0.36356984401E+02  0.51100000000E-03 0.  1.
         12    1    3    3    0    0  0.43122632228E+02  0.79815629767E+01 -0.24598474291E+01  0.43923998078E+02  0.00000000000E+00 0. -1.
</event>
<event>
 7    1  0.3032584E-015  0.9000720E+02  0.7816164E-02  0.1186340E+00
        -11   -1    0    0    0    0  0.00000000000E+00  0.00000000000E+00  0.45593999997E+02  0.45594000000E+02  0.51100000000E-03 0.  1.
         11   -1    0    0    0    0 -0.00000000000E+00 -0.00000000000E+00 -0.45593999997E+02  0.45594000000E+02  0.51100000000E-03 0. -1.
    9900012    2    1    2    0    0 -0.11456651860E+01 -0.20550704645E+00 -0.19874550763E+00  0.90007202964E+02  0.89999457241E+02 0.  0.
         12    1    1    2    0    0  0.11456651860E+01  0.20550704645E+00  0.19874550763E+00  0.11807970364E+01  0.00000000000E+00 0. -1.
         11    1    3    3    0    0 -0.29693036981E+02 -0.88008074304E+01 -0.20119605414E+02  0.36931411818E+02  0.51100000000E-03 0. -1.
        -11    1    3    3    0    0 -0.88404466529E+01  0.76719828065E+01  0.33916499877E+01  0.12186718472E+02  0.51100000000E-03 0.  1.
        -12    1    3    3    0    0  0.37387818448E+02  0.92331757737E+00  0.16529209919E+02  0.40889072674E+02  0.00000000000E+00 0.  1.
</event>
<event>
 7    1  0.3032584E-015  0.9000777E+02  0.7816164E-02  0.1186339E+00
        -11   -1    0    0    0    0  0.00000000000E+00  0.00000000000E+00  0.45593999997E+02  0.45594000000E+02  0.51100000000E-03 0.  1.
         11   -1    0    0    0    0 -0.00000000000E+00 -0.00000000000E+00 -0.45593999997E+02  0.45594000000E+02  0.51100000000E-03 0. -1.
    9900012    2    1    2    0    0 -0.96649979473E+00 -0.29038234396E+00 -0.61196844878E+00  0.90007767336E+02  0.90000029065E+02 0.  0.
         12    1    1    2    0    0  0.96649979473E+00  0.29038234396E+00  0.61196844878E+00  0.11802326640E+01  0.00000000000E+00 0. -1.
         11    1    3    3    0    0 -0.68085035793E+01 -0.47044924999E+01 -0.27511854663E+01  0.87210660130E+01  0.51100000000E-03 0. -1.
        -11    1    3    3    0    0 -0.22894478389E+02 -0.23080555848E+02  0.19480525011E+02  0.37899341075E+02  0.51100000000E-03 0.  1.
         12    1    3    3    0    0  0.28736482173E+02  0.27494666004E+02 -0.17341307994E+02  0.43387360248E+02  0.00000000000E+00 0. -1.
</event>
<event>
 8    1  0.3032584E-015  0.9000767E+02  0.7816164E-02  0.1186339E+00
        -11   -1    0    0    0    0  0.00000000000E+00  0.00000000000E+00  0.45593999997E+02  0.45594000000E+02  0.51100000000E-03 0. -1.
         11   -1    0    0    0    0 -0.00000000000E+00 -0.00000000000E+00 -0.45593999997E+02  0.45594000000E+02  0.51100000000E-03 0.  1.
    9900012    2    1    2    0    0  0.95547673585E+00  0.64433504733E+00 -0.25509910592E+00  0.90007669961E+02  0.89999930405E+02 0.  0.
         23    2    3    3    0    0 -0.57017749497E+01  0.26223944914E+02  0.60960885998E+01  0.62823611651E+02  0.56475112751E+02 0.  0.
         12    1    1    2    0    0 -0.95547673585E+00 -0.64433504733E+00  0.25509910592E+00  0.11803300385E+01  0.00000000000E+00 0. -1.
         11    1    4    4    0    0 -0.27721928447E+02 -0.70575231280E+00  0.21514771531E+01  0.27814245583E+02  0.51100000000E-03 0. -1.
        -11    1    4    4    0    0  0.22020153497E+02  0.26929697227E+02  0.39446114467E+01  0.35009366068E+02  0.51100000000E-03 0.  1.
         12    1    3    3    0    0  0.66572516855E+01 -0.25579609867E+02 -0.63511877057E+01  0.27184058311E+02  0.00000000000E+00 0. -1.
</event>
<event>
 7    1  0.3032584E-015  0.9000770E+02  0.7816164E-02  0.1186339E+00
        -11   -1    0    0    0    0  0.00000000000E+00  0.00000000000E+00  0.45593999997E+02  0.45594000000E+02  0.51100000000E-03 0.  1.
         11   -1    0    0    0    0 -0.00000000000E+00 -0.00000000000E+00 -0.45593999997E+02  0.45594000000E+02  0.51100000000E-03 0. -1.
    9900012    2    1    2    0    0 -0.83149805096E-01  0.61509622877E+00  0.10039126894E+01  0.90007704296E+02  0.89999965193E+02 0.  0.
         12    1    1    2    0    0  0.83149805096E-01 -0.61509622877E+00 -0.10039126894E+01  0.11802957039E+01  0.00000000000E+00 0. -1.
         11    1    3    3    0    0  0.10195055046E+02 -0.10854334997E+01 -0.47137061410E+00  0.10263503485E+02  0.51100000000E-03 0. -1.
        -11    1    3    3    0    0  0.27339896945E+02  0.14698931907E+02 -0.17519341001E+02  0.35643454849E+02  0.51100000000E-03 0.  1.
         12    1    3    3    0    0 -0.37618101796E+02 -0.12998402179E+02  0.18994624304E+02  0.44100745962E+02  0.00000000000E+00 0. -1.
</event>
<event>
 7    1  0.3032584E-015  0.9000756E+02  0.7816164E-02  0.1186339E+00
        -11   -1    0    0    0    0  0.00000000000E+00  0.00000000000E+00  0.45593999997E+02  0.45594000000E+02  0.51100000000E-03 0.  1.
         11   -1    0    0    0    0 -0.00000000000E+00 -0.00000000000E+00 -0.45593999997E+02  0.45594000000E+02  0.51100000000E-03 0. -1.
    9900012    2    1    2    0    0 -0.29824775281E+00  0.41740600008E+00  0.10631361170E+01  0.90007560296E+02  0.89999819292E+02 0.  0.
         12    1    1    2    0    0  0.29824775281E+00 -0.41740600008E+00 -0.10631361170E+01  0.11804397038E+01  0.00000000000E+00 0. -1.
         11    1    3    3    0    0 -0.16244576513E+02 -0.90685006245E+01  0.17640886558E+02  0.25638347226E+02  0.51100000000E-03 0. -1.
        -11    1    3    3    0    0  0.16665752753E+02 -0.15603091489E+02  0.12442682309E+02  0.26000463883E+02  0.51100000000E-03 0.  1.
        -12    1    3    3    0    0 -0.71942399237E+00  0.25088998113E+02 -0.29020432750E+02  0.38368749187E+02  0.00000000000E+00 0.  1.
</event>
<event>
 7    1  0.3032584E-015  0.9000766E+02  0.7816164E-02  0.1186339E+00
        -11   -1    0    0    0    0  0.00000000000E+00  0.00000000000E+00  0.45593999997E+02  0.45594000000E+02  0.51100000000E-03 0. -1.
         11   -1    0    0    0    0 -0.00000000000E+00 -0.00000000000E+00 -0.45593999997E+02  0.45594000000E+02  0.51100000000E-03 0.  1.
    9900012    2    1    2    0    0  0.84688482523E+00  0.12313600245E+00 -0.81291238088E+00  0.90007659828E+02  0.89999920138E+02 0.  0.
         12    1    1    2    0    0 -0.84688482523E+00 -0.12313600245E+00  0.81291238088E+00  0.11803401719E+01  0.00000000000E+00 0. -1.
         11    1    3    3    0    0 -0.66247649867E+01 -0.75664035781E+01  0.24857652462E+01  0.10359392036E+02  0.51100000000E-03 0. -1.
        -11    1    3    3    0    0 -0.17521645374E+02 -0.29772544710E+02 -0.14380817117E+01  0.34575722037E+02  0.51100000000E-03 0.  1.
         12    1    3    3    0    0  0.24993295186E+02  0.37462084291E+02 -0.18605959154E+01  0.45072545755E+02  0.00000000000E+00 0. -1.
</event>
<event>
 7    1  0.3032584E-015  0.9000781E+02  0.7816164E-02  0.1186339E+00
        -11   -1    0    0    0    0  0.00000000000E+00  0.00000000000E+00  0.45593999997E+02  0.45594000000E+02  0.51100000000E-03 0. -1.
         11   -1    0    0    0    0 -0.00000000000E+00 -0.00000000000E+00 -0.45593999997E+02  0.45594000000E+02  0.51100000000E-03 0.  1.
    9900012    2    1    2    0    0  0.26349226998E+00  0.34066404645E+00 -0.10988079555E+01  0.90007805486E+02  0.90000067718E+02 0.  0.
         12    1    1    2    0    0 -0.26349226998E+00 -0.34066404645E+00  0.10988079555E+01  0.11801945145E+01  0.00000000000E+00 0. -1.
         11    1    3    3    0    0 -0.20148598383E+01  0.36621574692E+01 -0.76292117819E+01  0.86991913516E+01  0.51100000000E-03 0. -1.
        -11    1    3    3    0    0 -0.14045936622E+02  0.22908069225E+02 -0.25330654829E+02  0.36928444938E+02  0.51100000000E-03 0.  1.
         12    1    3    3    0    0  0.16324288730E+02 -0.26229562648E+02  0.31861058655E+02  0.44380169196E+02  0.00000000000E+00 0. -1.
</event>
<event>
 7    1  0.3032584E-015  0.9000770E+02  0.7816164E-02  0.1186339E+00
        -11   -1    0    0    0    0  0.00000000000E+00  0.00000000000E+00  0.45593999997E+02  0.45594000000E+02  0.51100000000E-03 0. -1.
         11   -1    0    0    0    0 -0.00000000000E+00 -0.00000000000E+00 -0.45593999997E+02  0.45594000000E+02  0.51100000000E-03 0.  1.
    9900012    2    1    2    0    0  0.10466238517E+01 -0.44897312480E+00 -0.31001692289E+00  0.90007699680E+02  0.89999960515E+02 0.  0.
         12    1    1    2    0    0 -0.10466238517E+01  0.44897312480E+00  0.31001692289E+00  0.11803003203E+01  0.00000000000E+00 0. -1.
         11    1    3    3    0    0 -0.64832426562E+01 -0.48971497089E+01  0.90516112308E+01  0.12163312737E+02  0.51100000000E-03 0. -1.
        -11    1    3    3    0    0  0.23211765880E+02 -0.81576986373E+01  0.26850370793E+02  0.36418079773E+02  0.51100000000E-03 0.  1.
         12    1    3    3    0    0 -0.15681899372E+02  0.12605875221E+02 -0.36211998947E+02  0.41426307170E+02  0.00000000000E+00 0. -1.
</event>
<event>
 7    1  0.3032584E-015  0.9000770E+02  0.7816164E-02  0.1186339E+00
        -11   -1    0    0    0    0  0.00000000000E+00  0.00000000000E+00  0.45593999997E+02  0.45594000000E+02  0.51100000000E-03 0.  1.
         11   -1    0    0    0    0 -0.00000000000E+00 -0.00000000000E+00 -0.45593999997E+02  0.45594000000E+02  0.51100000000E-03 0. -1.
    9900012    2    1    2    0    0  0.53648755641E+00 -0.10214897848E+01 -0.24869551534E+00  0.90007699302E+02  0.89999960133E+02 0.  0.
         12    1    1    2    0    0 -0.53648755641E+00  0.10214897848E+01  0.24869551534E+00  0.11803006981E+01  0.00000000000E+00 0. -1.
         11    1    3    3    0    0  0.24139219115E+02 -0.20737325405E+02  0.20647440153E+02  0.37934883018E+02  0.51100000000E-03 0. -1.
        -11    1    3    3    0    0  0.32996140971E+01 -0.70599682418E+01  0.15932712460E+01  0.79541887260E+01  0.51100000000E-03 0.  1.
        -12    1    3    3    0    0 -0.26902345655E+02  0.26775803862E+02 -0.22489406915E+02  0.44118627558E+02  0.00000000000E+00 0.  1.
</event>
<event>
 7    1  0.3032584E-015  0.9000737E+02  0.7816164E-02  0.1186340E+00
        -11   -1    0    0    0    0  0.00000000000E+00  0.00000000000E+00  0.45593999997E+02  0.45594000000E+02  0.51100000000E-03 0.  1.
         11   -1    0    0    0    0 -0.00000000000E+00 -0.00000000000E+00 -0.45593999997E+02  0.45594000000E+02  0.51100000000E-03 0. -1.
    9900012    2    1    2    0    0 -0.72917936981E+00  0.91971562414E+00  0.12770283279E+00  0.90007369916E+02  0.89999626398E+02 0.  0.
         12    1    1    2    0    0  0.72917936981E+00 -0.91971562414E+00 -0.12770283279E+00  0.11806300844E+01  0.00000000000E+00 0. -1.
         11    1    3    3    0    0 -0.92881009084E+01  0.76067585483E+01 -0.32230433106E+02  0.34393784504E+02  0.51100000000E-03 0. -1.
        -11    1    3    3    0    0 -0.13176087610E+02 -0.23988537066E+01 -0.31527918511E+01  0.13758774674E+02  0.51100000000E-03 0.  1.
        -12    1    3    3    0    0  0.21735009148E+02 -0.42881892176E+01  0.35510927789E+02  0.41854810738E+02  0.00000000000E+00 0.  1.
</event>
<event>
 7    1  0.3032584E-015  0.9000765E+02  0.7816164E-02  0.1186339E+00
        -11   -1    0    0    0    0  0.00000000000E+00  0.00000000000E+00  0.45593999997E+02  0.45594000000E+02  0.51100000000E-03 0. -1.
         11   -1    0    0    0    0 -0.00000000000E+00 -0.00000000000E+00 -0.45593999997E+02  0.45594000000E+02  0.51100000000E-03 0.  1.
    9900012    2    1    2    0    0  0.89562211732E-01 -0.10445009637E+01  0.54242123458E+00  0.90007650709E+02  0.89999910898E+02 0.  0.
         12    1    1    2    0    0 -0.89562211732E-01  0.10445009637E+01 -0.54242123458E+00  0.11803492909E+01  0.00000000000E+00 0. -1.
         11    1    3    3    0    0  0.68729077768E+01  0.21282432416E+01  0.68988762242E+01  0.99679874609E+01  0.51100000000E-03 0. -1.
        -11    1    3    3    0    0 -0.64881395704E+00 -0.13848646509E+02  0.34599047107E+02  0.37273315262E+02  0.51100000000E-03 0.  1.
         12    1    3    3    0    0 -0.61345316080E+01  0.10675902304E+02 -0.40955502097E+02  0.42766347986E+02  0.00000000000E+00 0. -1.
</event>
<event>
 7    1  0.3032584E-015  0.9000780E+02  0.7816164E-02  0.1186339E+00
        -11   -1    0    0    0    0  0.00000000000E+00  0.00000000000E+00  0.45593999997E+02  0.45594000000E+02  0.51100000000E-03 0. -1.
         11   -1    0    0    0    0 -0.00000000000E+00 -0.00000000000E+00 -0.45593999997E+02  0.45594000000E+02  0.51100000000E-03 0.  1.
    9900012    2    1    2    0    0  0.51706040756E+00  0.84559171618E+00 -0.64069019839E+00  0.90007804785E+02  0.90000067008E+02 0.  0.
         12    1    1    2    0    0 -0.51706040756E+00 -0.84559171618E+00  0.64069019839E+00  0.11801952151E+01  0.00000000000E+00 0. -1.
         11    1    3    3    0    0 -0.24204881818E+01  0.72675516144E+01  0.30475429809E+01  0.82440031531E+01  0.51100000000E-03 0. -1.
        -11    1    3    3    0    0 -0.34057878346E+02  0.49193267712E+01 -0.19966502924E+02  0.39784420224E+02  0.51100000000E-03 0.  1.
         12    1    3    3    0    0  0.36995426935E+02 -0.11341286669E+02  0.16278269745E+02  0.41979381407E+02  0.00000000000E+00 0. -1.
</event>
<event>
 7    1  0.3032584E-015  0.9000764E+02  0.7816164E-02  0.1186339E+00
        -11   -1    0    0    0    0  0.00000000000E+00  0.00000000000E+00  0.45593999997E+02  0.45594000000E+02  0.51100000000E-03 0. -1.
         11   -1    0    0    0    0 -0.00000000000E+00 -0.00000000000E+00 -0.45593999997E+02  0.45594000000E+02  0.51100000000E-03 0.  1.
    9900012    2    1    2    0    0  0.23304489779E+00  0.10216341484E+01 -0.54332926268E+00  0.90007638638E+02  0.89999898668E+02 0.  0.
         12    1    1    2    0    0 -0.23304489779E+00 -0.10216341484E+01  0.54332926268E+00  0.11803613621E+01  0.00000000000E+00 0. -1.
         11    1    3    3    0    0 -0.33590680062E+02  0.15468958786E+02  0.70265849452E+01  0.37642998940E+02  0.51100000000E-03 0. -1.
        -11    1    3    3    0    0  0.23035160492E+01  0.10252959332E+02  0.30366255807E+01  0.10938485107E+02  0.51100000000E-03 0.  1.
        -12    1    3    3    0    0  0.31520208910E+02 -0.24700283970E+02 -0.10606539789E+02  0.41426154591E+02  0.00000000000E+00 0.  1.
</event>
<event>
 7    1  0.4633453E-015  0.9000779E+02  0.7816164E-02  0.1186339E+00
        -11   -1    0    0    0    0  0.00000000000E+00  0.00000000000E+00  0.45593999997E+02  0.45594000000E+02  0.51100000000E-03 0. -1.
         11   -1    0    0    0    0 -0.00000000000E+00 -0.00000000000E+00 -0.45593999997E+02  0.45594000000E+02  0.51100000000E-03 0.  1.
    9900012    2    1    2    0    0 -0.45867155393E+00 -0.52879302370E+00 -0.95021217287E+00  0.90007786108E+02  0.90000048085E+02 0.  0.
         12    1    1    2    0    0  0.45867155393E+00  0.52879302370E+00  0.95021217287E+00  0.11802138915E+01  0.00000000000E+00 0. -1.
         11    1    3    3    0    0  0.14384073896E+02 -0.30306844470E+01  0.38990538373E+02  0.41669517791E+02  0.51100000000E-03 0. -1.
        -11    1    3    3    0    0  0.14947193443E+00 -0.77132131989E+01 -0.57120021122E+01  0.95991128810E+01  0.51100000000E-03 0.  1.
        -12    1    3    3    0    0 -0.14992217384E+02  0.10215104622E+02 -0.34228748434E+02  0.38739155436E+02  0.00000000000E+00 0.  1.
</event>
<event>
 7    1  0.3032584E-015  0.9000771E+02  0.7816164E-02  0.1186339E+00
        -11   -1    0    0    0    0  0.00000000000E+00  0.00000000000E+00  0.45593999997E+02  0.45594000000E+02  0.51100000000E-03 0.  1.
         11   -1    0    0    0    0 -0.00000000000E+00 -0.00000000000E+00 -0.45593999997E+02  0.45594000000E+02  0.51100000000E-03 0. -1.
    9900012    2    1    2    0    0  0.53907812914E+00  0.99816384802E+00  0.32581358430E+00  0.90007707329E+02  0.89999968266E+02 0.  0.
         12    1    1    2    0    0 -0.53907812914E+00 -0.99816384802E+00 -0.32581358430E+00  0.11802926707E+01  0.00000000000E+00 0. -1.
         11    1    3    3    0    0 -0.41780640423E+01  0.46323201535E+01 -0.35249050104E+01  0.71651632738E+01  0.51100000000E-03 0. -1.
        -11    1    3    3    0    0  0.25821586708E+02  0.28169332391E+02  0.17863739574E+02  0.42182683880E+02  0.51100000000E-03 0.  1.
         12    1    3    3    0    0 -0.21104444536E+02 -0.31803488697E+02 -0.14013020980E+02  0.40659860175E+02  0.00000000000E+00 0. -1.
</event>
<event>
 7    1  0.3032584E-015  0.9000774E+02  0.7816164E-02  0.1186339E+00
        -11   -1    0    0    0    0  0.00000000000E+00  0.00000000000E+00  0.45593999997E+02  0.45594000000E+02  0.51100000000E-03 0. -1.
         11   -1    0    0    0    0 -0.00000000000E+00 -0.00000000000E+00 -0.45593999997E+02  0.45594000000E+02  0.51100000000E-03 0.  1.
    9900012    2    1    2    0    0  0.83822093208E+00 -0.74067758512E+00  0.37656045275E+00  0.90007739270E+02  0.90000000628E+02 0.  0.
         12    1    1    2    0    0 -0.83822093208E+00  0.74067758512E+00 -0.37656045275E+00  0.11802607299E+01  0.00000000000E+00 0. -1.
         11    1    3    3    0    0 -0.18396052795E+02  0.13001412408E+02 -0.76374443758E+01  0.23786173292E+02  0.51100000000E-03 0. -1.
        -11    1    3    3    0    0  0.42641235400E+01  0.23899725892E+02 -0.23985517792E+01  0.24395341731E+02  0.51100000000E-03 0.  1.
        -12    1    3    3    0    0  0.14970150187E+02 -0.37641815884E+02  0.10412556608E+02  0.41826224247E+02  0.00000000000E+00 0.  1.
</event>
<event>
 7    1  0.3032584E-015  0.9000781E+02  0.7816164E-02  0.1186339E+00
        -11   -1    0    0    0    0  0.00000000000E+00  0.00000000000E+00  0.45593999997E+02  0.45594000000E+02  0.51100000000E-03 0.  1.
         11   -1    0    0    0    0 -0.00000000000E+00 -0.00000000000E+00 -0.45593999997E+02  0.45594000000E+02  0.51100000000E-03 0. -1.
    9900012    2    1    2    0    0 -0.45784846772E+00  0.10155650229E+01  0.38967695889E+00  0.90007811173E+02  0.90000073480E+02 0.  0.
         12    1    1    2    0    0  0.45784846772E+00 -0.10155650229E+01 -0.38967695889E+00  0.11801888270E+01  0.00000000000E+00 0. -1.
         11    1    3    3    0    0  0.57061461965E+01 -0.30148676306E+01  0.61954634443E+01  0.89461331757E+01  0.51100000000E-03 0. -1.
        -11    1    3    3    0    0  0.31311910211E+02  0.22902100881E+02 -0.48091875971E+01  0.39090538899E+02  0.51100000000E-03 0.  1.
         12    1    3    3    0    0 -0.37475904875E+02 -0.18871668227E+02 -0.99659888831E+00  0.41971139098E+02  0.00000000000E+00 0. -1.
</event>
<event>
 7    1  0.3032584E-015  0.9000799E+02  0.7816164E-02  0.1186339E+00
        -11   -1    0    0    0    0  0.00000000000E+00  0.00000000000E+00  0.45593999997E+02  0.45594000000E+02  0.51100000000E-03 0.  1.
         11   -1    0    0    0    0 -0.00000000000E+00 -0.00000000000E+00 -0.45593999997E+02  0.45594000000E+02  0.51100000000E-03 0. -1.
    9900012    2    1    2    0    0  0.72611010229E+00  0.74075365361E+00  0.56255296446E+00  0.90007992503E+02  0.90000257203E+02 0.  0.
         12    1    1    2    0    0 -0.72611010229E+00 -0.74075365361E+00 -0.56255296446E+00  0.11800074974E+01  0.00000000000E+00 0. -1.
         11    1    3    3    0    0 -0.14720013430E+02 -0.22278295015E+02 -0.30297464535E+02  0.40384868226E+02  0.51100000000E-03 0. -1.
        -11    1    3    3    0    0 -0.54577701745E+01  0.13974127378E+02  0.67341954378E+01  0.16444235455E+02  0.51100000000E-03 0.  1.
        -12    1    3    3    0    0  0.20903893707E+02  0.90449212910E+01  0.24125822061E+02  0.33178888821E+02  0.00000000000E+00 0.  1.
</event>
<event>
 7    1  0.3032584E-015  0.9000779E+02  0.7816164E-02  0.1186339E+00
        -11   -1    0    0    0    0  0.00000000000E+00  0.00000000000E+00  0.45593999997E+02  0.45594000000E+02  0.51100000000E-03 0. -1.
         11   -1    0    0    0    0 -0.00000000000E+00 -0.00000000000E+00 -0.45593999997E+02  0.45594000000E+02  0.51100000000E-03 0.  1.
    9900012    2    1    2    0    0 -0.10057008476E+01 -0.57845298128E+00  0.21644434313E+00  0.90007792306E+02  0.90000054365E+02 0.  0.
         12    1    1    2    0    0  0.10057008476E+01  0.57845298128E+00 -0.21644434313E+00  0.11802076936E+01  0.00000000000E+00 0. -1.
         11    1    3    3    0    0  0.65600156806E+01 -0.17903991896E+01 -0.65238674309E+01  0.94233848221E+01  0.51100000000E-03 0. -1.
        -11    1    3    3    0    0 -0.56838086330E+01 -0.56308974965E+00 -0.36662414146E+02  0.37104654181E+02  0.51100000000E-03 0.  1.
         12    1    3    3    0    0 -0.18819078952E+01  0.17750359580E+01  0.43402725920E+02  0.43479753303E+02  0.00000000000E+00 0. -1.
</event>
<event>
 7    1  0.3032584E-015  0.9000777E+02  0.7816164E-02  0.1186339E+00
        -11   -1    0    0    0    0  0.00000000000E+00  0.00000000000E+00  0.45593999997E+02  0.45594000000E+02  0.51100000000E-03 0.  1.
         11   -1    0    0    0    0 -0.00000000000E+00 -0.00000000000E+00 -0.45593999997E+02  0.45594000000E+02  0.51100000000E-03 0. -1.
    9900012    2    1    2    0    0 -0.11503257210E+01  0.25552712768E+00 -0.66327582939E-01  0.90007770054E+02  0.90000031819E+02 0.  0.
         12    1    1    2    0    0  0.11503257210E+01 -0.25552712768E+00  0.66327582939E-01  0.11802299461E+01  0.00000000000E+00 0. -1.
         11    1    3    3    0    0 -0.12389518715E+02 -0.33105071860E+02  0.12017464780E+02  0.37334507052E+02  0.51100000000E-03 0. -1.
        -11    1    3    3    0    0  0.80878316064E+01 -0.42269920838E+00  0.94818032119E+01  0.12469815040E+02  0.51100000000E-03 0.  1.
        -12    1    3    3    0    0  0.31513613873E+01  0.33783298196E+02 -0.21565595574E+02  0.40203447962E+02  0.00000000000E+00 0.  1.
</event>
<event>
 7    1  0.3032584E-015  0.9000771E+02  0.7816164E-02  0.1186339E+00
        -11   -1    0    0    0    0  0.00000000000E+00  0.00000000000E+00  0.45593999997E+02  0.45594000000E+02  0.51100000000E-03 0.  1.
         11   -1    0    0    0    0 -0.00000000000E+00 -0.00000000000E+00 -0.45593999997E+02  0.45594000000E+02  0.51100000000E-03 0. -1.
    9900012    2    1    2    0    0 -0.30708655475E+00 -0.35488817832E-01  0.11390862031E+01  0.90007712329E+02  0.89999973332E+02 0.  0.
         12    1    1    2    0    0  0.30708655475E+00  0.35488817832E-01 -0.11390862031E+01  0.11802876710E+01  0.00000000000E+00 0. -1.
         11    1    3    3    0    0 -0.94685931600E+01 -0.19348789536E+01 -0.52307472444E+00  0.96784100152E+01  0.51100000000E-03 0. -1.
        -11    1    3    3    0    0 -0.22604595581E+02 -0.14165212336E+02  0.25965722572E+02  0.37226868400E+02  0.51100000000E-03 0.  1.
         12    1    3    3    0    0  0.31766102186E+02  0.16064602472E+02 -0.24303561644E+02  0.43102433914E+02  0.00000000000E+00 0. -1.
</event>
<event>
 7    1  0.3032584E-015  0.9000774E+02  0.7816164E-02  0.1186339E+00
        -11   -1    0    0    0    0  0.00000000000E+00  0.00000000000E+00  0.45593999997E+02  0.45594000000E+02  0.51100000000E-03 0. -1.
         11   -1    0    0    0    0 -0.00000000000E+00 -0.00000000000E+00 -0.45593999997E+02  0.45594000000E+02  0.51100000000E-03 0.  1.
    9900012    2    1    2    0    0 -0.42848619602E+00 -0.25678094690E+00 -0.10693301167E+01  0.90007744192E+02  0.90000005615E+02 0.  0.
         12    1    1    2    0    0  0.42848619602E+00  0.25678094690E+00  0.10693301167E+01  0.11802558084E+01  0.00000000000E+00 0. -1.
         11    1    3    3    0    0  0.22403134448E+02  0.11015719028E+02  0.18694451688E+02  0.31188604056E+02  0.51100000000E-03 0. -1.
        -11    1    3    3    0    0 -0.14716530976E+02 -0.10724850396E+02  0.14703648606E+02  0.23405041820E+02  0.51100000000E-03 0.  1.
         12    1    3    3    0    0 -0.81150896680E+01 -0.54764957861E+00 -0.34467430411E+02  0.35414098316E+02  0.00000000000E+00 0. -1.
</event>
<event>
 7    1  0.3032584E-015  0.9000770E+02  0.7816164E-02  0.1186339E+00
        -11   -1    0    0    0    0  0.00000000000E+00  0.00000000000E+00  0.45593999997E+02  0.45594000000E+02  0.51100000000E-03 0.  1.
         11   -1    0    0    0    0 -0.00000000000E+00 -0.00000000000E+00 -0.45593999997E+02  0.45594000000E+02  0.51100000000E-03 0. -1.
    9900012    2    1    2    0    0  0.82905523040E-01 -0.21775158150E+00  0.11570734377E+01  0.90007700031E+02  0.89999960871E+02 0.  0.
         12    1    1    2    0    0 -0.82905523040E-01  0.21775158150E+00 -0.11570734377E+01  0.11802999691E+01  0.00000000000E+00 0. -1.
         11    1    3    3    0    0  0.12262167144E+02  0.57650525754E+01  0.60614538147E+01  0.14843779737E+02  0.51100000000E-03 0. -1.
        -11    1    3    3    0    0  0.24738599017E+02  0.17870755411E+02 -0.64116059937E+01  0.31184465235E+02  0.51100000000E-03 0.  1.
         12    1    3    3    0    0 -0.36917860639E+02 -0.23853559568E+02  0.15072256167E+01  0.43979455059E+02  0.00000000000E+00 0. -1.
</event>
<event>
 7    1  0.3032584E-015  0.9000772E+02  0.7816164E-02  0.1186339E+00
        -11   -1    0    0    0    0  0.00000000000E+00  0.00000000000E+00  0.45593999997E+02  0.45594000000E+02  0.51100000000E-03 0. -1.
         11   -1    0    0    0    0 -0.00000000000E+00 -0.00000000000E+00 -0.45593999997E+02  0.45594000000E+02  0.51100000000E-03 0.  1.
    9900012    2    1    2    0    0  0.66090339796E-01  0.11759953120E+01  0.75745809146E-01  0.90007715994E+02  0.89999977045E+02 0.  0.
         12    1    1    2    0    0 -0.66090339796E-01 -0.11759953120E+01 -0.75745809146E-01  0.11802840058E+01  0.00000000000E+00 0. -1.
         11    1    3    3    0    0  0.17332402154E+02 -0.10530855457E+02  0.35789095080E+02  0.41135998930E+02  0.51100000000E-03 0. -1.
        -11    1    3    3    0    0 -0.42098616852E+01  0.16779167547E+01  0.38964344077E+01  0.59766664119E+01  0.51100000000E-03 0.  1.
        -12    1    3    3    0    0 -0.13056450129E+02  0.10028934014E+02 -0.39609783678E+02  0.42895050652E+02  0.00000000000E+00 0.  1.
</event>
<event>
 7    1  0.3032584E-015  0.9000775E+02  0.7816164E-02  0.1186339E+00
        -11   -1    0    0    0    0  0.00000000000E+00  0.00000000000E+00  0.45593999997E+02  0.45594000000E+02  0.51100000000E-03 0. -1.
         11   -1    0    0    0    0 -0.00000000000E+00 -0.00000000000E+00 -0.45593999997E+02  0.45594000000E+02  0.51100000000E-03 0.  1.
    9900012    2    1    2    0    0  0.87217829708E+00 -0.76046953811E+00  0.23235398700E+00  0.90007746944E+02  0.90000008404E+02 0.  0.
         12    1    1    2    0    0 -0.87217829708E+00  0.76046953811E+00 -0.23235398700E+00  0.11802530557E+01  0.00000000000E+00 0. -1.
         11    1    3    3    0    0  0.64419274999E+01  0.39150269785E+01  0.56400304120E+01  0.94146592857E+01  0.51100000000E-03 0. -1.
        -11    1    3    3    0    0 -0.26160530297E+01 -0.20251454811E+02 -0.38678748916E+02  0.43737978616E+02  0.51100000000E-03 0.  1.
         12    1    3    3    0    0 -0.29536961731E+01  0.15575958294E+02  0.33271072491E+02  0.36855109043E+02  0.00000000000E+00 0. -1.
</event>
<event>
 7    1  0.3032584E-015  0.9000774E+02  0.7816164E-02  0.1186339E+00
        -11   -1    0    0    0    0  0.00000000000E+00  0.00000000000E+00  0.45593999997E+02  0.45594000000E+02  0.51100000000E-03 0.  1.
         11   -1    0    0    0    0 -0.00000000000E+00 -0.00000000000E+00 -0.45593999997E+02  0.45594000000E+02  0.51100000000E-03 0. -1.
    9900012    2    1    2    0    0 -0.95111065342E+00 -0.66208664733E+00  0.22371347756E+00  0.90007738197E+02  0.89999999541E+02 0.  0.
         12    1    1    2    0    0  0.95111065342E+00  0.66208664733E+00 -0.22371347756E+00  0.11802618030E+01  0.00000000000E+00 0. -1.
         11    1    3    3    0    0  0.15084672732E+02  0.32623260818E+01 -0.38667801097E+02  0.41633988097E+02  0.51100000000E-03 0. -1.
        -11    1    3    3    0    0 -0.99370332050E+00 -0.94619710669E+01  0.47002702511E+01  0.10611733292E+02  0.51100000000E-03 0.  1.
        -12    1    3    3    0    0 -0.15042080065E+02  0.55375583378E+01  0.34191244324E+02  0.37762016808E+02  0.00000000000E+00 0.  1.
</event>
<event>
 7    1  0.3032584E-015  0.9000771E+02  0.7816164E-02  0.1186339E+00
        -11   -1    0    0    0    0  0.00000000000E+00  0.00000000000E+00  0.45593999997E+02  0.45594000000E+02  0.51100000000E-03 0. -1.
         11   -1    0    0    0    0 -0.00000000000E+00 -0.00000000000E+00 -0.45593999997E+02  0.45594000000E+02  0.51100000000E-03 0.  1.
    9900012    2    1    2    0    0 -0.54977178603E-01  0.10398468804E+01 -0.55568128077E+00  0.90007709480E+02  0.89999970446E+02 0.  0.
         12    1    1    2    0    0  0.54977178603E-01 -0.10398468804E+01  0.55568128077E+00  0.11802905196E+01  0.00000000000E+00 0. -1.
         11    1    3    3    0    0  0.73637695003E+01  0.60314113258E+01  0.43239281797E+01  0.10454634331E+02  0.51100000000E-03 0. -1.
        -11    1    3    3    0    0  0.30470825836E+02 -0.21124175713E+02 -0.90378082849E+01  0.38162599565E+02  0.51100000000E-03 0.  1.
         12    1    3    3    0    0 -0.37889572515E+02  0.16132611267E+02  0.41581988244E+01  0.41390475585E+02  0.00000000000E+00 0. -1.
</event>
<event>
 7    1  0.3032584E-015  0.9000768E+02  0.7816164E-02  0.1186339E+00
        -11   -1    0    0    0    0  0.00000000000E+00  0.00000000000E+00  0.45593999997E+02  0.45594000000E+02  0.51100000000E-03 0.  1.
         11   -1    0    0    0    0 -0.00000000000E+00 -0.00000000000E+00 -0.45593999997E+02  0.45594000000E+02  0.51100000000E-03 0. -1.
    9900012    2    1    2    0    0 -0.92509971394E+00  0.68576812237E+00  0.25897833412E+00  0.90007679206E+02  0.89999939772E+02 0.  0.
         12    1    1    2    0    0  0.92509971394E+00 -0.68576812237E+00 -0.25897833412E+00  0.11803207937E+01  0.00000000000E+00 0. -1.
         11    1    3    3    0    0  0.15596511390E+01  0.41106335463E+01 -0.86288570708E+01  0.96843685616E+01  0.51100000000E-03 0. -1.
        -11    1    3    3    0    0  0.28368875249E+02  0.18193392633E+02  0.22212054992E+02  0.40362953381E+02  0.51100000000E-03 0.  1.
         12    1    3    3    0    0 -0.30853626102E+02 -0.21618258057E+02 -0.13324219587E+02  0.39960357264E+02  0.00000000000E+00 0. -1.
</event>
<event>
 7    1  0.3032584E-015  0.9000775E+02  0.7816164E-02  0.1186339E+00
        -11   -1    0    0    0    0  0.00000000000E+00  0.00000000000E+00  0.45593999997E+02  0.45594000000E+02  0.51100000000E-03 0. -1.
         11   -1    0    0    0    0 -0.00000000000E+00 -0.00000000000E+00 -0.45593999997E+02  0.45594000000E+02  0.51100000000E-03 0.  1.
    9900012    2    1    2    0    0 -0.21714877669E+00 -0.55863654247E+00 -0.10167457694E+01  0.90007745647E+02  0.90000007090E+02 0.  0.
         12    1    1    2    0    0  0.21714877669E+00  0.55863654247E+00  0.10167457694E+01  0.11802543529E+01  0.00000000000E+00 0. -1.
         11    1    3    3    0    0 -0.13649356188E+01 -0.61217729312E+01  0.74501444162E+01  0.97387784218E+01  0.51100000000E-03 0. -1.
        -11    1    3    3    0    0 -0.34461241981E+02  0.11074759420E+02 -0.21323550305E+02  0.42010966342E+02  0.51100000000E-03 0.  1.
         12    1    3    3    0    0  0.35609028823E+02 -0.55116230314E+01  0.12856660119E+02  0.38258000884E+02  0.00000000000E+00 0. -1.
</event>
<event>
 7    1  0.3032584E-015  0.9000780E+02  0.7816164E-02  0.1186339E+00
        -11   -1    0    0    0    0  0.00000000000E+00  0.00000000000E+00  0.45593999997E+02  0.45594000000E+02  0.51100000000E-03 0.  1.
         11   -1    0    0    0    0 -0.00000000000E+00 -0.00000000000E+00 -0.45593999997E+02  0.45594000000E+02  0.51100000000E-03 0. -1.
    9900012    2    1    2    0    0  0.76509931202E+00  0.38383421449E-02  0.89859254532E+00  0.90007804994E+02  0.90000067220E+02 0.  0.
         12    1    1    2    0    0 -0.76509931202E+00 -0.38383421449E-02 -0.89859254532E+00  0.11801950062E+01  0.00000000000E+00 0. -1.
         11    1    3    3    0    0  0.64640555869E+01  0.36484120739E+01  0.81007777836E+01  0.10987152782E+02  0.51100000000E-03 0. -1.
        -11    1    3    3    0    0  0.43556257857E+01  0.11843588964E+02  0.32701352888E+02  0.35051684075E+02  0.51100000000E-03 0.  1.
         12    1    3    3    0    0 -0.10054582061E+02 -0.15488162696E+02 -0.39903538126E+02  0.43968968137E+02  0.00000000000E+00 0. -1.
</event>
<event>
 7    1  0.3032584E-015  0.9000778E+02  0.7816164E-02  0.1186339E+00
        -11   -1    0    0    0    0  0.00000000000E+00  0.00000000000E+00  0.45593999997E+02  0.45594000000E+02  0.51100000000E-03 0.  1.
         11   -1    0    0    0    0 -0.00000000000E+00 -0.00000000000E+00 -0.45593999997E+02  0.45594000000E+02  0.51100000000E-03 0. -1.
    9900012    2    1    2    0    0  0.15850804601E-01  0.66399787319E+00  0.97559147056E+00  0.90007778351E+02  0.90000040225E+02 0.  0.
         12    1    1    2    0    0 -0.15850804601E-01 -0.66399787319E+00 -0.97559147056E+00  0.11802216491E+01  0.00000000000E+00 0. -1.
         11    1    3    3    0    0 -0.11236285395E+02  0.35315685932E+02 -0.10344562139E+02  0.38476768944E+02  0.51100000000E-03 0. -1.
        -11    1    3    3    0    0 -0.18621125628E+01  0.39705846680E+00 -0.88272362712E+01  0.90302391481E+01  0.51100000000E-03 0.  1.
        -12    1    3    3    0    0  0.13114248762E+02 -0.35048746525E+02  0.20147389880E+02  0.42500770259E+02  0.00000000000E+00 0.  1.
</event>
<event>
 7    1  0.3032584E-015  0.9000779E+02  0.7816164E-02  0.1186339E+00
        -11   -1    0    0    0    0  0.00000000000E+00  0.00000000000E+00  0.45593999997E+02  0.45594000000E+02  0.51100000000E-03 0. -1.
         11   -1    0    0    0    0 -0.00000000000E+00 -0.00000000000E+00 -0.45593999997E+02  0.45594000000E+02  0.51100000000E-03 0.  1.
    9900012    2    1    2    0    0 -0.84770783875E+00  0.40998950140E+00 -0.71147076203E+00  0.90007792130E+02  0.90000054186E+02 0.  0.
         12    1    1    2    0    0  0.84770783875E+00 -0.40998950140E+00  0.71147076203E+00  0.11802078700E+01  0.00000000000E+00 0. -1.
         11    1    3    3    0    0 -0.38497260147E+02  0.16611143427E+02  0.96230625095E+01  0.43018280499E+02  0.51100000000E-03 0. -1.
        -11    1    3    3    0    0  0.59524746118E+01 -0.41512759923E+01  0.59381794545E+01  0.93769409651E+01  0.51100000000E-03 0.  1.
        -12    1    3    3    0    0  0.31697077696E+02 -0.12049877933E+02 -0.16272712726E+02  0.37612570666E+02  0.00000000000E+00 0.  1.
</event>
<event>
 7    1  0.3032584E-015  0.9000773E+02  0.7816164E-02  0.1186339E+00
        -11   -1    0    0    0    0  0.00000000000E+00  0.00000000000E+00  0.45593999997E+02  0.45594000000E+02  0.51100000000E-03 0.  1.
         11   -1    0    0    0    0 -0.00000000000E+00 -0.00000000000E+00 -0.45593999997E+02  0.45594000000E+02  0.51100000000E-03 0. -1.
    9900012    2    1    2    0    0  0.30989020171E+00  0.46590996194E+00  0.10392029837E+01  0.90007725934E+02  0.89999987116E+02 0.  0.
         12    1    1    2    0    0 -0.30989020171E+00 -0.46590996194E+00 -0.10392029837E+01  0.11802740661E+01  0.00000000000E+00 0. -1.
         11    1    3    3    0    0  0.28860255362E+02 -0.11016861357E+02 -0.25581395551E+02  0.40108519946E+02  0.51100000000E-03 0. -1.
        -11    1    3    3    0    0 -0.78804935219E+01  0.22319236120E+01 -0.60252423504E+01  0.10167949980E+02  0.51100000000E-03 0.  1.
        -12    1    3    3    0    0 -0.20669871638E+02  0.92508477074E+01  0.32645840885E+02  0.39731256007E+02  0.00000000000E+00 0.  1.
</event>
<event>
 7    1  0.3032584E-015  0.9000771E+02  0.7816164E-02  0.1186339E+00
        -11   -1    0    0    0    0  0.00000000000E+00  0.00000000000E+00  0.45593999997E+02  0.45594000000E+02  0.51100000000E-03 0. -1.
         11   -1    0    0    0    0 -0.00000000000E+00 -0.00000000000E+00 -0.45593999997E+02  0.45594000000E+02  0.51100000000E-03 0.  1.
    9900012    2    1    2    0    0  0.10478795624E+01  0.28015893046E+00 -0.46534395113E+00  0.90007709529E+02  0.89999970495E+02 0.  0.
         12    1    1    2    0    0 -0.10478795624E+01 -0.28015893046E+00  0.46534395113E+00  0.11802904712E+01  0.00000000000E+00 0. -1.
         11    1    3    3    0    0 -0.84782422333E+01  0.19924055577E+01  0.20585475224E+01  0.89491837302E+01  0.51100000000E-03 0. -1.
        -11    1    3    3    0    0  0.25044933635E+01 -0.40562060727E+02  0.47460099124E+01  0.40915496670E+02  0.51100000000E-03 0.  1.
         12    1    3    3    0    0  0.70216284322E+01  0.38849814100E+02 -0.72699013859E+01  0.40143029128E+02  0.00000000000E+00 0. -1.
</event>
<event>
 7    1  0.3032584E-015  0.9000777E+02  0.7816164E-02  0.1186339E+00
        -11   -1    0    0    0    0  0.00000000000E+00  0.00000000000E+00  0.45593999997E+02  0.45594000000E+02  0.51100000000E-03 0.  1.
         11   -1    0    0    0    0 -0.00000000000E+00 -0.00000000000E+00 -0.45593999997E+02  0.45594000000E+02  0.51100000000E-03 0. -1.
    9900012    2    1    2    0    0 -0.94558276315E+00  0.33134447470E+00  0.62371524001E+00  0.90007772639E+02  0.90000034438E+02 0.  0.
         12    1    1    2    0    0  0.94558276315E+00 -0.33134447470E+00 -0.62371524001E+00  0.11802273609E+01  0.00000000000E+00 0. -1.
         11    1    3    3    0    0 -0.10725876133E+02 -0.74391744234E+00 -0.24655249888E+01  0.11030713745E+02  0.51100000000E-03 0. -1.
        -11    1    3    3    0    0  0.17152284463E+02  0.15986511965E+02  0.35501554320E+02  0.42545620062E+02  0.51100000000E-03 0.  1.
         12    1    3    3    0    0 -0.73719910926E+01 -0.14911250048E+02 -0.32412314091E+02  0.36431438832E+02  0.00000000000E+00 0. -1.
</event>
<event>
 7    1  0.3032584E-015  0.9000820E+02  0.7816164E-02  0.1186338E+00
        -11   -1    0    0    0    0  0.00000000000E+00  0.00000000000E+00  0.45593999997E+02  0.45594000000E+02  0.51100000000E-03 0.  1.
         11   -1    0    0    0    0 -0.00000000000E+00 -0.00000000000E+00 -0.45593999997E+02  0.45594000000E+02  0.51100000000E-03 0. -1.
    9900012    2    1    2    0    0 -0.26391445006E+00  0.10929191838E+01  0.35749410097E+00  0.90008201199E+02  0.90000468653E+02 0.  0.
         12    1    1    2    0    0  0.26391445006E+00 -0.10929191838E+01 -0.35749410097E+00  0.11797988013E+01  0.00000000000E+00 0. -1.
         11    1    3    3    0    0 -0.10538559434E+02  0.16276624716E+02 -0.31490414047E+02  0.36981561949E+02  0.51100000000E-03 0. -1.
        -11    1    3    3    0    0 -0.99635284738E+00  0.53524343155E+00 -0.83452726136E+01  0.84215663498E+01  0.51100000000E-03 0.  1.
        -12    1    3    3    0    0  0.11270997832E+02 -0.15718948964E+02  0.40193180761E+02  0.44605072900E+02  0.00000000000E+00 0.  1.
</event>
<event>
 7    1  0.3032584E-015  0.9000776E+02  0.7816164E-02  0.1186339E+00
        -11   -1    0    0    0    0  0.00000000000E+00  0.00000000000E+00  0.45593999997E+02  0.45594000000E+02  0.51100000000E-03 0. -1.
         11   -1    0    0    0    0 -0.00000000000E+00 -0.00000000000E+00 -0.45593999997E+02  0.45594000000E+02  0.51100000000E-03 0.  1.
    9900012    2    1    2    0    0 -0.55805548155E+00  0.16416440435E+00 -0.10269307653E+01  0.90007761605E+02  0.90000023258E+02 0.  0.
         12    1    1    2    0    0  0.55805548155E+00 -0.16416440435E+00  0.10269307653E+01  0.11802383949E+01  0.00000000000E+00 0. -1.
         11    1    3    3    0    0 -0.31745173650E+02 -0.16849648803E+02  0.20355271946E+02  0.41303798991E+02  0.51100000000E-03 0. -1.
        -11    1    3    3    0    0  0.75943013604E+01 -0.65124443495E+01 -0.21475000955E+01  0.10232160157E+02  0.51100000000E-03 0.  1.
        -12    1    3    3    0    0  0.23592816808E+02  0.23526257556E+02 -0.19234702616E+02  0.38471802457E+02  0.00000000000E+00 0.  1.
</event>
<event>
 7    1  0.3032584E-015  0.9000779E+02  0.7816164E-02  0.1186339E+00
        -11   -1    0    0    0    0  0.00000000000E+00  0.00000000000E+00  0.45593999997E+02  0.45594000000E+02  0.51100000000E-03 0.  1.
         11   -1    0    0    0    0 -0.00000000000E+00 -0.00000000000E+00 -0.45593999997E+02  0.45594000000E+02  0.51100000000E-03 0. -1.
    9900012    2    1    2    0    0 -0.14223352648E-01  0.11426321407E+01  0.29509776194E+00  0.90007791035E+02  0.90000053076E+02 0.  0.
         12    1    1    2    0    0  0.14223352648E-01 -0.11426321407E+01 -0.29509776194E+00  0.11802089653E+01  0.00000000000E+00 0. -1.
         11    1    3    3    0    0 -0.62824445747E+01  0.46800281890E+01  0.64952161080E+01  0.10176424040E+02  0.51100000000E-03 0. -1.
        -11    1    3    3    0    0 -0.24179356379E+02  0.21166619080E+02  0.14769958221E+02  0.35366915391E+02  0.51100000000E-03 0.  1.
         12    1    3    3    0    0  0.30447577601E+02 -0.24704015128E+02 -0.20970076567E+02  0.44464451604E+02  0.00000000000E+00 0. -1.
</event>
<event>
 7    1  0.3032584E-015  0.9000772E+02  0.7816164E-02  0.1186339E+00
        -11   -1    0    0    0    0  0.00000000000E+00  0.00000000000E+00  0.45593999997E+02  0.45594000000E+02  0.51100000000E-03 0.  1.
         11   -1    0    0    0    0 -0.00000000000E+00 -0.00000000000E+00 -0.45593999997E+02  0.45594000000E+02  0.51100000000E-03 0. -1.
    9900012    2    1    2    0    0  0.15964833918E+00 -0.64426631910E+00  0.97596037229E+00  0.90007718114E+02  0.89999979193E+02 0.  0.
         12    1    1    2    0    0 -0.15964833918E+00  0.64426631910E+00 -0.97596037229E+00  0.11802818860E+01  0.00000000000E+00 0. -1.
         11    1    3    3    0    0  0.31323184658E+02  0.47714861233E+01 -0.26194158781E+02  0.41110131737E+02  0.51100000000E-03 0. -1.
        -11    1    3    3    0    0 -0.79659106684E+00 -0.99062743047E+01  0.72891758814E+01  0.12324808851E+02  0.51100000000E-03 0.  1.
        -12    1    3    3    0    0 -0.30366945252E+02  0.44905218623E+01  0.19880943272E+02  0.36572777525E+02  0.00000000000E+00 0.  1.
</event>
<event>
 7    1  0.3032584E-015  0.9000775E+02  0.7816164E-02  0.1186339E+00
        -11   -1    0    0    0    0  0.00000000000E+00  0.00000000000E+00  0.45593999997E+02  0.45594000000E+02  0.51100000000E-03 0.  1.
         11   -1    0    0    0    0 -0.00000000000E+00 -0.00000000000E+00 -0.45593999997E+02  0.45594000000E+02  0.51100000000E-03 0. -1.
    9900012    2    1    2    0    0 -0.11426951219E+01 -0.28949510457E+00  0.58596691602E-01  0.90007748701E+02  0.90000010184E+02 0.  0.
         12    1    1    2    0    0  0.11426951219E+01  0.28949510457E+00 -0.58596691602E-01  0.11802512993E+01  0.00000000000E+00 0. -1.
         11    1    3    3    0    0  0.16017292388E+02  0.19343390583E+02 -0.24245701218E+02  0.34908085632E+02  0.51100000000E-03 0. -1.
        -11    1    3    3    0    0  0.58745461324E+01 -0.87221282109E+01 -0.85252017417E+01  0.13537535883E+02  0.51100000000E-03 0.  1.
        -12    1    3    3    0    0 -0.23034533642E+02 -0.10910757477E+02  0.32829499651E+02  0.41562127185E+02  0.00000000000E+00 0.  1.
</event>
<event>
 7    1  0.3032584E-015  0.9000775E+02  0.7816164E-02  0.1186339E+00
        -11   -1    0    0    0    0  0.00000000000E+00  0.00000000000E+00  0.45593999997E+02  0.45594000000E+02  0.51100000000E-03 0.  1.
         11   -1    0    0    0    0 -0.00000000000E+00 -0.00000000000E+00 -0.45593999997E+02  0.45594000000E+02  0.51100000000E-03 0. -1.
    9900012    2    1    2    0    0 -0.25788322440E+00  0.11487856157E+01 -0.82307264671E-01  0.90007751452E+02  0.90000012972E+02 0.  0.
         12    1    1    2    0    0  0.25788322440E+00 -0.11487856157E+01  0.82307264671E-01  0.11802485476E+01  0.00000000000E+00 0. -1.
         11    1    3    3    0    0  0.33569374571E+01  0.90523302409E+01  0.46629516273E-01  0.96548374639E+01  0.51100000000E-03 0. -1.
        -11    1    3    3    0    0 -0.32363911231E+02  0.21723948735E+02  0.18458697052E+01  0.39022556733E+02  0.51100000000E-03 0.  1.
         12    1    3    3    0    0  0.28749090549E+02 -0.29627493360E+02 -0.19748064861E+01  0.41330357255E+02  0.00000000000E+00 0. -1.
</event>
<event>
 7    1  0.3032584E-015  0.9000763E+02  0.7816164E-02  0.1186339E+00
        -11   -1    0    0    0    0  0.00000000000E+00  0.00000000000E+00  0.45593999997E+02  0.45594000000E+02  0.51100000000E-03 0. -1.
         11   -1    0    0    0    0 -0.00000000000E+00 -0.00000000000E+00 -0.45593999997E+02  0.45594000000E+02  0.51100000000E-03 0.  1.
    9900012    2    1    2    0    0  0.28218822752E-01  0.86463790113E+00  0.80304373691E+00  0.90007629615E+02  0.89999889526E+02 0.  0.
         12    1    1    2    0    0 -0.28218822752E-01 -0.86463790113E+00 -0.80304373691E+00  0.11803703848E+01  0.00000000000E+00 0. -1.
         11    1    3    3    0    0  0.82833704702E+01 -0.16184630491E+01 -0.44448191334E+01  0.95388713366E+01  0.51100000000E-03 0. -1.
        -11    1    3    3    0    0  0.23154706161E+02 -0.67372459912E+01 -0.25825530676E+02  0.35333962924E+02  0.51100000000E-03 0.  1.
         12    1    3    3    0    0 -0.31409857808E+02  0.92203469414E+01  0.31073393546E+02  0.45134795355E+02  0.00000000000E+00 0. -1.
</event>
<event>
 7    1  0.3032584E-015  0.9000781E+02  0.7816164E-02  0.1186339E+00
        -11   -1    0    0    0    0  0.00000000000E+00  0.00000000000E+00  0.45593999997E+02  0.45594000000E+02  0.51100000000E-03 0. -1.
         11   -1    0    0    0    0 -0.00000000000E+00 -0.00000000000E+00 -0.45593999997E+02  0.45594000000E+02  0.51100000000E-03 0.  1.
    9900012    2    1    2    0    0 -0.98460421448E+00 -0.13376082772E+00 -0.63679694739E+00  0.90007810282E+02  0.90000072578E+02 0.  0.
         12    1    1    2    0    0  0.98460421448E+00  0.13376082772E+00  0.63679694739E+00  0.11801897180E+01  0.00000000000E+00 0. -1.
         11    1    3    3    0    0 -0.50008019798E+01 -0.75710501657E+01 -0.38696151617E+01  0.98642152660E+01  0.51100000000E-03 0. -1.
        -11    1    3    3    0    0 -0.36462440787E+01  0.43168501250E+02 -0.11545260231E+01  0.43337599456E+02  0.51100000000E-03 0.  1.
         12    1    3    3    0    0  0.76624418440E+01 -0.35731211912E+02  0.43873442374E+01  0.36805995560E+02  0.00000000000E+00 0. -1.
</event>
<event>
 7    1  0.3032584E-015  0.9000707E+02  0.7816164E-02  0.1186340E+00
        -11   -1    0    0    0    0  0.00000000000E+00  0.00000000000E+00  0.45593999997E+02  0.45594000000E+02  0.51100000000E-03 0.  1.
         11   -1    0    0    0    0 -0.00000000000E+00 -0.00000000000E+00 -0.45593999997E+02  0.45594000000E+02  0.51100000000E-03 0. -1.
    9900012    2    1    2    0    0 -0.11695042677E+01 -0.45155913823E-01  0.15750698834E+00  0.90007073355E+02  0.89999325921E+02 0.  0.
         12    1    1    2    0    0  0.11695042677E+01  0.45155913823E-01 -0.15750698834E+00  0.11809266447E+01  0.00000000000E+00 0. -1.
         11    1    3    3    0    0  0.10343765929E+02  0.14935280987E+02  0.19943657288E+01  0.18276586297E+02  0.51100000000E-03 0. -1.
        -11    1    3    3    0    0  0.14636992913E+01 -0.35993701007E+01  0.32800928583E+02  0.33030270918E+02  0.51100000000E-03 0.  1.
         12    1    3    3    0    0 -0.12976969488E+02 -0.11381066800E+02 -0.34637787324E+02  0.38700216140E+02  0.00000000000E+00 0. -1.
</event>
<event>
 7    1  0.3032584E-015  0.9000776E+02  0.7816164E-02  0.1186339E+00
        -11   -1    0    0    0    0  0.00000000000E+00  0.00000000000E+00  0.45593999997E+02  0.45594000000E+02  0.51100000000E-03 0. -1.
         11   -1    0    0    0    0 -0.00000000000E+00 -0.00000000000E+00 -0.45593999997E+02  0.45594000000E+02  0.51100000000E-03 0.  1.
    9900012    2    1    2    0    0 -0.82733055715E+00 -0.17467859494E+00 -0.82338765541E+00  0.90007764560E+02  0.90000026252E+02 0.  0.
         12    1    1    2    0    0  0.82733055715E+00  0.17467859494E+00  0.82338765541E+00  0.11802354398E+01  0.00000000000E+00 0. -1.
         11    1    3    3    0    0 -0.34532232285E+02  0.87134196052E+01  0.44856481448E+01  0.35895957813E+02  0.51100000000E-03 0. -1.
        -11    1    3    3    0    0 -0.86848406228E+01  0.87377571119E+00  0.40414968273E+01  0.96189208076E+01  0.51100000000E-03 0.  1.
        -12    1    3    3    0    0  0.42389742350E+02 -0.97618739113E+01 -0.93505326275E+01  0.44492885939E+02  0.00000000000E+00 0.  1.
</event>
<event>
 7    1  0.3032584E-015  0.9000725E+02  0.7816164E-02  0.1186340E+00
        -11   -1    0    0    0    0  0.00000000000E+00  0.00000000000E+00  0.45593999997E+02  0.45594000000E+02  0.51100000000E-03 0. -1.
         11   -1    0    0    0    0 -0.00000000000E+00 -0.00000000000E+00 -0.45593999997E+02  0.45594000000E+02  0.51100000000E-03 0.  1.
    9900012    2    1    2    0    0 -0.77992183760E-01 -0.11163252504E+01 -0.37671323450E+00  0.90007246975E+02  0.89999501834E+02 0.  0.
         12    1    1    2    0    0  0.77992183760E-01  0.11163252504E+01  0.37671323450E+00  0.11807530251E+01  0.00000000000E+00 0. -1.
         11    1    3    3    0    0 -0.34381937986E+02  0.84150301038E+01 -0.23012549838E+02  0.42219756532E+02  0.51100000000E-03 0. -1.
        -11    1    3    3    0    0  0.12407185600E+02 -0.88357401611E+01 -0.13632973268E+01  0.15292715212E+02  0.51100000000E-03 0.  1.
        -12    1    3    3    0    0  0.21896760202E+02 -0.69561519302E+00  0.23999133931E+02  0.32494775230E+02  0.00000000000E+00 0.  1.
</event>
<event>
 7    1  0.3032584E-015  0.9000772E+02  0.7816164E-02  0.1186339E+00
        -11   -1    0    0    0    0  0.00000000000E+00  0.00000000000E+00  0.45593999997E+02  0.45594000000E+02  0.51100000000E-03 0.  1.
         11   -1    0    0    0    0 -0.00000000000E+00 -0.00000000000E+00 -0.45593999997E+02  0.45594000000E+02  0.51100000000E-03 0. -1.
    9900012    2    1    2    0    0  0.75055750251E+00  0.21719381572E+00 -0.88461350417E+00  0.90007724282E+02  0.89999985443E+02 0.  0.
         12    1    1    2    0    0 -0.75055750251E+00 -0.21719381572E+00  0.88461350417E+00  0.11802757178E+01  0.00000000000E+00 0. -1.
         11    1    3    3    0    0 -0.30258176959E+02 -0.98779235911E+01  0.98387719387E+01  0.33315643185E+02  0.51100000000E-03 0. -1.
        -11    1    3    3    0    0 -0.98703499622E+01  0.55131688721E+01 -0.10686501359E+02  0.15556996849E+02  0.51100000000E-03 0.  1.
        -12    1    3    3    0    0  0.40879084423E+02  0.45819485348E+01 -0.36884083825E-01  0.41135084248E+02  0.00000000000E+00 0.  1.
</event>
<event>
 7    1  0.3032584E-015  0.9000733E+02  0.7816164E-02  0.1186340E+00
        -11   -1    0    0    0    0  0.00000000000E+00  0.00000000000E+00  0.45593999997E+02  0.45594000000E+02  0.51100000000E-03 0.  1.
         11   -1    0    0    0    0 -0.00000000000E+00 -0.00000000000E+00 -0.45593999997E+02  0.45594000000E+02  0.51100000000E-03 0. -1.
    9900012    2    1    2    0    0  0.77457637359E+00  0.33713250724E+00  0.82483209562E+00  0.90007332870E+02  0.89999588863E+02 0.  0.
         12    1    1    2    0    0 -0.77457637359E+00 -0.33713250724E+00 -0.82483209562E+00  0.11806671300E+01  0.00000000000E+00 0. -1.
         11    1    3    3    0    0 -0.10715120621E+02 -0.10025948157E+02 -0.19025150500E+02  0.24026855770E+02  0.51100000000E-03 0. -1.
        -11    1    3    3    0    0  0.93776786365E+01 -0.90222497995E+01 -0.18698190965E+02  0.22780785625E+02  0.51100000000E-03 0.  1.
        -12    1    3    3    0    0  0.21120183584E+01  0.19385330464E+02  0.38548173560E+02  0.43199691476E+02  0.00000000000E+00 0.  1.
</event>
<event>
 7    1  0.3032584E-015  0.9000771E+02  0.7816164E-02  0.1186339E+00
        -11   -1    0    0    0    0  0.00000000000E+00  0.00000000000E+00  0.45593999997E+02  0.45594000000E+02  0.51100000000E-03 0.  1.
         11   -1    0    0    0    0 -0.00000000000E+00 -0.00000000000E+00 -0.45593999997E+02  0.45594000000E+02  0.51100000000E-03 0. -1.
    9900012    2    1    2    0    0 -0.67995900195E+00 -0.56415245735E+00  0.78260605985E+00  0.90007710000E+02  0.89999970972E+02 0.  0.
         12    1    1    2    0    0  0.67995900195E+00  0.56415245735E+00 -0.78260605985E+00  0.11802900001E+01  0.00000000000E+00 0. -1.
         11    1    3    3    0    0 -0.47633377099E+01  0.73992086630E+01 -0.11249618943E+02  0.14282562851E+02  0.51100000000E-03 0. -1.
        -11    1    3    3    0    0  0.19102273535E+02  0.27073391235E+02  0.17071640628E+02  0.37273399109E+02  0.51100000000E-03 0.  1.
         12    1    3    3    0    0 -0.15018894827E+02 -0.35036752355E+02 -0.50394156255E+01  0.38451748039E+02  0.00000000000E+00 0. -1.
</event>
<event>
 7    1  0.3032584E-015  0.9000778E+02  0.7816164E-02  0.1186339E+00
        -11   -1    0    0    0    0  0.00000000000E+00  0.00000000000E+00  0.45593999997E+02  0.45594000000E+02  0.51100000000E-03 0. -1.
         11   -1    0    0    0    0 -0.00000000000E+00 -0.00000000000E+00 -0.45593999997E+02  0.45594000000E+02  0.51100000000E-03 0.  1.
    9900012    2    1    2    0    0 -0.35130899770E+00  0.49689911549E+00 -0.10112302538E+01  0.90007782491E+02  0.90000044420E+02 0.  0.
         12    1    1    2    0    0  0.35130899770E+00 -0.49689911549E+00  0.10112302538E+01  0.11802175092E+01  0.00000000000E+00 0. -1.
         11    1    3    3    0    0  0.52373583430E-01 -0.42755230012E+02  0.11869238081E+02  0.44372190043E+02  0.51100000000E-03 0. -1.
        -11    1    3    3    0    0 -0.69649056834E+00  0.93220148044E+01 -0.17734430451E-01  0.93480144361E+01  0.51100000000E-03 0.  1.
        -12    1    3    3    0    0  0.29280798722E+00  0.33930114323E+02 -0.12862733904E+02  0.36287578012E+02  0.00000000000E+00 0.  1.
</event>
<event>
 7    1  0.3032584E-015  0.9000785E+02  0.7816164E-02  0.1186339E+00
        -11   -1    0    0    0    0  0.00000000000E+00  0.00000000000E+00  0.45593999997E+02  0.45594000000E+02  0.51100000000E-03 0.  1.
         11   -1    0    0    0    0 -0.00000000000E+00 -0.00000000000E+00 -0.45593999997E+02  0.45594000000E+02  0.51100000000E-03 0. -1.
    9900012    2    1    2    0    0 -0.64568391851E+00  0.99495814180E-01  0.98282253896E+00  0.90007852855E+02  0.90000115713E+02 0.  0.
         12    1    1    2    0    0  0.64568391851E+00 -0.99495814180E-01 -0.98282253896E+00  0.11801471445E+01  0.00000000000E+00 0. -1.
         11    1    3    3    0    0 -0.28171712873E+02 -0.20733529685E+02  0.16194803581E+02  0.38546028624E+02  0.51100000000E-03 0. -1.
        -11    1    3    3    0    0  0.25568818789E+01 -0.26624917803E+01  0.88408814687E+01  0.95805893778E+01  0.51100000000E-03 0.  1.
        -12    1    3    3    0    0  0.24969147075E+02  0.23495517279E+02 -0.24052862511E+02  0.41881234854E+02  0.00000000000E+00 0.  1.
</event>
<event>
 7    1  0.3032584E-015  0.9000773E+02  0.7816164E-02  0.1186339E+00
        -11   -1    0    0    0    0  0.00000000000E+00  0.00000000000E+00  0.45593999997E+02  0.45594000000E+02  0.51100000000E-03 0. -1.
         11   -1    0    0    0    0 -0.00000000000E+00 -0.00000000000E+00 -0.45593999997E+02  0.45594000000E+02  0.51100000000E-03 0.  1.
    9900012    2    1    2    0    0  0.10828080640E+01  0.22644286494E+00  0.41145929372E+00  0.90007725276E+02  0.89999986449E+02 0.  0.
         12    1    1    2    0    0 -0.10828080640E+01 -0.22644286494E+00 -0.41145929372E+00  0.11802747244E+01  0.00000000000E+00 0. -1.
         11    1    3    3    0    0  0.21485584645E+02  0.57780368199E+01 -0.34724399835E+02  0.41240756555E+02  0.51100000000E-03 0. -1.
        -11    1    3    3    0    0  0.61259730645E+01 -0.22559606533E+01  0.37090038045E+01  0.75082364067E+01  0.51100000000E-03 0.  1.
        -12    1    3    3    0    0 -0.26528749646E+02 -0.32956333016E+01  0.31426855324E+02  0.41258732314E+02  0.00000000000E+00 0.  1.
</event>
<event>
 7    1  0.3032584E-015  0.9000750E+02  0.7816164E-02  0.1186340E+00
        -11   -1    0    0    0    0  0.00000000000E+00  0.00000000000E+00  0.45593999997E+02  0.45594000000E+02  0.51100000000E-03 0.  1.
         11   -1    0    0    0    0 -0.00000000000E+00 -0.00000000000E+00 -0.45593999997E+02  0.45594000000E+02  0.51100000000E-03 0. -1.
    9900012    2    1    2    0    0 -0.13496596377E+00  0.11723432026E+01  0.31067543596E-01  0.90007504516E+02  0.89999762775E+02 0.  0.
         12    1    1    2    0    0  0.13496596377E+00 -0.11723432026E+01 -0.31067543596E-01  0.11804954843E+01  0.00000000000E+00 0. -1.
         11    1    3    3    0    0 -0.11181785557E+02  0.32661169673E+02 -0.14009932278E+02  0.37256711279E+02  0.51100000000E-03 0. -1.
        -11    1    3    3    0    0 -0.56166803232E+01  0.29536665965E+01 -0.67005931310E+01  0.92287156628E+01  0.51100000000E-03 0.  1.
        -12    1    3    3    0    0  0.16663499916E+02 -0.34442493067E+02  0.20741592953E+02  0.43522077574E+02  0.00000000000E+00 0.  1.
</event>
<event>
 7    1  0.3032584E-015  0.9000771E+02  0.7816164E-02  0.1186339E+00
        -11   -1    0    0    0    0  0.00000000000E+00  0.00000000000E+00  0.45593999997E+02  0.45594000000E+02  0.51100000000E-03 0.  1.
         11   -1    0    0    0    0 -0.00000000000E+00 -0.00000000000E+00 -0.45593999997E+02  0.45594000000E+02  0.51100000000E-03 0. -1.
    9900012    2    1    2    0    0 -0.42825086903E+00 -0.44038215598E+00  0.10078389993E+01  0.90007714145E+02  0.89999975172E+02 0.  0.
         12    1    1    2    0    0  0.42825086903E+00  0.44038215598E+00 -0.10078389993E+01  0.11802858546E+01  0.00000000000E+00 0. -1.
         11    1    3    3    0    0 -0.60274917638E+01 -0.19536595039E+02 -0.35616119931E+02  0.41067227833E+02  0.51100000000E-03 0. -1.
        -11    1    3    3    0    0  0.10022910199E+02  0.35329931700E+00  0.34946357626E+01  0.10620547474E+02  0.51100000000E-03 0.  1.
        -12    1    3    3    0    0 -0.44236693042E+01  0.18742913566E+02  0.33129323168E+02  0.38319938839E+02  0.00000000000E+00 0.  1.
</event>
<event>
 7    1  0.3032584E-015  0.9000770E+02  0.7816164E-02  0.1186339E+00
        -11   -1    0    0    0    0  0.00000000000E+00  0.00000000000E+00  0.45593999997E+02  0.45594000000E+02  0.51100000000E-03 0.  1.
         11   -1    0    0    0    0 -0.00000000000E+00 -0.00000000000E+00 -0.45593999997E+02  0.45594000000E+02  0.51100000000E-03 0. -1.
    9900012    2    1    2    0    0  0.68839706729E+00 -0.54214518242E+00  0.79074969348E+00  0.90007704698E+02  0.89999965600E+02 0.  0.
         12    1    1    2    0    0 -0.68839706729E+00  0.54214518242E+00 -0.79074969348E+00  0.11802953015E+01  0.00000000000E+00 0. -1.
         11    1    3    3    0    0  0.31508675840E+02  0.35566913809E+01 -0.19657991875E+02  0.37307952927E+02  0.51100000000E-03 0. -1.
        -11    1    3    3    0    0  0.36986986867E+01  0.82497637675E+01 -0.25847949196E+01  0.94031983512E+01  0.51100000000E-03 0.  1.
        -12    1    3    3    0    0 -0.34518977459E+02 -0.12348600331E+02  0.23033536488E+02  0.43296553421E+02  0.00000000000E+00 0.  1.
</event>
<event>
 7    1  0.3032584E-015  0.9000782E+02  0.7816164E-02  0.1186339E+00
        -11   -1    0    0    0    0  0.00000000000E+00  0.00000000000E+00  0.45593999997E+02  0.45594000000E+02  0.51100000000E-03 0. -1.
         11   -1    0    0    0    0 -0.00000000000E+00 -0.00000000000E+00 -0.45593999997E+02  0.45594000000E+02  0.51100000000E-03 0.  1.
    9900012    2    1    2    0    0  0.58923863427E+00  0.39619797700E-01 -0.10217880424E+01  0.90007820903E+02  0.90000083339E+02 0.  0.
         12    1    1    2    0    0 -0.58923863427E+00 -0.39619797700E-01  0.10217880424E+01  0.11801790966E+01  0.00000000000E+00 0. -1.
         11    1    3    3    0    0 -0.56262000460E+01 -0.28847593345E+01 -0.69491026089E+01  0.93949981749E+01  0.51100000000E-03 0. -1.
        -11    1    3    3    0    0  0.23110663225E+02 -0.31617428683E+02 -0.75164274084E+01  0.39878079599E+02  0.51100000000E-03 0.  1.
         12    1    3    3    0    0 -0.16895224544E+02  0.34541807816E+02  0.13443741975E+02  0.40734743130E+02  0.00000000000E+00 0. -1.
</event>
<event>
 7    1  0.3032584E-015  0.9000793E+02  0.7816164E-02  0.1186339E+00
        -11   -1    0    0    0    0  0.00000000000E+00  0.00000000000E+00  0.45593999997E+02  0.45594000000E+02  0.51100000000E-03 0.  1.
         11   -1    0    0    0    0 -0.00000000000E+00 -0.00000000000E+00 -0.45593999997E+02  0.45594000000E+02  0.51100000000E-03 0. -1.
    9900012    2    1    2    0    0 -0.10745724016E+01 -0.42461936359E+00  0.23990874089E+00  0.90007930657E+02  0.90000194542E+02 0.  0.
         12    1    1    2    0    0  0.10745724016E+01  0.42461936359E+00 -0.23990874089E+00  0.11800693429E+01  0.00000000000E+00 0. -1.
         11    1    3    3    0    0 -0.16435081132E+01 -0.38674975111E+01  0.96420503854E+01  0.10517974701E+02  0.51100000000E-03 0. -1.
        -11    1    3    3    0    0  0.24040500171E+02 -0.23023404054E+02  0.15004557581E+02  0.36512457206E+02  0.51100000000E-03 0.  1.
         12    1    3    3    0    0 -0.23471564460E+02  0.26466282202E+02 -0.24406699225E+02  0.42977498750E+02  0.00000000000E+00 0. -1.
</event>
<event>
 7    1  0.3032584E-015  0.9000777E+02  0.7816164E-02  0.1186339E+00
        -11   -1    0    0    0    0  0.00000000000E+00  0.00000000000E+00  0.45593999997E+02  0.45594000000E+02  0.51100000000E-03 0.  1.
         11   -1    0    0    0    0 -0.00000000000E+00 -0.00000000000E+00 -0.45593999997E+02  0.45594000000E+02  0.51100000000E-03 0. -1.
    9900012    2    1    2    0    0 -0.59888959593E-01 -0.75105420605E+00  0.90845082970E+00  0.90007766117E+02  0.90000027830E+02 0.  0.
         12    1    1    2    0    0  0.59888959593E-01  0.75105420605E+00 -0.90845082970E+00  0.11802338827E+01  0.00000000000E+00 0. -1.
         11    1    3    3    0    0 -0.32840107076E+02 -0.13525550152E+02 -0.19577794363E+00  0.35516918066E+02  0.51100000000E-03 0. -1.
        -11    1    3    3    0    0 -0.16074610650E+01 -0.91579038635E+00  0.14882341120E+02  0.14996889030E+02  0.51100000000E-03 0.  1.
        -12    1    3    3    0    0  0.34387679181E+02  0.13690286332E+02 -0.13778112346E+02  0.39493959021E+02  0.00000000000E+00 0.  1.
</event>
<event>
 7    1  0.3032584E-015  0.9000771E+02  0.7816164E-02  0.1186339E+00
        -11   -1    0    0    0    0  0.00000000000E+00  0.00000000000E+00  0.45593999997E+02  0.45594000000E+02  0.51100000000E-03 0.  1.
         11   -1    0    0    0    0 -0.00000000000E+00 -0.00000000000E+00 -0.45593999997E+02  0.45594000000E+02  0.51100000000E-03 0. -1.
    9900012    2    1    2    0    0 -0.33899585119E+00  0.11121935293E+01  0.20293298686E+00  0.90007714259E+02  0.89999975287E+02 0.  0.
         12    1    1    2    0    0  0.33899585119E+00 -0.11121935293E+01 -0.20293298686E+00  0.11802857412E+01  0.00000000000E+00 0. -1.
         11    1    3    3    0    0 -0.93684139609E+01 -0.10829668199E+02  0.89001315155E+01  0.16860048479E+02  0.51100000000E-03 0. -1.
        -11    1    3    3    0    0  0.19300712638E+02 -0.26498897800E+02 -0.53673901558E+01  0.33219240965E+02  0.51100000000E-03 0.  1.
         12    1    3    3    0    0 -0.10271294529E+02  0.38440759528E+02 -0.33298083728E+01  0.39928424815E+02  0.00000000000E+00 0. -1.
</event>
<event>
 7    1  0.3032584E-015  0.9000782E+02  0.7816164E-02  0.1186339E+00
        -11   -1    0    0    0    0  0.00000000000E+00  0.00000000000E+00  0.45593999997E+02  0.45594000000E+02  0.51100000000E-03 0. -1.
         11   -1    0    0    0    0 -0.00000000000E+00 -0.00000000000E+00 -0.45593999997E+02  0.45594000000E+02  0.51100000000E-03 0.  1.
    9900012    2    1    2    0    0  0.31359074839E+00  0.11199121720E+01  0.20071775741E+00  0.90007817790E+02  0.90000080185E+02 0.  0.
         12    1    1    2    0    0 -0.31359074839E+00 -0.11199121720E+01 -0.20071775741E+00  0.11801822099E+01  0.00000000000E+00 0. -1.
         11    1    3    3    0    0 -0.12576522296E+01 -0.49733351968E+01  0.76441822997E+01  0.92059369649E+01  0.51100000000E-03 0. -1.
        -11    1    3    3    0    0 -0.20261429788E+02 -0.21766882793E+02  0.20150075920E+02  0.35921418171E+02  0.51100000000E-03 0.  1.
         12    1    3    3    0    0  0.21832672766E+02  0.27860130162E+02 -0.27593540462E+02  0.44880462654E+02  0.00000000000E+00 0. -1.
</event>
<event>
 7    1  0.3032584E-015  0.9000775E+02  0.7816164E-02  0.1186339E+00
        -11   -1    0    0    0    0  0.00000000000E+00  0.00000000000E+00  0.45593999997E+02  0.45594000000E+02  0.51100000000E-03 0. -1.
         11   -1    0    0    0    0 -0.00000000000E+00 -0.00000000000E+00 -0.45593999997E+02  0.45594000000E+02  0.51100000000E-03 0.  1.
    9900012    2    1    2    0    0 -0.70301175083E-01  0.69061571111E+00 -0.95451808951E+00  0.90007747019E+02  0.90000008480E+02 0.  0.
         12    1    1    2    0    0  0.70301175083E-01 -0.69061571111E+00  0.95451808951E+00  0.11802529809E+01  0.00000000000E+00 0. -1.
         11    1    3    3    0    0 -0.79124974152E+00 -0.81580928771E+01  0.32968703434E+00  0.82030024593E+01  0.51100000000E-03 0. -1.
        -11    1    3    3    0    0 -0.85545595335E+01 -0.12489889393E+02 -0.36546491833E+02  0.39557854990E+02  0.51100000000E-03 0.  1.
         12    1    3    3    0    0  0.92755081000E+01  0.21338597981E+02  0.35262286710E+02  0.42246889569E+02  0.00000000000E+00 0. -1.
</event>
<event>
 7    1  0.3032584E-015  0.9000770E+02  0.7816164E-02  0.1186339E+00
        -11   -1    0    0    0    0  0.00000000000E+00  0.00000000000E+00  0.45593999997E+02  0.45594000000E+02  0.51100000000E-03 0.  1.
         11   -1    0    0    0    0 -0.00000000000E+00 -0.00000000000E+00 -0.45593999997E+02  0.45594000000E+02  0.51100000000E-03 0. -1.
    9900012    2    1    2    0    0 -0.10430902654E+00 -0.55429825823E+00  0.10368148807E+01  0.90007698331E+02  0.89999959149E+02 0.  0.
         12    1    1    2    0    0  0.10430902654E+00  0.55429825823E+00 -0.10368148807E+01  0.11803016686E+01  0.00000000000E+00 0. -1.
         11    1    3    3    0    0 -0.36577821272E+02  0.14576423343E+01  0.15114790624E+02  0.39604527848E+02  0.51100000000E-03 0. -1.
        -11    1    3    3    0    0  0.13275309478E+01  0.13288563322E+00  0.84808959668E+01  0.85851961928E+01  0.51100000000E-03 0.  1.
        -12    1    3    3    0    0  0.35145981298E+02 -0.21448262258E+01 -0.22558871710E+02  0.41817974291E+02  0.00000000000E+00 0.  1.
</event>
<event>
 7    1  0.3032584E-015  0.9000795E+02  0.7816164E-02  0.1186339E+00
        -11   -1    0    0    0    0  0.00000000000E+00  0.00000000000E+00  0.45593999997E+02  0.45594000000E+02  0.51100000000E-03 0. -1.
         11   -1    0    0    0    0 -0.00000000000E+00 -0.00000000000E+00 -0.45593999997E+02  0.45594000000E+02  0.51100000000E-03 0.  1.
    9900012    2    1    2    0    0  0.11349707393E+01 -0.31486895883E+00 -0.72282602106E-01  0.90007946690E+02  0.90000210786E+02 0.  0.
         12    1    1    2    0    0 -0.11349707393E+01  0.31486895883E+00  0.72282602106E-01  0.11800533101E+01  0.00000000000E+00 0. -1.
         11    1    3    3    0    0 -0.49776097578E+00  0.16075857838E+02 -0.91644745566E+01  0.18511309121E+02  0.51100000000E-03 0. -1.
        -11    1    3    3    0    0  0.23841456995E+02  0.17927509291E+02  0.11310695681E+01  0.29851130291E+02  0.51100000000E-03 0.  1.
         12    1    3    3    0    0 -0.22208725280E+02 -0.34318236088E+02  0.79611223864E+01  0.41645507278E+02  0.00000000000E+00 0. -1.
</event>
<event>
 7    1  0.3032584E-015  0.9000777E+02  0.7816164E-02  0.1186339E+00
        -11   -1    0    0    0    0  0.00000000000E+00  0.00000000000E+00  0.45593999997E+02  0.45594000000E+02  0.51100000000E-03 0.  1.
         11   -1    0    0    0    0 -0.00000000000E+00 -0.00000000000E+00 -0.45593999997E+02  0.45594000000E+02  0.51100000000E-03 0. -1.
    9900012    2    1    2    0    0  0.50820199053E+00  0.43625491895E+00  0.97177515104E+00  0.90007773513E+02  0.90000035323E+02 0.  0.
         12    1    1    2    0    0 -0.50820199053E+00 -0.43625491895E+00 -0.97177515104E+00  0.11802264874E+01  0.00000000000E+00 0. -1.
         11    1    3    3    0    0  0.36857060600E+02 -0.63996034953E+01 -0.29606737330E+01  0.37525503730E+02  0.51100000000E-03 0. -1.
        -11    1    3    3    0    0  0.58833752737E+01  0.62310733888E+01  0.55582488136E+01  0.10214426578E+02  0.51100000000E-03 0.  1.
        -12    1    3    3    0    0 -0.42232233883E+02  0.60478502548E+00 -0.16257999296E+01  0.42267843204E+02  0.00000000000E+00 0.  1.
</event>
<event>
 7    1  0.3032584E-015  0.9000778E+02  0.7816164E-02  0.1186339E+00
        -11   -1    0    0    0    0  0.00000000000E+00  0.00000000000E+00  0.45593999997E+02  0.45594000000E+02  0.51100000000E-03 0. -1.
         11   -1    0    0    0    0 -0.00000000000E+00 -0.00000000000E+00 -0.45593999997E+02  0.45594000000E+02  0.51100000000E-03 0.  1.
    9900012    2    1    2    0    0  0.13116691037E+00 -0.87744159858E+00 -0.77833096263E+00  0.90007784933E+02  0.90000046894E+02 0.  0.
         12    1    1    2    0    0 -0.13116691037E+00  0.87744159858E+00  0.77833096263E+00  0.11802150671E+01  0.00000000000E+00 0. -1.
         11    1    3    3    0    0 -0.88522957438E+01  0.41826522996E+01 -0.83350221495E+00  0.98261104409E+01  0.51100000000E-03 0. -1.
        -11    1    3    3    0    0  0.18618390186E+02  0.58023602153E+00 -0.37030659378E+02  0.41451789601E+02  0.51100000000E-03 0.  1.
         12    1    3    3    0    0 -0.96349275314E+01 -0.56403299197E+01  0.37085830630E+02  0.38729884891E+02  0.00000000000E+00 0. -1.
</event>
<event>
 7    1  0.3032584E-015  0.9000766E+02  0.7816164E-02  0.1186339E+00
        -11   -1    0    0    0    0  0.00000000000E+00  0.00000000000E+00  0.45593999997E+02  0.45594000000E+02  0.51100000000E-03 0.  1.
         11   -1    0    0    0    0 -0.00000000000E+00 -0.00000000000E+00 -0.45593999997E+02  0.45594000000E+02  0.51100000000E-03 0. -1.
    9900012    2    1    2    0    0 -0.85477689563E+00 -0.80846013093E+00  0.94585315796E-01  0.90007662037E+02  0.89999922376E+02 0.  0.
         12    1    1    2    0    0  0.85477689563E+00  0.80846013093E+00 -0.94585315796E-01  0.11803379629E+01  0.00000000000E+00 0. -1.
         11    1    3    3    0    0 -0.50672630062E+01 -0.23612621542E+01 -0.95351676941E+01  0.11053150526E+02  0.51100000000E-03 0. -1.
        -11    1    3    3    0    0  0.51856349587E+01  0.36133121992E+02  0.21519491308E+02  0.42374306145E+02  0.51100000000E-03 0.  1.
         12    1    3    3    0    0 -0.97314884814E+00 -0.34580319969E+02 -0.11889738299E+02  0.36580205366E+02  0.00000000000E+00 0. -1.
</event>
<event>
 7    1  0.3032584E-015  0.9000776E+02  0.7816164E-02  0.1186339E+00
        -11   -1    0    0    0    0  0.00000000000E+00  0.00000000000E+00  0.45593999997E+02  0.45594000000E+02  0.51100000000E-03 0.  1.
         11   -1    0    0    0    0 -0.00000000000E+00 -0.00000000000E+00 -0.45593999997E+02  0.45594000000E+02  0.51100000000E-03 0. -1.
    9900012    2    1    2    0    0  0.11113547940E+01 -0.93589978298E-01  0.38613155272E+00  0.90007760135E+02  0.90000021769E+02 0.  0.
         12    1    1    2    0    0 -0.11113547940E+01  0.93589978298E-01 -0.38613155272E+00  0.11802398647E+01  0.00000000000E+00 0. -1.
         11    1    3    3    0    0  0.24049722355E+01  0.78688222550E+01  0.75925857192E+01  0.11195964152E+02  0.51100000000E-03 0. -1.
        -11    1    3    3    0    0 -0.17041142812E+01 -0.81708796207E+01  0.35314940723E+02  0.36287908700E+02  0.51100000000E-03 0.  1.
         12    1    3    3    0    0  0.41049683967E+00  0.20846738742E+00 -0.42521394890E+02  0.42523887283E+02  0.00000000000E+00 0. -1.
</event>
<event>
 7    1  0.3032584E-015  0.9000777E+02  0.7816164E-02  0.1186339E+00
        -11   -1    0    0    0    0  0.00000000000E+00  0.00000000000E+00  0.45593999997E+02  0.45594000000E+02  0.51100000000E-03 0. -1.
         11   -1    0    0    0    0 -0.00000000000E+00 -0.00000000000E+00 -0.45593999997E+02  0.45594000000E+02  0.51100000000E-03 0.  1.
    9900012    2    1    2    0    0  0.49258594501E+00  0.21990670497E-01 -0.10723006630E+01  0.90007765610E+02  0.90000027316E+02 0.  0.
         12    1    1    2    0    0 -0.49258594501E+00 -0.21990670497E-01  0.10723006630E+01  0.11802343897E+01  0.00000000000E+00 0. -1.
         11    1    3    3    0    0  0.13353817320E+02 -0.59216511573E+01 -0.74059849205E+01  0.16378003613E+02  0.51100000000E-03 0. -1.
        -11    1    3    3    0    0 -0.12697406677E+02 -0.10113936604E+02 -0.29885839238E+02  0.34009987315E+02  0.51100000000E-03 0.  1.
         12    1    3    3    0    0 -0.16382469797E+00  0.16057578431E+02  0.36219523496E+02  0.39619774682E+02  0.00000000000E+00 0. -1.
</event>
<event>
 7    1  0.3032584E-015  0.9000773E+02  0.7816164E-02  0.1186339E+00
        -11   -1    0    0    0    0  0.00000000000E+00  0.00000000000E+00  0.45593999997E+02  0.45594000000E+02  0.51100000000E-03 0.  1.
         11   -1    0    0    0    0 -0.00000000000E+00 -0.00000000000E+00 -0.45593999997E+02  0.45594000000E+02  0.51100000000E-03 0. -1.
    9900012    2    1    2    0    0  0.83511284790E+00 -0.64657775494E+00 -0.52682951838E+00  0.90007734944E+02  0.89999996245E+02 0.  0.
         12    1    1    2    0    0 -0.83511284790E+00  0.64657775494E+00  0.52682951838E+00  0.11802650564E+01  0.00000000000E+00 0. -1.
         11    1    3    3    0    0 -0.48020935781E+01  0.78642476012E+01  0.15504519417E+00  0.92157762743E+01  0.51100000000E-03 0. -1.
        -11    1    3    3    0    0 -0.46731431644E+01  0.12830723596E+02  0.35218622937E+02  0.37773233074E+02  0.51100000000E-03 0.  1.
         12    1    3    3    0    0  0.10310349590E+02 -0.21341548952E+02 -0.35900497650E+02  0.43018725595E+02  0.00000000000E+00 0. -1.
</event>
<event>
 7    1  0.3032584E-015  0.9000774E+02  0.7816164E-02  0.1186339E+00
        -11   -1    0    0    0    0  0.00000000000E+00  0.00000000000E+00  0.45593999997E+02  0.45594000000E+02  0.51100000000E-03 0.  1.
         11   -1    0    0    0    0 -0.00000000000E+00 -0.00000000000E+00 -0.45593999997E+02  0.45594000000E+02  0.51100000000E-03 0. -1.
    9900012    2    1    2    0    0 -0.10978558027E+01  0.20976059161E+00 -0.37910268672E+00  0.90007743368E+02  0.90000004781E+02 0.  0.
         12    1    1    2    0    0  0.10978558027E+01 -0.20976059161E+00  0.37910268672E+00  0.11802566316E+01  0.00000000000E+00 0. -1.
         11    1    3    3    0    0 -0.71403333621E+01  0.37051769192E+01 -0.51315353818E+01  0.95417688172E+01  0.51100000000E-03 0. -1.
        -11    1    3    3    0    0 -0.36147004308E+02 -0.93713646049E+01  0.61564458294E+01  0.37846138779E+02  0.51100000000E-03 0.  1.
         12    1    3    3    0    0  0.42189481867E+02  0.58759482774E+01 -0.14040131343E+01  0.42619835772E+02  0.00000000000E+00 0. -1.
</event>
<event>
 7    1  0.3032584E-015  0.9000773E+02  0.7816164E-02  0.1186339E+00
        -11   -1    0    0    0    0  0.00000000000E+00  0.00000000000E+00  0.45593999997E+02  0.45594000000E+02  0.51100000000E-03 0.  1.
         11   -1    0    0    0    0 -0.00000000000E+00 -0.00000000000E+00 -0.45593999997E+02  0.45594000000E+02  0.51100000000E-03 0. -1.
    9900012    2    1    2    0    0  0.64318705377E+00  0.69138251153E+00  0.70806052828E+00  0.90007725000E+02  0.89999986170E+02 0.  0.
         12    1    1    2    0    0 -0.64318705377E+00 -0.69138251153E+00 -0.70806052828E+00  0.11802749998E+01  0.00000000000E+00 0. -1.
         11    1    3    3    0    0  0.34302015871E+02  0.37003844735E+01 -0.13169064676E+02  0.36928923661E+02  0.51100000000E-03 0. -1.
        -11    1    3    3    0    0  0.59451090257E+01  0.66850562142E+01 -0.22619761592E+01  0.92277209711E+01  0.51100000000E-03 0.  1.
        -12    1    3    3    0    0 -0.39603937843E+02 -0.96940581761E+01  0.16139101364E+02  0.43851080368E+02  0.00000000000E+00 0.  1.
</event>
<event>
 7    1  0.3032584E-015  0.9000784E+02  0.7816164E-02  0.1186339E+00
        -11   -1    0    0    0    0  0.00000000000E+00  0.00000000000E+00  0.45593999997E+02  0.45594000000E+02  0.51100000000E-03 0. -1.
         11   -1    0    0    0    0 -0.00000000000E+00 -0.00000000000E+00 -0.45593999997E+02  0.45594000000E+02  0.51100000000E-03 0.  1.
    9900012    2    1    2    0    0 -0.10896770165E+01 -0.20174578794E+00 -0.40579653681E+00  0.90007843997E+02  0.90000106737E+02 0.  0.
         12    1    1    2    0    0  0.10896770165E+01  0.20174578794E+00  0.40579653681E+00  0.11801560034E+01  0.00000000000E+00 0. -1.
         11    1    3    3    0    0  0.52474780040E+01  0.10075326931E+02 -0.67542104798E+00  0.11380001407E+02  0.51100000000E-03 0. -1.
        -11    1    3    3    0    0 -0.52863498092E+01  0.18314955270E+02 -0.30906742023E+02  0.36312666985E+02  0.51100000000E-03 0.  1.
         12    1    3    3    0    0 -0.10508052113E+01 -0.28592027990E+02  0.31176366534E+02  0.42315175604E+02  0.00000000000E+00 0. -1.
</event>
<event>
 7    1  0.3032584E-015  0.9000765E+02  0.7816164E-02  0.1186339E+00
        -11   -1    0    0    0    0  0.00000000000E+00  0.00000000000E+00  0.45593999997E+02  0.45594000000E+02  0.51100000000E-03 0.  1.
         11   -1    0    0    0    0 -0.00000000000E+00 -0.00000000000E+00 -0.45593999997E+02  0.45594000000E+02  0.51100000000E-03 0. -1.
    9900012    2    1    2    0    0 -0.31309148796E+00 -0.10555714191E+01  0.42540296763E+00  0.90007650482E+02  0.89999910668E+02 0.  0.
         12    1    1    2    0    0  0.31309148796E+00  0.10555714191E+01 -0.42540296763E+00  0.11803495184E+01  0.00000000000E+00 0. -1.
         11    1    3    3    0    0  0.11674691350E+01 -0.92312160590E+01  0.51629826076E+00  0.93190610183E+01  0.51100000000E-03 0. -1.
        -11    1    3    3    0    0 -0.25893107759E+01 -0.34731257340E+02  0.10695192713E+02  0.36432841149E+02  0.51100000000E-03 0.  1.
         12    1    3    3    0    0  0.11087501530E+01  0.42906901980E+02 -0.10786088006E+02  0.44255748315E+02  0.00000000000E+00 0. -1.
</event>
<event>
 7    1  0.3032584E-015  0.9000773E+02  0.7816164E-02  0.1186339E+00
        -11   -1    0    0    0    0  0.00000000000E+00  0.00000000000E+00  0.45593999997E+02  0.45594000000E+02  0.51100000000E-03 0.  1.
         11   -1    0    0    0    0 -0.00000000000E+00 -0.00000000000E+00 -0.45593999997E+02  0.45594000000E+02  0.51100000000E-03 0. -1.
    9900012    2    1    2    0    0  0.18241529719E+00  0.96058958827E+00  0.66108705335E+00  0.90007727239E+02  0.89999988439E+02 0.  0.
         12    1    1    2    0    0 -0.18241529719E+00 -0.96058958827E+00 -0.66108705335E+00  0.11802727608E+01  0.00000000000E+00 0. -1.
         11    1    3    3    0    0  0.12765693047E+02  0.11050060714E+02 -0.34840229996E+02  0.38715738236E+02  0.51100000000E-03 0. -1.
        -11    1    3    3    0    0  0.79383090491E+01  0.95407901111E+00 -0.92505063396E+00  0.80487723446E+01  0.51100000000E-03 0.  1.
        -12    1    3    3    0    0 -0.20521586799E+02 -0.11043550137E+02  0.36426367683E+02  0.43243216658E+02  0.00000000000E+00 0.  1.
</event>
<event>
 7    1  0.3032584E-015  0.9000757E+02  0.7816164E-02  0.1186339E+00
        -11   -1    0    0    0    0  0.00000000000E+00  0.00000000000E+00  0.45593999997E+02  0.45594000000E+02  0.51100000000E-03 0.  1.
         11   -1    0    0    0    0 -0.00000000000E+00 -0.00000000000E+00 -0.45593999997E+02  0.45594000000E+02  0.51100000000E-03 0. -1.
    9900012    2    1    2    0    0  0.62719885215E+00 -0.53652541259E+00 -0.84389904143E+00  0.90007574860E+02  0.89999834048E+02 0.  0.
         12    1    1    2    0    0 -0.62719885215E+00  0.53652541259E+00  0.84389904143E+00  0.11804251398E+01  0.00000000000E+00 0. -1.
         11    1    3    3    0    0 -0.40439389355E+01 -0.16270337793E+02 -0.35966607148E+02  0.39682164306E+02  0.51100000000E-03 0. -1.
        -11    1    3    3    0    0 -0.69431500282E+01 -0.61246140249E+01  0.29180040641E+01  0.97073671635E+01  0.51100000000E-03 0.  1.
        -12    1    3    3    0    0  0.11614287816E+02  0.21858426406E+02  0.32204704043E+02  0.40618043390E+02  0.00000000000E+00 0.  1.
</event>
<event>
 7    1  0.3032584E-015  0.9000761E+02  0.7816164E-02  0.1186339E+00
        -11   -1    0    0    0    0  0.00000000000E+00  0.00000000000E+00  0.45593999997E+02  0.45594000000E+02  0.51100000000E-03 0.  1.
         11   -1    0    0    0    0 -0.00000000000E+00 -0.00000000000E+00 -0.45593999997E+02  0.45594000000E+02  0.51100000000E-03 0. -1.
    9900012    2    1    2    0    0 -0.15251768429E+00 -0.11247633591E+01  0.32398610039E+00  0.90007609704E+02  0.89999869352E+02 0.  0.
         12    1    1    2    0    0  0.15251768429E+00  0.11247633591E+01 -0.32398610039E+00  0.11803902961E+01  0.00000000000E+00 0. -1.
         11    1    3    3    0    0  0.94717993913E+01 -0.71817670703E+00 -0.18985764683E+01  0.96868650429E+01  0.51100000000E-03 0. -1.
        -11    1    3    3    0    0 -0.74143245144E+01  0.99597960660E+01  0.39583584765E+02  0.41485297743E+02  0.51100000000E-03 0.  1.
         12    1    3    3    0    0 -0.22099925612E+01 -0.10366382718E+02 -0.37361022196E+02  0.38835446918E+02  0.00000000000E+00 0. -1.
</event>
<event>
 7    1  0.3032584E-015  0.9000770E+02  0.7816164E-02  0.1186339E+00
        -11   -1    0    0    0    0  0.00000000000E+00  0.00000000000E+00  0.45593999997E+02  0.45594000000E+02  0.51100000000E-03 0.  1.
         11   -1    0    0    0    0 -0.00000000000E+00 -0.00000000000E+00 -0.45593999997E+02  0.45594000000E+02  0.51100000000E-03 0. -1.
    9900012    2    1    2    0    0  0.63094486074E+00  0.31783521928E+00  0.94550902108E+00  0.90007704294E+02  0.89999965191E+02 0.  0.
         12    1    1    2    0    0 -0.63094486074E+00 -0.31783521928E+00 -0.94550902108E+00  0.11802957057E+01  0.00000000000E+00 0. -1.
         11    1    3    3    0    0 -0.21697776778E+02  0.22136218955E+02 -0.18027068875E+02  0.35857787428E+02  0.51100000000E-03 0. -1.
        -11    1    3    3    0    0  0.61286138689E+00  0.87706380052E+01 -0.45215924829E+01  0.98865812564E+01  0.51100000000E-03 0.  1.
        -12    1    3    3    0    0  0.21715860252E+02 -0.30589021741E+02  0.23494170378E+02  0.44263335610E+02  0.00000000000E+00 0.  1.
</event>
<event>
 7    1  0.3032584E-015  0.9000770E+02  0.7816164E-02  0.1186339E+00
        -11   -1    0    0    0    0  0.00000000000E+00  0.00000000000E+00  0.45593999997E+02  0.45594000000E+02  0.51100000000E-03 0. -1.
         11   -1    0    0    0    0 -0.00000000000E+00 -0.00000000000E+00 -0.45593999997E+02  0.45594000000E+02  0.51100000000E-03 0.  1.
    9900012    2    1    2    0    0 -0.42128888524E-01  0.11454761486E+01 -0.28145336312E+00  0.90007700696E+02  0.89999961546E+02 0.  0.
         12    1    1    2    0    0  0.42128888524E-01 -0.11454761486E+01  0.28145336312E+00  0.11802993035E+01  0.00000000000E+00 0. -1.
         11    1    3    3    0    0  0.10387241254E+02  0.75440001807E+01 -0.22989031425E+01  0.13041919932E+02  0.51100000000E-03 0. -1.
        -11    1    3    3    0    0 -0.41359058834E+01  0.58185243065E+00 -0.36795153532E+02  0.37031440607E+02  0.51100000000E-03 0.  1.
         12    1    3    3    0    0 -0.62934642591E+01 -0.69803764627E+01  0.38812603312E+02  0.39934340157E+02  0.00000000000E+00 0. -1.
</event>
<event>
 7    1  0.3032584E-015  0.9000770E+02  0.7816164E-02  0.1186339E+00
        -11   -1    0    0    0    0  0.00000000000E+00  0.00000000000E+00  0.45593999997E+02  0.45594000000E+02  0.51100000000E-03 0. -1.
         11   -1    0    0    0    0 -0.00000000000E+00 -0.00000000000E+00 -0.45593999997E+02  0.45594000000E+02  0.51100000000E-03 0.  1.
    9900012    2    1    2    0    0  0.10447744746E+01  0.26540721239E-01 -0.54849782490E+00  0.90007700048E+02  0.89999960889E+02 0.  0.
         12    1    1    2    0    0 -0.10447744746E+01 -0.26540721239E-01  0.54849782490E+00  0.11802999520E+01  0.00000000000E+00 0. -1.
         11    1    3    3    0    0 -0.94450630613E+01  0.11354292512E+01 -0.51849199561E+01  0.10834288672E+02  0.51100000000E-03 0. -1.
        -11    1    3    3    0    0 -0.27950639850E+02 -0.27534625276E+01 -0.19099962901E+02  0.33965105726E+02  0.51100000000E-03 0.  1.
         12    1    3    3    0    0  0.38440477386E+02  0.16445739977E+01  0.23736385032E+02  0.45208305650E+02  0.00000000000E+00 0. -1.
</event>
<event>
 7    1  0.3032584E-015  0.9000777E+02  0.7816164E-02  0.1186339E+00
        -11   -1    0    0    0    0  0.00000000000E+00  0.00000000000E+00  0.45593999997E+02  0.45594000000E+02  0.51100000000E-03 0. -1.
         11   -1    0    0    0    0 -0.00000000000E+00 -0.00000000000E+00 -0.45593999997E+02  0.45594000000E+02  0.51100000000E-03 0.  1.
    9900012    2    1    2    0    0  0.48424462951E+00 -0.10093276245E+01 -0.37377801573E+00  0.90007769040E+02  0.90000030791E+02 0.  0.
         12    1    1    2    0    0 -0.48424462951E+00  0.10093276245E+01  0.37377801573E+00  0.11802309604E+01  0.00000000000E+00 0. -1.
         11    1    3    3    0    0 -0.78446043593E+00  0.50442936919E+01  0.53265459109E+01  0.73778295337E+01  0.51100000000E-03 0. -1.
        -11    1    3    3    0    0 -0.36064749623E+02  0.10944181736E+02 -0.15006915265E+02  0.40566596915E+02  0.51100000000E-03 0.  1.
         12    1    3    3    0    0  0.37333454688E+02 -0.16997803052E+02  0.93065913381E+01  0.42063342591E+02  0.00000000000E+00 0. -1.
</event>
<event>
 7    1  0.3032584E-015  0.9000757E+02  0.7816164E-02  0.1186339E+00
        -11   -1    0    0    0    0  0.00000000000E+00  0.00000000000E+00  0.45593999997E+02  0.45594000000E+02  0.51100000000E-03 0.  1.
         11   -1    0    0    0    0 -0.00000000000E+00 -0.00000000000E+00 -0.45593999997E+02  0.45594000000E+02  0.51100000000E-03 0. -1.
    9900012    2    1    2    0    0 -0.35464927299E+00  0.59622885191E+00  0.95507024520E+00  0.90007566129E+02  0.89999825202E+02 0.  0.
         12    1    1    2    0    0  0.35464927299E+00 -0.59622885191E+00 -0.95507024520E+00  0.11804338711E+01  0.00000000000E+00 0. -1.
         11    1    3    3    0    0  0.31348444422E+02 -0.11252665569E+02 -0.11733380668E+02  0.35313165707E+02  0.51100000000E-03 0. -1.
        -11    1    3    3    0    0  0.14478152049E+01 -0.98029875192E+01 -0.52624892058E+01  0.11220005618E+02  0.51100000000E-03 0.  1.
        -12    1    3    3    0    0 -0.33150908900E+02  0.21651881940E+02  0.17950940119E+02  0.43474394804E+02  0.00000000000E+00 0.  1.
</event>
<event>
 7    1  0.3032584E-015  0.9000780E+02  0.7816164E-02  0.1186339E+00
        -11   -1    0    0    0    0  0.00000000000E+00  0.00000000000E+00  0.45593999997E+02  0.45594000000E+02  0.51100000000E-03 0. -1.
         11   -1    0    0    0    0 -0.00000000000E+00 -0.00000000000E+00 -0.45593999997E+02  0.45594000000E+02  0.51100000000E-03 0.  1.
    9900012    2    1    2    0    0  0.34723566757E+00 -0.58773384672E+00 -0.96273584612E+00  0.90007803409E+02  0.90000065614E+02 0.  0.
         12    1    1    2    0    0 -0.34723566757E+00  0.58773384672E+00  0.96273584612E+00  0.11801965908E+01  0.00000000000E+00 0. -1.
         11    1    3    3    0    0 -0.25514316536E+01  0.28395513304E+01 -0.10709633290E+02  0.11369657018E+02  0.51100000000E-03 0. -1.
        -11    1    3    3    0    0  0.20720687229E+02  0.19628454259E+02 -0.21633500187E+02  0.35813844061E+02  0.51100000000E-03 0.  1.
         12    1    3    3    0    0 -0.17822019907E+02 -0.23055739436E+02  0.31380397631E+02  0.42824302330E+02  0.00000000000E+00 0. -1.
</event>
<event>
 7    1  0.3032584E-015  0.9000776E+02  0.7816164E-02  0.1186339E+00
        -11   -1    0    0    0    0  0.00000000000E+00  0.00000000000E+00  0.45593999997E+02  0.45594000000E+02  0.51100000000E-03 0.  1.
         11   -1    0    0    0    0 -0.00000000000E+00 -0.00000000000E+00 -0.45593999997E+02  0.45594000000E+02  0.51100000000E-03 0. -1.
    9900012    2    1    2    0    0  0.69253126317E+00  0.93151401169E+00  0.21366172975E+00  0.90007758822E+02  0.90000020438E+02 0.  0.
         12    1    1    2    0    0 -0.69253126317E+00 -0.93151401169E+00 -0.21366172975E+00  0.11802411784E+01  0.00000000000E+00 0. -1.
         11    1    3    3    0    0  0.30392360754E+02 -0.23623943525E+02 -0.11746825806E+02  0.40246418681E+02  0.51100000000E-03 0. -1.
        -11    1    3    3    0    0 -0.48915119476E+01  0.27136099187E+01 -0.90184947956E+01  0.10612436882E+02  0.51100000000E-03 0.  1.
        -12    1    3    3    0    0 -0.24808317544E+02  0.21841847618E+02  0.20978982332E+02  0.39148903259E+02  0.00000000000E+00 0.  1.
</event>
<event>
 7    1  0.3032584E-015  0.9000783E+02  0.7816164E-02  0.1186339E+00
        -11   -1    0    0    0    0  0.00000000000E+00  0.00000000000E+00  0.45593999997E+02  0.45594000000E+02  0.51100000000E-03 0. -1.
         11   -1    0    0    0    0 -0.00000000000E+00 -0.00000000000E+00 -0.45593999997E+02  0.45594000000E+02  0.51100000000E-03 0.  1.
    9900012    2    1    2    0    0  0.89970379267E+00  0.75091430420E+00 -0.13946955301E+00  0.90007834349E+02  0.90000096963E+02 0.  0.
         12    1    1    2    0    0 -0.89970379267E+00 -0.75091430420E+00  0.13946955301E+00  0.11801656507E+01  0.00000000000E+00 0. -1.
         11    1    3    3    0    0 -0.32304892990E+02  0.14981868142E+02  0.12365386869E+02  0.37695693080E+02  0.51100000000E-03 0. -1.
        -11    1    3    3    0    0  0.16611298624E+01  0.79019317621E+01  0.55097345163E+01  0.97753287767E+01  0.51100000000E-03 0.  1.
        -12    1    3    3    0    0  0.31543466920E+02 -0.22132885600E+02 -0.18014590939E+02  0.42536812492E+02  0.00000000000E+00 0.  1.
</event>
<event>
 7    1  0.3032584E-015  0.9000706E+02  0.7816164E-02  0.1186340E+00
        -11   -1    0    0    0    0  0.00000000000E+00  0.00000000000E+00  0.45593999997E+02  0.45594000000E+02  0.51100000000E-03 0. -1.
         11   -1    0    0    0    0 -0.00000000000E+00 -0.00000000000E+00 -0.45593999997E+02  0.45594000000E+02  0.51100000000E-03 0.  1.
    9900012    2    1    2    0    0  0.10204414326E+01  0.45708151208E+00 -0.37999048061E+00  0.90007060971E+02  0.89999313373E+02 0.  0.
         12    1    1    2    0    0 -0.10204414326E+01 -0.45708151208E+00  0.37999048061E+00  0.11809390295E+01  0.00000000000E+00 0. -1.
         11    1    3    3    0    0  0.17467788134E+02  0.16496725103E+02  0.21063513957E+02  0.31952107628E+02  0.51100000000E-03 0. -1.
        -11    1    3    3    0    0  0.16859079588E+02 -0.10796142163E+02 -0.10504466863E+02  0.22608163891E+02  0.51100000000E-03 0.  1.
        -12    1    3    3    0    0 -0.33306426289E+02 -0.52435014273E+01 -0.10939037574E+02  0.35446789452E+02  0.00000000000E+00 0.  1.
</event>
<event>
 7    1  0.3032584E-015  0.9000778E+02  0.7816164E-02  0.1186339E+00
        -11   -1    0    0    0    0  0.00000000000E+00  0.00000000000E+00  0.45593999997E+02  0.45594000000E+02  0.51100000000E-03 0. -1.
         11   -1    0    0    0    0 -0.00000000000E+00 -0.00000000000E+00 -0.45593999997E+02  0.45594000000E+02  0.51100000000E-03 0.  1.
    9900012    2    1    2    0    0  0.11431531121E+01  0.14917485902E+00 -0.25271178798E+00  0.90007781620E+02  0.90000043538E+02 0.  0.
         12    1    1    2    0    0 -0.11431531121E+01 -0.14917485902E+00  0.25271178798E+00  0.11802183799E+01  0.00000000000E+00 0. -1.
         11    1    3    3    0    0  0.29121719562E+02  0.16355316231E+02  0.19331966368E+02  0.38591395973E+02  0.51100000000E-03 0. -1.
        -11    1    3    3    0    0  0.14123237912E+01  0.68402837614E+01  0.31820525731E+01  0.76752589055E+01  0.51100000000E-03 0.  1.
        -12    1    3    3    0    0 -0.29390890241E+02 -0.23046425133E+02 -0.22766730729E+02  0.43741126742E+02  0.00000000000E+00 0.  1.
</event>
<event>
 7    1  0.3032584E-015  0.9000769E+02  0.7816164E-02  0.1186339E+00
        -11   -1    0    0    0    0  0.00000000000E+00  0.00000000000E+00  0.45593999997E+02  0.45594000000E+02  0.51100000000E-03 0.  1.
         11   -1    0    0    0    0 -0.00000000000E+00 -0.00000000000E+00 -0.45593999997E+02  0.45594000000E+02  0.51100000000E-03 0. -1.
    9900012    2    1    2    0    0 -0.84813015481E-01 -0.11659600825E+01 -0.16273806236E+00  0.90007686551E+02  0.89999947213E+02 0.  0.
         12    1    1    2    0    0  0.84813015481E-01  0.11659600825E+01  0.16273806236E+00  0.11803134492E+01  0.00000000000E+00 0. -1.
         11    1    3    3    0    0  0.28469270249E+02  0.82800164573E+01 -0.18719980145E+02  0.35064165154E+02  0.51100000000E-03 0. -1.
        -11    1    3    3    0    0  0.86946521152E+01 -0.90137527107E+00 -0.49802440354E+01  0.10060431586E+02  0.51100000000E-03 0.  1.
        -12    1    3    3    0    0 -0.37248735380E+02 -0.85446012687E+01  0.23537486118E+02  0.44883089811E+02  0.00000000000E+00 0.  1.
</event>
<event>
 7    1  0.3032584E-015  0.9000776E+02  0.7816164E-02  0.1186339E+00
        -11   -1    0    0    0    0  0.00000000000E+00  0.00000000000E+00  0.45593999997E+02  0.45594000000E+02  0.51100000000E-03 0.  1.
         11   -1    0    0    0    0 -0.00000000000E+00 -0.00000000000E+00 -0.45593999997E+02  0.45594000000E+02  0.51100000000E-03 0. -1.
    9900012    2    1    2    0    0  0.37196659293E+00  0.90862059004E+00 -0.65499058841E+00  0.90007761383E+02  0.90000023033E+02 0.  0.
         12    1    1    2    0    0 -0.37196659293E+00 -0.90862059004E+00  0.65499058841E+00  0.11802386173E+01  0.00000000000E+00 0. -1.
         11    1    3    3    0    0  0.27799938307E+02  0.25685071794E+02 -0.67222234694E+01  0.38441485033E+02  0.51100000000E-03 0. -1.
        -11    1    3    3    0    0  0.73778518655E+01  0.15841961417E+01  0.97918476685E+00  0.76092823993E+01  0.51100000000E-03 0.  1.
        -12    1    3    3    0    0 -0.34805823580E+02 -0.26360647345E+02  0.50880481141E+01  0.43956993950E+02  0.00000000000E+00 0.  1.
</event>
<event>
 7    1  0.3032584E-015  0.9000790E+02  0.7816164E-02  0.1186339E+00
        -11   -1    0    0    0    0  0.00000000000E+00  0.00000000000E+00  0.45593999997E+02  0.45594000000E+02  0.51100000000E-03 0. -1.
         11   -1    0    0    0    0 -0.00000000000E+00 -0.00000000000E+00 -0.45593999997E+02  0.45594000000E+02  0.51100000000E-03 0.  1.
    9900012    2    1    2    0    0 -0.50838606875E+00  0.73707916004E+00 -0.76868917986E+00  0.90007904606E+02  0.90000168147E+02 0.  0.
         12    1    1    2    0    0  0.50838606875E+00 -0.73707916004E+00  0.76868917986E+00  0.11800953937E+01  0.00000000000E+00 0. -1.
         11    1    3    3    0    0 -0.21596703181E+02  0.30643269028E+02 -0.12262001270E+02  0.39443430383E+02  0.51100000000E-03 0. -1.
        -11    1    3    3    0    0  0.11553925993E+02  0.88219625616E+00 -0.68684413243E+01  0.13470225038E+02  0.51100000000E-03 0.  1.
        -12    1    3    3    0    0  0.95343911191E+01 -0.30788386124E+02  0.18361753414E+02  0.37094249185E+02  0.00000000000E+00 0.  1.
</event>
<event>
 7    1  0.3032584E-015  0.9000765E+02  0.7816164E-02  0.1186339E+00
        -11   -1    0    0    0    0  0.00000000000E+00  0.00000000000E+00  0.45593999997E+02  0.45594000000E+02  0.51100000000E-03 0. -1.
         11   -1    0    0    0    0 -0.00000000000E+00 -0.00000000000E+00 -0.45593999997E+02  0.45594000000E+02  0.51100000000E-03 0.  1.
    9900012    2    1    2    0    0 -0.70996080795E+00  0.47977122537E+00 -0.81179266247E+00  0.90007647466E+02  0.89999907613E+02 0.  0.
         12    1    1    2    0    0  0.70996080795E+00 -0.47977122537E+00  0.81179266247E+00  0.11803525339E+01  0.00000000000E+00 0. -1.
         11    1    3    3    0    0 -0.12146039296E+02 -0.42537817026E+01  0.35214065601E+02  0.37492017094E+02  0.51100000000E-03 0. -1.
        -11    1    3    3    0    0  0.39848541482E+01 -0.44000974732E+01  0.62543445147E+01  0.86230357720E+01  0.51100000000E-03 0.  1.
        -12    1    3    3    0    0  0.74512243400E+01  0.91336504011E+01 -0.42280202778E+02  0.43892594600E+02  0.00000000000E+00 0.  1.
</event>
<event>
 7    1  0.3032584E-015  0.9000774E+02  0.7816164E-02  0.1186339E+00
        -11   -1    0    0    0    0  0.00000000000E+00  0.00000000000E+00  0.45593999997E+02  0.45594000000E+02  0.51100000000E-03 0.  1.
         11   -1    0    0    0    0 -0.00000000000E+00 -0.00000000000E+00 -0.45593999997E+02  0.45594000000E+02  0.51100000000E-03 0. -1.
    9900012    2    1    2    0    0 -0.11664811308E+01 -0.56115690624E-01 -0.17081254184E+00  0.90007744043E+02  0.90000005465E+02 0.  0.
         12    1    1    2    0    0  0.11664811308E+01  0.56115690624E-01  0.17081254184E+00  0.11802559568E+01  0.00000000000E+00 0. -1.
         11    1    3    3    0    0 -0.25212203675E+01 -0.37427229406E+01  0.39771956672E+01  0.60151984828E+01  0.51100000000E-03 0. -1.
        -11    1    3    3    0    0 -0.14364695689E+02 -0.45467382896E+01  0.36582792648E+02  0.39564100262E+02  0.51100000000E-03 0.  1.
         12    1    3    3    0    0  0.15719434926E+02  0.82333455395E+01 -0.40730800857E+02  0.44428445299E+02  0.00000000000E+00 0. -1.
</event>
<event>
 7    1  0.3032584E-015  0.9000771E+02  0.7816164E-02  0.1186339E+00
        -11   -1    0    0    0    0  0.00000000000E+00  0.00000000000E+00  0.45593999997E+02  0.45594000000E+02  0.51100000000E-03 0. -1.
         11   -1    0    0    0    0 -0.00000000000E+00 -0.00000000000E+00 -0.45593999997E+02  0.45594000000E+02  0.51100000000E-03 0.  1.
    9900012    2    1    2    0    0  0.76665155016E-01 -0.47002326614E+00 -0.10799488877E+01  0.90007708080E+02  0.89999969027E+02 0.  0.
         12    1    1    2    0    0 -0.76665155016E-01  0.47002326614E+00  0.10799488877E+01  0.11802919201E+01  0.00000000000E+00 0. -1.
         11    1    3    3    0    0 -0.65933907102E+00 -0.87745538811E+01  0.35994490307E+01  0.95070267386E+01  0.51100000000E-03 0. -1.
        -11    1    3    3    0    0  0.15703210092E+00 -0.12504667954E+02 -0.38670049708E+02  0.40641901093E+02  0.51100000000E-03 0.  1.
         12    1    3    3    0    0  0.57897212512E+00  0.20809198569E+02  0.33990651790E+02  0.39858780249E+02  0.00000000000E+00 0. -1.
</event>
<event>
 7    1  0.3032584E-015  0.9000773E+02  0.7816164E-02  0.1186339E+00
        -11   -1    0    0    0    0  0.00000000000E+00  0.00000000000E+00  0.45593999997E+02  0.45594000000E+02  0.51100000000E-03 0.  1.
         11   -1    0    0    0    0 -0.00000000000E+00 -0.00000000000E+00 -0.45593999997E+02  0.45594000000E+02  0.51100000000E-03 0. -1.
    9900012    2    1    2    0    0 -0.10063435746E+01 -0.59861048149E+00 -0.14825602984E+00  0.90007728104E+02  0.89999989315E+02 0.  0.
         12    1    1    2    0    0  0.10063435746E+01  0.59861048149E+00  0.14825602984E+00  0.11802718963E+01  0.00000000000E+00 0. -1.
         11    1    3    3    0    0 -0.52743770821E+01  0.50842742684E+01  0.69678025094E+01  0.10110349673E+02  0.51100000000E-03 0. -1.
        -11    1    3    3    0    0 -0.28394526409E+01  0.26489471961E+02  0.23047711435E+02  0.35227143209E+02  0.51100000000E-03 0.  1.
         12    1    3    3    0    0  0.71074861483E+01 -0.32172356711E+02 -0.30163769974E+02  0.44670235221E+02  0.00000000000E+00 0. -1.
</event>
<event>
 7    1  0.3032584E-015  0.9000771E+02  0.7816164E-02  0.1186339E+00
        -11   -1    0    0    0    0  0.00000000000E+00  0.00000000000E+00  0.45593999997E+02  0.45594000000E+02  0.51100000000E-03 0.  1.
         11   -1    0    0    0    0 -0.00000000000E+00 -0.00000000000E+00 -0.45593999997E+02  0.45594000000E+02  0.51100000000E-03 0. -1.
    9900012    2    1    2    0    0  0.91917508287E+00 -0.58679335608E+00 -0.45151293022E+00  0.90007714779E+02  0.89999975815E+02 0.  0.
         12    1    1    2    0    0 -0.91917508287E+00  0.58679335608E+00  0.45151293022E+00  0.11802852206E+01  0.00000000000E+00 0. -1.
         11    1    3    3    0    0 -0.21283264671E+02 -0.25084151599E+02 -0.25126316431E+02  0.41394731478E+02  0.51100000000E-03 0. -1.
        -11    1    3    3    0    0 -0.34533302066E+00  0.83727154022E+01 -0.35060020348E+01  0.90837034644E+01  0.51100000000E-03 0.  1.
        -12    1    3    3    0    0  0.22547772774E+02  0.16124642841E+02  0.28180805535E+02  0.39529279837E+02  0.00000000000E+00 0.  1.
</event>
<event>
 7    1  0.3032584E-015  0.9000774E+02  0.7816164E-02  0.1186339E+00
        -11   -1    0    0    0    0  0.00000000000E+00  0.00000000000E+00  0.45593999997E+02  0.45594000000E+02  0.51100000000E-03 0.  1.
         11   -1    0    0    0    0 -0.00000000000E+00 -0.00000000000E+00 -0.45593999997E+02  0.45594000000E+02  0.51100000000E-03 0. -1.
    9900012    2    1    2    0    0  0.40441675316E+00 -0.10769417593E+01 -0.26392271062E+00  0.90007740850E+02  0.90000002230E+02 0.  0.
         12    1    1    2    0    0 -0.40441675316E+00  0.10769417593E+01  0.26392271062E+00  0.11802591496E+01  0.00000000000E+00 0. -1.
         11    1    3    3    0    0 -0.11900170933E+02  0.71735363098E+01 -0.38733392644E+02  0.41150326820E+02  0.51100000000E-03 0. -1.
        -11    1    3    3    0    0 -0.56258184489E+01 -0.51073165065E+01  0.16379400058E+01  0.77728606601E+01  0.51100000000E-03 0.  1.
        -12    1    3    3    0    0  0.17930406135E+02 -0.31431615626E+01  0.36831529928E+02  0.41084553370E+02  0.00000000000E+00 0.  1.
</event>
<event>
 7    1  0.3744748E-015  0.9000770E+02  0.7816164E-02  0.1186339E+00
        -11   -1    0    0    0    0  0.00000000000E+00  0.00000000000E+00  0.45593999997E+02  0.45594000000E+02  0.51100000000E-03 0.  1.
         11   -1    0    0    0    0 -0.00000000000E+00 -0.00000000000E+00 -0.45593999997E+02  0.45594000000E+02  0.51100000000E-03 0. -1.
    9900012    2    1    2    0    0  0.77912140959E+00 -0.87874150232E+00  0.11786579515E+00  0.90007699553E+02  0.89999960387E+02 0.  0.
         12    1    1    2    0    0 -0.77912140959E+00  0.87874150232E+00 -0.11786579515E+00  0.11803004467E+01  0.00000000000E+00 0. -1.
         11    1    3    3    0    0 -0.88169642162E+00  0.56310671809E+01 -0.39643246980E+02  0.40050884354E+02  0.51100000000E-03 0. -1.
        -11    1    3    3    0    0  0.73912024409E+01 -0.63934314642E+01 -0.12131255782E-01  0.97727164513E+01  0.51100000000E-03 0.  1.
        -12    1    3    3    0    0 -0.57303846097E+01 -0.11637721898E+00  0.39773244031E+02  0.40184098748E+02  0.00000000000E+00 0.  1.
</event>
<event>
 7    1  0.3032584E-015  0.9000779E+02  0.7816164E-02  0.1186339E+00
        -11   -1    0    0    0    0  0.00000000000E+00  0.00000000000E+00  0.45593999997E+02  0.45594000000E+02  0.51100000000E-03 0. -1.
         11   -1    0    0    0    0 -0.00000000000E+00 -0.00000000000E+00 -0.45593999997E+02  0.45594000000E+02  0.51100000000E-03 0.  1.
    9900012    2    1    2    0    0 -0.11618340227E+01  0.18547694952E+00 -0.92936616038E-01  0.90007789337E+02  0.90000051356E+02 0.  0.
         12    1    1    2    0    0  0.11618340227E+01 -0.18547694952E+00  0.92936616038E-01  0.11802106633E+01  0.00000000000E+00 0. -1.
         11    1    3    3    0    0 -0.71265872887E+00  0.85241035426E+01 -0.20233558870E+01  0.87898915224E+01  0.51100000000E-03 0. -1.
        -11    1    3    3    0    0 -0.83684429940E+01  0.34162086916E+02 -0.96301331258E+01  0.36466676362E+02  0.51100000000E-03 0.  1.
         12    1    3    3    0    0  0.79192677001E+01 -0.42500713510E+02  0.11560552397E+02  0.44751221452E+02  0.00000000000E+00 0. -1.
</event>
<event>
 7    1  0.3032584E-015  0.9000780E+02  0.7816164E-02  0.1186339E+00
        -11   -1    0    0    0    0  0.00000000000E+00  0.00000000000E+00  0.45593999997E+02  0.45594000000E+02  0.51100000000E-03 0.  1.
         11   -1    0    0    0    0 -0.00000000000E+00 -0.00000000000E+00 -0.45593999997E+02  0.45594000000E+02  0.51100000000E-03 0. -1.
    9900012    2    1    2    0    0  0.32385713965E+00 -0.12360215124E+00  0.11281411725E+01  0.90007803642E+02  0.90000065850E+02 0.  0.
         12    1    1    2    0    0 -0.32385713965E+00  0.12360215124E+00 -0.11281411725E+01  0.11801963582E+01  0.00000000000E+00 0. -1.
         11    1    3    3    0    0 -0.14886049954E+01  0.55456538360E+01  0.90999668556E+01  0.10760093788E+02  0.51100000000E-03 0. -1.
        -11    1    3    3    0    0  0.18456952194E+01 -0.25397284388E+02  0.28230957343E+02  0.38018621725E+02  0.51100000000E-03 0.  1.
         12    1    3    3    0    0 -0.33233084416E-01  0.19728028401E+02 -0.36202783026E+02  0.41229088128E+02  0.00000000000E+00 0. -1.
</event>
<event>
 7    1  0.3032584E-015  0.9000775E+02  0.7816164E-02  0.1186339E+00
        -11   -1    0    0    0    0  0.00000000000E+00  0.00000000000E+00  0.45593999997E+02  0.45594000000E+02  0.51100000000E-03 0. -1.
         11   -1    0    0    0    0 -0.00000000000E+00 -0.00000000000E+00 -0.45593999997E+02  0.45594000000E+02  0.51100000000E-03 0.  1.
    9900012    2    1    2    0    0 -0.57961716354E+00 -0.66647725550E+00 -0.78284413658E+00  0.90007748785E+02  0.90000010269E+02 0.  0.
         12    1    1    2    0    0  0.57961716354E+00  0.66647725550E+00  0.78284413658E+00  0.11802512150E+01  0.00000000000E+00 0. -1.
         11    1    3    3    0    0 -0.35306973895E+02  0.18165884410E+02  0.93563150574E+01  0.40793656293E+02  0.51100000000E-03 0. -1.
        -11    1    3    3    0    0 -0.36962674260E+01 -0.47750937001E+01 -0.52630742058E+01  0.80102348958E+01  0.51100000000E-03 0.  1.
        -12    1    3    3    0    0  0.38423624157E+02 -0.14057267965E+02 -0.48760849882E+01  0.41203857597E+02  0.00000000000E+00 0.  1.
</event>
<event>
 7    1  0.3032584E-015  0.9000785E+02  0.7816164E-02  0.1186339E+00
        -11   -1    0    0    0    0  0.00000000000E+00  0.00000000000E+00  0.45593999997E+02  0.45594000000E+02  0.51100000000E-03 0. -1.
         11   -1    0    0    0    0 -0.00000000000E+00 -0.00000000000E+00 -0.45593999997E+02  0.45594000000E+02  0.51100000000E-03 0.  1.
    9900012    2    1    2    0    0  0.76976933929E-01 -0.10126106189E+01 -0.60121307580E+00  0.90007846249E+02  0.90000109019E+02 0.  0.
         12    1    1    2    0    0 -0.76976933929E-01  0.10126106189E+01  0.60121307580E+00  0.11801537512E+01  0.00000000000E+00 0. -1.
         11    1    3    3    0    0 -0.11501768226E+02  0.24529712821E+02  0.11189288173E+02  0.29312073511E+02  0.51100000000E-03 0. -1.
        -11    1    3    3    0    0 -0.27475143528E+01  0.12046582818E+02  0.91217780752E+01  0.15358249517E+02  0.51100000000E-03 0.  1.
        -12    1    3    3    0    0  0.14326259513E+02 -0.37588906258E+02 -0.20912279324E+02  0.45337523221E+02  0.00000000000E+00 0.  1.
</event>
<event>
 7    1  0.3032584E-015  0.9000773E+02  0.7816164E-02  0.1186339E+00
        -11   -1    0    0    0    0  0.00000000000E+00  0.00000000000E+00  0.45593999997E+02  0.45594000000E+02  0.51100000000E-03 0. -1.
         11   -1    0    0    0    0 -0.00000000000E+00 -0.00000000000E+00 -0.45593999997E+02  0.45594000000E+02  0.51100000000E-03 0.  1.
    9900012    2    1    2    0    0  0.31025745029E+00  0.25887010358E+00 -0.11089431285E+01  0.90007733810E+02  0.89999995097E+02 0.  0.
         12    1    1    2    0    0 -0.31025745029E+00 -0.25887010358E+00  0.11089431285E+01  0.11802661896E+01  0.00000000000E+00 0. -1.
         11    1    3    3    0    0 -0.72049238329E+00 -0.67887891228E+01 -0.65203929646E+01  0.94404603543E+01  0.51100000000E-03 0. -1.
        -11    1    3    3    0    0 -0.38424845394E+02 -0.22592406773E+01 -0.47268156567E+01  0.38780351964E+02  0.51100000000E-03 0.  1.
         12    1    3    3    0    0  0.39455595227E+02  0.93068999036E+01  0.10138265493E+02  0.41786921492E+02  0.00000000000E+00 0. -1.
</event>
<event>
 7    1  0.3032584E-015  0.9000780E+02  0.7816164E-02  0.1186339E+00
        -11   -1    0    0    0    0  0.00000000000E+00  0.00000000000E+00  0.45593999997E+02  0.45594000000E+02  0.51100000000E-03 0. -1.
         11   -1    0    0    0    0 -0.00000000000E+00 -0.00000000000E+00 -0.45593999997E+02  0.45594000000E+02  0.51100000000E-03 0.  1.
    9900012    2    1    2    0    0  0.93609794031E+00 -0.57500982219E+00  0.43122750385E+00  0.90007799674E+02  0.90000061830E+02 0.  0.
         12    1    1    2    0    0 -0.93609794031E+00  0.57500982219E+00 -0.43122750385E+00  0.11802003260E+01  0.00000000000E+00 0. -1.
         11    1    3    3    0    0  0.70974906454E+01 -0.65678602128E+01 -0.17157881092E+01  0.98211552443E+01  0.51100000000E-03 0. -1.
        -11    1    3    3    0    0  0.53581762809E+00 -0.33740090867E+02 -0.14321480121E+02  0.36657681669E+02  0.51100000000E-03 0.  1.
         12    1    3    3    0    0 -0.66972103332E+01  0.39732941258E+02  0.16468495734E+02  0.43528962760E+02  0.00000000000E+00 0. -1.
</event>
<event>
 7    1  0.3032584E-015  0.9000677E+02  0.7816164E-02  0.1186341E+00
        -11   -1    0    0    0    0  0.00000000000E+00  0.00000000000E+00  0.45593999997E+02  0.45594000000E+02  0.51100000000E-03 0. -1.
         11   -1    0    0    0    0 -0.00000000000E+00 -0.00000000000E+00 -0.45593999997E+02  0.45594000000E+02  0.51100000000E-03 0.  1.
    9900012    2    1    2    0    0  0.60830642385E+00 -0.95625701894E+00 -0.33293508725E+00  0.90006767608E+02  0.89999016135E+02 0.  0.
         12    1    1    2    0    0 -0.60830642385E+00  0.95625701894E+00  0.33293508725E+00  0.11812323920E+01  0.00000000000E+00 0. -1.
         11    1    3    3    0    0 -0.64031819496E+01  0.47346336824E+01 -0.30436873569E+01  0.85253462202E+01  0.51100000000E-03 0. -1.
        -11    1    3    3    0    0 -0.15138792732E+02  0.15296341748E+02 -0.29887753987E+02  0.36829864986E+02  0.51100000000E-03 0.  1.
         12    1    3    3    0    0  0.22150281105E+02 -0.20987232450E+02  0.32598506257E+02  0.44651556402E+02  0.00000000000E+00 0. -1.
</event>
<event>
 7    1  0.3032584E-015  0.9000772E+02  0.7816164E-02  0.1186339E+00
        -11   -1    0    0    0    0  0.00000000000E+00  0.00000000000E+00  0.45593999997E+02  0.45594000000E+02  0.51100000000E-03 0.  1.
         11   -1    0    0    0    0 -0.00000000000E+00 -0.00000000000E+00 -0.45593999997E+02  0.45594000000E+02  0.51100000000E-03 0. -1.
    9900012    2    1    2    0    0 -0.86471555652E+00 -0.22881060961E+00 -0.77004040678E+00  0.90007724813E+02  0.89999985981E+02 0.  0.
         12    1    1    2    0    0  0.86471555652E+00  0.22881060961E+00  0.77004040678E+00  0.11802751869E+01  0.00000000000E+00 0. -1.
         11    1    3    3    0    0 -0.15651141111E+02  0.10430297533E+02 -0.25797307883E+02  0.31925701542E+02  0.51100000000E-03 0. -1.
        -11    1    3    3    0    0  0.98150319413E+00 -0.38855184083E+01 -0.14829664026E+02  0.15361625474E+02  0.51100000000E-03 0.  1.
        -12    1    3    3    0    0  0.13804922361E+02 -0.67735897339E+01  0.39856931501E+02  0.42720397797E+02  0.00000000000E+00 0.  1.
</event>
<event>
 7    1  0.3032584E-015  0.9000778E+02  0.7816164E-02  0.1186339E+00
        -11   -1    0    0    0    0  0.00000000000E+00  0.00000000000E+00  0.45593999997E+02  0.45594000000E+02  0.51100000000E-03 0. -1.
         11   -1    0    0    0    0 -0.00000000000E+00 -0.00000000000E+00 -0.45593999997E+02  0.45594000000E+02  0.51100000000E-03 0.  1.
    9900012    2    1    2    0    0  0.31204700060E+00 -0.10331119600E+01  0.47771993479E+00  0.90007783923E+02  0.90000045871E+02 0.  0.
         12    1    1    2    0    0 -0.31204700060E+00  0.10331119600E+01 -0.47771993479E+00  0.11802160771E+01  0.00000000000E+00 0. -1.
         11    1    3    3    0    0  0.10965575778E+02 -0.37915770013E+02 -0.16625549703E+02  0.42828242679E+02  0.51100000000E-03 0. -1.
        -11    1    3    3    0    0  0.57307974619E+01  0.54975493268E+01  0.63803335262E+01  0.10186939890E+02  0.51100000000E-03 0.  1.
        -12    1    3    3    0    0 -0.16384326240E+02  0.31385108726E+02  0.10722936112E+02  0.36992601354E+02  0.00000000000E+00 0.  1.
</event>
<event>
 7    1  0.3032584E-015  0.9000764E+02  0.7816164E-02  0.1186339E+00
        -11   -1    0    0    0    0  0.00000000000E+00  0.00000000000E+00  0.45593999997E+02  0.45594000000E+02  0.51100000000E-03 0. -1.
         11   -1    0    0    0    0 -0.00000000000E+00 -0.00000000000E+00 -0.45593999997E+02  0.45594000000E+02  0.51100000000E-03 0.  1.
    9900012    2    1    2    0    0 -0.22340886521E+00 -0.49438005032E-01 -0.11579709335E+01  0.90007638903E+02  0.89999898936E+02 0.  0.
         12    1    1    2    0    0  0.22340886521E+00  0.49438005032E-01  0.11579709335E+01  0.11803610974E+01  0.00000000000E+00 0. -1.
         11    1    3    3    0    0  0.29007319353E+02 -0.41643429492E+01 -0.22264728743E+02  0.36803321514E+02  0.51100000000E-03 0. -1.
        -11    1    3    3    0    0 -0.65036289528E+01  0.11348231972E+02 -0.81857817775E+01  0.15430054505E+02  0.51100000000E-03 0.  1.
        -12    1    3    3    0    0 -0.22727099266E+02 -0.72333270283E+01  0.29292539587E+02  0.37774262883E+02  0.00000000000E+00 0.  1.
</event>
<event>
 7    1  0.3032584E-015  0.9000756E+02  0.7816164E-02  0.1186339E+00
        -11   -1    0    0    0    0  0.00000000000E+00  0.00000000000E+00  0.45593999997E+02  0.45594000000E+02  0.51100000000E-03 0.  1.
         11   -1    0    0    0    0 -0.00000000000E+00 -0.00000000000E+00 -0.45593999997E+02  0.45594000000E+02  0.51100000000E-03 0. -1.
    9900012    2    1    2    0    0 -0.40831212159E-01  0.55984493007E+00  0.10384296051E+01  0.90007563819E+02  0.89999822861E+02 0.  0.
         12    1    1    2    0    0  0.40831212159E-01 -0.55984493007E+00 -0.10384296051E+01  0.11804361814E+01  0.00000000000E+00 0. -1.
         11    1    3    3    0    0 -0.22777448010E+02  0.99498746530E+01 -0.16762507141E+02  0.29979889749E+02  0.51100000000E-03 0. -1.
        -11    1    3    3    0    0  0.89200951830E+00 -0.32081597827E+01 -0.17633092459E+02  0.17944746309E+02  0.51100000000E-03 0.  1.
        -12    1    3    3    0    0  0.21844607279E+02 -0.61818699403E+01  0.35434029205E+02  0.42082927760E+02  0.00000000000E+00 0.  1.
</event>
<event>
 7    1  0.3032584E-015  0.9000779E+02  0.7816164E-02  0.1186339E+00
        -11   -1    0    0    0    0  0.00000000000E+00  0.00000000000E+00  0.45593999997E+02  0.45594000000E+02  0.51100000000E-03 0. -1.
         11   -1    0    0    0    0 -0.00000000000E+00 -0.00000000000E+00 -0.45593999997E+02  0.45594000000E+02  0.51100000000E-03 0.  1.
    9900012    2    1    2    0    0  0.11650238705E+01 -0.67775773796E-01 -0.17615074994E+00  0.90007786773E+02  0.90000048758E+02 0.  0.
         12    1    1    2    0    0 -0.11650238705E+01  0.67775773796E-01  0.17615074994E+00  0.11802132270E+01  0.00000000000E+00 0. -1.
         11    1    3    3    0    0  0.25424921807E+01  0.86740294005E+01 -0.41303460784E+01  0.99379480537E+01  0.51100000000E-03 0. -1.
        -11    1    3    3    0    0  0.36929230431E+01  0.34040918034E+02 -0.83910627921E+01  0.35253818463E+02  0.51100000000E-03 0.  1.
         12    1    3    3    0    0 -0.50703913533E+01 -0.42782723208E+02  0.12345258120E+02  0.44816020256E+02  0.00000000000E+00 0. -1.
</event>
<event>
 7    1  0.3032584E-015  0.9000765E+02  0.7816164E-02  0.1186339E+00
        -11   -1    0    0    0    0  0.00000000000E+00  0.00000000000E+00  0.45593999997E+02  0.45594000000E+02  0.51100000000E-03 0.  1.
         11   -1    0    0    0    0 -0.00000000000E+00 -0.00000000000E+00 -0.45593999997E+02  0.45594000000E+02  0.51100000000E-03 0. -1.
    9900012    2    1    2    0    0 -0.30724209375E+00  0.93641893239E+00  0.64957727289E+00  0.90007648885E+02  0.89999909050E+02 0.  0.
         12    1    1    2    0    0  0.30724209375E+00 -0.93641893239E+00 -0.64957727289E+00  0.11803511149E+01  0.00000000000E+00 0. -1.
         11    1    3    3    0    0 -0.54002538894E+01  0.11088826038E+02 -0.51812192257E+01  0.13377960902E+02  0.51100000000E-03 0. -1.
        -11    1    3    3    0    0 -0.35109981680E+02 -0.28424808330E+01  0.61974387675E+01  0.35765888195E+02  0.51100000000E-03 0.  1.
         12    1    3    3    0    0  0.40202993476E+02 -0.73099262731E+01 -0.36664226892E+00  0.40863799787E+02  0.00000000000E+00 0. -1.
</event>
<event>
 7    1  0.3032584E-015  0.9000774E+02  0.7816164E-02  0.1186339E+00
        -11   -1    0    0    0    0  0.00000000000E+00  0.00000000000E+00  0.45593999997E+02  0.45594000000E+02  0.51100000000E-03 0. -1.
         11   -1    0    0    0    0 -0.00000000000E+00 -0.00000000000E+00 -0.45593999997E+02  0.45594000000E+02  0.51100000000E-03 0.  1.
    9900012    2    1    2    0    0 -0.38479853425E+00  0.67923054842E+00 -0.88521145834E+00  0.90007735887E+02  0.89999997201E+02 0.  0.
         12    1    1    2    0    0  0.38479853425E+00 -0.67923054842E+00  0.88521145834E+00  0.11802641128E+01  0.00000000000E+00 0. -1.
         11    1    3    3    0    0 -0.19740424412E+02  0.26225370821E+02  0.20550097011E+02  0.38726746805E+02  0.51100000000E-03 0. -1.
        -11    1    3    3    0    0 -0.89866468730E+01 -0.91040716785E+00 -0.40372702235E+01  0.98938472976E+01  0.51100000000E-03 0.  1.
        -12    1    3    3    0    0  0.28342272751E+02 -0.24635733105E+02 -0.17398038246E+02  0.41387141785E+02  0.00000000000E+00 0.  1.
</event>
<event>
 7    1  0.3032584E-015  0.9000774E+02  0.7816164E-02  0.1186339E+00
        -11   -1    0    0    0    0  0.00000000000E+00  0.00000000000E+00  0.45593999997E+02  0.45594000000E+02  0.51100000000E-03 0. -1.
         11   -1    0    0    0    0 -0.00000000000E+00 -0.00000000000E+00 -0.45593999997E+02  0.45594000000E+02  0.51100000000E-03 0.  1.
    9900012    2    1    2    0    0  0.99425186221E-01  0.58733435364E+00 -0.10189066431E+01  0.90007738267E+02  0.89999999612E+02 0.  0.
         12    1    1    2    0    0 -0.99425186221E-01 -0.58733435364E+00  0.10189066431E+01  0.11802617329E+01  0.00000000000E+00 0. -1.
         11    1    3    3    0    0 -0.81738271265E+01 -0.59949466193E+01 -0.10420352703E+01  0.10190028097E+02  0.51100000000E-03 0. -1.
        -11    1    3    3    0    0 -0.23402233074E+02 -0.30587606282E+01 -0.27872652526E+02  0.36522668146E+02  0.51100000000E-03 0.  1.
         12    1    3    3    0    0  0.31675485386E+02  0.96410416012E+01  0.27895781154E+02  0.43295042023E+02  0.00000000000E+00 0. -1.
</event>
<event>
 7    1  0.3032584E-015  0.9000775E+02  0.7816164E-02  0.1186339E+00
        -11   -1    0    0    0    0  0.00000000000E+00  0.00000000000E+00  0.45593999997E+02  0.45594000000E+02  0.51100000000E-03 0.  1.
         11   -1    0    0    0    0 -0.00000000000E+00 -0.00000000000E+00 -0.45593999997E+02  0.45594000000E+02  0.51100000000E-03 0. -1.
    9900012    2    1    2    0    0  0.68464814648E+00  0.65322998010E+00  0.70536340059E+00  0.90007750019E+02  0.90000011519E+02 0.  0.
         12    1    1    2    0    0 -0.68464814648E+00 -0.65322998010E+00 -0.70536340059E+00  0.11802499813E+01  0.00000000000E+00 0. -1.
         11    1    3    3    0    0 -0.11049738780E+02  0.90225235814E+01  0.26377114325E+01  0.14507245802E+02  0.51100000000E-03 0. -1.
        -11    1    3    3    0    0  0.20239961764E+00  0.32324779262E+02  0.47726725436E+01  0.32675843117E+02  0.51100000000E-03 0.  1.
         12    1    3    3    0    0  0.11531987309E+02 -0.40694072863E+02 -0.67050205755E+01  0.42824661101E+02  0.00000000000E+00 0. -1.
</event>
<event>
 7    1  0.3032584E-015  0.9000724E+02  0.7816164E-02  0.1186340E+00
        -11   -1    0    0    0    0  0.00000000000E+00  0.00000000000E+00  0.45593999997E+02  0.45594000000E+02  0.51100000000E-03 0. -1.
         11   -1    0    0    0    0 -0.00000000000E+00 -0.00000000000E+00 -0.45593999997E+02  0.45594000000E+02  0.51100000000E-03 0.  1.
    9900012    2    1    2    0    0 -0.96923240688E+00  0.52342982837E+00 -0.42520051729E+00  0.90007243580E+02  0.89999498394E+02 0.  0.
         12    1    1    2    0    0  0.96923240688E+00 -0.52342982837E+00  0.42520051729E+00  0.11807564201E+01  0.00000000000E+00 0. -1.
         11    1    3    3    0    0  0.46440771016E+01 -0.53485780734E+01  0.23108011209E+01  0.74508081183E+01  0.51100000000E-03 0. -1.
        -11    1    3    3    0    0 -0.33271502023E+02 -0.21610166817E+02 -0.13835826499E+02  0.42016928159E+02  0.51100000000E-03 0.  1.
         12    1    3    3    0    0  0.27658192514E+02  0.27482174719E+02  0.11099824861E+02  0.40539507303E+02  0.00000000000E+00 0. -1.
</event>
<event>
 7    1  0.3032584E-015  0.9000774E+02  0.7816164E-02  0.1186339E+00
        -11   -1    0    0    0    0  0.00000000000E+00  0.00000000000E+00  0.45593999997E+02  0.45594000000E+02  0.51100000000E-03 0.  1.
         11   -1    0    0    0    0 -0.00000000000E+00 -0.00000000000E+00 -0.45593999997E+02  0.45594000000E+02  0.51100000000E-03 0. -1.
    9900012    2    1    2    0    0  0.43847441496E+00 -0.10057231662E+01  0.43504521426E+00  0.90007744418E+02  0.90000005845E+02 0.  0.
         12    1    1    2    0    0 -0.43847441496E+00  0.10057231662E+01 -0.43504521426E+00  0.11802555816E+01  0.00000000000E+00 0. -1.
         11    1    3    3    0    0  0.52564575863E+01  0.76208758132E+01  0.14763491730E+01  0.93748440872E+01  0.51100000000E-03 0. -1.
        -11    1    3    3    0    0  0.93976690863E+01  0.43094823959E+01  0.36781339496E+02  0.38206737078E+02  0.51100000000E-03 0.  1.
         12    1    3    3    0    0 -0.14215652258E+02 -0.12936081375E+02 -0.37822643455E+02  0.42426163253E+02  0.00000000000E+00 0. -1.
</event>
<event>
 7    1  0.3032584E-015  0.9000798E+02  0.7816164E-02  0.1186339E+00
        -11   -1    0    0    0    0  0.00000000000E+00  0.00000000000E+00  0.45593999997E+02  0.45594000000E+02  0.51100000000E-03 0. -1.
         11   -1    0    0    0    0 -0.00000000000E+00 -0.00000000000E+00 -0.45593999997E+02  0.45594000000E+02  0.51100000000E-03 0.  1.
    9900012    2    1    2    0    0 -0.98478673719E+00 -0.50913760284E+00  0.40425308193E+00  0.90007980267E+02  0.90000244806E+02 0.  0.
         12    1    1    2    0    0  0.98478673719E+00  0.50913760284E+00 -0.40425308193E+00  0.11800197331E+01  0.00000000000E+00 0. -1.
         11    1    3    3    0    0  0.15201586670E+02 -0.84669574304E+01  0.25710026201E+02  0.31044855499E+02  0.51100000000E-03 0. -1.
        -11    1    3    3    0    0  0.15498072873E+02 -0.31027505216E+01  0.16866828286E+01  0.15895352239E+02  0.51100000000E-03 0.  1.
        -12    1    3    3    0    0 -0.31684446280E+02  0.11060570349E+02 -0.26992455948E+02  0.43067772529E+02  0.00000000000E+00 0.  1.
</event>
<event>
 7    1  0.3032584E-015  0.9000774E+02  0.7816164E-02  0.1186339E+00
        -11   -1    0    0    0    0  0.00000000000E+00  0.00000000000E+00  0.45593999997E+02  0.45594000000E+02  0.51100000000E-03 0.  1.
         11   -1    0    0    0    0 -0.00000000000E+00 -0.00000000000E+00 -0.45593999997E+02  0.45594000000E+02  0.51100000000E-03 0. -1.
    9900012    2    1    2    0    0  0.25717495062E+00  0.11166283365E+01 -0.28288951007E+00  0.90007735508E+02  0.89999996816E+02 0.  0.
         12    1    1    2    0    0 -0.25717495062E+00 -0.11166283365E+01  0.28288951007E+00  0.11802644924E+01  0.00000000000E+00 0. -1.
         11    1    3    3    0    0 -0.22243843895E+01 -0.20680902643E+01  0.58534281597E+01  0.65945056475E+01  0.51100000000E-03 0. -1.
        -11    1    3    3    0    0  0.11101602630E+02 -0.33815466328E+02  0.16456887821E+02  0.39211739326E+02  0.51100000000E-03 0.  1.
         12    1    3    3    0    0 -0.86200432900E+01  0.37000184929E+02 -0.22593205491E+02  0.44201490534E+02  0.00000000000E+00 0. -1.
</event>
<event>
 7    1  0.3032584E-015  0.9000773E+02  0.7816164E-02  0.1186339E+00
        -11   -1    0    0    0    0  0.00000000000E+00  0.00000000000E+00  0.45593999997E+02  0.45594000000E+02  0.51100000000E-03 0.  1.
         11   -1    0    0    0    0 -0.00000000000E+00 -0.00000000000E+00 -0.45593999997E+02  0.45594000000E+02  0.51100000000E-03 0. -1.
    9900012    2    1    2    0    0 -0.77228658357E+00  0.71707520229E+00  0.53143028067E+00  0.90007728185E+02  0.89999989398E+02 0.  0.
         12    1    1    2    0    0  0.77228658357E+00 -0.71707520229E+00 -0.53143028067E+00  0.11802718145E+01  0.00000000000E+00 0. -1.
         11    1    3    3    0    0 -0.46501397319E+01 -0.11296095066E+01  0.15963335743E+02  0.16665170431E+02  0.51100000000E-03 0. -1.
        -11    1    3    3    0    0 -0.11870867555E+02  0.33935825706E+02 -0.80789703736E+01  0.36848711313E+02  0.51100000000E-03 0.  1.
         12    1    3    3    0    0  0.15748720703E+02 -0.32089140997E+02 -0.73529350891E+01  0.36493846442E+02  0.00000000000E+00 0. -1.
</event>
<event>
 7    1  0.3032584E-015  0.9000786E+02  0.7816164E-02  0.1186339E+00
        -11   -1    0    0    0    0  0.00000000000E+00  0.00000000000E+00  0.45593999997E+02  0.45594000000E+02  0.51100000000E-03 0.  1.
         11   -1    0    0    0    0 -0.00000000000E+00 -0.00000000000E+00 -0.45593999997E+02  0.45594000000E+02  0.51100000000E-03 0. -1.
    9900012    2    1    2    0    0  0.10227523204E+01  0.15996255159E+00  0.56668374150E+00  0.90007855606E+02  0.90000118500E+02 0.  0.
         12    1    1    2    0    0 -0.10227523204E+01 -0.15996255159E+00 -0.56668374150E+00  0.11801443936E+01  0.00000000000E+00 0. -1.
         11    1    3    3    0    0 -0.77128840641E+00 -0.13542673997E+01  0.81378556334E+01  0.82857480390E+01  0.51100000000E-03 0. -1.
        -11    1    3    3    0    0 -0.14910636451E+02  0.34437273142E+02  0.12683827126E+02  0.39612275013E+02  0.51100000000E-03 0.  1.
         12    1    3    3    0    0  0.16704677177E+02 -0.32923043191E+02 -0.20254999018E+02  0.42109832555E+02  0.00000000000E+00 0. -1.
</event>
<event>
 7    1  0.3032584E-015  0.9000775E+02  0.7816164E-02  0.1186339E+00
        -11   -1    0    0    0    0  0.00000000000E+00  0.00000000000E+00  0.45593999997E+02  0.45594000000E+02  0.51100000000E-03 0. -1.
         11   -1    0    0    0    0 -0.00000000000E+00 -0.00000000000E+00 -0.45593999997E+02  0.45594000000E+02  0.51100000000E-03 0.  1.
    9900012    2    1    2    0    0 -0.25241570824E+00 -0.11510514883E+01  0.65930384427E-01  0.90007754248E+02  0.90000015805E+02 0.  0.
         12    1    1    2    0    0  0.25241570824E+00  0.11510514883E+01 -0.65930384427E-01  0.11802457515E+01  0.00000000000E+00 0. -1.
         11    1    3    3    0    0 -0.16807288678E+02  0.20122958817E+02 -0.30064292212E+02  0.39890852219E+02  0.51100000000E-03 0. -1.
        -11    1    3    3    0    0  0.58248844465E+01  0.64948809308E+01  0.15738056685E+01  0.88650787737E+01  0.51100000000E-03 0.  1.
        -12    1    3    3    0    0  0.10729988523E+02 -0.27768891236E+02  0.28556416928E+02  0.41251823256E+02  0.00000000000E+00 0.  1.
</event>
<event>
 7    1  0.3032584E-015  0.9000760E+02  0.7816164E-02  0.1186339E+00
        -11   -1    0    0    0    0  0.00000000000E+00  0.00000000000E+00  0.45593999997E+02  0.45594000000E+02  0.51100000000E-03 0.  1.
         11   -1    0    0    0    0 -0.00000000000E+00 -0.00000000000E+00 -0.45593999997E+02  0.45594000000E+02  0.51100000000E-03 0. -1.
    9900012    2    1    2    0    0  0.38182005607E+00  0.20289277744E+00  0.10983540832E+01  0.90007604419E+02  0.89999863998E+02 0.  0.
         12    1    1    2    0    0 -0.38182005607E+00 -0.20289277744E+00 -0.10983540832E+01  0.11803955805E+01  0.00000000000E+00 0. -1.
         11    1    3    3    0    0 -0.60580834925E+01  0.69634071388E+01  0.18734350530E+01  0.94180238767E+01  0.51100000000E-03 0. -1.
        -11    1    3    3    0    0 -0.28664084758E+02  0.85026311513E+01 -0.21720220528E+02  0.36955276640E+02  0.51100000000E-03 0.  1.
         12    1    3    3    0    0  0.35103988306E+02 -0.15263145513E+02  0.20945139558E+02  0.43634303903E+02  0.00000000000E+00 0. -1.
</event>
<event>
 7    1  0.3032584E-015  0.9000750E+02  0.7816164E-02  0.1186340E+00
        -11   -1    0    0    0    0  0.00000000000E+00  0.00000000000E+00  0.45593999997E+02  0.45594000000E+02  0.51100000000E-03 0.  1.
         11   -1    0    0    0    0 -0.00000000000E+00 -0.00000000000E+00 -0.45593999997E+02  0.45594000000E+02  0.51100000000E-03 0. -1.
    9900012    2    1    2    0    0 -0.62717919846E-01 -0.11637056550E+01 -0.18822331645E+00  0.90007503322E+02  0.89999761566E+02 0.  0.
         12    1    1    2    0    0  0.62717919846E-01  0.11637056550E+01  0.18822331645E+00  0.11804966776E+01  0.00000000000E+00 0. -1.
         11    1    3    3    0    0  0.15269029910E+01 -0.26521347107E+01 -0.90429698569E+01  0.95467562743E+01  0.51100000000E-03 0. -1.
        -11    1    3    3    0    0 -0.27935333343E+02 -0.22581395067E+02  0.22352754583E+02  0.42307775762E+02  0.51100000000E-03 0.  1.
         12    1    3    3    0    0  0.26345712433E+02  0.24069824122E+02 -0.13498008043E+02  0.38152971286E+02  0.00000000000E+00 0. -1.
</event>
<event>
 7    1  0.3032584E-015  0.9000773E+02  0.7816164E-02  0.1186339E+00
        -11   -1    0    0    0    0  0.00000000000E+00  0.00000000000E+00  0.45593999997E+02  0.45594000000E+02  0.51100000000E-03 0. -1.
         11   -1    0    0    0    0 -0.00000000000E+00 -0.00000000000E+00 -0.45593999997E+02  0.45594000000E+02  0.51100000000E-03 0.  1.
    9900012    2    1    2    0    0 -0.10884958106E+01 -0.51379875355E-01 -0.45340937024E+00  0.90007727541E+02  0.89999988744E+02 0.  0.
         12    1    1    2    0    0  0.10884958106E+01  0.51379875355E-01  0.45340937024E+00  0.11802724593E+01  0.00000000000E+00 0. -1.
         11    1    3    3    0    0 -0.39521843660E+01  0.62918114340E+01 -0.22496271096E+01  0.77632129158E+01  0.51100000000E-03 0. -1.
        -11    1    3    3    0    0 -0.29233951469E+02 -0.23822354572E+02  0.18564713406E+02  0.42033047474E+02  0.51100000000E-03 0.  1.
         12    1    3    3    0    0  0.32097640025E+02  0.17479163262E+02 -0.16768495666E+02  0.40211467151E+02  0.00000000000E+00 0. -1.
</event>
<event>
 7    1  0.3032584E-015  0.9000774E+02  0.7816164E-02  0.1186339E+00
        -11   -1    0    0    0    0  0.00000000000E+00  0.00000000000E+00  0.45593999997E+02  0.45594000000E+02  0.51100000000E-03 0. -1.
         11   -1    0    0    0    0 -0.00000000000E+00 -0.00000000000E+00 -0.45593999997E+02  0.45594000000E+02  0.51100000000E-03 0.  1.
    9900012    2    1    2    0    0  0.24641481520E+00 -0.11402332934E+01  0.17935686852E+00  0.90007736847E+02  0.89999998173E+02 0.  0.
         12    1    1    2    0    0 -0.24641481520E+00  0.11402332934E+01 -0.17935686852E+00  0.11802631533E+01  0.00000000000E+00 0. -1.
         11    1    3    3    0    0 -0.79463510454E+01 -0.11087911060E+01  0.31201047549E+01  0.86086564920E+01  0.51100000000E-03 0. -1.
        -11    1    3    3    0    0 -0.15524400373E+01 -0.37456985705E+02 -0.15744614668E+02  0.40661145329E+02  0.51100000000E-03 0.  1.
         12    1    3    3    0    0  0.97452058980E+01  0.37425543517E+02  0.12803866782E+02  0.40737935026E+02  0.00000000000E+00 0. -1.
</event>
<event>
 7    1  0.3032584E-015  0.9000757E+02  0.7816164E-02  0.1186339E+00
        -11   -1    0    0    0    0  0.00000000000E+00  0.00000000000E+00  0.45593999997E+02  0.45594000000E+02  0.51100000000E-03 0. -1.
         11   -1    0    0    0    0 -0.00000000000E+00 -0.00000000000E+00 -0.45593999997E+02  0.45594000000E+02  0.51100000000E-03 0.  1.
    9900012    2    1    2    0    0  0.69032735428E+00  0.25486511039E+00 -0.92298245988E+00  0.90007574356E+02  0.89999833537E+02 0.  0.
         12    1    1    2    0    0 -0.69032735428E+00 -0.25486511039E+00  0.92298245988E+00  0.11804256443E+01  0.00000000000E+00 0. -1.
         11    1    3    3    0    0 -0.30281361376E+01  0.65003646692E+01 -0.68373517068E+01  0.99082656365E+01  0.51100000000E-03 0. -1.
        -11    1    3    3    0    0 -0.24654563308E+02 -0.16076700061E+02 -0.23802126537E+02  0.37852992018E+02  0.51100000000E-03 0.  1.
         12    1    3    3    0    0  0.28373026800E+02  0.98312005025E+01  0.29716495784E+02  0.42246316701E+02  0.00000000000E+00 0. -1.
</event>
<event>
 7    1  0.3032584E-015  0.9000770E+02  0.7816164E-02  0.1186339E+00
        -11   -1    0    0    0    0  0.00000000000E+00  0.00000000000E+00  0.45593999997E+02  0.45594000000E+02  0.51100000000E-03 0.  1.
         11   -1    0    0    0    0 -0.00000000000E+00 -0.00000000000E+00 -0.45593999997E+02  0.45594000000E+02  0.51100000000E-03 0. -1.
    9900012    2    1    2    0    0 -0.11662197724E+01 -0.14396688383E+00  0.11091675911E+00  0.90007704466E+02  0.89999965365E+02 0.  0.
         12    1    1    2    0    0  0.11662197724E+01  0.14396688383E+00 -0.11091675911E+00  0.11802955344E+01  0.00000000000E+00 0. -1.
         11    1    3    3    0    0  0.35163750276E+01 -0.42800922773E+02 -0.95036129373E+01  0.43984116936E+02  0.51100000000E-03 0. -1.
        -11    1    3    3    0    0 -0.21536171780E+01  0.52340120438E+01  0.61463764475E+01  0.83552913007E+01  0.51100000000E-03 0.  1.
        -12    1    3    3    0    0 -0.25289776220E+01  0.37422943845E+02  0.34681532489E+01  0.37668296229E+02  0.00000000000E+00 0.  1.
</event>
<event>
 7    1  0.3032584E-015  0.9000772E+02  0.7816164E-02  0.1186339E+00
        -11   -1    0    0    0    0  0.00000000000E+00  0.00000000000E+00  0.45593999997E+02  0.45594000000E+02  0.51100000000E-03 0. -1.
         11   -1    0    0    0    0 -0.00000000000E+00 -0.00000000000E+00 -0.45593999997E+02  0.45594000000E+02  0.51100000000E-03 0.  1.
    9900012    2    1    2    0    0  0.74011961634E+00 -0.10714105396E+00 -0.91312788015E+00  0.90007720890E+02  0.89999982006E+02 0.  0.
         12    1    1    2    0    0 -0.74011961634E+00  0.10714105396E+00  0.91312788015E+00  0.11802791100E+01  0.00000000000E+00 0. -1.
         11    1    3    3    0    0  0.65099110038E+01 -0.58963430951E+01  0.27380825945E+01  0.92001575926E+01  0.51100000000E-03 0. -1.
        -11    1    3    3    0    0  0.37637216675E+01 -0.23782037945E+02 -0.31112348357E+02  0.39341188977E+02  0.51100000000E-03 0.  1.
         12    1    3    3    0    0 -0.95335130549E+01  0.29571239986E+02  0.27461137882E+02  0.41466374320E+02  0.00000000000E+00 0. -1.
</event>
<event>
 7    1  0.3032584E-015  0.9000763E+02  0.7816164E-02  0.1186339E+00
        -11   -1    0    0    0    0  0.00000000000E+00  0.00000000000E+00  0.45593999997E+02  0.45594000000E+02  0.51100000000E-03 0.  1.
         11   -1    0    0    0    0 -0.00000000000E+00 -0.00000000000E+00 -0.45593999997E+02  0.45594000000E+02  0.51100000000E-03 0. -1.
    9900012    2    1    2    0    0 -0.37457918138E+00 -0.10725014974E+01  0.32047391576E+00  0.90007630331E+02  0.89999890251E+02 0.  0.
         12    1    1    2    0    0  0.37457918138E+00  0.10725014974E+01 -0.32047391576E+00  0.11803696691E+01  0.00000000000E+00 0. -1.
         11    1    3    3    0    0  0.31798113699E+02 -0.75708850462E+01 -0.14262568321E+02  0.35663134896E+02  0.51100000000E-03 0. -1.
        -11    1    3    3    0    0  0.64759187771E+01 -0.34897802240E+01 -0.59439019106E+01  0.94575927278E+01  0.51100000000E-03 0.  1.
        -12    1    3    3    0    0 -0.38648611658E+02  0.99881637728E+01  0.20526944147E+02  0.44886902707E+02  0.00000000000E+00 0.  1.
</event>
<event>
 7    1  0.3032584E-015  0.9000767E+02  0.7816164E-02  0.1186339E+00
        -11   -1    0    0    0    0  0.00000000000E+00  0.00000000000E+00  0.45593999997E+02  0.45594000000E+02  0.51100000000E-03 0.  1.
         11   -1    0    0    0    0 -0.00000000000E+00 -0.00000000000E+00 -0.45593999997E+02  0.45594000000E+02  0.51100000000E-03 0. -1.
    9900012    2    1    2    0    0 -0.83010393652E+00  0.34598199018E+00  0.76446874475E+00  0.90007665918E+02  0.89999926308E+02 0.  0.
         12    1    1    2    0    0  0.83010393652E+00 -0.34598199018E+00 -0.76446874475E+00  0.11803340818E+01  0.00000000000E+00 0. -1.
         11    1    3    3    0    0 -0.38524673170E+01  0.23929213233E+00 -0.92030515220E+01  0.99797255840E+01  0.51100000000E-03 0. -1.
        -11    1    3    3    0    0 -0.79333256553E+01  0.38215606452E+02  0.10328478741E+02  0.40373849281E+02  0.51100000000E-03 0.  1.
         12    1    3    3    0    0  0.10955689036E+02 -0.38108916594E+02 -0.36095847376E+00  0.39654091053E+02  0.00000000000E+00 0. -1.
</event>
<event>
 7    1  0.3032584E-015  0.9000782E+02  0.7816164E-02  0.1186339E+00
        -11   -1    0    0    0    0  0.00000000000E+00  0.00000000000E+00  0.45593999997E+02  0.45594000000E+02  0.51100000000E-03 0.  1.
         11   -1    0    0    0    0 -0.00000000000E+00 -0.00000000000E+00 -0.45593999997E+02  0.45594000000E+02  0.51100000000E-03 0. -1.
    9900012    2    1    2    0    0 -0.10566271600E+01 -0.30154447992E+00  0.43061835114E+00  0.90007821118E+02  0.90000083557E+02 0.  0.
         12    1    1    2    0    0  0.10566271600E+01  0.30154447992E+00 -0.43061835114E+00  0.11801788818E+01  0.00000000000E+00 0. -1.
         11    1    3    3    0    0 -0.38332341069E+01  0.86169406131E+01 -0.13696423606E+02  0.16629412771E+02  0.51100000000E-03 0. -1.
        -11    1    3    3    0    0  0.18260633054E+02  0.26339650438E+02 -0.84596256929E+00  0.32061558877E+02  0.51100000000E-03 0.  1.
         12    1    3    3    0    0 -0.15484026107E+02 -0.35258135531E+02  0.14973004526E+02  0.41316849470E+02  0.00000000000E+00 0. -1.
</event>
<event>
 7    1  0.3032584E-015  0.9000772E+02  0.7816164E-02  0.1186339E+00
        -11   -1    0    0    0    0  0.00000000000E+00  0.00000000000E+00  0.45593999997E+02  0.45594000000E+02  0.51100000000E-03 0. -1.
         11   -1    0    0    0    0 -0.00000000000E+00 -0.00000000000E+00 -0.45593999997E+02  0.45594000000E+02  0.51100000000E-03 0.  1.
    9900012    2    1    2    0    0  0.63795861428E-02 -0.10700075458E+01  0.49811074098E+00  0.90007715645E+02  0.89999976692E+02 0.  0.
         12    1    1    2    0    0 -0.63795861428E-02  0.10700075458E+01 -0.49811074098E+00  0.11802843545E+01  0.00000000000E+00 0. -1.
         11    1    3    3    0    0  0.91253268647E+01  0.17696854342E+01 -0.50308995388E+00  0.93089460567E+01  0.51100000000E-03 0. -1.
        -11    1    3    3    0    0 -0.23233916248E+02 -0.31379581972E+02 -0.18663492885E+02  0.43276078795E+02  0.51100000000E-03 0.  1.
         12    1    3    3    0    0  0.14114968970E+02  0.28539888992E+02  0.19664693580E+02  0.37422690794E+02  0.00000000000E+00 0. -1.
</event>
<event>
 7    1  0.3032584E-015  0.9000777E+02  0.7816164E-02  0.1186339E+00
        -11   -1    0    0    0    0  0.00000000000E+00  0.00000000000E+00  0.45593999997E+02  0.45594000000E+02  0.51100000000E-03 0. -1.
         11   -1    0    0    0    0 -0.00000000000E+00 -0.00000000000E+00 -0.45593999997E+02  0.45594000000E+02  0.51100000000E-03 0.  1.
    9900012    2    1    2    0    0  0.68799825463E+00  0.59270819028E+00 -0.75385999985E+00  0.90007767185E+02  0.90000028912E+02 0.  0.
         12    1    1    2    0    0 -0.68799825463E+00 -0.59270819028E+00  0.75385999985E+00  0.11802328146E+01  0.00000000000E+00 0. -1.
         11    1    3    3    0    0  0.18166901176E+02  0.41018553875E+01  0.25107906492E+02  0.31261293714E+02  0.51100000000E-03 0. -1.
        -11    1    3    3    0    0  0.90514019332E+01 -0.19690132792E+02 -0.10830745571E+02  0.24226726073E+02  0.51100000000E-03 0.  1.
        -12    1    3    3    0    0 -0.26530304855E+02  0.16180985595E+02 -0.15031020921E+02  0.34519747399E+02  0.00000000000E+00 0.  1.
</event>
<event>
 7    1  0.3032584E-015  0.9000753E+02  0.7816164E-02  0.1186339E+00
        -11   -1    0    0    0    0  0.00000000000E+00  0.00000000000E+00  0.45593999997E+02  0.45594000000E+02  0.51100000000E-03 0. -1.
         11   -1    0    0    0    0 -0.00000000000E+00 -0.00000000000E+00 -0.45593999997E+02  0.45594000000E+02  0.51100000000E-03 0.  1.
    9900012    2    1    2    0    0 -0.28732626657E+00 -0.56220343188E+00  0.99744045301E+00  0.90007526985E+02  0.89999785541E+02 0.  0.
         12    1    1    2    0    0  0.28732626657E+00  0.56220343188E+00 -0.99744045301E+00  0.11804730152E+01  0.00000000000E+00 0. -1.
         11    1    3    3    0    0 -0.35209322750E+01 -0.65087931779E+01  0.54183462588E+01  0.91716862767E+01  0.51100000000E-03 0. -1.
        -11    1    3    3    0    0 -0.10449260764E+02 -0.34583654331E+02 -0.10513776670E+02  0.37626529172E+02  0.51100000000E-03 0.  1.
         12    1    3    3    0    0  0.13682866773E+02  0.40530244077E+02  0.60928708638E+01  0.43209311536E+02  0.00000000000E+00 0. -1.
</event>
<event>
 7    1  0.3032584E-015  0.9000767E+02  0.7816164E-02  0.1186339E+00
        -11   -1    0    0    0    0  0.00000000000E+00  0.00000000000E+00  0.45593999997E+02  0.45594000000E+02  0.51100000000E-03 0.  1.
         11   -1    0    0    0    0 -0.00000000000E+00 -0.00000000000E+00 -0.45593999997E+02  0.45594000000E+02  0.51100000000E-03 0. -1.
    9900012    2    1    2    0    0  0.10360888709E+01 -0.41539578341E+00  0.38358938004E+00  0.90007671818E+02  0.89999932286E+02 0.  0.
         12    1    1    2    0    0 -0.10360888709E+01  0.41539578341E+00 -0.38358938004E+00  0.11803281822E+01  0.00000000000E+00 0. -1.
         11    1    3    3    0    0  0.13809266781E+02 -0.16878877747E+02 -0.22841637797E+02  0.31580576001E+02  0.51100000000E-03 0. -1.
        -11    1    3    3    0    0 -0.46341441509E+01 -0.13525846807E+02 -0.62437863562E+01  0.15601560569E+02  0.51100000000E-03 0.  1.
        -12    1    3    3    0    0 -0.81390337588E+01  0.29989328771E+02  0.29469013533E+02  0.42825535248E+02  0.00000000000E+00 0.  1.
</event>
<event>
 7    1  0.3032584E-015  0.9000760E+02  0.7816164E-02  0.1186339E+00
        -11   -1    0    0    0    0  0.00000000000E+00  0.00000000000E+00  0.45593999997E+02  0.45594000000E+02  0.51100000000E-03 0. -1.
         11   -1    0    0    0    0 -0.00000000000E+00 -0.00000000000E+00 -0.45593999997E+02  0.45594000000E+02  0.51100000000E-03 0.  1.
    9900012    2    1    2    0    0  0.41278891108E+00 -0.10909884423E+01 -0.18080798654E+00  0.90007600917E+02  0.89999860449E+02 0.  0.
         12    1    1    2    0    0 -0.41278891108E+00  0.10909884423E+01  0.18080798654E+00  0.11803990827E+01  0.00000000000E+00 0. -1.
         11    1    3    3    0    0 -0.87416115413E+01 -0.10894543412E+01  0.37578135847E+01  0.95772567209E+01  0.51100000000E-03 0. -1.
        -11    1    3    3    0    0 -0.10892890912E+02  0.36517905484E+02 -0.66429418191E+01  0.38682569326E+02  0.51100000000E-03 0.  1.
         12    1    3    3    0    0  0.20047291365E+02 -0.36519439585E+02  0.27043202479E+01  0.41747774871E+02  0.00000000000E+00 0. -1.
</event>
<event>
 7    1  0.3032584E-015  0.9000767E+02  0.7816164E-02  0.1186339E+00
        -11   -1    0    0    0    0  0.00000000000E+00  0.00000000000E+00  0.45593999997E+02  0.45594000000E+02  0.51100000000E-03 0. -1.
         11   -1    0    0    0    0 -0.00000000000E+00 -0.00000000000E+00 -0.45593999997E+02  0.45594000000E+02  0.51100000000E-03 0.  1.
    9900012    2    1    2    0    0 -0.26531224286E+00  0.77358457547E+00 -0.85108622209E+00  0.90007673164E+02  0.89999933650E+02 0.  0.
         12    1    1    2    0    0  0.26531224286E+00 -0.77358457547E+00  0.85108622209E+00  0.11803268357E+01  0.00000000000E+00 0. -1.
         11    1    3    3    0    0 -0.11922830454E+02 -0.17459682106E+02  0.11886088717E+02  0.24254349929E+02  0.51100000000E-03 0. -1.
        -11    1    3    3    0    0  0.25822963865E+02  0.17425679983E+02  0.15016723918E+02  0.34582969554E+02  0.51100000000E-03 0.  1.
         12    1    3    3    0    0 -0.14165445655E+02  0.80758669799E+00 -0.27753898856E+02  0.31170353681E+02  0.00000000000E+00 0. -1.
</event>
<event>
 7    1  0.3032584E-015  0.9000785E+02  0.7816164E-02  0.1186339E+00
        -11   -1    0    0    0    0  0.00000000000E+00  0.00000000000E+00  0.45593999997E+02  0.45594000000E+02  0.51100000000E-03 0.  1.
         11   -1    0    0    0    0 -0.00000000000E+00 -0.00000000000E+00 -0.45593999997E+02  0.45594000000E+02  0.51100000000E-03 0. -1.
    9900012    2    1    2    0    0  0.88736868879E+00 -0.29944944151E+00  0.71808939367E+00  0.90007853596E+02  0.90000116463E+02 0.  0.
         12    1    1    2    0    0 -0.88736868879E+00  0.29944944151E+00 -0.71808939367E+00  0.11801464041E+01  0.00000000000E+00 0. -1.
         11    1    3    3    0    0 -0.32234980879E+01 -0.10511505254E+02 -0.20085451701E+01  0.11176624562E+02  0.51100000000E-03 0. -1.
        -11    1    3    3    0    0  0.10865098834E+02 -0.33133848728E+02 -0.11991414564E+00  0.34869996901E+02  0.51100000000E-03 0.  1.
         12    1    3    3    0    0 -0.67542320574E+01  0.43345904541E+02  0.28465487094E+01  0.43961232133E+02  0.00000000000E+00 0. -1.
</event>
<event>
 7    1  0.3032584E-015  0.9000774E+02  0.7816164E-02  0.1186339E+00
        -11   -1    0    0    0    0  0.00000000000E+00  0.00000000000E+00  0.45593999997E+02  0.45594000000E+02  0.51100000000E-03 0.  1.
         11   -1    0    0    0    0 -0.00000000000E+00 -0.00000000000E+00 -0.45593999997E+02  0.45594000000E+02  0.51100000000E-03 0. -1.
    9900012    2    1    2    0    0  0.72671654394E+00  0.53233472493E+00  0.76256719422E+00  0.90007743282E+02  0.90000004693E+02 0.  0.
         12    1    1    2    0    0 -0.72671654394E+00 -0.53233472493E+00 -0.76256719422E+00  0.11802567180E+01  0.00000000000E+00 0. -1.
         11    1    3    3    0    0 -0.24601846589E+01  0.25838356771E+02 -0.28079075114E+02  0.38237516246E+02  0.51100000000E-03 0. -1.
        -11    1    3    3    0    0 -0.42564679490E+01  0.74753150415E+01  0.22045437207E+01  0.88801952483E+01  0.51100000000E-03 0.  1.
        -12    1    3    3    0    0  0.74433691519E+01 -0.32781337088E+02  0.26637098587E+02  0.42890031787E+02  0.00000000000E+00 0.  1.
</event>
<event>
 7    1  0.3032584E-015  0.9000756E+02  0.7816164E-02  0.1186339E+00
        -11   -1    0    0    0    0  0.00000000000E+00  0.00000000000E+00  0.45593999997E+02  0.45594000000E+02  0.51100000000E-03 0.  1.
         11   -1    0    0    0    0 -0.00000000000E+00 -0.00000000000E+00 -0.45593999997E+02  0.45594000000E+02  0.51100000000E-03 0. -1.
    9900012    2    1    2    0    0  0.11566130334E+01 -0.17991962147E-01 -0.23529959996E+00  0.90007557997E+02  0.89999816963E+02 0.  0.
         12    1    1    2    0    0 -0.11566130334E+01  0.17991962147E-01  0.23529959996E+00  0.11804420026E+01  0.00000000000E+00 0. -1.
         11    1    3    3    0    0  0.25881009360E+01  0.83916250358E+01  0.71134411563E+01  0.11301269068E+02  0.51100000000E-03 0. -1.
        -11    1    3    3    0    0  0.22831423739E+01  0.26396583633E+02  0.20883533252E+02  0.33735950082E+02  0.51100000000E-03 0.  1.
         12    1    3    3    0    0 -0.37146302764E+01 -0.34806200631E+02 -0.28232274008E+02  0.44970338848E+02  0.00000000000E+00 0. -1.
</event>
<event>
 7    1  0.3032584E-015  0.9000775E+02  0.7816164E-02  0.1186339E+00
        -11   -1    0    0    0    0  0.00000000000E+00  0.00000000000E+00  0.45593999997E+02  0.45594000000E+02  0.51100000000E-03 0. -1.
         11   -1    0    0    0    0 -0.00000000000E+00 -0.00000000000E+00 -0.45593999997E+02  0.45594000000E+02  0.51100000000E-03 0.  1.
    9900012    2    1    2    0    0 -0.79150568781E+00  0.64268613613E+00 -0.59453401811E+00  0.90007746882E+02  0.90000008341E+02 0.  0.
         12    1    1    2    0    0  0.79150568781E+00 -0.64268613613E+00  0.59453401811E+00  0.11802531178E+01  0.00000000000E+00 0. -1.
         11    1    3    3    0    0  0.11637495241E+01  0.10339850897E+02 -0.54942489071E+01  0.11766630820E+02  0.51100000000E-03 0. -1.
        -11    1    3    3    0    0 -0.15962747862E+02  0.26694484807E+01 -0.32570734546E+02  0.36370152923E+02  0.51100000000E-03 0.  1.
         12    1    3    3    0    0  0.14007492650E+02 -0.12366613242E+02  0.37470449435E+02  0.41870963140E+02  0.00000000000E+00 0. -1.
</event>
<event>
 7    1  0.3032584E-015  0.9000769E+02  0.7816164E-02  0.1186339E+00
        -11   -1    0    0    0    0  0.00000000000E+00  0.00000000000E+00  0.45593999997E+02  0.45594000000E+02  0.51100000000E-03 0. -1.
         11   -1    0    0    0    0 -0.00000000000E+00 -0.00000000000E+00 -0.45593999997E+02  0.45594000000E+02  0.51100000000E-03 0.  1.
    9900012    2    1    2    0    0  0.50824657525E+00 -0.31488120838E+00 -0.10176806459E+01  0.90007687053E+02  0.89999947722E+02 0.  0.
         12    1    1    2    0    0 -0.50824657525E+00  0.31488120838E+00  0.10176806459E+01  0.11803129473E+01  0.00000000000E+00 0. -1.
         11    1    3    3    0    0  0.97363074541E+01  0.17783458331E+02  0.31785888311E+02  0.37701323173E+02  0.51100000000E-03 0. -1.
        -11    1    3    3    0    0  0.75026399668E+01  0.70090473385E+01 -0.56693906216E+01  0.11728526819E+02  0.51100000000E-03 0.  1.
        -12    1    3    3    0    0 -0.16730700846E+02 -0.25107386878E+02 -0.27134178335E+02  0.40577837061E+02  0.00000000000E+00 0.  1.
</event>
<event>
 7    1  0.3032584E-015  0.9000769E+02  0.7816164E-02  0.1186339E+00
        -11   -1    0    0    0    0  0.00000000000E+00  0.00000000000E+00  0.45593999997E+02  0.45594000000E+02  0.51100000000E-03 0.  1.
         11   -1    0    0    0    0 -0.00000000000E+00 -0.00000000000E+00 -0.45593999997E+02  0.45594000000E+02  0.51100000000E-03 0. -1.
    9900012    2    1    2    0    0 -0.68517641214E+00 -0.93451447308E+00  0.22437243414E+00  0.90007691987E+02  0.89999952721E+02 0.  0.
         12    1    1    2    0    0  0.68517641214E+00  0.93451447308E+00 -0.22437243414E+00  0.11803080129E+01  0.00000000000E+00 0. -1.
         11    1    3    3    0    0 -0.19366028054E+02  0.40202361235E+01 -0.21370679975E+02  0.29118916600E+02  0.51100000000E-03 0. -1.
        -11    1    3    3    0    0 -0.70315411475E+01  0.16869144125E+02 -0.38055052440E+01  0.18667952883E+02  0.51100000000E-03 0.  1.
        -12    1    3    3    0    0  0.25712392790E+02 -0.21823894722E+02  0.25400557653E+02  0.42220822504E+02  0.00000000000E+00 0.  1.
</event>
<event>
 7    1  0.3032584E-015  0.9000770E+02  0.7816164E-02  0.1186339E+00
        -11   -1    0    0    0    0  0.00000000000E+00  0.00000000000E+00  0.45593999997E+02  0.45594000000E+02  0.51100000000E-03 0.  1.
         11   -1    0    0    0    0 -0.00000000000E+00 -0.00000000000E+00 -0.45593999997E+02  0.45594000000E+02  0.51100000000E-03 0. -1.
    9900012    2    1    2    0    0 -0.99785132056E+00  0.22073538086E+00  0.59049208327E+00  0.90007698231E+02  0.89999959047E+02 0.  0.
         12    1    1    2    0    0  0.99785132056E+00 -0.22073538086E+00 -0.59049208327E+00  0.11803017693E+01  0.00000000000E+00 0. -1.
         11    1    3    3    0    0 -0.25992996899E+02 -0.73381208525E+01 -0.16453900579E+02  0.31626171914E+02  0.51100000000E-03 0. -1.
        -11    1    3    3    0    0  0.12909649423E+01 -0.13947088105E+01 -0.16351116243E+02  0.16461190898E+02  0.51100000000E-03 0.  1.
        -12    1    3    3    0    0  0.23704180636E+02  0.89535650439E+01  0.33395508905E+02  0.41920335418E+02  0.00000000000E+00 0.  1.
</event>
<event>
 7    1  0.3032584E-015  0.9000759E+02  0.7816164E-02  0.1186339E+00
        -11   -1    0    0    0    0  0.00000000000E+00  0.00000000000E+00  0.45593999997E+02  0.45594000000E+02  0.51100000000E-03 0.  1.
         11   -1    0    0    0    0 -0.00000000000E+00 -0.00000000000E+00 -0.45593999997E+02  0.45594000000E+02  0.51100000000E-03 0. -1.
    9900012    2    1    2    0    0 -0.66930435638E+00  0.22958188632E+00  0.94482851451E+00  0.90007586053E+02  0.89999845389E+02 0.  0.
         12    1    1    2    0    0  0.66930435638E+00 -0.22958188632E+00 -0.94482851451E+00  0.11804139468E+01  0.00000000000E+00 0. -1.
         11    1    3    3    0    0  0.34169062909E+02 -0.86993964441E+01 -0.10868021572E+02  0.36896046559E+02  0.51100000000E-03 0. -1.
        -11    1    3    3    0    0  0.78877429565E+01 -0.88346835357E+00  0.20966790272E+01  0.82093281384E+01  0.51100000000E-03 0.  1.
        -12    1    3    3    0    0 -0.42726110221E+02  0.98124466840E+01  0.97161710595E+01  0.44902211356E+02  0.00000000000E+00 0.  1.
</event>
<event>
 7    1  0.4278164E-015  0.9000768E+02  0.7816164E-02  0.1186339E+00
        -11   -1    0    0    0    0  0.00000000000E+00  0.00000000000E+00  0.45593999997E+02  0.45594000000E+02  0.51100000000E-03 0.  1.
         11   -1    0    0    0    0 -0.00000000000E+00 -0.00000000000E+00 -0.45593999997E+02  0.45594000000E+02  0.51100000000E-03 0. -1.
    9900012    2    1    2    0    0 -0.79726648360E+00  0.30012820586E+00  0.81697354211E+00  0.90007679470E+02  0.89999940039E+02 0.  0.
         12    1    1    2    0    0  0.79726648360E+00 -0.30012820586E+00 -0.81697354211E+00  0.11803205303E+01  0.00000000000E+00 0. -1.
         11    1    3    3    0    0  0.30558082785E+02 -0.12602042972E+02 -0.18614587417E+02  0.37935613552E+02  0.51100000000E-03 0. -1.
        -11    1    3    3    0    0  0.72850708687E+01  0.49017766781E+01  0.46371006480E+01  0.99298728514E+01  0.51100000000E-03 0.  1.
        -12    1    3    3    0    0 -0.38640420138E+02  0.80003944997E+01  0.14794460311E+02  0.42142193067E+02  0.00000000000E+00 0.  1.
</event>
<event>
 7    1  0.3032584E-015  0.9000758E+02  0.7816164E-02  0.1186339E+00
        -11   -1    0    0    0    0  0.00000000000E+00  0.00000000000E+00  0.45593999997E+02  0.45594000000E+02  0.51100000000E-03 0.  1.
         11   -1    0    0    0    0 -0.00000000000E+00 -0.00000000000E+00 -0.45593999997E+02  0.45594000000E+02  0.51100000000E-03 0. -1.
    9900012    2    1    2    0    0  0.81944805616E+00  0.33825337881E+00  0.77940865657E+00  0.90007581295E+02  0.89999840568E+02 0.  0.
         12    1    1    2    0    0 -0.81944805616E+00 -0.33825337881E+00 -0.77940865657E+00  0.11804187049E+01  0.00000000000E+00 0. -1.
         11    1    3    3    0    0 -0.10016116428E+02 -0.22823939055E+01 -0.13174084880E+02  0.16705939749E+02  0.51100000000E-03 0. -1.
        -11    1    3    3    0    0 -0.72863964456E+01 -0.28150924933E+02  0.22279601528E+02  0.36632591940E+02  0.51100000000E-03 0.  1.
         12    1    3    3    0    0  0.18121960930E+02  0.30771572218E+02 -0.83261079914E+01  0.36669049605E+02  0.00000000000E+00 0. -1.
</event>
<event>
 7    1  0.3032584E-015  0.9000770E+02  0.7816164E-02  0.1186339E+00
        -11   -1    0    0    0    0  0.00000000000E+00  0.00000000000E+00  0.45593999997E+02  0.45594000000E+02  0.51100000000E-03 0.  1.
         11   -1    0    0    0    0 -0.00000000000E+00 -0.00000000000E+00 -0.45593999997E+02  0.45594000000E+02  0.51100000000E-03 0. -1.
    9900012    2    1    2    0    0  0.19042859980E+00  0.49552310178E+00 -0.10541820347E+01  0.90007700903E+02  0.89999961755E+02 0.  0.
         12    1    1    2    0    0 -0.19042859980E+00 -0.49552310178E+00  0.10541820347E+01  0.11802990970E+01  0.00000000000E+00 0. -1.
         11    1    3    3    0    0 -0.14040002162E+02 -0.24415159283E+02 -0.25901864790E+02  0.38263929011E+02  0.51100000000E-03 0. -1.
        -11    1    3    3    0    0  0.23433536148E+01  0.33717092466E+01 -0.90044566325E+01  0.98964624445E+01  0.51100000000E-03 0.  1.
        -12    1    3    3    0    0  0.11887077147E+02  0.21538973138E+02  0.33852139387E+02  0.41847309448E+02  0.00000000000E+00 0.  1.
</event>
<event>
 7    1  0.3032584E-015  0.9000827E+02  0.7816164E-02  0.1186338E+00
        -11   -1    0    0    0    0  0.00000000000E+00  0.00000000000E+00  0.45593999997E+02  0.45594000000E+02  0.51100000000E-03 0. -1.
         11   -1    0    0    0    0 -0.00000000000E+00 -0.00000000000E+00 -0.45593999997E+02  0.45594000000E+02  0.51100000000E-03 0.  1.
    9900012    2    1    2    0    0 -0.99057864420E+00  0.63916434927E+00 -0.44630424404E-01  0.90008267407E+02  0.90000535735E+02 0.  0.
         12    1    1    2    0    0  0.99057864420E+00 -0.63916434927E+00  0.44630424404E-01  0.11797325928E+01  0.00000000000E+00 0. -1.
         11    1    3    3    0    0 -0.13589672703E+02  0.34379904844E+02 -0.13624666056E+02  0.39399093729E+02  0.51100000000E-03 0. -1.
        -11    1    3    3    0    0  0.50491737998E+01  0.62559006782E+01  0.26386712617E+01  0.84612667873E+01  0.51100000000E-03 0.  1.
        -12    1    3    3    0    0  0.75499202590E+01 -0.39996641173E+02  0.10941364370E+02  0.42147906891E+02  0.00000000000E+00 0.  1.
</event>
<event>
 7    1  0.3032584E-015  0.9000811E+02  0.7816164E-02  0.1186338E+00
        -11   -1    0    0    0    0  0.00000000000E+00  0.00000000000E+00  0.45593999997E+02  0.45594000000E+02  0.51100000000E-03 0. -1.
         11   -1    0    0    0    0 -0.00000000000E+00 -0.00000000000E+00 -0.45593999997E+02  0.45594000000E+02  0.51100000000E-03 0.  1.
    9900012    2    1    2    0    0  0.46267464316E+00 -0.22867986441E+00 -0.10610313393E+01  0.90008106018E+02  0.90000372217E+02 0.  0.
         12    1    1    2    0    0 -0.46267464316E+00  0.22867986441E+00  0.10610313393E+01  0.11798939820E+01  0.00000000000E+00 0. -1.
         11    1    3    3    0    0 -0.77361361975E+01 -0.59284641019E+01 -0.37116735099E+01  0.10429334129E+02  0.51100000000E-03 0. -1.
        -11    1    3    3    0    0  0.25104490701E+02  0.22995978293E+02 -0.25447913831E+02  0.42504667857E+02  0.51100000000E-03 0.  1.
         12    1    3    3    0    0 -0.16905679861E+02 -0.17296194056E+02  0.28098556002E+02  0.37074104032E+02  0.00000000000E+00 0. -1.
</event>
<event>
 7    1  0.3032584E-015  0.9000769E+02  0.7816164E-02  0.1186339E+00
        -11   -1    0    0    0    0  0.00000000000E+00  0.00000000000E+00  0.45593999997E+02  0.45594000000E+02  0.51100000000E-03 0.  1.
         11   -1    0    0    0    0 -0.00000000000E+00 -0.00000000000E+00 -0.45593999997E+02  0.45594000000E+02  0.51100000000E-03 0. -1.
    9900012    2    1    2    0    0 -0.87429234856E+00  0.78917520863E+00  0.77175725825E-01  0.90007686180E+02  0.89999946838E+02 0.  0.
         12    1    1    2    0    0  0.87429234856E+00 -0.78917520863E+00 -0.77175725825E-01  0.11803138199E+01  0.00000000000E+00 0. -1.
         11    1    3    3    0    0  0.22715869177E+02  0.78924471864E+01 -0.29056628543E+02  0.37717225476E+02  0.51100000000E-03 0. -1.
        -11    1    3    3    0    0  0.53984021507E+01 -0.12676400776E+02  0.11149307789E+02  0.17724021746E+02  0.51100000000E-03 0.  1.
        -12    1    3    3    0    0 -0.28988563676E+02  0.55731287986E+01  0.17984496480E+02  0.34566438958E+02  0.00000000000E+00 0.  1.
</event>
<event>
 7    1  0.3032584E-015  0.9000773E+02  0.7816164E-02  0.1186339E+00
        -11   -1    0    0    0    0  0.00000000000E+00  0.00000000000E+00  0.45593999997E+02  0.45594000000E+02  0.51100000000E-03 0. -1.
         11   -1    0    0    0    0 -0.00000000000E+00 -0.00000000000E+00 -0.45593999997E+02  0.45594000000E+02  0.51100000000E-03 0.  1.
    9900012    2    1    2    0    0  0.10923184827E+01  0.13532341193E+00 -0.42609809938E+00  0.90007732368E+02  0.89999993635E+02 0.  0.
         12    1    1    2    0    0 -0.10923184827E+01 -0.13532341193E+00  0.42609809938E+00  0.11802676323E+01  0.00000000000E+00 0. -1.
         11    1    3    3    0    0 -0.11877242089E+02  0.11361329094E+02 -0.36181904213E+01  0.16829735013E+02  0.51100000000E-03 0. -1.
        -11    1    3    3    0    0 -0.12554051784E+02 -0.35632944297E+02  0.94674363124E+00  0.37791629486E+02  0.51100000000E-03 0.  1.
         12    1    3    3    0    0  0.25523612355E+02  0.24406938615E+02  0.22453486906E+01  0.35386367869E+02  0.00000000000E+00 0. -1.
</event>
<event>
 7    1  0.3032584E-015  0.9000775E+02  0.7816164E-02  0.1186339E+00
        -11   -1    0    0    0    0  0.00000000000E+00  0.00000000000E+00  0.45593999997E+02  0.45594000000E+02  0.51100000000E-03 0. -1.
         11   -1    0    0    0    0 -0.00000000000E+00 -0.00000000000E+00 -0.45593999997E+02  0.45594000000E+02  0.51100000000E-03 0.  1.
    9900012    2    1    2    0    0  0.59959303978E+00 -0.34958865103E+00 -0.95460762926E+00  0.90007745890E+02  0.90000007336E+02 0.  0.
         12    1    1    2    0    0 -0.59959303978E+00  0.34958865103E+00  0.95460762926E+00  0.11802541100E+01  0.00000000000E+00 0. -1.
         11    1    3    3    0    0  0.34842801253E+02 -0.16793521888E+02  0.10372593482E+02  0.40045397642E+02  0.51100000000E-03 0. -1.
        -11    1    3    3    0    0 -0.21285074103E+01 -0.53967593123E+01 -0.94383345899E+01  0.11078705473E+02  0.51100000000E-03 0.  1.
        -12    1    3    3    0    0 -0.32114700803E+02  0.21840692549E+02 -0.18888665217E+01  0.38883642774E+02  0.00000000000E+00 0.  1.
</event>
<event>
 7    1  0.3032584E-015  0.9000817E+02  0.7816164E-02  0.1186338E+00
        -11   -1    0    0    0    0  0.00000000000E+00  0.00000000000E+00  0.45593999997E+02  0.45594000000E+02  0.51100000000E-03 0.  1.
         11   -1    0    0    0    0 -0.00000000000E+00 -0.00000000000E+00 -0.45593999997E+02  0.45594000000E+02  0.51100000000E-03 0. -1.
    9900012    2    1    2    0    0  0.36057717795E+00 -0.64815224074E+00 -0.91754511458E+00  0.90008166848E+02  0.90000433850E+02 0.  0.
         12    1    1    2    0    0 -0.36057717795E+00  0.64815224074E+00  0.91754511458E+00  0.11798331516E+01  0.00000000000E+00 0. -1.
         11    1    3    3    0    0 -0.26117231132E+00  0.77716238415E+01  0.45660313412E+01  0.90174824968E+01  0.51100000000E-03 0. -1.
        -11    1    3    3    0    0  0.20277343638E+02 -0.32236217259E+02  0.18070437382E+02  0.42153114661E+02  0.51100000000E-03 0.  1.
         12    1    3    3    0    0 -0.19655594149E+02  0.23816441176E+02 -0.23554013837E+02  0.38837569691E+02  0.00000000000E+00 0. -1.
</event>
<event>
 7    1  0.3032584E-015  0.9000770E+02  0.7816164E-02  0.1186339E+00
        -11   -1    0    0    0    0  0.00000000000E+00  0.00000000000E+00  0.45593999997E+02  0.45594000000E+02  0.51100000000E-03 0. -1.
         11   -1    0    0    0    0 -0.00000000000E+00 -0.00000000000E+00 -0.45593999997E+02  0.45594000000E+02  0.51100000000E-03 0.  1.
    9900012    2    1    2    0    0 -0.78145190524E+00 -0.88425674187E+00 -0.23065272342E-01  0.90007699584E+02  0.89999960418E+02 0.  0.
         12    1    1    2    0    0  0.78145190524E+00  0.88425674187E+00  0.23065272342E-01  0.11803004162E+01  0.00000000000E+00 0. -1.
         11    1    3    3    0    0  0.16435281719E+02 -0.33818209810E+02  0.10735942290E+01  0.37615720182E+02  0.51100000000E-03 0. -1.
        -11    1    3    3    0    0 -0.21639714679E+01 -0.47077391117E+01 -0.96560714242E+01  0.10958343655E+02  0.51100000000E-03 0.  1.
        -12    1    3    3    0    0 -0.15052762157E+02  0.37641692180E+02  0.85594119229E+01  0.41433635747E+02  0.00000000000E+00 0.  1.
</event>
<event>
 7    1  0.3032584E-015  0.9000657E+02  0.7816164E-02  0.1186341E+00
        -11   -1    0    0    0    0  0.00000000000E+00  0.00000000000E+00  0.45593999997E+02  0.45594000000E+02  0.51100000000E-03 0.  1.
         11   -1    0    0    0    0 -0.00000000000E+00 -0.00000000000E+00 -0.45593999997E+02  0.45594000000E+02  0.51100000000E-03 0. -1.
    9900012    2    1    2    0    0  0.44555794250E+00  0.81865183697E+00 -0.72598821087E+00  0.90006572223E+02  0.89998818168E+02 0.  0.
         12    1    1    2    0    0 -0.44555794250E+00 -0.81865183697E+00  0.72598821087E+00  0.11814277772E+01  0.00000000000E+00 0. -1.
         11    1    3    3    0    0 -0.62445678515E+01 -0.13000241210E+02 -0.15718377151E+00  0.14423092809E+02  0.51100000000E-03 0. -1.
        -11    1    3    3    0    0 -0.10645749494E+02 -0.25427027201E+02 -0.13608038160E+02  0.30741574413E+02  0.51100000000E-03 0.  1.
         12    1    3    3    0    0  0.17335875288E+02  0.39245920248E+02  0.13039233721E+02  0.44841905001E+02  0.00000000000E+00 0. -1.
</event>
<event>
 7    1  0.3045607E-015  0.9000774E+02  0.7816164E-02  0.1186339E+00
        -11   -1    0    0    0    0  0.00000000000E+00  0.00000000000E+00  0.45593999997E+02  0.45594000000E+02  0.51100000000E-03 0.  1.
         11   -1    0    0    0    0 -0.00000000000E+00 -0.00000000000E+00 -0.45593999997E+02  0.45594000000E+02  0.51100000000E-03 0. -1.
    9900012    2    1    2    0    0 -0.42661377237E+00  0.41476908637E+00  0.10193092846E+01  0.90007735571E+02  0.89999996880E+02 0.  0.
         12    1    1    2    0    0  0.42661377237E+00 -0.41476908637E+00 -0.10193092846E+01  0.11802644295E+01  0.00000000000E+00 0. -1.
         11    1    3    3    0    0  0.23472350621E+02  0.84540440434E+01 -0.29887671730E+02  0.38931928107E+02  0.51100000000E-03 0. -1.
        -11    1    3    3    0    0 -0.56612264440E+01 -0.34337461323E+01 -0.64542864595E+01  0.92465080605E+01  0.51100000000E-03 0.  1.
        -12    1    3    3    0    0 -0.18237737950E+02 -0.46055288248E+01  0.37361267474E+02  0.41829299403E+02  0.00000000000E+00 0.  1.
</event>
<event>
 7    1  0.3032584E-015  0.9000775E+02  0.7816164E-02  0.1186339E+00
        -11   -1    0    0    0    0  0.00000000000E+00  0.00000000000E+00  0.45593999997E+02  0.45594000000E+02  0.51100000000E-03 0. -1.
         11   -1    0    0    0    0 -0.00000000000E+00 -0.00000000000E+00 -0.45593999997E+02  0.45594000000E+02  0.51100000000E-03 0.  1.
    9900012    2    1    2    0    0  0.84124764585E+00  0.42744306038E+00 -0.70893160886E+00  0.90007750366E+02  0.90000011871E+02 0.  0.
         12    1    1    2    0    0 -0.84124764585E+00 -0.42744306038E+00  0.70893160886E+00  0.11802496336E+01  0.00000000000E+00 0. -1.
         11    1    3    3    0    0 -0.23767718873E+02  0.25114132717E+02 -0.63843491496E+01  0.35162253013E+02  0.51100000000E-03 0. -1.
        -11    1    3    3    0    0 -0.10855336373E+02 -0.89299985768E+01 -0.44413447608E+01  0.14741395657E+02  0.51100000000E-03 0.  1.
        -12    1    3    3    0    0  0.35464302893E+02 -0.15756691080E+02  0.10116762302E+02  0.40104101697E+02  0.00000000000E+00 0.  1.
</event>
<event>
 7    1  0.3032584E-015  0.9000759E+02  0.7816164E-02  0.1186339E+00
        -11   -1    0    0    0    0  0.00000000000E+00  0.00000000000E+00  0.45593999997E+02  0.45594000000E+02  0.51100000000E-03 0.  1.
         11   -1    0    0    0    0 -0.00000000000E+00 -0.00000000000E+00 -0.45593999997E+02  0.45594000000E+02  0.51100000000E-03 0. -1.
    9900012    2    1    2    0    0  0.72999672077E+00 -0.76456792818E+00  0.52527809890E+00  0.90007586339E+02  0.89999845679E+02 0.  0.
         12    1    1    2    0    0 -0.72999672077E+00  0.76456792818E+00 -0.52527809890E+00  0.11804136607E+01  0.00000000000E+00 0. -1.
         11    1    3    3    0    0 -0.48490273734E+01 -0.90944939672E+01 -0.24644450606E+00  0.10309394849E+02  0.51100000000E-03 0. -1.
        -11    1    3    3    0    0 -0.29535299447E+02  0.16882430905E+02  0.19269966269E+02  0.39098362970E+02  0.51100000000E-03 0.  1.
         12    1    3    3    0    0  0.35114323541E+02 -0.85525048664E+01 -0.18498243664E+02  0.40599828520E+02  0.00000000000E+00 0. -1.
</event>
<event>
 7    1  0.3032584E-015  0.9000711E+02  0.7816164E-02  0.1186340E+00
        -11   -1    0    0    0    0  0.00000000000E+00  0.00000000000E+00  0.45593999997E+02  0.45594000000E+02  0.51100000000E-03 0.  1.
         11   -1    0    0    0    0 -0.00000000000E+00 -0.00000000000E+00 -0.45593999997E+02  0.45594000000E+02  0.51100000000E-03 0. -1.
    9900012    2    1    2    0    0  0.40095016615E+00  0.10210831671E+01  0.43719374281E+00  0.90007106170E+02  0.89999359169E+02 0.  0.
         12    1    1    2    0    0 -0.40095016615E+00 -0.10210831671E+01 -0.43719374281E+00  0.11808938303E+01  0.00000000000E+00 0. -1.
         11    1    3    3    0    0  0.59487081397E+01  0.70442209352E+01  0.56117912110E+01  0.10793534082E+02  0.51100000000E-03 0. -1.
        -11    1    3    3    0    0  0.23943713029E+02  0.20720144009E+02  0.14476192535E+02  0.34816460359E+02  0.51100000000E-03 0.  1.
         12    1    3    3    0    0 -0.29491471003E+02 -0.26743281777E+02 -0.19650790003E+02  0.44397111729E+02  0.00000000000E+00 0. -1.
</event>
<event>
 7    1  0.3032584E-015  0.9000769E+02  0.7816164E-02  0.1186339E+00
        -11   -1    0    0    0    0  0.00000000000E+00  0.00000000000E+00  0.45593999997E+02  0.45594000000E+02  0.51100000000E-03 0.  1.
         11   -1    0    0    0    0 -0.00000000000E+00 -0.00000000000E+00 -0.45593999997E+02  0.45594000000E+02  0.51100000000E-03 0. -1.
    9900012    2    1    2    0    0 -0.67732805003E+00  0.80159747119E+00  0.54018304439E+00  0.90007690924E+02  0.89999951644E+02 0.  0.
         12    1    1    2    0    0  0.67732805003E+00 -0.80159747119E+00 -0.54018304439E+00  0.11803090759E+01  0.00000000000E+00 0. -1.
         11    1    3    3    0    0 -0.73150294366E+01 -0.37474283246E+01 -0.56060892197E+01  0.99489251332E+01  0.51100000000E-03 0. -1.
        -11    1    3    3    0    0  0.38080726687E+02 -0.14247499666E+02 -0.67638274324E+01  0.41217500574E+02  0.51100000000E-03 0.  1.
         12    1    3    3    0    0 -0.31443025300E+02  0.18796525462E+02  0.12910099696E+02  0.38841265217E+02  0.00000000000E+00 0. -1.
</event>
<event>
 7    1  0.3220711E-015  0.9000769E+02  0.7816164E-02  0.1186339E+00
        -11   -1    0    0    0    0  0.00000000000E+00  0.00000000000E+00  0.45593999997E+02  0.45594000000E+02  0.51100000000E-03 0. -1.
         11   -1    0    0    0    0 -0.00000000000E+00 -0.00000000000E+00 -0.45593999997E+02  0.45594000000E+02  0.51100000000E-03 0.  1.
    9900012    2    1    2    0    0  0.55516535250E-02  0.11495601920E+01  0.26759383891E+00  0.90007692448E+02  0.89999953188E+02 0.  0.
         12    1    1    2    0    0 -0.55516535250E-02 -0.11495601920E+01 -0.26759383891E+00  0.11803075525E+01  0.00000000000E+00 0. -1.
         11    1    3    3    0    0  0.18040820876E+02  0.13977545096E+02  0.31222753718E+02  0.38674323974E+02  0.51100000000E-03 0. -1.
        -11    1    3    3    0    0  0.44000455624E+01  0.80452611459E+01 -0.24738140725E+01  0.94977041533E+01  0.51100000000E-03 0.  1.
        -12    1    3    3    0    0 -0.22435314785E+02 -0.20873246050E+02 -0.28481345807E+02  0.41835664321E+02  0.00000000000E+00 0.  1.
</event>
<event>
 7    1  0.3032584E-015  0.9000784E+02  0.7816164E-02  0.1186339E+00
        -11   -1    0    0    0    0  0.00000000000E+00  0.00000000000E+00  0.45593999997E+02  0.45594000000E+02  0.51100000000E-03 0.  1.
         11   -1    0    0    0    0 -0.00000000000E+00 -0.00000000000E+00 -0.45593999997E+02  0.45594000000E+02  0.51100000000E-03 0. -1.
    9900012    2    1    2    0    0  0.67159241185E-01 -0.11308239410E+01 -0.33093037676E+00  0.90007835578E+02  0.90000098207E+02 0.  0.
         12    1    1    2    0    0 -0.67159241185E-01  0.11308239410E+01  0.33093037676E+00  0.11801644223E+01  0.00000000000E+00 0. -1.
         11    1    3    3    0    0  0.94046290768E+01 -0.36609622441E+01 -0.54368820563E+00  0.10106695293E+02  0.51100000000E-03 0. -1.
        -11    1    3    3    0    0  0.27381048048E+02  0.75283455885E+01 -0.22680416431E+02  0.36342799414E+02  0.51100000000E-03 0.  1.
         12    1    3    3    0    0 -0.36718517884E+02 -0.49982072854E+01  0.22893174260E+02  0.43558340870E+02  0.00000000000E+00 0. -1.
</event>
<event>
 7    1  0.3032584E-015  0.9000781E+02  0.7816164E-02  0.1186339E+00
        -11   -1    0    0    0    0  0.00000000000E+00  0.00000000000E+00  0.45593999997E+02  0.45594000000E+02  0.51100000000E-03 0.  1.
         11   -1    0    0    0    0 -0.00000000000E+00 -0.00000000000E+00 -0.45593999997E+02  0.45594000000E+02  0.51100000000E-03 0. -1.
    9900012    2    1    2    0    0 -0.50549037011E+00  0.48205324155E+00  0.95129533793E+00  0.90007805668E+02  0.90000067903E+02 0.  0.
         12    1    1    2    0    0  0.50549037011E+00 -0.48205324155E+00 -0.95129533793E+00  0.11801943323E+01  0.00000000000E+00 0. -1.
         11    1    3    3    0    0 -0.38349521692E+02  0.15145548404E+02  0.90583620085E+01  0.42215250479E+02  0.51100000000E-03 0. -1.
        -11    1    3    3    0    0  0.70837937990E+00  0.33032158177E+01  0.35730972804E+01  0.49173224950E+01  0.51100000000E-03 0.  1.
        -12    1    3    3    0    0  0.37135651942E+02 -0.17966710980E+02 -0.11680163951E+02  0.42875232694E+02  0.00000000000E+00 0.  1.
</event>
<event>
 7    1  0.3032584E-015  0.9000828E+02  0.7816164E-02  0.1186338E+00
        -11   -1    0    0    0    0  0.00000000000E+00  0.00000000000E+00  0.45593999997E+02  0.45594000000E+02  0.51100000000E-03 0.  1.
         11   -1    0    0    0    0 -0.00000000000E+00 -0.00000000000E+00 -0.45593999997E+02  0.45594000000E+02  0.51100000000E-03 0. -1.
    9900012    2    1    2    0    0 -0.11721163331E+01 -0.10368352512E+00  0.84411578503E-01  0.90008282963E+02  0.90000551497E+02 0.  0.
         12    1    1    2    0    0  0.11721163331E+01  0.10368352512E+00 -0.84411578503E-01  0.11797170365E+01  0.00000000000E+00 0. -1.
         11    1    3    3    0    0 -0.19513403792E+00  0.69867161231E+01  0.56134068169E+01  0.89645198327E+01  0.51100000000E-03 0. -1.
        -11    1    3    3    0    0 -0.11698396438E+02  0.35269494947E+02 -0.26543224876E+01  0.37253659970E+02  0.51100000000E-03 0.  1.
         12    1    3    3    0    0  0.10721414143E+02 -0.42359894596E+02 -0.28746727508E+01  0.43790103160E+02  0.00000000000E+00 0. -1.
</event>
<event>
 7    1  0.3032584E-015  0.9000773E+02  0.7816164E-02  0.1186339E+00
        -11   -1    0    0    0    0  0.00000000000E+00  0.00000000000E+00  0.45593999997E+02  0.45594000000E+02  0.51100000000E-03 0. -1.
         11   -1    0    0    0    0 -0.00000000000E+00 -0.00000000000E+00 -0.45593999997E+02  0.45594000000E+02  0.51100000000E-03 0.  1.
    9900012    2    1    2    0    0 -0.13155007803E+00 -0.32011240948E+00 -0.11283859796E+01  0.90007732108E+02  0.89999993372E+02 0.  0.
         12    1    1    2    0    0  0.13155007803E+00  0.32011240948E+00  0.11283859796E+01  0.11802678919E+01  0.00000000000E+00 0. -1.
         11    1    3    3    0    0 -0.47631567405E+01 -0.79791409228E+01 -0.13817154899E+02  0.16651369966E+02  0.51100000000E-03 0. -1.
        -11    1    3    3    0    0  0.21818462885E+02  0.50896972493E+01 -0.23955921441E+02  0.32799946847E+02  0.51100000000E-03 0.  1.
         12    1    3    3    0    0 -0.17186856223E+02  0.25693312640E+01  0.36644690361E+02  0.40556415295E+02  0.00000000000E+00 0. -1.
</event>
<event>
 7    1  0.3032584E-015  0.9000718E+02  0.7816164E-02  0.1186340E+00
        -11   -1    0    0    0    0  0.00000000000E+00  0.00000000000E+00  0.45593999997E+02  0.45594000000E+02  0.51100000000E-03 0.  1.
         11   -1    0    0    0    0 -0.00000000000E+00 -0.00000000000E+00 -0.45593999997E+02  0.45594000000E+02  0.51100000000E-03 0. -1.
    9900012    2    1    2    0    0  0.59868365268E+00  0.70135671632E+00 -0.73756808594E+00  0.90007182469E+02  0.89999436476E+02 0.  0.
         12    1    1    2    0    0 -0.59868365268E+00 -0.70135671632E+00  0.73756808594E+00  0.11808175307E+01  0.00000000000E+00 0. -1.
         11    1    3    3    0    0 -0.87898011717E+01  0.18489105102E+02  0.28639923233E+02  0.35204443116E+02  0.51100000000E-03 0. -1.
        -11    1    3    3    0    0  0.79266611050E+01 -0.31352877220E+01  0.97768088509E+01  0.12971043788E+02  0.51100000000E-03 0.  1.
        -12    1    3    3    0    0  0.14618237194E+01 -0.14652460663E+02 -0.39154300170E+02  0.41831695565E+02  0.00000000000E+00 0.  1.
</event>
<event>
 7    1  0.3032584E-015  0.9000768E+02  0.7816164E-02  0.1186339E+00
        -11   -1    0    0    0    0  0.00000000000E+00  0.00000000000E+00  0.45593999997E+02  0.45594000000E+02  0.51100000000E-03 0.  1.
         11   -1    0    0    0    0 -0.00000000000E+00 -0.00000000000E+00 -0.45593999997E+02  0.45594000000E+02  0.51100000000E-03 0. -1.
    9900012    2    1    2    0    0  0.82032972989E+00 -0.58818295945E+00  0.61177153213E+00  0.90007676118E+02  0.89999936642E+02 0.  0.
         12    1    1    2    0    0 -0.82032972989E+00  0.58818295945E+00 -0.61177153213E+00  0.11803238823E+01  0.00000000000E+00 0. -1.
         11    1    3    3    0    0  0.43609665249E+01 -0.78632327274E+01 -0.48163391995E+01  0.10200273599E+02  0.51100000000E-03 0. -1.
        -11    1    3    3    0    0 -0.12270552638E+02 -0.34667733485E+02  0.20318433116E+01  0.36831326266E+02  0.51100000000E-03 0.  1.
         12    1    3    3    0    0  0.87299158425E+01  0.41942783253E+02  0.33962674201E+01  0.42976076252E+02  0.00000000000E+00 0. -1.
</event>
<event>
 7    1  0.3032584E-015  0.9000682E+02  0.7816164E-02  0.1186341E+00
        -11   -1    0    0    0    0  0.00000000000E+00  0.00000000000E+00  0.45593999997E+02  0.45594000000E+02  0.51100000000E-03 0. -1.
         11   -1    0    0    0    0 -0.00000000000E+00 -0.00000000000E+00 -0.45593999997E+02  0.45594000000E+02  0.51100000000E-03 0.  1.
    9900012    2    1    2    0    0 -0.84510142998E+00  0.24212094041E-01  0.82485977723E+00  0.90006824186E+02  0.89999073460E+02 0.  0.
         12    1    1    2    0    0  0.84510142998E+00 -0.24212094041E-01 -0.82485977723E+00  0.11811758144E+01  0.00000000000E+00 0. -1.
         11    1    3    3    0    0 -0.53583099585E+01 -0.11184178076E+02  0.12984307010E+01  0.12469292177E+02  0.51100000000E-03 0. -1.
        -11    1    3    3    0    0  0.87201355713E+01 -0.27542128876E+02 -0.18797816294E+02  0.34466904780E+02  0.51100000000E-03 0.  1.
         12    1    3    3    0    0 -0.42069270428E+01  0.38750519046E+02  0.18324245371E+02  0.43070627229E+02  0.00000000000E+00 0. -1.
</event>
<event>
 7    1  0.3032584E-015  0.9000766E+02  0.7816164E-02  0.1186339E+00
        -11   -1    0    0    0    0  0.00000000000E+00  0.00000000000E+00  0.45593999997E+02  0.45594000000E+02  0.51100000000E-03 0.  1.
         11   -1    0    0    0    0 -0.00000000000E+00 -0.00000000000E+00 -0.45593999997E+02  0.45594000000E+02  0.51100000000E-03 0. -1.
    9900012    2    1    2    0    0 -0.79757169383E+00 -0.62605588811E+00 -0.60426692985E+00  0.90007658903E+02  0.89999919201E+02 0.  0.
         12    1    1    2    0    0  0.79757169383E+00  0.62605588811E+00  0.60426692985E+00  0.11803410966E+01  0.00000000000E+00 0. -1.
         11    1    3    3    0    0  0.65034858943E+01 -0.81929094929E+01 -0.21624086607E+01  0.10681531080E+02  0.51100000000E-03 0. -1.
        -11    1    3    3    0    0 -0.37024170154E+02 -0.12600038579E+02 -0.12037849117E+02  0.40920165681E+02  0.51100000000E-03 0.  1.
         12    1    3    3    0    0  0.29723112566E+02  0.20166892183E+02  0.13595990848E+02  0.38405962142E+02  0.00000000000E+00 0. -1.
</event>
<event>
 7    1  0.3032584E-015  0.9000777E+02  0.7816164E-02  0.1186339E+00
        -11   -1    0    0    0    0  0.00000000000E+00  0.00000000000E+00  0.45593999997E+02  0.45594000000E+02  0.51100000000E-03 0. -1.
         11   -1    0    0    0    0 -0.00000000000E+00 -0.00000000000E+00 -0.45593999997E+02  0.45594000000E+02  0.51100000000E-03 0.  1.
    9900012    2    1    2    0    0  0.76610770179E+00  0.19602250694E+00 -0.87611970017E+00  0.90007774783E+02  0.90000036610E+02 0.  0.
         12    1    1    2    0    0 -0.76610770179E+00 -0.19602250694E+00  0.87611970017E+00  0.11802252171E+01  0.00000000000E+00 0. -1.
         11    1    3    3    0    0  0.15365041670E+01 -0.62437798890E+01 -0.73909036455E+01  0.97964835178E+01  0.51100000000E-03 0. -1.
        -11    1    3    3    0    0  0.21037800602E+02 -0.18539820808E+02 -0.22653354423E+02  0.36048418503E+02  0.51100000000E-03 0.  1.
         12    1    3    3    0    0 -0.21808197067E+02  0.24979623203E+02  0.29168138368E+02  0.44162872762E+02  0.00000000000E+00 0. -1.
</event>
<event>
 7    1  0.3032584E-015  0.9000701E+02  0.7816164E-02  0.1186340E+00
        -11   -1    0    0    0    0  0.00000000000E+00  0.00000000000E+00  0.45593999997E+02  0.45594000000E+02  0.51100000000E-03 0.  1.
         11   -1    0    0    0    0 -0.00000000000E+00 -0.00000000000E+00 -0.45593999997E+02  0.45594000000E+02  0.51100000000E-03 0. -1.
    9900012    2    1    2    0    0 -0.54381145002E+00  0.10024446628E+01 -0.30676435664E+00  0.90007012885E+02  0.89999264652E+02 0.  0.
         12    1    1    2    0    0  0.54381145002E+00 -0.10024446628E+01  0.30676435664E+00  0.11809871150E+01  0.00000000000E+00 0. -1.
         11    1    3    3    0    0 -0.47767840120E+01 -0.29810728705E+02 -0.11796415221E+02  0.32413772131E+02  0.51100000000E-03 0. -1.
        -11    1    3    3    0    0 -0.62756821490E+00 -0.13588766405E+01 -0.15345009561E+02  0.15417837276E+02  0.51100000000E-03 0.  1.
        -12    1    3    3    0    0  0.48605407769E+01  0.32172050008E+02  0.26834660425E+02  0.42175403478E+02  0.00000000000E+00 0.  1.
</event>
<event>
 7    1  0.3032584E-015  0.9000777E+02  0.7816164E-02  0.1186339E+00
        -11   -1    0    0    0    0  0.00000000000E+00  0.00000000000E+00  0.45593999997E+02  0.45594000000E+02  0.51100000000E-03 0. -1.
         11   -1    0    0    0    0 -0.00000000000E+00 -0.00000000000E+00 -0.45593999997E+02  0.45594000000E+02  0.51100000000E-03 0.  1.
    9900012    2    1    2    0    0 -0.49691315481E+00  0.85010858876E+00 -0.65064936437E+00  0.90007766171E+02  0.90000027884E+02 0.  0.
         12    1    1    2    0    0  0.49691315481E+00 -0.85010858876E+00  0.65064936437E+00  0.11802338291E+01  0.00000000000E+00 0. -1.
         11    1    3    3    0    0  0.28688679475E+01  0.20143996737E+02  0.19626911999E+02  0.28270597495E+02  0.51100000000E-03 0. -1.
        -11    1    3    3    0    0  0.34623432044E+01  0.19019645444E+02 -0.53898874069E+01  0.20069519670E+02  0.51100000000E-03 0.  1.
        -12    1    3    3    0    0 -0.68281243067E+01 -0.38313533592E+02 -0.14887673956E+02  0.41667649006E+02  0.00000000000E+00 0.  1.
</event>
<event>
 7    1  0.3032584E-015  0.9000769E+02  0.7816164E-02  0.1186339E+00
        -11   -1    0    0    0    0  0.00000000000E+00  0.00000000000E+00  0.45593999997E+02  0.45594000000E+02  0.51100000000E-03 0. -1.
         11   -1    0    0    0    0 -0.00000000000E+00 -0.00000000000E+00 -0.45593999997E+02  0.45594000000E+02  0.51100000000E-03 0.  1.
    9900012    2    1    2    0    0  0.17114326799E+00 -0.61386078658E+00 -0.99348805088E+00  0.90007689197E+02  0.89999949895E+02 0.  0.
         12    1    1    2    0    0 -0.17114326799E+00  0.61386078658E+00  0.99348805088E+00  0.11803108026E+01  0.00000000000E+00 0. -1.
         11    1    3    3    0    0 -0.65588846014E+01 -0.31129192212E+02  0.18926930801E+02  0.37017216059E+02  0.51100000000E-03 0. -1.
        -11    1    3    3    0    0 -0.49873861010E+01 -0.44659681005E+01  0.50987897372E+01  0.84152568731E+01  0.51100000000E-03 0.  1.
        -12    1    3    3    0    0  0.11717413970E+02  0.34981299525E+02 -0.25019208589E+02  0.44575216265E+02  0.00000000000E+00 0.  1.
</event>
<event>
 7    1  0.3032584E-015  0.9000766E+02  0.7816164E-02  0.1186339E+00
        -11   -1    0    0    0    0  0.00000000000E+00  0.00000000000E+00  0.45593999997E+02  0.45594000000E+02  0.51100000000E-03 0. -1.
         11   -1    0    0    0    0 -0.00000000000E+00 -0.00000000000E+00 -0.45593999997E+02  0.45594000000E+02  0.51100000000E-03 0.  1.
    9900012    2    1    2    0    0  0.55966178632E-01  0.75469117735E+00 -0.90581758668E+00  0.90007662554E+02  0.89999922900E+02 0.  0.
         12    1    1    2    0    0 -0.55966178632E-01 -0.75469117735E+00  0.90581758668E+00  0.11803374461E+01  0.00000000000E+00 0. -1.
         11    1    3    3    0    0  0.31041199216E+02  0.81701277160E+01  0.81568391531E+01  0.33118590865E+02  0.51100000000E-03 0. -1.
        -11    1    3    3    0    0  0.24351319445E+01  0.15467897313E+02 -0.24515287398E+01  0.15849154814E+02  0.51100000000E-03 0.  1.
        -12    1    3    3    0    0 -0.33420364982E+02 -0.22883333852E+02 -0.66111280000E+01  0.41039916875E+02  0.00000000000E+00 0.  1.
</event>
<event>
 7    1  0.3032584E-015  0.9000775E+02  0.7816164E-02  0.1186339E+00
        -11   -1    0    0    0    0  0.00000000000E+00  0.00000000000E+00  0.45593999997E+02  0.45594000000E+02  0.51100000000E-03 0. -1.
         11   -1    0    0    0    0 -0.00000000000E+00 -0.00000000000E+00 -0.45593999997E+02  0.45594000000E+02  0.51100000000E-03 0.  1.
    9900012    2    1    2    0    0  0.10948834803E+01 -0.40477024577E+00  0.17431842474E+00  0.90007747611E+02  0.90000009080E+02 0.  0.
         12    1    1    2    0    0 -0.10948834803E+01  0.40477024577E+00 -0.17431842474E+00  0.11802523885E+01  0.00000000000E+00 0. -1.
         11    1    3    3    0    0 -0.49762272326E+01  0.73860054984E+01  0.49670763534E+01  0.10197439014E+02  0.51100000000E-03 0. -1.
        -11    1    3    3    0    0  0.38966845015E+02  0.12568375826E+02 -0.36704818116E+01  0.41107803618E+02  0.51100000000E-03 0.  1.
         12    1    3    3    0    0 -0.32895734302E+02 -0.20359151570E+02 -0.11222761170E+01  0.38702504979E+02  0.00000000000E+00 0. -1.
</event>
<event>
 7    1  0.3032584E-015  0.9000751E+02  0.7816164E-02  0.1186339E+00
        -11   -1    0    0    0    0  0.00000000000E+00  0.00000000000E+00  0.45593999997E+02  0.45594000000E+02  0.51100000000E-03 0. -1.
         11   -1    0    0    0    0 -0.00000000000E+00 -0.00000000000E+00 -0.45593999997E+02  0.45594000000E+02  0.51100000000E-03 0.  1.
    9900012    2    1    2    0    0  0.40346050469E+00 -0.90257537008E+00 -0.64507760917E+00  0.90007513745E+02  0.89999772126E+02 0.  0.
         12    1    1    2    0    0 -0.40346050469E+00  0.90257537008E+00  0.64507760917E+00  0.11804862555E+01  0.00000000000E+00 0. -1.
         11    1    3    3    0    0 -0.12749668193E+02  0.11171797632E+02  0.11001887236E+02  0.20209023341E+02  0.51100000000E-03 0. -1.
        -11    1    3    3    0    0  0.86340700013E+01  0.27435157593E+02 -0.80612201565E+01  0.29870023562E+02  0.51100000000E-03 0.  1.
         12    1    3    3    0    0  0.45190586964E+01 -0.39509530595E+02 -0.35857446890E+01  0.39928466842E+02  0.00000000000E+00 0. -1.
</event>
<event>
 7    1  0.3032584E-015  0.9000819E+02  0.7816164E-02  0.1186338E+00
        -11   -1    0    0    0    0  0.00000000000E+00  0.00000000000E+00  0.45593999997E+02  0.45594000000E+02  0.51100000000E-03 0.  1.
         11   -1    0    0    0    0 -0.00000000000E+00 -0.00000000000E+00 -0.45593999997E+02  0.45594000000E+02  0.51100000000E-03 0. -1.
    9900012    2    1    2    0    0  0.29003051247E-01  0.77842370746E+00  0.88609127201E+00  0.90008193919E+02  0.90000461278E+02 0.  0.
         12    1    1    2    0    0 -0.29003051247E-01 -0.77842370746E+00 -0.88609127201E+00  0.11798060805E+01  0.00000000000E+00 0. -1.
         11    1    3    3    0    0 -0.52664354960E+01  0.17025931010E+01 -0.93711739326E+01  0.10883614622E+02  0.51100000000E-03 0. -1.
        -11    1    3    3    0    0 -0.21663743681E+02  0.29400831280E+02 -0.24585312955E+01  0.36602883037E+02  0.51100000000E-03 0.  1.
         12    1    3    3    0    0  0.26959182228E+02 -0.30325000674E+02  0.12715796500E+02  0.42521696261E+02  0.00000000000E+00 0. -1.
</event>
<event>
 8    1  0.3032584E-015  0.9000766E+02  0.7816164E-02  0.1186339E+00
        -11   -1    0    0    0    0  0.00000000000E+00  0.00000000000E+00  0.45593999997E+02  0.45594000000E+02  0.51100000000E-03 0. -1.
         11   -1    0    0    0    0 -0.00000000000E+00 -0.00000000000E+00 -0.45593999997E+02  0.45594000000E+02  0.51100000000E-03 0.  1.
    9900012    2    1    2    0    0 -0.10103012153E+01 -0.54942571556E+00 -0.26573931112E+00  0.90007663377E+02  0.89999923733E+02 0.  0.
         23    2    3    3    0    0 -0.46112167332E+01 -0.39539002874E+01 -0.27664227718E+02  0.62164635405E+02  0.55337471505E+02 0.  0.
         12    1    1    2    0    0  0.10103012153E+01  0.54942571556E+00  0.26573931112E+00  0.11803366232E+01  0.00000000000E+00 0. -1.
         11    1    4    4    0    0  0.10140218925E+02  0.19959396801E+02  0.48449142653E+00  0.22392773225E+02  0.51100000000E-03 0. -1.
        -11    1    4    4    0    0 -0.14751435658E+02 -0.23913297088E+02 -0.28148719144E+02  0.39771862180E+02  0.51100000000E-03 0.  1.
         12    1    3    3    0    0  0.36009155179E+01  0.34044745719E+01  0.27398488406E+02  0.27843027972E+02  0.00000000000E+00 0. -1.
</event>
<event>
 7    1  0.3032584E-015  0.9000767E+02  0.7816164E-02  0.1186339E+00
        -11   -1    0    0    0    0  0.00000000000E+00  0.00000000000E+00  0.45593999997E+02  0.45594000000E+02  0.51100000000E-03 0. -1.
         11   -1    0    0    0    0 -0.00000000000E+00 -0.00000000000E+00 -0.45593999997E+02  0.45594000000E+02  0.51100000000E-03 0.  1.
    9900012    2    1    2    0    0  0.63926735277E+00  0.87968468688E+00 -0.45898988072E+00  0.90007669704E+02  0.89999930144E+02 0.  0.
         12    1    1    2    0    0 -0.63926735277E+00 -0.87968468688E+00  0.45898988072E+00  0.11803302958E+01  0.00000000000E+00 0. -1.
         11    1    3    3    0    0  0.26190382293E+02  0.51817590803E+01  0.22794132864E+02  0.35104974649E+02  0.51100000000E-03 0. -1.
        -11    1    3    3    0    0 -0.22657126811E+01 -0.29330239711E+00  0.12136857128E+02  0.12350011395E+02  0.51100000000E-03 0.  1.
        -12    1    3    3    0    0 -0.23285402259E+02 -0.40087719964E+01 -0.35389979873E+02  0.42552683660E+02  0.00000000000E+00 0.  1.
</event>
<event>
 7    1  0.3755363E-015  0.9000768E+02  0.7816164E-02  0.1186339E+00
        -11   -1    0    0    0    0  0.00000000000E+00  0.00000000000E+00  0.45593999997E+02  0.45594000000E+02  0.51100000000E-03 0.  1.
         11   -1    0    0    0    0 -0.00000000000E+00 -0.00000000000E+00 -0.45593999997E+02  0.45594000000E+02  0.51100000000E-03 0. -1.
    9900012    2    1    2    0    0  0.73179340244E+00 -0.92607809646E+00  0.43386379133E-02  0.90007677566E+02  0.89999938110E+02 0.  0.
         12    1    1    2    0    0 -0.73179340244E+00  0.92607809646E+00 -0.43386379133E-02  0.11803224341E+01  0.00000000000E+00 0. -1.
         11    1    3    3    0    0 -0.28394707280E+02 -0.15135528501E+02  0.17938092813E+02  0.36839093346E+02  0.51100000000E-03 0. -1.
        -11    1    3    3    0    0 -0.88432910507E+01 -0.14464492036E+01 -0.38094198791E+01  0.97369241541E+01  0.51100000000E-03 0.  1.
        -12    1    3    3    0    0  0.37969791733E+02  0.15655899608E+02 -0.14124334296E+02  0.43431660066E+02  0.00000000000E+00 0.  1.
</event>
<event>
 7    1  0.3032584E-015  0.9000779E+02  0.7816164E-02  0.1186339E+00
        -11   -1    0    0    0    0  0.00000000000E+00  0.00000000000E+00  0.45593999997E+02  0.45594000000E+02  0.51100000000E-03 0.  1.
         11   -1    0    0    0    0 -0.00000000000E+00 -0.00000000000E+00 -0.45593999997E+02  0.45594000000E+02  0.51100000000E-03 0. -1.
    9900012    2    1    2    0    0  0.10630525774E+01 -0.15675686441E+00  0.48810286227E+00  0.90007789044E+02  0.90000051059E+02 0.  0.
         12    1    1    2    0    0 -0.10630525774E+01  0.15675686441E+00 -0.48810286227E+00  0.11802109562E+01  0.00000000000E+00 0. -1.
         11    1    3    3    0    0 -0.17562788358E+01 -0.87136480891E+01  0.34159699328E+01  0.95226587260E+01  0.51100000000E-03 0. -1.
        -11    1    3    3    0    0  0.12749022495E+02 -0.33027767739E+02  0.81300931594E+01  0.36324501806E+02  0.51100000000E-03 0.  1.
         12    1    3    3    0    0 -0.99296910820E+01  0.41584658964E+02 -0.11057960230E+02  0.44160628512E+02  0.00000000000E+00 0. -1.
</event>
<event>
 7    1  0.3032584E-015  0.9000769E+02  0.7816164E-02  0.1186339E+00
        -11   -1    0    0    0    0  0.00000000000E+00  0.00000000000E+00  0.45593999997E+02  0.45594000000E+02  0.51100000000E-03 0.  1.
         11   -1    0    0    0    0 -0.00000000000E+00 -0.00000000000E+00 -0.45593999997E+02  0.45594000000E+02  0.51100000000E-03 0. -1.
    9900012    2    1    2    0    0  0.45216407677E+00  0.10888347452E+00  0.10848117298E+01  0.90007693069E+02  0.89999953817E+02 0.  0.
         12    1    1    2    0    0 -0.45216407677E+00 -0.10888347452E+00 -0.10848117298E+01  0.11803069314E+01  0.00000000000E+00 0. -1.
         11    1    3    3    0    0  0.11450696728E+02 -0.41956777552E+01 -0.12541144387E+01  0.12259484927E+02  0.51100000000E-03 0. -1.
        -11    1    3    3    0    0  0.25998493810E+02 -0.20238722639E+02 -0.27394852446E+01  0.33061039822E+02  0.51100000000E-03 0.  1.
         12    1    3    3    0    0 -0.36997026461E+02  0.24543283868E+02  0.50784114131E+01  0.44687168320E+02  0.00000000000E+00 0. -1.
</event>
<event>
 7    1  0.3032584E-015  0.9000776E+02  0.7816164E-02  0.1186339E+00
        -11   -1    0    0    0    0  0.00000000000E+00  0.00000000000E+00  0.45593999997E+02  0.45594000000E+02  0.51100000000E-03 0.  1.
         11   -1    0    0    0    0 -0.00000000000E+00 -0.00000000000E+00 -0.45593999997E+02  0.45594000000E+02  0.51100000000E-03 0. -1.
    9900012    2    1    2    0    0  0.94962707058E+00  0.88881828257E-01  0.69517629777E+00  0.90007762042E+02  0.90000023701E+02 0.  0.
         12    1    1    2    0    0 -0.94962707058E+00 -0.88881828257E-01 -0.69517629777E+00  0.11802379580E+01  0.00000000000E+00 0. -1.
         11    1    3    3    0    0  0.23883089189E+02 -0.25771840597E+01 -0.36353523538E+01  0.24295259082E+02  0.51100000000E-03 0. -1.
        -11    1    3    3    0    0  0.18240003325E+02  0.11970946955E+02  0.82364577896E+01  0.23320388708E+02  0.51100000000E-03 0.  1.
         12    1    3    3    0    0 -0.41173465443E+02 -0.93048810675E+01 -0.39059291381E+01  0.42392114252E+02  0.00000000000E+00 0. -1.
</event>
<event>
 7    1  0.3032584E-015  0.9000792E+02  0.7816164E-02  0.1186339E+00
        -11   -1    0    0    0    0  0.00000000000E+00  0.00000000000E+00  0.45593999997E+02  0.45594000000E+02  0.51100000000E-03 0.  1.
         11   -1    0    0    0    0 -0.00000000000E+00 -0.00000000000E+00 -0.45593999997E+02  0.45594000000E+02  0.51100000000E-03 0. -1.
    9900012    2    1    2    0    0  0.31798618635E+00 -0.11337594763E+01  0.77925425357E-01  0.90007916047E+02  0.90000179738E+02 0.  0.
         12    1    1    2    0    0 -0.31798618635E+00  0.11337594763E+01 -0.77925425357E-01  0.11800839532E+01  0.00000000000E+00 0. -1.
         11    1    3    3    0    0  0.32411122089E+02  0.19615732391E+02  0.14965371897E+02  0.40733526101E+02  0.51100000000E-03 0. -1.
        -11    1    3    3    0    0 -0.32379094082E+01  0.16666484926E+00  0.68156359951E+01  0.75474981807E+01  0.51100000000E-03 0.  1.
        -12    1    3    3    0    0 -0.28855226495E+02 -0.20916156717E+02 -0.21703082466E+02  0.41726891765E+02  0.00000000000E+00 0.  1.
</event>
<event>
 7    1  0.3032584E-015  0.9000772E+02  0.7816164E-02  0.1186339E+00
        -11   -1    0    0    0    0  0.00000000000E+00  0.00000000000E+00  0.45593999997E+02  0.45594000000E+02  0.51100000000E-03 0.  1.
         11   -1    0    0    0    0 -0.00000000000E+00 -0.00000000000E+00 -0.45593999997E+02  0.45594000000E+02  0.51100000000E-03 0. -1.
    9900012    2    1    2    0    0 -0.10067177942E+01  0.32214366185E+00  0.52518017342E+00  0.90007715513E+02  0.89999976558E+02 0.  0.
         12    1    1    2    0    0  0.10067177942E+01 -0.32214366185E+00 -0.52518017342E+00  0.11802844871E+01  0.00000000000E+00 0. -1.
         11    1    3    3    0    0  0.23096460645E+02 -0.22124743606E+02 -0.15241338089E+02  0.35429495635E+02  0.51100000000E-03 0. -1.
        -11    1    3    3    0    0  0.31306814443E+01 -0.48422157476E+01 -0.75669389327E+01  0.95135053857E+01  0.51100000000E-03 0.  1.
        -12    1    3    3    0    0 -0.27233859884E+02  0.27289103016E+02  0.23333457195E+02  0.45064714492E+02  0.00000000000E+00 0.  1.
</event>
<event>
 7    1  0.3032584E-015  0.9000758E+02  0.7816164E-02  0.1186339E+00
        -11   -1    0    0    0    0  0.00000000000E+00  0.00000000000E+00  0.45593999997E+02  0.45594000000E+02  0.51100000000E-03 0.  1.
         11   -1    0    0    0    0 -0.00000000000E+00 -0.00000000000E+00 -0.45593999997E+02  0.45594000000E+02  0.51100000000E-03 0. -1.
    9900012    2    1    2    0    0 -0.47305432667E-01  0.26992608562E+00  0.11481679666E+01  0.90007581610E+02  0.89999840887E+02 0.  0.
         12    1    1    2    0    0  0.47305432667E-01 -0.26992608562E+00 -0.11481679666E+01  0.11804183899E+01  0.00000000000E+00 0. -1.
         11    1    3    3    0    0  0.51528070631E+01  0.35274810033E+02 -0.23026326236E+02  0.42439078026E+02  0.51100000000E-03 0. -1.
        -11    1    3    3    0    0  0.43379052572E+01 -0.38027023354E+01  0.10922966755E+02  0.12352698898E+02  0.51100000000E-03 0.  1.
        -12    1    3    3    0    0 -0.95380177529E+01 -0.31202181612E+02  0.13251527447E+02  0.35215804686E+02  0.00000000000E+00 0.  1.
</event>
<event>
 7    1  0.3032584E-015  0.9000768E+02  0.7816164E-02  0.1186339E+00
        -11   -1    0    0    0    0  0.00000000000E+00  0.00000000000E+00  0.45593999997E+02  0.45594000000E+02  0.51100000000E-03 0.  1.
         11   -1    0    0    0    0 -0.00000000000E+00 -0.00000000000E+00 -0.45593999997E+02  0.45594000000E+02  0.51100000000E-03 0. -1.
    9900012    2    1    2    0    0  0.10186180543E+01 -0.41566255353E+00  0.42755095429E+00  0.90007678892E+02  0.89999939454E+02 0.  0.
         12    1    1    2    0    0 -0.10186180543E+01  0.41566255353E+00 -0.42755095429E+00  0.11803211077E+01  0.00000000000E+00 0. -1.
         11    1    3    3    0    0  0.34659528616E+01 -0.35201729207E+01 -0.63882175277E+01  0.80755043231E+01  0.51100000000E-03 0. -1.
        -11    1    3    3    0    0  0.28714613993E+02 -0.20342556521E+02 -0.13825398161E+02  0.37808600835E+02  0.51100000000E-03 0.  1.
         12    1    3    3    0    0 -0.31161948800E+02  0.23447066888E+02  0.20641166642E+02  0.44123573734E+02  0.00000000000E+00 0. -1.
</event>
<event>
 7    1  0.3032584E-015  0.9000777E+02  0.7816164E-02  0.1186339E+00
        -11   -1    0    0    0    0  0.00000000000E+00  0.00000000000E+00  0.45593999997E+02  0.45594000000E+02  0.51100000000E-03 0. -1.
         11   -1    0    0    0    0 -0.00000000000E+00 -0.00000000000E+00 -0.45593999997E+02  0.45594000000E+02  0.51100000000E-03 0.  1.
    9900012    2    1    2    0    0  0.40292568017E+00  0.10759593644E+01 -0.27001498043E+00  0.90007768774E+02  0.90000030522E+02 0.  0.
         12    1    1    2    0    0 -0.40292568017E+00 -0.10759593644E+01  0.27001498043E+00  0.11802312262E+01  0.00000000000E+00 0. -1.
         11    1    3    3    0    0 -0.83811916833E+01 -0.64841414771E+00  0.65905081236E+01  0.10681742017E+02  0.51100000000E-03 0. -1.
        -11    1    3    3    0    0 -0.26971151029E+02 -0.22569888088E+02  0.18972573380E+01  0.35219915130E+02  0.51100000000E-03 0.  1.
         12    1    3    3    0    0  0.35755268392E+02  0.24294261600E+02 -0.87577804420E+01  0.44106111626E+02  0.00000000000E+00 0. -1.
</event>
<event>
 7    1  0.3032584E-015  0.9000765E+02  0.7816164E-02  0.1186339E+00
        -11   -1    0    0    0    0  0.00000000000E+00  0.00000000000E+00  0.45593999997E+02  0.45594000000E+02  0.51100000000E-03 0. -1.
         11   -1    0    0    0    0 -0.00000000000E+00 -0.00000000000E+00 -0.45593999997E+02  0.45594000000E+02  0.51100000000E-03 0.  1.
    9900012    2    1    2    0    0  0.28904284138E+00  0.25437255813E+00 -0.11157823258E+01  0.90007652017E+02  0.89999912224E+02 0.  0.
         12    1    1    2    0    0 -0.28904284138E+00 -0.25437255813E+00  0.11157823258E+01  0.11803479831E+01  0.00000000000E+00 0. -1.
         11    1    3    3    0    0  0.92450699779E+01  0.23610143827E+01 -0.85024550948E+00  0.95795942241E+01  0.51100000000E-03 0. -1.
        -11    1    3    3    0    0  0.26592481708E+02  0.19276946540E+02 -0.15391604530E+02  0.36272058689E+02  0.51100000000E-03 0.  1.
         12    1    3    3    0    0 -0.35548508844E+02 -0.21383588365E+02  0.15126067713E+02  0.44155999104E+02  0.00000000000E+00 0. -1.
</event>
<event>
 7    1  0.3032584E-015  0.9000774E+02  0.7816164E-02  0.1186339E+00
        -11   -1    0    0    0    0  0.00000000000E+00  0.00000000000E+00  0.45593999997E+02  0.45594000000E+02  0.51100000000E-03 0. -1.
         11   -1    0    0    0    0 -0.00000000000E+00 -0.00000000000E+00 -0.45593999997E+02  0.45594000000E+02  0.51100000000E-03 0.  1.
    9900012    2    1    2    0    0  0.20429028633E+00 -0.11361763802E+01 -0.24574833085E+00  0.90007735822E+02  0.89999997135E+02 0.  0.
         12    1    1    2    0    0 -0.20429028633E+00  0.11361763802E+01  0.24574833085E+00  0.11802641781E+01  0.00000000000E+00 0. -1.
         11    1    3    3    0    0 -0.10234110275E+02  0.17954415622E+02  0.29435250487E+02  0.35965706235E+02  0.51100000000E-03 0. -1.
        -11    1    3    3    0    0 -0.83957826247E+01  0.81916433649E+01 -0.52006133798E+01  0.12831156093E+02  0.51100000000E-03 0.  1.
        -12    1    3    3    0    0  0.18834183186E+02 -0.27282235367E+02 -0.24480385438E+02  0.41210873494E+02  0.00000000000E+00 0.  1.
</event>
<event>
 7    1  0.3032584E-015  0.9000774E+02  0.7816164E-02  0.1186339E+00
        -11   -1    0    0    0    0  0.00000000000E+00  0.00000000000E+00  0.45593999997E+02  0.45594000000E+02  0.51100000000E-03 0. -1.
         11   -1    0    0    0    0 -0.00000000000E+00 -0.00000000000E+00 -0.45593999997E+02  0.45594000000E+02  0.51100000000E-03 0.  1.
    9900012    2    1    2    0    0 -0.29644023121E+00  0.98682439319E+00 -0.57559661187E+00  0.90007741277E+02  0.90000002662E+02 0.  0.
         12    1    1    2    0    0  0.29644023121E+00 -0.98682439319E+00  0.57559661187E+00  0.11802587230E+01  0.00000000000E+00 0. -1.
         11    1    3    3    0    0  0.16238329999E+01  0.19807051699E+02 -0.31439547341E+02  0.37194102595E+02  0.51100000000E-03 0. -1.
        -11    1    3    3    0    0  0.24972987557E+01 -0.37900625582E+01 -0.89463473256E+01  0.10031859549E+02  0.51100000000E-03 0.  1.
        -12    1    3    3    0    0 -0.44175719868E+01 -0.15030164747E+02  0.39810298055E+02  0.42781779133E+02  0.00000000000E+00 0.  1.
</event>
<event>
 7    1  0.3032584E-015  0.9000770E+02  0.7816164E-02  0.1186339E+00
        -11   -1    0    0    0    0  0.00000000000E+00  0.00000000000E+00  0.45593999997E+02  0.45594000000E+02  0.51100000000E-03 0. -1.
         11   -1    0    0    0    0 -0.00000000000E+00 -0.00000000000E+00 -0.45593999997E+02  0.45594000000E+02  0.51100000000E-03 0.  1.
    9900012    2    1    2    0    0  0.22783574694E+00  0.39180438468E+00 -0.10898103465E+01  0.90007700718E+02  0.89999961568E+02 0.  0.
         12    1    1    2    0    0 -0.22783574694E+00 -0.39180438468E+00  0.10898103465E+01  0.11802992818E+01  0.00000000000E+00 0. -1.
         11    1    3    3    0    0  0.16809922981E+02  0.23195648168E+02  0.15888657520E+02  0.32757610453E+02  0.51100000000E-03 0. -1.
        -11    1    3    3    0    0  0.16281684085E+02 -0.64476515909E+01 -0.20877525952E+01  0.17635877037E+02  0.51100000000E-03 0.  1.
        -12    1    3    3    0    0 -0.32863771319E+02 -0.16356192193E+02 -0.14890715271E+02  0.39614213228E+02  0.00000000000E+00 0.  1.
</event>
<event>
 7    1  0.3032584E-015  0.9000784E+02  0.7816164E-02  0.1186339E+00
        -11   -1    0    0    0    0  0.00000000000E+00  0.00000000000E+00  0.45593999997E+02  0.45594000000E+02  0.51100000000E-03 0.  1.
         11   -1    0    0    0    0 -0.00000000000E+00 -0.00000000000E+00 -0.45593999997E+02  0.45594000000E+02  0.51100000000E-03 0. -1.
    9900012    2    1    2    0    0 -0.79814103060E+00  0.15069700451E+00 -0.85618266275E+00  0.90007835840E+02  0.90000098473E+02 0.  0.
         12    1    1    2    0    0  0.79814103060E+00 -0.15069700451E+00  0.85618266275E+00  0.11801641597E+01  0.00000000000E+00 0. -1.
         11    1    3    3    0    0  0.28427190147E+02 -0.15306660330E+02  0.12625256747E+02  0.34666930904E+02  0.51100000000E-03 0. -1.
        -11    1    3    3    0    0  0.86990943287E+01 -0.45563422624E+01  0.14662607198E+01  0.99289686127E+01  0.51100000000E-03 0.  1.
        -12    1    3    3    0    0 -0.37924425506E+02  0.20013699597E+02 -0.14947700130E+02  0.45411936324E+02  0.00000000000E+00 0.  1.
</event>
<event>
 7    1  0.3032584E-015  0.9000808E+02  0.7816164E-02  0.1186338E+00
        -11   -1    0    0    0    0  0.00000000000E+00  0.00000000000E+00  0.45593999997E+02  0.45594000000E+02  0.51100000000E-03 0. -1.
         11   -1    0    0    0    0 -0.00000000000E+00 -0.00000000000E+00 -0.45593999997E+02  0.45594000000E+02  0.51100000000E-03 0.  1.
    9900012    2    1    2    0    0 -0.27901487973E+00  0.11223716840E+01  0.23376951078E+00  0.90008078102E+02  0.90000343933E+02 0.  0.
         12    1    1    2    0    0  0.27901487973E+00 -0.11223716840E+01 -0.23376951078E+00  0.11799218976E+01  0.00000000000E+00 0. -1.
         11    1    3    3    0    0 -0.89168303410E+01  0.35749115333E+01  0.20806930802E+00  0.96090139400E+01  0.51100000000E-03 0. -1.
        -11    1    3    3    0    0  0.18149929779E+02  0.10208377718E+02 -0.35695194623E+02  0.41325268857E+02  0.51100000000E-03 0.  1.
         12    1    3    3    0    0 -0.95121143179E+01 -0.12660917567E+02  0.35720894826E+02  0.39073795306E+02  0.00000000000E+00 0. -1.
</event>
<event>
 7    1  0.3032584E-015  0.9000767E+02  0.7816164E-02  0.1186339E+00
        -11   -1    0    0    0    0  0.00000000000E+00  0.00000000000E+00  0.45593999997E+02  0.45594000000E+02  0.51100000000E-03 0.  1.
         11   -1    0    0    0    0 -0.00000000000E+00 -0.00000000000E+00 -0.45593999997E+02  0.45594000000E+02  0.51100000000E-03 0. -1.
    9900012    2    1    2    0    0  0.42976021623E+00  0.95486869678E+00 -0.54471803282E+00  0.90007667078E+02  0.89999927483E+02 0.  0.
         12    1    1    2    0    0 -0.42976021623E+00 -0.95486869678E+00  0.54471803282E+00  0.11803329220E+01  0.00000000000E+00 0. -1.
         11    1    3    3    0    0  0.10193788540E+02  0.24107426638E+02 -0.16728452840E+02  0.31063201358E+02  0.51100000000E-03 0. -1.
        -11    1    3    3    0    0  0.16813357331E+02  0.53690958909E+01  0.39693154222E+01  0.18090650641E+02  0.51100000000E-03 0.  1.
        -12    1    3    3    0    0 -0.26577385655E+02 -0.28521653832E+02  0.12214419385E+02  0.40853815079E+02  0.00000000000E+00 0.  1.
</event>
<event>
 7    1  0.3032584E-015  0.9000777E+02  0.7816164E-02  0.1186339E+00
        -11   -1    0    0    0    0  0.00000000000E+00  0.00000000000E+00  0.45593999997E+02  0.45594000000E+02  0.51100000000E-03 0.  1.
         11   -1    0    0    0    0 -0.00000000000E+00 -0.00000000000E+00 -0.45593999997E+02  0.45594000000E+02  0.51100000000E-03 0. -1.
    9900012    2    1    2    0    0 -0.36741744469E+00 -0.11194470498E+01  0.69112729283E-01  0.90007773816E+02  0.90000035630E+02 0.  0.
         12    1    1    2    0    0  0.36741744469E+00  0.11194470498E+01 -0.69112729283E-01  0.11802261840E+01  0.00000000000E+00 0. -1.
         11    1    3    3    0    0 -0.94258827591E+01 -0.43016096216E+01 -0.13451881974E+01  0.10447997065E+02  0.51100000000E-03 0. -1.
        -11    1    3    3    0    0 -0.67118089934E+01 -0.20978705540E+02  0.31134652320E+02  0.38138183510E+02  0.51100000000E-03 0.  1.
         12    1    3    3    0    0  0.15770274308E+02  0.24160868112E+02 -0.29720351393E+02  0.41421593241E+02  0.00000000000E+00 0. -1.
</event>
<event>
 7    1  0.3032584E-015  0.9000790E+02  0.7816164E-02  0.1186339E+00
        -11   -1    0    0    0    0  0.00000000000E+00  0.00000000000E+00  0.45593999997E+02  0.45594000000E+02  0.51100000000E-03 0.  1.
         11   -1    0    0    0    0 -0.00000000000E+00 -0.00000000000E+00 -0.45593999997E+02  0.45594000000E+02  0.51100000000E-03 0. -1.
    9900012    2    1    2    0    0  0.88731944347E+00  0.46517458122E-01  0.77662476208E+00  0.90007895899E+02  0.90000159324E+02 0.  0.
         12    1    1    2    0    0 -0.88731944347E+00 -0.46517458122E-01 -0.77662476208E+00  0.11801041012E+01  0.00000000000E+00 0. -1.
         11    1    3    3    0    0 -0.30457818291E+02  0.22614048477E+02  0.14073239184E+02  0.40461462467E+02  0.51100000000E-03 0. -1.
        -11    1    3    3    0    0 -0.79893466156E+00  0.14008911437E+01 -0.90876802323E+01  0.92296654790E+01  0.51100000000E-03 0.  1.
        -12    1    3    3    0    0  0.32144072396E+02 -0.23968422162E+02 -0.42089341892E+01  0.40316767953E+02  0.00000000000E+00 0.  1.
</event>
<event>
 7    1  0.3032584E-015  0.9000771E+02  0.7816164E-02  0.1186339E+00
        -11   -1    0    0    0    0  0.00000000000E+00  0.00000000000E+00  0.45593999997E+02  0.45594000000E+02  0.51100000000E-03 0.  1.
         11   -1    0    0    0    0 -0.00000000000E+00 -0.00000000000E+00 -0.45593999997E+02  0.45594000000E+02  0.51100000000E-03 0. -1.
    9900012    2    1    2    0    0  0.30248712814E+00  0.73253929806E+00  0.87462862501E+00  0.90007708715E+02  0.89999969670E+02 0.  0.
         12    1    1    2    0    0 -0.30248712814E+00 -0.73253929806E+00 -0.87462862501E+00  0.11802912851E+01  0.00000000000E+00 0. -1.
         11    1    3    3    0    0 -0.39646485045E+01 -0.56937648765E+01 -0.93227554770E+00  0.70004667124E+01  0.51100000000E-03 0. -1.
        -11    1    3    3    0    0 -0.23054871396E+02 -0.29234455666E+02 -0.50162953244E+01  0.37567854772E+02  0.51100000000E-03 0.  1.
         12    1    3    3    0    0  0.27322007029E+02  0.35660759840E+02  0.68231994971E+01  0.45439387230E+02  0.00000000000E+00 0. -1.
</event>
<event>
 7    1  0.3032584E-015  0.9000769E+02  0.7816164E-02  0.1186339E+00
        -11   -1    0    0    0    0  0.00000000000E+00  0.00000000000E+00  0.45593999997E+02  0.45594000000E+02  0.51100000000E-03 0.  1.
         11   -1    0    0    0    0 -0.00000000000E+00 -0.00000000000E+00 -0.45593999997E+02  0.45594000000E+02  0.51100000000E-03 0. -1.
    9900012    2    1    2    0    0 -0.10624301528E+00  0.65434147487E+00  0.97656483902E+00  0.90007691045E+02  0.89999951767E+02 0.  0.
         12    1    1    2    0    0  0.10624301528E+00 -0.65434147487E+00 -0.97656483902E+00  0.11803089548E+01  0.00000000000E+00 0. -1.
         11    1    3    3    0    0  0.11448642496E+02  0.25190083732E+02 -0.29481367794E+02  0.40432199801E+02  0.51100000000E-03 0. -1.
        -11    1    3    3    0    0  0.77015812995E+01 -0.11542645061E+00  0.36807583607E+01  0.85367242048E+01  0.51100000000E-03 0.  1.
        -12    1    3    3    0    0 -0.19256466811E+02 -0.24420315806E+02  0.26777174273E+02  0.41038767040E+02  0.00000000000E+00 0.  1.
</event>
<event>
 7    1  0.3032584E-015  0.9000768E+02  0.7816164E-02  0.1186339E+00
        -11   -1    0    0    0    0  0.00000000000E+00  0.00000000000E+00  0.45593999997E+02  0.45594000000E+02  0.51100000000E-03 0.  1.
         11   -1    0    0    0    0 -0.00000000000E+00 -0.00000000000E+00 -0.45593999997E+02  0.45594000000E+02  0.51100000000E-03 0. -1.
    9900012    2    1    2    0    0 -0.15748260680E+00 -0.26171683929E+00  0.11401087289E+01  0.90007684623E+02  0.89999945260E+02 0.  0.
         12    1    1    2    0    0  0.15748260680E+00  0.26171683929E+00 -0.11401087289E+01  0.11803153770E+01  0.00000000000E+00 0. -1.
         11    1    3    3    0    0  0.14046900506E+02 -0.13887737470E+02 -0.38554012668E+02  0.43319701740E+02  0.51100000000E-03 0. -1.
        -11    1    3    3    0    0 -0.64853916112E+01 -0.17919205328E+01  0.69009083949E+01  0.96381440373E+01  0.51100000000E-03 0.  1.
        -12    1    3    3    0    0 -0.77189915012E+01  0.15417941163E+02  0.32793213002E+02  0.37049838845E+02  0.00000000000E+00 0.  1.
</event>
<event>
 7    1  0.3032584E-015  0.9000772E+02  0.7816164E-02  0.1186339E+00
        -11   -1    0    0    0    0  0.00000000000E+00  0.00000000000E+00  0.45593999997E+02  0.45594000000E+02  0.51100000000E-03 0.  1.
         11   -1    0    0    0    0 -0.00000000000E+00 -0.00000000000E+00 -0.45593999997E+02  0.45594000000E+02  0.51100000000E-03 0. -1.
    9900012    2    1    2    0    0 -0.85771900478E+00 -0.80987953249E+00 -0.38425388803E-01  0.90007718992E+02  0.89999980082E+02 0.  0.
         12    1    1    2    0    0  0.85771900478E+00  0.80987953249E+00  0.38425388803E-01  0.11802810084E+01  0.00000000000E+00 0. -1.
         11    1    3    3    0    0  0.98133184162E+01  0.26213107435E+01 -0.11748754510E+00  0.10158065364E+02  0.51100000000E-03 0. -1.
        -11    1    3    3    0    0 -0.17515298065E+02  0.33832061109E+02  0.12311814377E+02  0.40037167716E+02  0.51100000000E-03 0.  1.
         12    1    3    3    0    0  0.68442606436E+01 -0.37263251385E+02 -0.12232752221E+02  0.39812485912E+02  0.00000000000E+00 0. -1.
</event>
<event>
 7    1  0.3032584E-015  0.9000764E+02  0.7816164E-02  0.1186339E+00
        -11   -1    0    0    0    0  0.00000000000E+00  0.00000000000E+00  0.45593999997E+02  0.45594000000E+02  0.51100000000E-03 0.  1.
         11   -1    0    0    0    0 -0.00000000000E+00 -0.00000000000E+00 -0.45593999997E+02  0.45594000000E+02  0.51100000000E-03 0. -1.
    9900012    2    1    2    0    0  0.43782520243E-01  0.97995576863E+00 -0.65652131162E+00  0.90007639695E+02  0.89999899739E+02 0.  0.
         12    1    1    2    0    0 -0.43782520243E-01 -0.97995576863E+00  0.65652131162E+00  0.11803603052E+01  0.00000000000E+00 0. -1.
         11    1    3    3    0    0 -0.25725541335E+02  0.28882246037E+02 -0.10940902250E+02  0.40195658415E+02  0.51100000000E-03 0. -1.
        -11    1    3    3    0    0  0.18401577985E+01 -0.21264438109E+01 -0.91891243548E+01  0.96097841117E+01  0.51100000000E-03 0.  1.
        -12    1    3    3    0    0  0.23929166057E+02 -0.25775846457E+02  0.19473505293E+02  0.40202197168E+02  0.00000000000E+00 0.  1.
</event>
<event>
 7    1  0.3032584E-015  0.9000773E+02  0.7816164E-02  0.1186339E+00
        -11   -1    0    0    0    0  0.00000000000E+00  0.00000000000E+00  0.45593999997E+02  0.45594000000E+02  0.51100000000E-03 0. -1.
         11   -1    0    0    0    0 -0.00000000000E+00 -0.00000000000E+00 -0.45593999997E+02  0.45594000000E+02  0.51100000000E-03 0.  1.
    9900012    2    1    2    0    0 -0.57563162036E+00  0.91325863424E+00  0.47711971034E+00  0.90007730406E+02  0.89999991648E+02 0.  0.
         12    1    1    2    0    0  0.57563162036E+00 -0.91325863424E+00 -0.47711971034E+00  0.11802695935E+01  0.00000000000E+00 0. -1.
         11    1    3    3    0    0 -0.23903539685E+02 -0.29953350686E+02  0.12292878708E+02  0.40245463023E+02  0.51100000000E-03 0. -1.
        -11    1    3    3    0    0  0.87747788621E+01  0.22605370667E+01  0.79622608825E+01  0.12062519245E+02  0.51100000000E-03 0.  1.
        -12    1    3    3    0    0  0.14553129203E+02  0.28606072253E+02 -0.19778019880E+02  0.37699748138E+02  0.00000000000E+00 0.  1.
</event>
<event>
 7    1  0.3032584E-015  0.9000762E+02  0.7816164E-02  0.1186339E+00
        -11   -1    0    0    0    0  0.00000000000E+00  0.00000000000E+00  0.45593999997E+02  0.45594000000E+02  0.51100000000E-03 0.  1.
         11   -1    0    0    0    0 -0.00000000000E+00 -0.00000000000E+00 -0.45593999997E+02  0.45594000000E+02  0.51100000000E-03 0. -1.
    9900012    2    1    2    0    0  0.40048646208E+00  0.32992843738E+00  0.10602105574E+01  0.90007623532E+02  0.89999883363E+02 0.  0.
         12    1    1    2    0    0 -0.40048646208E+00 -0.32992843738E+00 -0.10602105574E+01  0.11803764680E+01  0.00000000000E+00 0. -1.
         11    1    3    3    0    0  0.21066252468E+02  0.28352085306E+02 -0.14987780170E+02  0.38370057192E+02  0.51100000000E-03 0. -1.
        -11    1    3    3    0    0  0.76277211382E+01 -0.16169840075E+00  0.81273336771E+01  0.11147279000E+02  0.51100000000E-03 0.  1.
        -12    1    3    3    0    0 -0.28293487144E+02 -0.27860458467E+02  0.79206570507E+01  0.40490287340E+02  0.00000000000E+00 0.  1.
</event>
<event>
 7    1  0.3032584E-015  0.9000719E+02  0.7816164E-02  0.1186340E+00
        -11   -1    0    0    0    0  0.00000000000E+00  0.00000000000E+00  0.45593999997E+02  0.45594000000E+02  0.51100000000E-03 0.  1.
         11   -1    0    0    0    0 -0.00000000000E+00 -0.00000000000E+00 -0.45593999997E+02  0.45594000000E+02  0.51100000000E-03 0. -1.
    9900012    2    1    2    0    0  0.75791167060E+00  0.24387541284E+00  0.87201298638E+00  0.90007190123E+02  0.89999444231E+02 0.  0.
         12    1    1    2    0    0 -0.75791167060E+00 -0.24387541284E+00 -0.87201298638E+00  0.11808098771E+01  0.00000000000E+00 0. -1.
         11    1    3    3    0    0 -0.77420202894E+01  0.20010565579E+02 -0.10020060267E+01  0.21479423393E+02  0.51100000000E-03 0. -1.
        -11    1    3    3    0    0  0.30165060463E+02 -0.77592622044E+01  0.20714901461E+02  0.37406472241E+02  0.51100000000E-03 0.  1.
         12    1    3    3    0    0 -0.21665128503E+02 -0.12007427962E+02 -0.18840882448E+02  0.31121294490E+02  0.00000000000E+00 0. -1.
</event>
<event>
 7    1  0.3032584E-015  0.9000771E+02  0.7816164E-02  0.1186339E+00
        -11   -1    0    0    0    0  0.00000000000E+00  0.00000000000E+00  0.45593999997E+02  0.45594000000E+02  0.51100000000E-03 0. -1.
         11   -1    0    0    0    0 -0.00000000000E+00 -0.00000000000E+00 -0.45593999997E+02  0.45594000000E+02  0.51100000000E-03 0.  1.
    9900012    2    1    2    0    0 -0.80978408489E+00  0.74517639286E+00 -0.42668099646E+00  0.90007705633E+02  0.89999966547E+02 0.  0.
         12    1    1    2    0    0  0.80978408489E+00 -0.74517639286E+00  0.42668099646E+00  0.11802943672E+01  0.00000000000E+00 0. -1.
         11    1    3    3    0    0 -0.31072723430E+02 -0.18484834151E+02 -0.11675382691E+01  0.36174112026E+02  0.51100000000E-03 0. -1.
        -11    1    3    3    0    0 -0.85431719408E+01 -0.12343553591E+01 -0.43530689012E+01  0.96674003270E+01  0.51100000000E-03 0.  1.
        -12    1    3    3    0    0  0.38806111286E+02  0.20464365903E+02  0.50939261738E+01  0.44166193280E+02  0.00000000000E+00 0.  1.
</event>
<event>
 7    1  0.3035662E-015  0.9000778E+02  0.7816164E-02  0.1186339E+00
        -11   -1    0    0    0    0  0.00000000000E+00  0.00000000000E+00  0.45593999997E+02  0.45594000000E+02  0.51100000000E-03 0.  1.
         11   -1    0    0    0    0 -0.00000000000E+00 -0.00000000000E+00 -0.45593999997E+02  0.45594000000E+02  0.51100000000E-03 0. -1.
    9900012    2    1    2    0    0  0.76537801167E+00 -0.86884552305E+00  0.22854865578E+00  0.90007775220E+02  0.90000037053E+02 0.  0.
         12    1    1    2    0    0 -0.76537801167E+00  0.86884552305E+00 -0.22854865578E+00  0.11802247802E+01  0.00000000000E+00 0. -1.
         11    1    3    3    0    0 -0.26872987541E+02  0.15882173424E+02 -0.17692209669E+02  0.35880568213E+02  0.51100000000E-03 0. -1.
        -11    1    3    3    0    0 -0.89671594654E+01  0.95768412261E+00 -0.13662864012E+01  0.91210660862E+01  0.51100000000E-03 0.  1.
        -12    1    3    3    0    0  0.36605525018E+02 -0.17708703070E+02  0.19287044726E+02  0.45006140920E+02  0.00000000000E+00 0.  1.
</event>
<event>
 7    1  0.3032584E-015  0.9000780E+02  0.7816164E-02  0.1186339E+00
        -11   -1    0    0    0    0  0.00000000000E+00  0.00000000000E+00  0.45593999997E+02  0.45594000000E+02  0.51100000000E-03 0.  1.
         11   -1    0    0    0    0 -0.00000000000E+00 -0.00000000000E+00 -0.45593999997E+02  0.45594000000E+02  0.51100000000E-03 0. -1.
    9900012    2    1    2    0    0 -0.48526336566E+00  0.10553482071E+01 -0.20886968351E+00  0.90007802170E+02  0.90000064359E+02 0.  0.
         12    1    1    2    0    0  0.48526336566E+00 -0.10553482071E+01  0.20886968351E+00  0.11801978296E+01  0.00000000000E+00 0. -1.
         11    1    3    3    0    0  0.30944351743E+02  0.22131953454E+02 -0.17391217274E+02  0.41830977839E+02  0.51100000000E-03 0. -1.
        -11    1    3    3    0    0  0.68326539407E+00 -0.10122508156E+02  0.24444108186E-02  0.10145542332E+02  0.51100000000E-03 0.  1.
        -12    1    3    3    0    0 -0.32112880502E+02 -0.10954097091E+02  0.17179903179E+02  0.38031281999E+02  0.00000000000E+00 0.  1.
</event>
<event>
 7    1  0.3032584E-015  0.9000777E+02  0.7816164E-02  0.1186339E+00
        -11   -1    0    0    0    0  0.00000000000E+00  0.00000000000E+00  0.45593999997E+02  0.45594000000E+02  0.51100000000E-03 0. -1.
         11   -1    0    0    0    0 -0.00000000000E+00 -0.00000000000E+00 -0.45593999997E+02  0.45594000000E+02  0.51100000000E-03 0.  1.
    9900012    2    1    2    0    0  0.99092061095E+00 -0.44040090100E+00 -0.46591155809E+00  0.90007766891E+02  0.90000028614E+02 0.  0.
         12    1    1    2    0    0 -0.99092061095E+00  0.44040090100E+00  0.46591155809E+00  0.11802331087E+01  0.00000000000E+00 0. -1.
         11    1    3    3    0    0  0.69523554932E+01  0.38970211743E+01  0.14984346539E+01  0.81097057660E+01  0.51100000000E-03 0. -1.
        -11    1    3    3    0    0  0.29390033385E+02  0.22242080322E+02 -0.65390903438E+01  0.37433192519E+02  0.51100000000E-03 0.  1.
         12    1    3    3    0    0 -0.35351468267E+02 -0.26579502397E+02  0.45747441318E+01  0.44464868606E+02  0.00000000000E+00 0. -1.
</event>
<event>
 7    1  0.3032584E-015  0.9000763E+02  0.7816164E-02  0.1186339E+00
        -11   -1    0    0    0    0  0.00000000000E+00  0.00000000000E+00  0.45593999997E+02  0.45594000000E+02  0.51100000000E-03 0.  1.
         11   -1    0    0    0    0 -0.00000000000E+00 -0.00000000000E+00 -0.45593999997E+02  0.45594000000E+02  0.51100000000E-03 0. -1.
    9900012    2    1    2    0    0  0.38962682551E+00  0.52011709002E+00  0.98536091046E+00  0.90007632695E+02  0.89999892647E+02 0.  0.
         12    1    1    2    0    0 -0.38962682551E+00 -0.52011709002E+00 -0.98536091046E+00  0.11803673048E+01  0.00000000000E+00 0. -1.
         11    1    3    3    0    0 -0.80564839571E+01  0.60282619533E+01 -0.18295675871E+01  0.10227130279E+02  0.51100000000E-03 0. -1.
        -11    1    3    3    0    0 -0.33290529229E+02  0.10616330908E+02  0.25702554240E+01  0.35036724041E+02  0.51100000000E-03 0.  1.
         12    1    3    3    0    0  0.41736640012E+02 -0.16124475771E+02  0.24467307349E+00  0.44743778375E+02  0.00000000000E+00 0. -1.
</event>
<event>
 7    1  0.3032584E-015  0.9000777E+02  0.7816164E-02  0.1186339E+00
        -11   -1    0    0    0    0  0.00000000000E+00  0.00000000000E+00  0.45593999997E+02  0.45594000000E+02  0.51100000000E-03 0. -1.
         11   -1    0    0    0    0 -0.00000000000E+00 -0.00000000000E+00 -0.45593999997E+02  0.45594000000E+02  0.51100000000E-03 0.  1.
    9900012    2    1    2    0    0  0.43138119820E+00 -0.17280920421E+00 -0.10848924831E+01  0.90007769320E+02  0.90000031075E+02 0.  0.
         12    1    1    2    0    0 -0.43138119820E+00  0.17280920421E+00  0.10848924831E+01  0.11802306805E+01  0.00000000000E+00 0. -1.
         11    1    3    3    0    0 -0.61782792614E+00  0.65433565166E+01 -0.67403403737E+01  0.94143196496E+01  0.51100000000E-03 0. -1.
        -11    1    3    3    0    0  0.12324573288E+00  0.27116732389E+02 -0.23529688174E+02  0.35902347985E+02  0.51100000000E-03 0.  1.
         12    1    3    3    0    0  0.92596339145E+00 -0.33832898110E+02  0.29185136065E+02  0.44691101685E+02  0.00000000000E+00 0. -1.
</event>
<event>
 7    1  0.3032584E-015  0.9000775E+02  0.7816164E-02  0.1186339E+00
        -11   -1    0    0    0    0  0.00000000000E+00  0.00000000000E+00  0.45593999997E+02  0.45594000000E+02  0.51100000000E-03 0. -1.
         11   -1    0    0    0    0 -0.00000000000E+00 -0.00000000000E+00 -0.45593999997E+02  0.45594000000E+02  0.51100000000E-03 0.  1.
    9900012    2    1    2    0    0  0.17443441781E+00  0.41257952215E+00 -0.10919386885E+01  0.90007754548E+02  0.90000016108E+02 0.  0.
         12    1    1    2    0    0 -0.17443441781E+00 -0.41257952215E+00  0.10919386885E+01  0.11802454523E+01  0.00000000000E+00 0. -1.
         11    1    3    3    0    0 -0.25567961292E+02 -0.17068885054E+02  0.23888989692E+02  0.38932650955E+02  0.51100000000E-03 0. -1.
        -11    1    3    3    0    0 -0.42839678319E+01  0.13021706335E+02 -0.43878858418E+01  0.14393427621E+02  0.51100000000E-03 0.  1.
        -12    1    3    3    0    0  0.30026363542E+02  0.44597582409E+01 -0.20593042539E+02  0.36681675972E+02  0.00000000000E+00 0.  1.
</event>
<event>
 7    1  0.3032584E-015  0.9000773E+02  0.7816164E-02  0.1186339E+00
        -11   -1    0    0    0    0  0.00000000000E+00  0.00000000000E+00  0.45593999997E+02  0.45594000000E+02  0.51100000000E-03 0.  1.
         11   -1    0    0    0    0 -0.00000000000E+00 -0.00000000000E+00 -0.45593999997E+02  0.45594000000E+02  0.51100000000E-03 0. -1.
    9900012    2    1    2    0    0  0.10391853381E+01 -0.31350970564E+00  0.46351202762E+00  0.90007729733E+02  0.89999990966E+02 0.  0.
         12    1    1    2    0    0 -0.10391853381E+01  0.31350970564E+00 -0.46351202762E+00  0.11802702666E+01  0.00000000000E+00 0. -1.
         11    1    3    3    0    0  0.21696588045E+01 -0.37223827218E+02 -0.83901864514E+01  0.38219313979E+02  0.51100000000E-03 0. -1.
        -11    1    3    3    0    0  0.37191683129E+01 -0.38386140522E+01  0.93261999057E+01  0.10749194190E+02  0.51100000000E-03 0.  1.
        -12    1    3    3    0    0 -0.48496417793E+01  0.40748931565E+02 -0.47250142672E+00  0.41039221565E+02  0.00000000000E+00 0.  1.
</event>
<event>
 7    1  0.3032584E-015  0.9000784E+02  0.7816164E-02  0.1186339E+00
        -11   -1    0    0    0    0  0.00000000000E+00  0.00000000000E+00  0.45593999997E+02  0.45594000000E+02  0.51100000000E-03 0. -1.
         11   -1    0    0    0    0 -0.00000000000E+00 -0.00000000000E+00 -0.45593999997E+02  0.45594000000E+02  0.51100000000E-03 0.  1.
    9900012    2    1    2    0    0 -0.57403994124E+00 -0.10281732747E+01 -0.78238373441E-01  0.90007837562E+02  0.90000100218E+02 0.  0.
         12    1    1    2    0    0  0.57403994124E+00  0.10281732747E+01  0.78238373441E-01  0.11801624380E+01  0.00000000000E+00 0. -1.
         11    1    3    3    0    0 -0.13434430080E+01 -0.22133479129E+01 -0.67827192321E+01  0.72600983837E+01  0.51100000000E-03 0. -1.
        -11    1    3    3    0    0  0.89589221051E+00  0.36981449205E+02 -0.16057690903E+02  0.40327157668E+02  0.51100000000E-03 0.  1.
         12    1    3    3    0    0 -0.12648914374E+00 -0.35796274567E+02  0.22762171761E+02  0.42420581510E+02  0.00000000000E+00 0. -1.
</event>
<event>
 7    1  0.3032584E-015  0.9000777E+02  0.7816164E-02  0.1186339E+00
        -11   -1    0    0    0    0  0.00000000000E+00  0.00000000000E+00  0.45593999997E+02  0.45594000000E+02  0.51100000000E-03 0.  1.
         11   -1    0    0    0    0 -0.00000000000E+00 -0.00000000000E+00 -0.45593999997E+02  0.45594000000E+02  0.51100000000E-03 0. -1.
    9900012    2    1    2    0    0 -0.27708298499E+00 -0.50714903226E+00  0.10290645397E+01  0.90007767418E+02  0.90000029148E+02 0.  0.
         12    1    1    2    0    0  0.27708298499E+00  0.50714903226E+00 -0.10290645397E+01  0.11802325823E+01  0.00000000000E+00 0. -1.
         11    1    3    3    0    0 -0.58125454074E+01 -0.35433459971E+02 -0.19497618010E+02  0.40859183521E+02  0.51100000000E-03 0. -1.
        -11    1    3    3    0    0 -0.78040132089E+01  0.62662969148E+00  0.42397232082E+01  0.89034004784E+01  0.51100000000E-03 0.  1.
        -12    1    3    3    0    0  0.13339475631E+02  0.34299681248E+02  0.16286959341E+02  0.40245183419E+02  0.00000000000E+00 0.  1.
</event>
<event>
 7    1  0.3032584E-015  0.9000778E+02  0.7816164E-02  0.1186339E+00
        -11   -1    0    0    0    0  0.00000000000E+00  0.00000000000E+00  0.45593999997E+02  0.45594000000E+02  0.51100000000E-03 0.  1.
         11   -1    0    0    0    0 -0.00000000000E+00 -0.00000000000E+00 -0.45593999997E+02  0.45594000000E+02  0.51100000000E-03 0. -1.
    9900012    2    1    2    0    0 -0.41069067404E+00 -0.85584038063E+00  0.70127638993E+00  0.90007780460E+02  0.90000042362E+02 0.  0.
         12    1    1    2    0    0  0.41069067404E+00  0.85584038063E+00 -0.70127638993E+00  0.11802195397E+01  0.00000000000E+00 0. -1.
         11    1    3    3    0    0 -0.30767486807E+01 -0.76706026825E+01 -0.15048887173E+01  0.84005486886E+01  0.51100000000E-03 0. -1.
        -11    1    3    3    0    0 -0.15654549781E+02 -0.32385225728E+02 -0.86509047046E+01  0.36996025824E+02  0.51100000000E-03 0.  1.
         12    1    3    3    0    0  0.18320607788E+02  0.39199988029E+02  0.10857069812E+02  0.44611205948E+02  0.00000000000E+00 0. -1.
</event>
<event>
 7    1  0.3032584E-015  0.9000772E+02  0.7816164E-02  0.1186339E+00
        -11   -1    0    0    0    0  0.00000000000E+00  0.00000000000E+00  0.45593999997E+02  0.45594000000E+02  0.51100000000E-03 0.  1.
         11   -1    0    0    0    0 -0.00000000000E+00 -0.00000000000E+00 -0.45593999997E+02  0.45594000000E+02  0.51100000000E-03 0. -1.
    9900012    2    1    2    0    0 -0.70075307547E+00 -0.71592596745E+00  0.62407026247E+00  0.90007716747E+02  0.89999977809E+02 0.  0.
         12    1    1    2    0    0  0.70075307547E+00  0.71592596745E+00 -0.62407026247E+00  0.11802832525E+01  0.00000000000E+00 0. -1.
         11    1    3    3    0    0 -0.30648435553E+02  0.24212327533E+02 -0.12969713780E+02  0.41155520677E+02  0.51100000000E-03 0. -1.
        -11    1    3    3    0    0 -0.31620610757E+01 -0.41845473648E+01 -0.33944858204E+01  0.62475276022E+01  0.51100000000E-03 0.  1.
        -12    1    3    3    0    0  0.33109743553E+02 -0.20743706135E+02  0.16988269863E+02  0.42604668468E+02  0.00000000000E+00 0.  1.
</event>
<event>
 7    1  0.3032584E-015  0.9000773E+02  0.7816164E-02  0.1186339E+00
        -11   -1    0    0    0    0  0.00000000000E+00  0.00000000000E+00  0.45593999997E+02  0.45594000000E+02  0.51100000000E-03 0.  1.
         11   -1    0    0    0    0 -0.00000000000E+00 -0.00000000000E+00 -0.45593999997E+02  0.45594000000E+02  0.51100000000E-03 0. -1.
    9900012    2    1    2    0    0  0.91691090670E+00  0.94213298808E-01  0.73718267671E+00  0.90007728821E+02  0.89999990042E+02 0.  0.
         12    1    1    2    0    0 -0.91691090670E+00 -0.94213298808E-01 -0.73718267671E+00  0.11802711787E+01  0.00000000000E+00 0. -1.
         11    1    3    3    0    0 -0.10362254684E+02 -0.22138104217E+01 -0.27719830245E+01  0.10952678616E+02  0.51100000000E-03 0. -1.
        -11    1    3    3    0    0 -0.27806045075E+02 -0.22784512552E+01 -0.18966510353E+02  0.33735678414E+02  0.51100000000E-03 0.  1.
         12    1    3    3    0    0  0.39085210666E+02  0.45864749757E+01  0.22475676054E+02  0.45319371791E+02  0.00000000000E+00 0. -1.
</event>
<event>
 7    1  0.3032584E-015  0.9000773E+02  0.7816164E-02  0.1186339E+00
        -11   -1    0    0    0    0  0.00000000000E+00  0.00000000000E+00  0.45593999997E+02  0.45594000000E+02  0.51100000000E-03 0.  1.
         11   -1    0    0    0    0 -0.00000000000E+00 -0.00000000000E+00 -0.45593999997E+02  0.45594000000E+02  0.51100000000E-03 0. -1.
    9900012    2    1    2    0    0  0.33038029716E+00  0.86001740128E+00 -0.73773511269E+00  0.90007731315E+02  0.89999992569E+02 0.  0.
         12    1    1    2    0    0 -0.33038029716E+00 -0.86001740128E+00  0.73773511269E+00  0.11802686846E+01  0.00000000000E+00 0. -1.
         11    1    3    3    0    0  0.46222711290E+01  0.89355208320E+01 -0.88973297098E+01  0.13430241962E+02  0.51100000000E-03 0. -1.
        -11    1    3    3    0    0  0.18774336611E+02  0.27430720072E+02  0.81993886575E+01  0.34236677606E+02  0.51100000000E-03 0.  1.
         12    1    3    3    0    0 -0.23066227443E+02 -0.35506223503E+02 -0.39794060386E-01  0.42340811748E+02  0.00000000000E+00 0. -1.
</event>
<event>
 7    1  0.3032584E-015  0.9000751E+02  0.7816164E-02  0.1186339E+00
        -11   -1    0    0    0    0  0.00000000000E+00  0.00000000000E+00  0.45593999997E+02  0.45594000000E+02  0.51100000000E-03 0.  1.
         11   -1    0    0    0    0 -0.00000000000E+00 -0.00000000000E+00 -0.45593999997E+02  0.45594000000E+02  0.51100000000E-03 0. -1.
    9900012    2    1    2    0    0  0.85529692867E+00 -0.20494586550E+00  0.78740852206E+00  0.90007513734E+02  0.89999772115E+02 0.  0.
         12    1    1    2    0    0 -0.85529692867E+00  0.20494586550E+00 -0.78740852206E+00  0.11804862662E+01  0.00000000000E+00 0. -1.
         11    1    3    3    0    0  0.35953778056E+02  0.29811583783E+01  0.28446431895E+01  0.36189134515E+02  0.51100000000E-03 0. -1.
        -11    1    3    3    0    0  0.87980831047E+01 -0.43213546927E+01  0.65137200246E+00  0.98236784579E+01  0.51100000000E-03 0.  1.
        -12    1    3    3    0    0 -0.43896564232E+02  0.11352504490E+01 -0.27086066699E+01  0.43994700761E+02  0.00000000000E+00 0.  1.
</event>
<event>
 7    1  0.3032584E-015  0.9000781E+02  0.7816164E-02  0.1186339E+00
        -11   -1    0    0    0    0  0.00000000000E+00  0.00000000000E+00  0.45593999997E+02  0.45594000000E+02  0.51100000000E-03 0. -1.
         11   -1    0    0    0    0 -0.00000000000E+00 -0.00000000000E+00 -0.45593999997E+02  0.45594000000E+02  0.51100000000E-03 0.  1.
    9900012    2    1    2    0    0 -0.86487624008E+00 -0.57798280720E+00 -0.55746776111E+00  0.90007811311E+02  0.90000073621E+02 0.  0.
         12    1    1    2    0    0  0.86487624008E+00  0.57798280720E+00  0.55746776111E+00  0.11801886886E+01  0.00000000000E+00 0. -1.
         11    1    3    3    0    0  0.68479815248E+01 -0.73129356783E+01 -0.19217135746E+01  0.10201316705E+02  0.51100000000E-03 0. -1.
        -11    1    3    3    0    0  0.30572904290E+02  0.15754333529E+02 -0.14590278797E+02  0.37360108904E+02  0.51100000000E-03 0.  1.
         12    1    3    3    0    0 -0.38285762055E+02 -0.90193806582E+01  0.15954524611E+02  0.42446385702E+02  0.00000000000E+00 0. -1.
</event>
<event>
 7    1  0.3032584E-015  0.9000815E+02  0.7816164E-02  0.1186338E+00
        -11   -1    0    0    0    0  0.00000000000E+00  0.00000000000E+00  0.45593999997E+02  0.45594000000E+02  0.51100000000E-03 0.  1.
         11   -1    0    0    0    0 -0.00000000000E+00 -0.00000000000E+00 -0.45593999997E+02  0.45594000000E+02  0.51100000000E-03 0. -1.
    9900012    2    1    2    0    0  0.15458625294E+00  0.88305077415E+00  0.76705429134E+00  0.90008149219E+02  0.90000415988E+02 0.  0.
         12    1    1    2    0    0 -0.15458625294E+00 -0.88305077415E+00 -0.76705429134E+00  0.11798507809E+01  0.00000000000E+00 0. -1.
         11    1    3    3    0    0  0.69060798264E+00 -0.59272126259E+01 -0.36739687207E+01  0.70076269393E+01  0.51100000000E-03 0. -1.
        -11    1    3    3    0    0  0.37941878894E+02  0.98658317759E+00  0.17711683110E+02  0.41883925786E+02  0.51100000000E-03 0.  1.
         12    1    3    3    0    0 -0.38477900624E+02  0.58236802224E+01 -0.13270660098E+02  0.41116596494E+02  0.00000000000E+00 0. -1.
</event>
<event>
 8    1  0.3032584E-015  0.9000775E+02  0.7816164E-02  0.1186339E+00
        -11   -1    0    0    0    0  0.00000000000E+00  0.00000000000E+00  0.45593999997E+02  0.45594000000E+02  0.51100000000E-03 0. -1.
         11   -1    0    0    0    0 -0.00000000000E+00 -0.00000000000E+00 -0.45593999997E+02  0.45594000000E+02  0.51100000000E-03 0.  1.
    9900012    2    1    2    0    0 -0.95820819306E+00 -0.25754246024E+00 -0.63914399886E+00  0.90007747437E+02  0.90000008904E+02 0.  0.
         23    2    3    3    0    0 -0.48924368145E+01  0.15309798815E+02 -0.20704594512E+02  0.64308670149E+02  0.58724772836E+02 0.  0.
         12    1    1    2    0    0  0.95820819306E+00  0.25754246024E+00  0.63914399886E+00  0.11802525625E+01  0.00000000000E+00 0. -1.
         11    1    4    4    0    0  0.19059303688E+02  0.18102460019E+02  0.73699606386E+01  0.27299678311E+02  0.51100000000E-03 0. -1.
        -11    1    4    4    0    0 -0.23951740502E+02 -0.27926612044E+01 -0.28074555150E+02  0.37008991838E+02  0.51100000000E-03 0.  1.
         12    1    3    3    0    0  0.39342286214E+01 -0.15567341275E+02  0.20065450513E+02  0.25699077289E+02  0.00000000000E+00 0. -1.
</event>
<event>
 7    1  0.3032584E-015  0.9000790E+02  0.7816164E-02  0.1186339E+00
        -11   -1    0    0    0    0  0.00000000000E+00  0.00000000000E+00  0.45593999997E+02  0.45594000000E+02  0.51100000000E-03 0. -1.
         11   -1    0    0    0    0 -0.00000000000E+00 -0.00000000000E+00 -0.45593999997E+02  0.45594000000E+02  0.51100000000E-03 0.  1.
    9900012    2    1    2    0    0 -0.71088496517E+00 -0.23625611678E+00 -0.91184234926E+00  0.90007902184E+02  0.90000165692E+02 0.  0.
         12    1    1    2    0    0  0.71088496517E+00  0.23625611678E+00  0.91184234926E+00  0.11800978164E+01  0.00000000000E+00 0. -1.
         11    1    3    3    0    0 -0.85460168675E+01  0.12378629825E+02  0.33260211996E+02  0.36503514665E+02  0.51100000000E-03 0. -1.
        -11    1    3    3    0    0 -0.11638181741E+01  0.49819922120E+01  0.65074029243E+01  0.82777419761E+01  0.51100000000E-03 0.  1.
        -12    1    3    3    0    0  0.89989500764E+01 -0.17596878154E+02 -0.40679457270E+02  0.45226645542E+02  0.00000000000E+00 0.  1.
</event>
<event>
 7    1  0.3032584E-015  0.9000774E+02  0.7816164E-02  0.1186339E+00
        -11   -1    0    0    0    0  0.00000000000E+00  0.00000000000E+00  0.45593999997E+02  0.45594000000E+02  0.51100000000E-03 0. -1.
         11   -1    0    0    0    0 -0.00000000000E+00 -0.00000000000E+00 -0.45593999997E+02  0.45594000000E+02  0.51100000000E-03 0.  1.
    9900012    2    1    2    0    0 -0.76180009487E+00 -0.29565452593E+00  0.85162234627E+00  0.90007740874E+02  0.90000002254E+02 0.  0.
         12    1    1    2    0    0  0.76180009487E+00  0.29565452593E+00 -0.85162234627E+00  0.11802591257E+01  0.00000000000E+00 0. -1.
         11    1    3    3    0    0 -0.60407283841E+01  0.36008593557E+01  0.58712720600E+01  0.91612457326E+01  0.51100000000E-03 0. -1.
        -11    1    3    3    0    0 -0.25164169498E+02  0.11289917708E+02 -0.28382657756E+02  0.39576166186E+02  0.51100000000E-03 0.  1.
         12    1    3    3    0    0  0.30443097788E+02 -0.15186431590E+02  0.23363008042E+02  0.41270328956E+02  0.00000000000E+00 0. -1.
</event>
<event>
 7    1  0.3032584E-015  0.9000767E+02  0.7816164E-02  0.1186339E+00
        -11   -1    0    0    0    0  0.00000000000E+00  0.00000000000E+00  0.45593999997E+02  0.45594000000E+02  0.51100000000E-03 0.  1.
         11   -1    0    0    0    0 -0.00000000000E+00 -0.00000000000E+00 -0.45593999997E+02  0.45594000000E+02  0.51100000000E-03 0. -1.
    9900012    2    1    2    0    0 -0.25887883854E+00  0.11319691948E+01  0.21165407711E+00  0.90007673791E+02  0.89999934285E+02 0.  0.
         12    1    1    2    0    0  0.25887883854E+00 -0.11319691948E+01 -0.21165407711E+00  0.11803262089E+01  0.00000000000E+00 0. -1.
         11    1    3    3    0    0 -0.30053537882E+02  0.23413511362E+02  0.92153731760E+01  0.39196055370E+02  0.51100000000E-03 0. -1.
        -11    1    3    3    0    0  0.40102205332E-01  0.55721975451E+01 -0.83627318683E+01  0.10049192914E+02  0.51100000000E-03 0.  1.
        -12    1    3    3    0    0  0.29754556838E+02 -0.27853739712E+02 -0.64098723064E+00  0.40762425507E+02  0.00000000000E+00 0.  1.
</event>
<event>
 7    1  0.3032584E-015  0.9000782E+02  0.7816164E-02  0.1186339E+00
        -11   -1    0    0    0    0  0.00000000000E+00  0.00000000000E+00  0.45593999997E+02  0.45594000000E+02  0.51100000000E-03 0.  1.
         11   -1    0    0    0    0 -0.00000000000E+00 -0.00000000000E+00 -0.45593999997E+02  0.45594000000E+02  0.51100000000E-03 0. -1.
    9900012    2    1    2    0    0 -0.51046598542E+00  0.10005757523E+01  0.36208224266E+00  0.90007817426E+02  0.90000079816E+02 0.  0.
         12    1    1    2    0    0  0.51046598542E+00 -0.10005757523E+01 -0.36208224266E+00  0.11801825743E+01  0.00000000000E+00 0. -1.
         11    1    3    3    0    0  0.38147777655E+01  0.29122444552E+01 -0.68801243497E+01  0.83886714380E+01  0.51100000000E-03 0. -1.
        -11    1    3    3    0    0  0.30945092070E+02 -0.24425687424E+02  0.46252459926E+01  0.39693901675E+02  0.51100000000E-03 0.  1.
         12    1    3    3    0    0 -0.35270335821E+02  0.22514018721E+02  0.26169605997E+01  0.41925244313E+02  0.00000000000E+00 0. -1.
</event>
<event>
 7    1  0.3206486E-015  0.9000772E+02  0.7816164E-02  0.1186339E+00
        -11   -1    0    0    0    0  0.00000000000E+00  0.00000000000E+00  0.45593999997E+02  0.45594000000E+02  0.51100000000E-03 0.  1.
         11   -1    0    0    0    0 -0.00000000000E+00 -0.00000000000E+00 -0.45593999997E+02  0.45594000000E+02  0.51100000000E-03 0. -1.
    9900012    2    1    2    0    0  0.27497323030E+00  0.10433070864E+01  0.47850455843E+00  0.90007717590E+02  0.89999978663E+02 0.  0.
         12    1    1    2    0    0 -0.27497323030E+00 -0.10433070864E+01 -0.47850455843E+00  0.11802824096E+01  0.00000000000E+00 0. -1.
         11    1    3    3    0    0  0.11468797390E+02 -0.10482902838E+02 -0.33551466806E+02  0.36974660115E+02  0.51100000000E-03 0. -1.
        -11    1    3    3    0    0  0.76977075766E+01 -0.44460098532E+01 -0.22047328913E+01  0.91587418859E+01  0.51100000000E-03 0.  1.
        -12    1    3    3    0    0 -0.18891531736E+02  0.15972219778E+02  0.36234704256E+02  0.43874315590E+02  0.00000000000E+00 0.  1.
</event>
<event>
 7    1  0.3032584E-015  0.9000792E+02  0.7816164E-02  0.1186339E+00
        -11   -1    0    0    0    0  0.00000000000E+00  0.00000000000E+00  0.45593999997E+02  0.45594000000E+02  0.51100000000E-03 0.  1.
         11   -1    0    0    0    0 -0.00000000000E+00 -0.00000000000E+00 -0.45593999997E+02  0.45594000000E+02  0.51100000000E-03 0. -1.
    9900012    2    1    2    0    0  0.63492262622E-01  0.40835713193E+00  0.11053480274E+01  0.90007923275E+02  0.90000187062E+02 0.  0.
         12    1    1    2    0    0 -0.63492262622E-01 -0.40835713193E+00 -0.11053480274E+01  0.11800767248E+01  0.00000000000E+00 0. -1.
         11    1    3    3    0    0 -0.91788037700E+01  0.71003867970E+01 -0.20890541972E+01  0.11791101688E+02  0.51100000000E-03 0. -1.
        -11    1    3    3    0    0 -0.31388812100E+02  0.11260793300E+02  0.52017864905E+01  0.33750875155E+02  0.51100000000E-03 0.  1.
         12    1    3    3    0    0  0.40631108133E+02 -0.17952822965E+02 -0.20073842660E+01  0.44465946432E+02  0.00000000000E+00 0. -1.
</event>
<event>
 7    1  0.3032584E-015  0.9000785E+02  0.7816164E-02  0.1186339E+00
        -11   -1    0    0    0    0  0.00000000000E+00  0.00000000000E+00  0.45593999997E+02  0.45594000000E+02  0.51100000000E-03 0.  1.
         11   -1    0    0    0    0 -0.00000000000E+00 -0.00000000000E+00 -0.45593999997E+02  0.45594000000E+02  0.51100000000E-03 0. -1.
    9900012    2    1    2    0    0  0.78126607413E+00  0.39918131743E+00 -0.78932250644E+00  0.90007850678E+02  0.90000113507E+02 0.  0.
         12    1    1    2    0    0 -0.78126607413E+00 -0.39918131743E+00  0.78932250644E+00  0.11801493219E+01  0.00000000000E+00 0. -1.
         11    1    3    3    0    0 -0.15449572931E+02 -0.93461945913E-02  0.60570274840E+01  0.16594486232E+02  0.51100000000E-03 0. -1.
        -11    1    3    3    0    0  0.60573678590E+01  0.35668163885E+02 -0.62226138550E+01  0.36710087766E+02  0.51100000000E-03 0.  1.
         12    1    3    3    0    0  0.10173471146E+02 -0.35259636373E+02 -0.62373613541E+00  0.36703276680E+02  0.00000000000E+00 0. -1.
</event>
<event>
 7    1  0.3032584E-015  0.9000779E+02  0.7816164E-02  0.1186339E+00
        -11   -1    0    0    0    0  0.00000000000E+00  0.00000000000E+00  0.45593999997E+02  0.45594000000E+02  0.51100000000E-03 0. -1.
         11   -1    0    0    0    0 -0.00000000000E+00 -0.00000000000E+00 -0.45593999997E+02  0.45594000000E+02  0.51100000000E-03 0.  1.
    9900012    2    1    2    0    0  0.84194366907E+00  0.59386364598E+00 -0.57562379855E+00  0.90007794116E+02  0.90000056198E+02 0.  0.
         12    1    1    2    0    0 -0.84194366907E+00 -0.59386364598E+00  0.57562379855E+00  0.11802058843E+01  0.00000000000E+00 0. -1.
         11    1    3    3    0    0  0.23862006676E+01 -0.13274408043E+01  0.33641442842E+02  0.33752077410E+02  0.51100000000E-03 0. -1.
        -11    1    3    3    0    0  0.19348476486E+01 -0.49935444632E+01  0.10012065570E+02  0.11354319837E+02  0.51100000000E-03 0.  1.
        -12    1    3    3    0    0 -0.34791046472E+01  0.69148489134E+01 -0.44229132211E+02  0.44901396869E+02  0.00000000000E+00 0.  1.
</event>
<event>
 7    1  0.3032584E-015  0.9000772E+02  0.7816164E-02  0.1186339E+00
        -11   -1    0    0    0    0  0.00000000000E+00  0.00000000000E+00  0.45593999997E+02  0.45594000000E+02  0.51100000000E-03 0. -1.
         11   -1    0    0    0    0 -0.00000000000E+00 -0.00000000000E+00 -0.45593999997E+02  0.45594000000E+02  0.51100000000E-03 0.  1.
    9900012    2    1    2    0    0  0.80495412851E-01  0.10437680464E+01  0.54509389815E+00  0.90007720963E+02  0.89999982080E+02 0.  0.
         12    1    1    2    0    0 -0.80495412851E-01 -0.10437680464E+01 -0.54509389815E+00  0.11802790365E+01  0.00000000000E+00 0. -1.
         11    1    3    3    0    0  0.62175128293E+01  0.39923752628E+02 -0.12962501858E+01  0.40425780815E+02  0.51100000000E-03 0. -1.
        -11    1    3    3    0    0  0.63958894840E+01 -0.30284525714E+01 -0.76640088677E+01  0.10431488842E+02  0.51100000000E-03 0.  1.
        -12    1    3    3    0    0 -0.12532906900E+02 -0.35851532010E+02  0.95053529516E+01  0.39150451307E+02  0.00000000000E+00 0.  1.
</event>
<event>
 7    1  0.3032584E-015  0.9000772E+02  0.7816164E-02  0.1186339E+00
        -11   -1    0    0    0    0  0.00000000000E+00  0.00000000000E+00  0.45593999997E+02  0.45594000000E+02  0.51100000000E-03 0.  1.
         11   -1    0    0    0    0 -0.00000000000E+00 -0.00000000000E+00 -0.45593999997E+02  0.45594000000E+02  0.51100000000E-03 0. -1.
    9900012    2    1    2    0    0 -0.43362604665E+00  0.60078714055E+00  0.91874592915E+00  0.90007715789E+02  0.89999976837E+02 0.  0.
         12    1    1    2    0    0  0.43362604665E+00 -0.60078714055E+00 -0.91874592915E+00  0.11802842111E+01  0.00000000000E+00 0. -1.
         11    1    3    3    0    0 -0.14665271555E+02  0.18636974054E+02 -0.14729415428E+02  0.27917067733E+02  0.51100000000E-03 0. -1.
        -11    1    3    3    0    0  0.80825185271E+00  0.11566368371E+02 -0.13943415329E+02  0.18134303948E+02  0.51100000000E-03 0.  1.
        -12    1    3    3    0    0  0.13423393656E+02 -0.29602555284E+02  0.29591576687E+02  0.43956344109E+02  0.00000000000E+00 0.  1.
</event>
<event>
 7    1  0.3032584E-015  0.9000771E+02  0.7816164E-02  0.1186339E+00
        -11   -1    0    0    0    0  0.00000000000E+00  0.00000000000E+00  0.45593999997E+02  0.45594000000E+02  0.51100000000E-03 0. -1.
         11   -1    0    0    0    0 -0.00000000000E+00 -0.00000000000E+00 -0.45593999997E+02  0.45594000000E+02  0.51100000000E-03 0.  1.
    9900012    2    1    2    0    0  0.20895855421E+00 -0.85320931414E+00 -0.78832254009E+00  0.90007710951E+02  0.89999971936E+02 0.  0.
         12    1    1    2    0    0 -0.20895855421E+00  0.85320931414E+00  0.78832254009E+00  0.11802890486E+01  0.00000000000E+00 0. -1.
         11    1    3    3    0    0  0.12428435347E+01 -0.75758543521E+01  0.59834002149E+01  0.97334119203E+01  0.51100000000E-03 0. -1.
        -11    1    3    3    0    0  0.27367608622E+02 -0.15672089777E+02 -0.24555887288E+02  0.39969888672E+02  0.51100000000E-03 0.  1.
         12    1    3    3    0    0 -0.28401493602E+02  0.22394734815E+02  0.17784164533E+02  0.40304410359E+02  0.00000000000E+00 0. -1.
</event>
<event>
 7    1  0.3032584E-015  0.9000773E+02  0.7816164E-02  0.1186339E+00
        -11   -1    0    0    0    0  0.00000000000E+00  0.00000000000E+00  0.45593999997E+02  0.45594000000E+02  0.51100000000E-03 0.  1.
         11   -1    0    0    0    0 -0.00000000000E+00 -0.00000000000E+00 -0.45593999997E+02  0.45594000000E+02  0.51100000000E-03 0. -1.
    9900012    2    1    2    0    0 -0.78234664913E+00 -0.11350602375E+00  0.87640480172E+00  0.90007730847E+02  0.89999992094E+02 0.  0.
         12    1    1    2    0    0  0.78234664913E+00  0.11350602375E+00 -0.87640480172E+00  0.11802691529E+01  0.00000000000E+00 0. -1.
         11    1    3    3    0    0  0.97849287324E+01  0.62942326784E+00 -0.32437412898E+01  0.10327771384E+02  0.51100000000E-03 0. -1.
        -11    1    3    3    0    0  0.32537073317E+02  0.11749802815E+02 -0.20091426015E+00  0.34594210109E+02  0.51100000000E-03 0.  1.
         12    1    3    3    0    0 -0.43104348699E+02 -0.12492732107E+02  0.43210603517E+01  0.45085749354E+02  0.00000000000E+00 0. -1.
</event>
<event>
 7    1  0.3032584E-015  0.9000776E+02  0.7816164E-02  0.1186339E+00
        -11   -1    0    0    0    0  0.00000000000E+00  0.00000000000E+00  0.45593999997E+02  0.45594000000E+02  0.51100000000E-03 0. -1.
         11   -1    0    0    0    0 -0.00000000000E+00 -0.00000000000E+00 -0.45593999997E+02  0.45594000000E+02  0.51100000000E-03 0.  1.
    9900012    2    1    2    0    0 -0.79142520241E+00  0.71688419470E+00 -0.50267942035E+00  0.90007761296E+02  0.90000022945E+02 0.  0.
         12    1    1    2    0    0  0.79142520241E+00 -0.71688419470E+00  0.50267942035E+00  0.11802387044E+01  0.00000000000E+00 0. -1.
         11    1    3    3    0    0 -0.11984521998E+02 -0.52394474004E+01  0.10334259949E+02  0.16669658231E+02  0.51100000000E-03 0. -1.
        -11    1    3    3    0    0 -0.23147606373E+02  0.21672636758E+02 -0.15481675875E+02  0.35287351176E+02  0.51100000000E-03 0.  1.
         12    1    3    3    0    0  0.34340703169E+02 -0.15716305163E+02  0.46447365058E+01  0.38050751889E+02  0.00000000000E+00 0. -1.
</event>
<event>
 7    1  0.3032584E-015  0.9000773E+02  0.7816164E-02  0.1186339E+00
        -11   -1    0    0    0    0  0.00000000000E+00  0.00000000000E+00  0.45593999997E+02  0.45594000000E+02  0.51100000000E-03 0. -1.
         11   -1    0    0    0    0 -0.00000000000E+00 -0.00000000000E+00 -0.45593999997E+02  0.45594000000E+02  0.51100000000E-03 0.  1.
    9900012    2    1    2    0    0  0.53040790353E+00  0.88199235009E+00 -0.57774477421E+00  0.90007732202E+02  0.89999993468E+02 0.  0.
         12    1    1    2    0    0 -0.53040790353E+00 -0.88199235009E+00  0.57774477421E+00  0.11802677975E+01  0.00000000000E+00 0. -1.
         11    1    3    3    0    0 -0.98999466527E+00  0.86932380960E+01 -0.91869285368E+00  0.87975266326E+01  0.51100000000E-03 0. -1.
        -11    1    3    3    0    0  0.25674067222E+02  0.24379273166E+02 -0.14578821345E+02  0.38289015656E+02  0.51100000000E-03 0.  1.
         12    1    3    3    0    0 -0.24153664653E+02 -0.32190518912E+02  0.14919769424E+02  0.42921189914E+02  0.00000000000E+00 0. -1.
</event>
<event>
 7    1  0.3164208E-015  0.9000778E+02  0.7816164E-02  0.1186339E+00
        -11   -1    0    0    0    0  0.00000000000E+00  0.00000000000E+00  0.45593999997E+02  0.45594000000E+02  0.51100000000E-03 0.  1.
         11   -1    0    0    0    0 -0.00000000000E+00 -0.00000000000E+00 -0.45593999997E+02  0.45594000000E+02  0.51100000000E-03 0. -1.
    9900012    2    1    2    0    0  0.11552677171E+01 -0.18106733370E+00 -0.15966376564E+00  0.90007779090E+02  0.90000040974E+02 0.  0.
         12    1    1    2    0    0 -0.11552677171E+01  0.18106733370E+00  0.15966376564E+00  0.11802209096E+01  0.00000000000E+00 0. -1.
         11    1    3    3    0    0 -0.20892665906E+02  0.18537197796E+02 -0.25832656310E+02  0.38045463896E+02  0.51100000000E-03 0. -1.
        -11    1    3    3    0    0  0.50617460045E+01  0.55538490527E+01 -0.52280127520E+01  0.91541591373E+01  0.51100000000E-03 0.  1.
        -12    1    3    3    0    0  0.16986187618E+02 -0.24272114182E+02  0.30901005297E+02  0.42808156057E+02  0.00000000000E+00 0.  1.
</event>
<event>
 7    1  0.3032584E-015  0.9000773E+02  0.7816164E-02  0.1186339E+00
        -11   -1    0    0    0    0  0.00000000000E+00  0.00000000000E+00  0.45593999997E+02  0.45594000000E+02  0.51100000000E-03 0.  1.
         11   -1    0    0    0    0 -0.00000000000E+00 -0.00000000000E+00 -0.45593999997E+02  0.45594000000E+02  0.51100000000E-03 0. -1.
    9900012    2    1    2    0    0 -0.14831381205E+00 -0.36307148953E+00 -0.11132044753E+01  0.90007727956E+02  0.89999989165E+02 0.  0.
         12    1    1    2    0    0  0.14831381205E+00  0.36307148953E+00  0.11132044753E+01  0.11802720437E+01  0.00000000000E+00 0. -1.
         11    1    3    3    0    0 -0.15466584694E+02 -0.11949046611E+02 -0.32323282222E+02  0.37772867655E+02  0.51100000000E-03 0. -1.
        -11    1    3    3    0    0 -0.73548610052E+01  0.14033655624E+01 -0.44931677785E+01  0.87322375285E+01  0.51100000000E-03 0.  1.
        -12    1    3    3    0    0  0.22673131887E+02  0.10182609560E+02  0.35703245526E+02  0.43502622772E+02  0.00000000000E+00 0.  1.
</event>
<event>
 7    1  0.3032584E-015  0.9000779E+02  0.7816164E-02  0.1186339E+00
        -11   -1    0    0    0    0  0.00000000000E+00  0.00000000000E+00  0.45593999997E+02  0.45594000000E+02  0.51100000000E-03 0.  1.
         11   -1    0    0    0    0 -0.00000000000E+00 -0.00000000000E+00 -0.45593999997E+02  0.45594000000E+02  0.51100000000E-03 0. -1.
    9900012    2    1    2    0    0 -0.68627544147E+00  0.74556519324E+00  0.60501851792E+00  0.90007792880E+02  0.90000054946E+02 0.  0.
         12    1    1    2    0    0  0.68627544147E+00 -0.74556519324E+00 -0.60501851792E+00  0.11802071199E+01  0.00000000000E+00 0. -1.
         11    1    3    3    0    0  0.46793711620E+01 -0.86860089873E+01  0.38790932447E+01  0.10601444772E+02  0.51100000000E-03 0. -1.
        -11    1    3    3    0    0 -0.30902278098E+02 -0.12604671482E+01  0.25049701854E+02  0.39799838345E+02  0.51100000000E-03 0.  1.
         12    1    3    3    0    0  0.25536631494E+02  0.10692041329E+02 -0.28323776580E+02  0.39606509763E+02  0.00000000000E+00 0. -1.
</event>
<event>
 7    1  0.3032584E-015  0.9000772E+02  0.7816164E-02  0.1186339E+00
        -11   -1    0    0    0    0  0.00000000000E+00  0.00000000000E+00  0.45593999997E+02  0.45594000000E+02  0.51100000000E-03 0.  1.
         11   -1    0    0    0    0 -0.00000000000E+00 -0.00000000000E+00 -0.45593999997E+02  0.45594000000E+02  0.51100000000E-03 0. -1.
    9900012    2    1    2    0    0 -0.46335146346E+00 -0.87568069701E+00  0.64152415874E+00  0.90007718462E+02  0.89999979546E+02 0.  0.
         12    1    1    2    0    0  0.46335146346E+00  0.87568069701E+00 -0.64152415874E+00  0.11802815376E+01  0.00000000000E+00 0. -1.
         11    1    3    3    0    0 -0.83619531809E+01  0.30903437184E+02 -0.10532596560E+02  0.33702823047E+02  0.51100000000E-03 0. -1.
        -11    1    3    3    0    0 -0.66569699210E+01  0.78744118381E+01 -0.44994356531E+01  0.11250179189E+02  0.51100000000E-03 0.  1.
        -12    1    3    3    0    0  0.14555571638E+02 -0.39653529719E+02  0.15673556372E+02  0.45054716226E+02  0.00000000000E+00 0.  1.
</event>
<event>
 7    1  0.3032584E-015  0.9000768E+02  0.7816164E-02  0.1186339E+00
        -11   -1    0    0    0    0  0.00000000000E+00  0.00000000000E+00  0.45593999997E+02  0.45594000000E+02  0.51100000000E-03 0. -1.
         11   -1    0    0    0    0 -0.00000000000E+00 -0.00000000000E+00 -0.45593999997E+02  0.45594000000E+02  0.51100000000E-03 0.  1.
    9900012    2    1    2    0    0 -0.10750916848E+01  0.12650546125E+00 -0.47046793886E+00  0.90007675534E+02  0.89999936051E+02 0.  0.
         12    1    1    2    0    0  0.10750916848E+01 -0.12650546125E+00  0.47046793886E+00  0.11803244656E+01  0.00000000000E+00 0. -1.
         11    1    3    3    0    0  0.22935616821E+02  0.28240293767E+02  0.65297916243E+00  0.36386578474E+02  0.51100000000E-03 0. -1.
        -11    1    3    3    0    0  0.54116026885E+01  0.56314626356E+01 -0.39675734498E+01  0.87601629217E+01  0.51100000000E-03 0.  1.
        -12    1    3    3    0    0 -0.29422311195E+02 -0.33745250941E+02  0.28441263485E+01  0.44860934139E+02  0.00000000000E+00 0.  1.
</event>
<event>
 7    1  0.3032584E-015  0.9000804E+02  0.7816164E-02  0.1186338E+00
        -11   -1    0    0    0    0  0.00000000000E+00  0.00000000000E+00  0.45593999997E+02  0.45594000000E+02  0.51100000000E-03 0. -1.
         11   -1    0    0    0    0 -0.00000000000E+00 -0.00000000000E+00 -0.45593999997E+02  0.45594000000E+02  0.51100000000E-03 0.  1.
    9900012    2    1    2    0    0 -0.92070542008E-01  0.44587583862E+00 -0.10885852811E+01  0.90008042305E+02  0.90000307663E+02 0.  0.
         12    1    1    2    0    0  0.92070542008E-01 -0.44587583862E+00  0.10885852811E+01  0.11799576951E+01  0.00000000000E+00 0. -1.
         11    1    3    3    0    0  0.60636408332E+01  0.58471567469E+00  0.31013101993E+01  0.68357704604E+01  0.51100000000E-03 0. -1.
        -11    1    3    3    0    0  0.12550667034E+02  0.38077050313E+02 -0.62373488056E+01  0.40574444222E+02  0.51100000000E-03 0.  1.
         12    1    3    3    0    0 -0.18706378409E+02 -0.38215890149E+02  0.20474533252E+01  0.42597827623E+02  0.00000000000E+00 0. -1.
</event>
<event>
 7    1  0.3032584E-015  0.9000778E+02  0.7816164E-02  0.1186339E+00
        -11   -1    0    0    0    0  0.00000000000E+00  0.00000000000E+00  0.45593999997E+02  0.45594000000E+02  0.51100000000E-03 0.  1.
         11   -1    0    0    0    0 -0.00000000000E+00 -0.00000000000E+00 -0.45593999997E+02  0.45594000000E+02  0.51100000000E-03 0. -1.
    9900012    2    1    2    0    0  0.21729727234E+00 -0.11600436056E+01  0.29335495026E-02  0.90007776344E+02  0.90000038192E+02 0.  0.
         12    1    1    2    0    0 -0.21729727234E+00  0.11600436056E+01 -0.29335495026E-02  0.11802236556E+01  0.00000000000E+00 0. -1.
         11    1    3    3    0    0  0.41115074281E+01  0.36786547021E+01  0.71361581379E+01  0.90200746659E+01  0.51100000000E-03 0. -1.
        -11    1    3    3    0    0  0.12624858401E+02  0.10422440784E+02  0.31947549771E+02  0.35897914399E+02  0.51100000000E-03 0.  1.
         12    1    3    3    0    0 -0.16519068557E+02 -0.15261139092E+02 -0.39080774360E+02  0.45089787280E+02  0.00000000000E+00 0. -1.
</event>
<event>
 7    1  0.3032584E-015  0.9000785E+02  0.7816164E-02  0.1186339E+00
        -11   -1    0    0    0    0  0.00000000000E+00  0.00000000000E+00  0.45593999997E+02  0.45594000000E+02  0.51100000000E-03 0. -1.
         11   -1    0    0    0    0 -0.00000000000E+00 -0.00000000000E+00 -0.45593999997E+02  0.45594000000E+02  0.51100000000E-03 0.  1.
    9900012    2    1    2    0    0  0.60134141185E+00 -0.99852226793E+00 -0.18464745808E+00  0.90007850477E+02  0.90000113303E+02 0.  0.
         12    1    1    2    0    0 -0.60134141185E+00  0.99852226793E+00  0.18464745808E+00  0.11801495231E+01  0.00000000000E+00 0. -1.
         11    1    3    3    0    0  0.56109139516E+01 -0.43064172135E+01 -0.25397016318E+00  0.70775762584E+01  0.51100000000E-03 0. -1.
        -11    1    3    3    0    0  0.32258621192E+02  0.23635086556E+02 -0.44583655792E+01  0.40238203011E+02  0.51100000000E-03 0.  1.
         12    1    3    3    0    0 -0.37268193731E+02 -0.20327191610E+02  0.45276882843E+01  0.42692071207E+02  0.00000000000E+00 0. -1.
</event>
<event>
 7    1  0.3032584E-015  0.9000772E+02  0.7816164E-02  0.1186339E+00
        -11   -1    0    0    0    0  0.00000000000E+00  0.00000000000E+00  0.45593999997E+02  0.45594000000E+02  0.51100000000E-03 0.  1.
         11   -1    0    0    0    0 -0.00000000000E+00 -0.00000000000E+00 -0.45593999997E+02  0.45594000000E+02  0.51100000000E-03 0. -1.
    9900012    2    1    2    0    0 -0.85222688462E+00 -0.81067962336E+00  0.97769937756E-01  0.90007724153E+02  0.89999985312E+02 0.  0.
         12    1    1    2    0    0  0.85222688462E+00  0.81067962336E+00 -0.97769937756E-01  0.11802758471E+01  0.00000000000E+00 0. -1.
         11    1    3    3    0    0 -0.25932101953E+01 -0.91386913942E+01  0.54265132930E+00  0.95149824089E+01  0.51100000000E-03 0. -1.
        -11    1    3    3    0    0  0.31028534501E+01 -0.49587740583E+00  0.39468275100E+02  0.39593160186E+02  0.51100000000E-03 0.  1.
         12    1    3    3    0    0 -0.13618701394E+01  0.88238891767E+01 -0.39913156491E+02  0.40899581558E+02  0.00000000000E+00 0. -1.
</event>
<event>
 7    1  0.3032584E-015  0.9000776E+02  0.7816164E-02  0.1186339E+00
        -11   -1    0    0    0    0  0.00000000000E+00  0.00000000000E+00  0.45593999997E+02  0.45594000000E+02  0.51100000000E-03 0.  1.
         11   -1    0    0    0    0 -0.00000000000E+00 -0.00000000000E+00 -0.45593999997E+02  0.45594000000E+02  0.51100000000E-03 0. -1.
    9900012    2    1    2    0    0 -0.10994296386E+01  0.93115607825E-01  0.41897963153E+00  0.90007762745E+02  0.90000024413E+02 0.  0.
         12    1    1    2    0    0  0.10994296386E+01 -0.93115607825E-01 -0.41897963153E+00  0.11802372551E+01  0.00000000000E+00 0. -1.
         11    1    3    3    0    0 -0.30691482354E+02  0.22968406014E+02 -0.25310140402E+01  0.38417714615E+02  0.51100000000E-03 0. -1.
        -11    1    3    3    0    0 -0.57405662288E+01  0.35350996671E+01  0.32327750950E+01  0.74767550020E+01  0.51100000000E-03 0.  1.
        -12    1    3    3    0    0  0.35332618944E+02 -0.26410390073E+02 -0.28278142325E+00  0.44113293128E+02  0.00000000000E+00 0.  1.
</event>
<event>
 7    1  0.3032584E-015  0.9000770E+02  0.7816164E-02  0.1186339E+00
        -11   -1    0    0    0    0  0.00000000000E+00  0.00000000000E+00  0.45593999997E+02  0.45594000000E+02  0.51100000000E-03 0. -1.
         11   -1    0    0    0    0 -0.00000000000E+00 -0.00000000000E+00 -0.45593999997E+02  0.45594000000E+02  0.51100000000E-03 0.  1.
    9900012    2    1    2    0    0 -0.45133303543E+00  0.10837440035E+01 -0.12204208943E+00  0.90007704763E+02  0.89999965666E+02 0.  0.
         12    1    1    2    0    0  0.45133303543E+00 -0.10837440035E+01  0.12204208943E+00  0.11802952366E+01  0.00000000000E+00 0. -1.
         11    1    3    3    0    0 -0.64902533014E+01  0.10490996370E+02 -0.74064349540E+01  0.14388873192E+02  0.51100000000E-03 0. -1.
        -11    1    3    3    0    0 -0.26114685838E+02 -0.71691045051E+01  0.26668427599E+02  0.38007603275E+02  0.51100000000E-03 0.  1.
         12    1    3    3    0    0  0.32153606104E+02 -0.22381478610E+01 -0.19384034735E+02  0.37611228296E+02  0.00000000000E+00 0. -1.
</event>
<event>
 7    1  0.3032584E-015  0.9000780E+02  0.7816164E-02  0.1186339E+00
        -11   -1    0    0    0    0  0.00000000000E+00  0.00000000000E+00  0.45593999997E+02  0.45594000000E+02  0.51100000000E-03 0.  1.
         11   -1    0    0    0    0 -0.00000000000E+00 -0.00000000000E+00 -0.45593999997E+02  0.45594000000E+02  0.51100000000E-03 0. -1.
    9900012    2    1    2    0    0  0.81432591649E+00 -0.85295917655E+00 -0.47063179666E-01  0.90007796205E+02  0.90000058315E+02 0.  0.
         12    1    1    2    0    0 -0.81432591649E+00  0.85295917655E+00  0.47063179666E-01  0.11802037951E+01  0.00000000000E+00 0. -1.
         11    1    3    3    0    0  0.31799807746E+01 -0.18937321456E+02 -0.26428209783E+02  0.32667792919E+02  0.51100000000E-03 0. -1.
        -11    1    3    3    0    0  0.13996895960E+02  0.54005564527E+01 -0.81535883146E+01  0.17075131308E+02  0.51100000000E-03 0.  1.
        -12    1    3    3    0    0 -0.16362550819E+02  0.12683805826E+02  0.34534734918E+02  0.40264871977E+02  0.00000000000E+00 0.  1.
</event>
<event>
 7    1  0.3032584E-015  0.9000792E+02  0.7816164E-02  0.1186339E+00
        -11   -1    0    0    0    0  0.00000000000E+00  0.00000000000E+00  0.45593999997E+02  0.45594000000E+02  0.51100000000E-03 0. -1.
         11   -1    0    0    0    0 -0.00000000000E+00 -0.00000000000E+00 -0.45593999997E+02  0.45594000000E+02  0.51100000000E-03 0.  1.
    9900012    2    1    2    0    0  0.39343868820E+00  0.36683133515E+00 -0.10503528013E+01  0.90007915157E+02  0.90000178837E+02 0.  0.
         12    1    1    2    0    0 -0.39343868820E+00 -0.36683133515E+00  0.10503528013E+01  0.11800848431E+01  0.00000000000E+00 0. -1.
         11    1    3    3    0    0 -0.21955126163E+02  0.64682283567E+01  0.35708255330E+02  0.42413972248E+02  0.51100000000E-03 0. -1.
        -11    1    3    3    0    0  0.50941237865E+01  0.57175030545E+01 -0.37725314740E+01  0.85365058609E+01  0.51100000000E-03 0.  1.
        -12    1    3    3    0    0  0.17254441065E+02 -0.11818900076E+02 -0.32986076658E+02  0.39057437047E+02  0.00000000000E+00 0.  1.
</event>
<event>
 7    1  0.3032584E-015  0.9000775E+02  0.7816164E-02  0.1186339E+00
        -11   -1    0    0    0    0  0.00000000000E+00  0.00000000000E+00  0.45593999997E+02  0.45594000000E+02  0.51100000000E-03 0. -1.
         11   -1    0    0    0    0 -0.00000000000E+00 -0.00000000000E+00 -0.45593999997E+02  0.45594000000E+02  0.51100000000E-03 0.  1.
    9900012    2    1    2    0    0  0.12900469931E-01 -0.93791626640E+00 -0.71633922075E+00  0.90007747813E+02  0.90000009284E+02 0.  0.
         12    1    1    2    0    0 -0.12900469931E-01  0.93791626640E+00  0.71633922075E+00  0.11802521867E+01  0.00000000000E+00 0. -1.
         11    1    3    3    0    0 -0.38242071122E+01  0.29860577805E+02 -0.21400460946E+02  0.36935868690E+02  0.51100000000E-03 0. -1.
        -11    1    3    3    0    0  0.10695697047E+01  0.45919284984E+01  0.16697332538E+02  0.17350236334E+02  0.51100000000E-03 0.  1.
        -12    1    3    3    0    0  0.27675378774E+01 -0.35390422570E+02  0.39867891872E+01  0.35721642790E+02  0.00000000000E+00 0.  1.
</event>
<event>
 7    1  0.3032584E-015  0.9000781E+02  0.7816164E-02  0.1186339E+00
        -11   -1    0    0    0    0  0.00000000000E+00  0.00000000000E+00  0.45593999997E+02  0.45594000000E+02  0.51100000000E-03 0.  1.
         11   -1    0    0    0    0 -0.00000000000E+00 -0.00000000000E+00 -0.45593999997E+02  0.45594000000E+02  0.51100000000E-03 0. -1.
    9900012    2    1    2    0    0 -0.36241099616E+00  0.23366043451E+00  0.10985928347E+01  0.90007811394E+02  0.90000073705E+02 0.  0.
         12    1    1    2    0    0  0.36241099616E+00 -0.23366043451E+00 -0.10985928347E+01  0.11801886058E+01  0.00000000000E+00 0. -1.
         11    1    3    3    0    0 -0.27970367741E+02  0.46955949685E+01 -0.24886889440E+02  0.37732576773E+02  0.51100000000E-03 0. -1.
        -11    1    3    3    0    0 -0.32455285293E+01  0.43801676221E+01 -0.51930248289E+01  0.75290657433E+01  0.51100000000E-03 0.  1.
        -12    1    3    3    0    0  0.30853485274E+02 -0.88421021561E+01  0.31178507103E+02  0.44746168878E+02  0.00000000000E+00 0.  1.
</event>
<event>
 7    1  0.3032584E-015  0.9000773E+02  0.7816164E-02  0.1186339E+00
        -11   -1    0    0    0    0  0.00000000000E+00  0.00000000000E+00  0.45593999997E+02  0.45594000000E+02  0.51100000000E-03 0.  1.
         11   -1    0    0    0    0 -0.00000000000E+00 -0.00000000000E+00 -0.45593999997E+02  0.45594000000E+02  0.51100000000E-03 0. -1.
    9900012    2    1    2    0    0 -0.65406134347E+00 -0.70942780402E+00  0.67967989181E+00  0.90007725114E+02  0.89999986286E+02 0.  0.
         12    1    1    2    0    0  0.65406134347E+00  0.70942780402E+00 -0.67967989181E+00  0.11802748855E+01  0.00000000000E+00 0. -1.
         11    1    3    3    0    0 -0.19079041635E+02  0.13014824702E+02 -0.25367993961E+02  0.34306422279E+02  0.51100000000E-03 0. -1.
        -11    1    3    3    0    0 -0.10332164938E+01  0.56921739604E+01 -0.92820928805E+01  0.10937350192E+02  0.51100000000E-03 0.  1.
        -12    1    3    3    0    0  0.19458196785E+02 -0.19416426466E+02  0.35329766733E+02  0.44763952643E+02  0.00000000000E+00 0.  1.
</event>
<event>
 7    1  0.3032584E-015  0.9000768E+02  0.7816164E-02  0.1186339E+00
        -11   -1    0    0    0    0  0.00000000000E+00  0.00000000000E+00  0.45593999997E+02  0.45594000000E+02  0.51100000000E-03 0.  1.
         11   -1    0    0    0    0 -0.00000000000E+00 -0.00000000000E+00 -0.45593999997E+02  0.45594000000E+02  0.51100000000E-03 0. -1.
    9900012    2    1    2    0    0  0.96110863702E+00 -0.67078534779E+00  0.13953056162E+00  0.90007681580E+02  0.89999942177E+02 0.  0.
         12    1    1    2    0    0 -0.96110863702E+00  0.67078534779E+00 -0.13953056162E+00  0.11803184200E+01  0.00000000000E+00 0. -1.
         11    1    3    3    0    0 -0.44737881853E+01 -0.15691442345E+02 -0.28866570663E+02  0.33158936136E+02  0.51100000000E-03 0. -1.
        -11    1    3    3    0    0  0.43829114911E+01 -0.71646974980E+01 -0.93237597175E+01  0.12548916244E+02  0.51100000000E-03 0.  1.
        -12    1    3    3    0    0  0.10519853312E+01  0.22185354496E+02  0.38329860942E+02  0.44299829199E+02  0.00000000000E+00 0.  1.
</event>
<event>
 7    1  0.3032584E-015  0.9000771E+02  0.7816164E-02  0.1186339E+00
        -11   -1    0    0    0    0  0.00000000000E+00  0.00000000000E+00  0.45593999997E+02  0.45594000000E+02  0.51100000000E-03 0.  1.
         11   -1    0    0    0    0 -0.00000000000E+00 -0.00000000000E+00 -0.45593999997E+02  0.45594000000E+02  0.51100000000E-03 0. -1.
    9900012    2    1    2    0    0  0.48575560664E+00 -0.76430187261E+00 -0.75695121277E+00  0.90007707240E+02  0.89999968175E+02 0.  0.
         12    1    1    2    0    0 -0.48575560664E+00  0.76430187261E+00  0.75695121277E+00  0.11802927604E+01  0.00000000000E+00 0. -1.
         11    1    3    3    0    0  0.10396615534E+02  0.15553514048E+02 -0.52193219960E+01  0.19422737608E+02  0.51100000000E-03 0. -1.
        -11    1    3    3    0    0 -0.22282265494E+01  0.38685848467E+01  0.33833677111E+02  0.34126949020E+02  0.51100000000E-03 0.  1.
         12    1    3    3    0    0 -0.76826333783E+01 -0.20186400767E+02 -0.29371306328E+02  0.36458020612E+02  0.00000000000E+00 0. -1.
</event>
<event>
 7    1  0.3032584E-015  0.9000784E+02  0.7816164E-02  0.1186339E+00
        -11   -1    0    0    0    0  0.00000000000E+00  0.00000000000E+00  0.45593999997E+02  0.45594000000E+02  0.51100000000E-03 0.  1.
         11   -1    0    0    0    0 -0.00000000000E+00 -0.00000000000E+00 -0.45593999997E+02  0.45594000000E+02  0.51100000000E-03 0. -1.
    9900012    2    1    2    0    0  0.22127100609E+00 -0.78203605018E+00  0.85571255916E+00  0.90007836780E+02  0.90000099425E+02 0.  0.
         12    1    1    2    0    0 -0.22127100609E+00  0.78203605018E+00 -0.85571255916E+00  0.11801632200E+01  0.00000000000E+00 0. -1.
         11    1    3    3    0    0  0.74710383606E+01 -0.26098016511E+01  0.53063876751E+01  0.95281283190E+01  0.51100000000E-03 0. -1.
        -11    1    3    3    0    0 -0.36845719524E+02  0.20563316989E+02 -0.13499065817E+02  0.44302165083E+02  0.51100000000E-03 0.  1.
         12    1    3    3    0    0  0.29595952169E+02 -0.18735551388E+02  0.90483907015E+01  0.36177543378E+02  0.00000000000E+00 0. -1.
</event>
<event>
 7    1  0.3685303E-015  0.9000775E+02  0.7816164E-02  0.1186339E+00
        -11   -1    0    0    0    0  0.00000000000E+00  0.00000000000E+00  0.45593999997E+02  0.45594000000E+02  0.51100000000E-03 0. -1.
         11   -1    0    0    0    0 -0.00000000000E+00 -0.00000000000E+00 -0.45593999997E+02  0.45594000000E+02  0.51100000000E-03 0.  1.
    9900012    2    1    2    0    0  0.23064031517E+00  0.56713587353E-01 -0.11561027406E+01  0.90007752173E+02  0.90000013702E+02 0.  0.
         12    1    1    2    0    0 -0.23064031517E+00 -0.56713587353E-01  0.11561027406E+01  0.11802478268E+01  0.00000000000E+00 0. -1.
         11    1    3    3    0    0 -0.31585646640E+02  0.45152273545E+01  0.28553113268E+02  0.42817293577E+02  0.51100000000E-03 0. -1.
        -11    1    3    3    0    0  0.79473668203E+00 -0.45044533395E+01 -0.83694200158E+01  0.95377616841E+01  0.51100000000E-03 0.  1.
        -12    1    3    3    0    0  0.31021550273E+02  0.45939572442E-01 -0.21339795992E+02  0.37652696912E+02  0.00000000000E+00 0.  1.
</event>
<event>
 7    1  0.3032584E-015  0.9000700E+02  0.7816164E-02  0.1186341E+00
        -11   -1    0    0    0    0  0.00000000000E+00  0.00000000000E+00  0.45593999997E+02  0.45594000000E+02  0.51100000000E-03 0. -1.
         11   -1    0    0    0    0 -0.00000000000E+00 -0.00000000000E+00 -0.45593999997E+02  0.45594000000E+02  0.51100000000E-03 0.  1.
    9900012    2    1    2    0    0  0.61618422465E+00  0.85530109519E+00 -0.53247989806E+00  0.90007001353E+02  0.89999252968E+02 0.  0.
         12    1    1    2    0    0 -0.61618422465E+00 -0.85530109519E+00  0.53247989806E+00  0.11809986469E+01  0.00000000000E+00 0. -1.
         11    1    3    3    0    0 -0.15455519491E+02  0.20133991979E+02  0.15253396204E+02  0.29612781223E+02  0.51100000000E-03 0. -1.
        -11    1    3    3    0    0 -0.85592593305E+01  0.10765852278E+02  0.69186365637E+01  0.15395844495E+02  0.51100000000E-03 0.  1.
        -12    1    3    3    0    0  0.24630963047E+02 -0.30044543161E+02 -0.22704512666E+02  0.44998375635E+02  0.00000000000E+00 0.  1.
</event>
<event>
 7    1  0.3032584E-015  0.9000778E+02  0.7816164E-02  0.1186339E+00
        -11   -1    0    0    0    0  0.00000000000E+00  0.00000000000E+00  0.45593999997E+02  0.45594000000E+02  0.51100000000E-03 0. -1.
         11   -1    0    0    0    0 -0.00000000000E+00 -0.00000000000E+00 -0.45593999997E+02  0.45594000000E+02  0.51100000000E-03 0.  1.
    9900012    2    1    2    0    0 -0.13555778550E+00 -0.70189901759E+00  0.93908026934E+00  0.90007783962E+02  0.90000045910E+02 0.  0.
         12    1    1    2    0    0  0.13555778550E+00  0.70189901759E+00 -0.93908026934E+00  0.11802160380E+01  0.00000000000E+00 0. -1.
         11    1    3    3    0    0  0.18160367596E+02 -0.17998875560E+02  0.31531873007E+02  0.40595781656E+02  0.51100000000E-03 0. -1.
        -11    1    3    3    0    0  0.52583382284E+01 -0.43063141373E+01 -0.62907607787E+01  0.92611086706E+01  0.51100000000E-03 0.  1.
        -12    1    3    3    0    0 -0.23554263610E+02  0.21603290679E+02 -0.24302031959E+02  0.40150893636E+02  0.00000000000E+00 0.  1.
</event>
<event>
 7    1  0.3032584E-015  0.9000770E+02  0.7816164E-02  0.1186339E+00
        -11   -1    0    0    0    0  0.00000000000E+00  0.00000000000E+00  0.45593999997E+02  0.45594000000E+02  0.51100000000E-03 0.  1.
         11   -1    0    0    0    0 -0.00000000000E+00 -0.00000000000E+00 -0.45593999997E+02  0.45594000000E+02  0.51100000000E-03 0. -1.
    9900012    2    1    2    0    0 -0.10895133757E+01 -0.13028132980E+00 -0.43484517257E+00  0.90007702180E+02  0.89999963048E+02 0.  0.
         12    1    1    2    0    0  0.10895133757E+01  0.13028132980E+00  0.43484517257E+00  0.11802978204E+01  0.00000000000E+00 0. -1.
         11    1    3    3    0    0  0.33865030426E+02  0.19712591068E+02 -0.79469236730E+01  0.39982247667E+02  0.51100000000E-03 0. -1.
        -11    1    3    3    0    0 -0.52778445597E+01 -0.11212276070E+00 -0.92443070271E+01  0.10645441625E+02  0.51100000000E-03 0.  1.
        -12    1    3    3    0    0 -0.29676699242E+02 -0.19730749637E+02  0.16756385528E+02  0.39380012888E+02  0.00000000000E+00 0.  1.
</event>
<event>
 7    1  0.3032584E-015  0.9000774E+02  0.7816164E-02  0.1186339E+00
        -11   -1    0    0    0    0  0.00000000000E+00  0.00000000000E+00  0.45593999997E+02  0.45594000000E+02  0.51100000000E-03 0.  1.
         11   -1    0    0    0    0 -0.00000000000E+00 -0.00000000000E+00 -0.45593999997E+02  0.45594000000E+02  0.51100000000E-03 0. -1.
    9900012    2    1    2    0    0  0.82159770987E+00  0.30384559252E+00  0.79099895308E+00  0.90007735502E+02  0.89999996811E+02 0.  0.
         12    1    1    2    0    0 -0.82159770987E+00 -0.30384559252E+00 -0.79099895308E+00  0.11802644978E+01  0.00000000000E+00 0. -1.
         11    1    3    3    0    0 -0.89095943702E+01 -0.14419821345E+01  0.31498426840E+01  0.95593772555E+01  0.51100000000E-03 0. -1.
        -11    1    3    3    0    0 -0.25442791201E+02  0.21906898336E+02  0.14459850815E+02  0.36555917506E+02  0.51100000000E-03 0.  1.
         12    1    3    3    0    0  0.35173983281E+02 -0.20161070609E+02 -0.16818694546E+02  0.43892440741E+02  0.00000000000E+00 0. -1.
</event>
<event>
 7    1  0.4004034E-015  0.9000786E+02  0.7816164E-02  0.1186339E+00
        -11   -1    0    0    0    0  0.00000000000E+00  0.00000000000E+00  0.45593999997E+02  0.45594000000E+02  0.51100000000E-03 0. -1.
         11   -1    0    0    0    0 -0.00000000000E+00 -0.00000000000E+00 -0.45593999997E+02  0.45594000000E+02  0.51100000000E-03 0.  1.
    9900012    2    1    2    0    0 -0.10542903327E+00 -0.11746612095E+01  0.42338875873E-01  0.90007857289E+02  0.90000120205E+02 0.  0.
         12    1    1    2    0    0  0.10542903327E+00  0.11746612095E+01 -0.42338875873E-01  0.11801427111E+01  0.00000000000E+00 0. -1.
         11    1    3    3    0    0 -0.38093008631E+02  0.15817558231E+02  0.11489235354E+01  0.41262482724E+02  0.51100000000E-03 0. -1.
        -11    1    3    3    0    0  0.59860270692E+01  0.36403563612E+01  0.69033687618E+01  0.98357112113E+01  0.51100000000E-03 0.  1.
        -12    1    3    3    0    0  0.32001552529E+02 -0.20632575802E+02 -0.80099534213E+01  0.38909663354E+02  0.00000000000E+00 0.  1.
</event>
<event>
 7    1  0.3032584E-015  0.9000778E+02  0.7816164E-02  0.1186339E+00
        -11   -1    0    0    0    0  0.00000000000E+00  0.00000000000E+00  0.45593999997E+02  0.45594000000E+02  0.51100000000E-03 0. -1.
         11   -1    0    0    0    0 -0.00000000000E+00 -0.00000000000E+00 -0.45593999997E+02  0.45594000000E+02  0.51100000000E-03 0.  1.
    9900012    2    1    2    0    0  0.72060722069E+00  0.16151361899E+00 -0.92062790626E+00  0.90007780886E+02  0.90000042794E+02 0.  0.
         12    1    1    2    0    0 -0.72060722069E+00 -0.16151361899E+00  0.92062790626E+00  0.11802191142E+01  0.00000000000E+00 0. -1.
         11    1    3    3    0    0 -0.32800676483E+02  0.55352677906E+01 -0.18346050064E+02  0.37988170797E+02  0.51100000000E-03 0. -1.
        -11    1    3    3    0    0  0.14436978044E+02  0.14719148945E+02  0.31812965368E+01  0.20861455573E+02  0.51100000000E-03 0.  1.
        -12    1    3    3    0    0  0.19084305660E+02 -0.20092903116E+02  0.14244125621E+02  0.31158154516E+02  0.00000000000E+00 0.  1.
</event>
<event>
 7    1  0.3032584E-015  0.9000774E+02  0.7816164E-02  0.1186339E+00
        -11   -1    0    0    0    0  0.00000000000E+00  0.00000000000E+00  0.45593999997E+02  0.45594000000E+02  0.51100000000E-03 0. -1.
         11   -1    0    0    0    0 -0.00000000000E+00 -0.00000000000E+00 -0.45593999997E+02  0.45594000000E+02  0.51100000000E-03 0.  1.
    9900012    2    1    2    0    0 -0.41494745382E+00 -0.80258178856E+00 -0.75940075730E+00  0.90007742220E+02  0.90000003617E+02 0.  0.
         12    1    1    2    0    0  0.41494745382E+00  0.80258178856E+00  0.75940075730E+00  0.11802577799E+01  0.00000000000E+00 0. -1.
         11    1    3    3    0    0 -0.61352226145E+01 -0.99212448125E+01 -0.38062201060E+01  0.12270263523E+02  0.51100000000E-03 0. -1.
        -11    1    3    3    0    0 -0.23416089144E+02 -0.19776947508E+02  0.16171079183E+02  0.34654648833E+02  0.51100000000E-03 0.  1.
         12    1    3    3    0    0  0.29136364304E+02  0.28895610532E+02 -0.13124259835E+02  0.43082829864E+02  0.00000000000E+00 0. -1.
</event>
<event>
 7    1  0.3032584E-015  0.9000782E+02  0.7816164E-02  0.1186339E+00
        -11   -1    0    0    0    0  0.00000000000E+00  0.00000000000E+00  0.45593999997E+02  0.45594000000E+02  0.51100000000E-03 0. -1.
         11   -1    0    0    0    0 -0.00000000000E+00 -0.00000000000E+00 -0.45593999997E+02  0.45594000000E+02  0.51100000000E-03 0.  1.
    9900012    2    1    2    0    0 -0.52481673109E-01  0.85028501017E+00 -0.81675506908E+00  0.90007818757E+02  0.90000081164E+02 0.  0.
         12    1    1    2    0    0  0.52481673109E-01 -0.85028501017E+00  0.81675506908E+00  0.11801812435E+01  0.00000000000E+00 0. -1.
         11    1    3    3    0    0 -0.15549970854E+01 -0.11135556661E+01  0.68999657831E+01  0.71601361877E+01  0.51100000000E-03 0. -1.
        -11    1    3    3    0    0  0.20675650708E+02  0.36547393567E+02 -0.10251671049E+02  0.43223735011E+02  0.51100000000E-03 0.  1.
         12    1    3    3    0    0 -0.19173135296E+02 -0.34583552890E+02  0.25349501966E+01  0.39623947558E+02  0.00000000000E+00 0. -1.
</event>
<event>
 7    1  0.3032584E-015  0.9000779E+02  0.7816164E-02  0.1186339E+00
        -11   -1    0    0    0    0  0.00000000000E+00  0.00000000000E+00  0.45593999997E+02  0.45594000000E+02  0.51100000000E-03 0.  1.
         11   -1    0    0    0    0 -0.00000000000E+00 -0.00000000000E+00 -0.45593999997E+02  0.45594000000E+02  0.51100000000E-03 0. -1.
    9900012    2    1    2    0    0  0.28680473634E+00  0.45286512998E+00  0.10514537140E+01  0.90007788707E+02  0.90000050718E+02 0.  0.
         12    1    1    2    0    0 -0.28680473634E+00 -0.45286512998E+00 -0.10514537140E+01  0.11802112927E+01  0.00000000000E+00 0. -1.
         11    1    3    3    0    0 -0.49217292816E+01 -0.39761430645E+01 -0.94546825145E+01  0.11376473729E+02  0.51100000000E-03 0. -1.
        -11    1    3    3    0    0 -0.35364733290E+02  0.10412525736E+02  0.35901618133E+01  0.37040171638E+02  0.51100000000E-03 0.  1.
         12    1    3    3    0    0  0.40573267308E+02 -0.59835175418E+01  0.69159744151E+01  0.41591143340E+02  0.00000000000E+00 0. -1.
</event>
<event>
 7    1  0.3032584E-015  0.9000781E+02  0.7816164E-02  0.1186339E+00
        -11   -1    0    0    0    0  0.00000000000E+00  0.00000000000E+00  0.45593999997E+02  0.45594000000E+02  0.51100000000E-03 0. -1.
         11   -1    0    0    0    0 -0.00000000000E+00 -0.00000000000E+00 -0.45593999997E+02  0.45594000000E+02  0.51100000000E-03 0.  1.
    9900012    2    1    2    0    0  0.88356135866E+00 -0.41806215217E+00  0.66135013989E+00  0.90007813301E+02  0.90000075636E+02 0.  0.
         12    1    1    2    0    0 -0.88356135866E+00  0.41806215217E+00 -0.66135013989E+00  0.11801866993E+01  0.00000000000E+00 0. -1.
         11    1    3    3    0    0  0.11223206920E+02  0.38435583592E+02  0.18227539043E+02  0.43994290988E+02  0.51100000000E-03 0. -1.
        -11    1    3    3    0    0 -0.69729007000E+01 -0.59060999772E+01 -0.17190745488E+01  0.92983105282E+01  0.51100000000E-03 0.  1.
        -12    1    3    3    0    0 -0.33667448614E+01 -0.32947545767E+02 -0.15847114354E+02  0.36715211785E+02  0.00000000000E+00 0.  1.
</event>
<event>
 7    1  0.3032584E-015  0.9000799E+02  0.7816164E-02  0.1186339E+00
        -11   -1    0    0    0    0  0.00000000000E+00  0.00000000000E+00  0.45593999997E+02  0.45594000000E+02  0.51100000000E-03 0.  1.
         11   -1    0    0    0    0 -0.00000000000E+00 -0.00000000000E+00 -0.45593999997E+02  0.45594000000E+02  0.51100000000E-03 0. -1.
    9900012    2    1    2    0    0  0.92593498979E+00 -0.71172756235E+00  0.16883788598E+00  0.90007992390E+02  0.90000257089E+02 0.  0.
         12    1    1    2    0    0 -0.92593498979E+00  0.71172756235E+00 -0.16883788598E+00  0.11800076102E+01  0.00000000000E+00 0. -1.
         11    1    3    3    0    0  0.66918587857E+01  0.13576964403E+02 -0.32850196869E+02  0.36169743861E+02  0.51100000000E-03 0. -1.
        -11    1    3    3    0    0  0.39995115203E+01  0.42706990305E+01 -0.67167085410E+01  0.89078132275E+01  0.51100000000E-03 0.  1.
        -12    1    3    3    0    0 -0.97654353162E+01 -0.18559390995E+02  0.39735743296E+02  0.44930435301E+02  0.00000000000E+00 0.  1.
</event>
<event>
 7    1  0.3032584E-015  0.9000773E+02  0.7816164E-02  0.1186339E+00
        -11   -1    0    0    0    0  0.00000000000E+00  0.00000000000E+00  0.45593999997E+02  0.45594000000E+02  0.51100000000E-03 0.  1.
         11   -1    0    0    0    0 -0.00000000000E+00 -0.00000000000E+00 -0.45593999997E+02  0.45594000000E+02  0.51100000000E-03 0. -1.
    9900012    2    1    2    0    0  0.53351252968E+00  0.31363403776E+00  0.10050043086E+01  0.90007730713E+02  0.89999991959E+02 0.  0.
         12    1    1    2    0    0 -0.53351252968E+00 -0.31363403776E+00 -0.10050043086E+01  0.11802692868E+01  0.00000000000E+00 0. -1.
         11    1    3    3    0    0 -0.22879015596E+01  0.13058907397E+02 -0.83253456893E+01  0.15655061068E+02  0.51100000000E-03 0. -1.
        -11    1    3    3    0    0  0.82360416369E+01  0.19675341436E+02  0.29036274002E+02  0.36028553269E+02  0.51100000000E-03 0.  1.
         12    1    3    3    0    0 -0.54146275476E+01 -0.32420614795E+02 -0.19705924004E+02  0.38324116376E+02  0.00000000000E+00 0. -1.
</event>
<event>
 7    1  0.3032584E-015  0.9000773E+02  0.7816164E-02  0.1186339E+00
        -11   -1    0    0    0    0  0.00000000000E+00  0.00000000000E+00  0.45593999997E+02  0.45594000000E+02  0.51100000000E-03 0.  1.
         11   -1    0    0    0    0 -0.00000000000E+00 -0.00000000000E+00 -0.45593999997E+02  0.45594000000E+02  0.51100000000E-03 0. -1.
    9900012    2    1    2    0    0 -0.84432656401E+00  0.81809063828E+00 -0.10429762591E+00  0.90007729847E+02  0.89999991081E+02 0.  0.
         12    1    1    2    0    0  0.84432656401E+00 -0.81809063828E+00  0.10429762591E+00  0.11802701529E+01  0.00000000000E+00 0. -1.
         11    1    3    3    0    0  0.31190154723E+01 -0.57872496821E+01  0.59986013671E+01  0.88996480280E+01  0.51100000000E-03 0. -1.
        -11    1    3    3    0    0 -0.14834328884E+02 -0.29451670894E+02  0.16821675827E+02  0.37019278893E+02  0.51100000000E-03 0.  1.
         12    1    3    3    0    0  0.10870986848E+02  0.36057011214E+02 -0.22924574820E+02  0.44088802926E+02  0.00000000000E+00 0. -1.
</event>
<event>
 7    1  0.3032584E-015  0.9000713E+02  0.7816164E-02  0.1186340E+00
        -11   -1    0    0    0    0  0.00000000000E+00  0.00000000000E+00  0.45593999997E+02  0.45594000000E+02  0.51100000000E-03 0. -1.
         11   -1    0    0    0    0 -0.00000000000E+00 -0.00000000000E+00 -0.45593999997E+02  0.45594000000E+02  0.51100000000E-03 0.  1.
    9900012    2    1    2    0    0 -0.10555571203E+01  0.38823001568E+00 -0.35989026630E+00  0.90007134054E+02  0.89999387421E+02 0.  0.
         12    1    1    2    0    0  0.10555571203E+01 -0.38823001568E+00  0.35989026630E+00  0.11808659463E+01  0.00000000000E+00 0. -1.
         11    1    3    3    0    0 -0.83635930844E+01 -0.30441707624E+01 -0.65047807556E+01  0.11024011876E+02  0.51100000000E-03 0. -1.
        -11    1    3    3    0    0 -0.14715586462E+01  0.92830641390E+01 -0.35138030383E+02  0.36373368611E+02  0.51100000000E-03 0.  1.
         12    1    3    3    0    0  0.87795946103E+01 -0.58506633609E+01  0.41282920872E+02  0.42609753567E+02  0.00000000000E+00 0. -1.
</event>
<event>
 7    1  0.3032584E-015  0.9000796E+02  0.7816164E-02  0.1186339E+00
        -11   -1    0    0    0    0  0.00000000000E+00  0.00000000000E+00  0.45593999997E+02  0.45594000000E+02  0.51100000000E-03 0. -1.
         11   -1    0    0    0    0 -0.00000000000E+00 -0.00000000000E+00 -0.45593999997E+02  0.45594000000E+02  0.51100000000E-03 0.  1.
    9900012    2    1    2    0    0 -0.73807357668E+00 -0.60970975820E+00  0.68993170006E+00  0.90007955787E+02  0.90000220003E+02 0.  0.
         12    1    1    2    0    0  0.73807357668E+00  0.60970975820E+00 -0.68993170006E+00  0.11800442130E+01  0.00000000000E+00 0. -1.
         11    1    3    3    0    0  0.96842900552E+01  0.36392105081E+02  0.15229586791E+02  0.40621559549E+02  0.51100000000E-03 0. -1.
        -11    1    3    3    0    0  0.59424393103E+01  0.50964036675E-01 -0.50148537017E+01  0.77758562359E+01  0.51100000000E-03 0.  1.
        -12    1    3    3    0    0 -0.16364802942E+02 -0.37052778876E+02 -0.95248013894E+01  0.41610540002E+02  0.00000000000E+00 0.  1.
</event>
<event>
 7    1  0.3032584E-015  0.9000775E+02  0.7816164E-02  0.1186339E+00
        -11   -1    0    0    0    0  0.00000000000E+00  0.00000000000E+00  0.45593999997E+02  0.45594000000E+02  0.51100000000E-03 0.  1.
         11   -1    0    0    0    0 -0.00000000000E+00 -0.00000000000E+00 -0.45593999997E+02  0.45594000000E+02  0.51100000000E-03 0. -1.
    9900012    2    1    2    0    0 -0.69449941562E+00 -0.94680387374E+00 -0.11923831931E+00  0.90007752233E+02  0.90000013763E+02 0.  0.
         12    1    1    2    0    0  0.69449941562E+00  0.94680387374E+00  0.11923831931E+00  0.11802477665E+01  0.00000000000E+00 0. -1.
         11    1    3    3    0    0  0.54011373565E+01  0.27209943922E+02 -0.24330827238E+02  0.36899085183E+02  0.51100000000E-03 0. -1.
        -11    1    3    3    0    0  0.18162857519E+01  0.27263264098E-01 -0.88009824505E+01  0.89864859413E+01  0.51100000000E-03 0.  1.
        -12    1    3    3    0    0 -0.79119225240E+01 -0.28184011060E+02  0.33012571369E+02  0.44122181109E+02  0.00000000000E+00 0.  1.
</event>
<event>
 7    1  0.3032584E-015  0.9000790E+02  0.7816164E-02  0.1186339E+00
        -11   -1    0    0    0    0  0.00000000000E+00  0.00000000000E+00  0.45593999997E+02  0.45594000000E+02  0.51100000000E-03 0.  1.
         11   -1    0    0    0    0 -0.00000000000E+00 -0.00000000000E+00 -0.45593999997E+02  0.45594000000E+02  0.51100000000E-03 0. -1.
    9900012    2    1    2    0    0  0.15253085784E+00  0.58695863033E+00  0.10123488342E+01  0.90007899895E+02  0.90000163373E+02 0.  0.
         12    1    1    2    0    0 -0.15253085784E+00 -0.58695863033E+00 -0.10123488342E+01  0.11801001053E+01  0.00000000000E+00 0. -1.
         11    1    3    3    0    0 -0.23745785789E+02 -0.27199725030E+02 -0.25117465591E+02  0.43983797726E+02  0.51100000000E-03 0. -1.
        -11    1    3    3    0    0  0.12656980705E+00 -0.54315812867E+00  0.14754889891E+01  0.15773739844E+01  0.51100000000E-03 0.  1.
        -12    1    3    3    0    0  0.23771746839E+02  0.28329841789E+02  0.24654325436E+02  0.44446728184E+02  0.00000000000E+00 0.  1.
</event>
<event>
 7    1  0.3032584E-015  0.9000838E+02  0.7816164E-02  0.1186338E+00
        -11   -1    0    0    0    0  0.00000000000E+00  0.00000000000E+00  0.45593999997E+02  0.45594000000E+02  0.51100000000E-03 0. -1.
         11   -1    0    0    0    0 -0.00000000000E+00 -0.00000000000E+00 -0.45593999997E+02  0.45594000000E+02  0.51100000000E-03 0.  1.
    9900012    2    1    2    0    0  0.66460206337E-01 -0.11762606545E+01  0.59067507318E-01  0.90008383513E+02  0.90000653373E+02 0.  0.
         12    1    1    2    0    0 -0.66460206337E-01  0.11762606545E+01 -0.59067507318E-01  0.11796164871E+01  0.00000000000E+00 0. -1.
         11    1    3    3    0    0 -0.35057877812E+01  0.65237655141E+01 -0.54301620162E+01  0.91835028303E+01  0.51100000000E-03 0. -1.
        -11    1    3    3    0    0  0.21816354651E+01  0.28068784507E+02 -0.21968950124E+02  0.35710656208E+02  0.51100000000E-03 0.  1.
         12    1    3    3    0    0  0.13906125225E+01 -0.35768810676E+02  0.27458179648E+02  0.45114224474E+02  0.00000000000E+00 0. -1.
</event>
<event>
 7    1  0.3032584E-015  0.9000764E+02  0.7816164E-02  0.1186339E+00
        -11   -1    0    0    0    0  0.00000000000E+00  0.00000000000E+00  0.45593999997E+02  0.45594000000E+02  0.51100000000E-03 0. -1.
         11   -1    0    0    0    0 -0.00000000000E+00 -0.00000000000E+00 -0.45593999997E+02  0.45594000000E+02  0.51100000000E-03 0.  1.
    9900012    2    1    2    0    0  0.12249547032E-01 -0.24106241528E+00 -0.11554173945E+01  0.90007639676E+02  0.89999899719E+02 0.  0.
         12    1    1    2    0    0 -0.12249547032E-01  0.24106241528E+00  0.11554173945E+01  0.11803603242E+01  0.00000000000E+00 0. -1.
         11    1    3    3    0    0  0.91106687598E+01  0.13135815074E+01 -0.14699914053E+01  0.93215157898E+01  0.51100000000E-03 0. -1.
        -11    1    3    3    0    0 -0.31005818871E+00  0.31458084373E+02 -0.23306815056E+02  0.39152456332E+02  0.51100000000E-03 0.  1.
         12    1    3    3    0    0 -0.87883610241E+01 -0.33012728296E+02  0.23621389067E+02  0.41533667554E+02  0.00000000000E+00 0. -1.
</event>
<event>
 7    1  0.3032584E-015  0.9000777E+02  0.7816164E-02  0.1186339E+00
        -11   -1    0    0    0    0  0.00000000000E+00  0.00000000000E+00  0.45593999997E+02  0.45594000000E+02  0.51100000000E-03 0. -1.
         11   -1    0    0    0    0 -0.00000000000E+00 -0.00000000000E+00 -0.45593999997E+02  0.45594000000E+02  0.51100000000E-03 0.  1.
    9900012    2    1    2    0    0  0.49185898890E-01 -0.93628730348E+00 -0.71686646980E+00  0.90007766674E+02  0.90000028395E+02 0.  0.
         12    1    1    2    0    0 -0.49185898890E-01  0.93628730348E+00  0.71686646980E+00  0.11802333256E+01  0.00000000000E+00 0. -1.
         11    1    3    3    0    0 -0.21811283725E+02  0.24751144794E+02 -0.15086524293E+01  0.33024646838E+02  0.51100000000E-03 0. -1.
        -11    1    3    3    0    0 -0.63653606972E+01  0.90497999328E+01 -0.44348750225E+01  0.11919933404E+02  0.51100000000E-03 0.  1.
        -12    1    3    3    0    0  0.28225830321E+02 -0.34737232030E+02  0.52266609820E+01  0.45063186433E+02  0.00000000000E+00 0.  1.
</event>
<event>
 7    1  0.3848592E-015  0.9000766E+02  0.7816164E-02  0.1186339E+00
        -11   -1    0    0    0    0  0.00000000000E+00  0.00000000000E+00  0.45593999997E+02  0.45594000000E+02  0.51100000000E-03 0. -1.
         11   -1    0    0    0    0 -0.00000000000E+00 -0.00000000000E+00 -0.45593999997E+02  0.45594000000E+02  0.51100000000E-03 0.  1.
    9900012    2    1    2    0    0  0.24043850740E+00  0.31569387355E+00 -0.11116342590E+01  0.90007659361E+02  0.89999919665E+02 0.  0.
         12    1    1    2    0    0 -0.24043850740E+00 -0.31569387355E+00  0.11116342590E+01  0.11803406387E+01  0.00000000000E+00 0. -1.
         11    1    3    3    0    0 -0.11427758646E+02 -0.23705251829E+02  0.26321487044E+02  0.37220334663E+02  0.51100000000E-03 0. -1.
        -11    1    3    3    0    0  0.69686807752E+01 -0.51792072975E+01  0.40589802900E+01  0.95844677073E+01  0.51100000000E-03 0.  1.
        -12    1    3    3    0    0  0.46995163777E+01  0.29200153000E+02 -0.31492101593E+02  0.43202856991E+02  0.00000000000E+00 0.  1.
</event>
<event>
 7    1  0.3032584E-015  0.9000776E+02  0.7816164E-02  0.1186339E+00
        -11   -1    0    0    0    0  0.00000000000E+00  0.00000000000E+00  0.45593999997E+02  0.45594000000E+02  0.51100000000E-03 0.  1.
         11   -1    0    0    0    0 -0.00000000000E+00 -0.00000000000E+00 -0.45593999997E+02  0.45594000000E+02  0.51100000000E-03 0. -1.
    9900012    2    1    2    0    0 -0.64376371972E+00 -0.85354942360E+00  0.49999051405E+00  0.90007758982E+02  0.90000020601E+02 0.  0.
         12    1    1    2    0    0  0.64376371972E+00  0.85354942360E+00 -0.49999051405E+00  0.11802410175E+01  0.00000000000E+00 0. -1.
         11    1    3    3    0    0 -0.51377017715E+01 -0.79060556114E+01  0.33530886287E+01  0.10007242299E+02  0.51100000000E-03 0. -1.
        -11    1    3    3    0    0 -0.31293049864E+02  0.23198461452E+02  0.68663522373E+01  0.39554650508E+02  0.51100000000E-03 0.  1.
         12    1    3    3    0    0  0.35786987916E+02 -0.16145955265E+02 -0.97194503520E+01  0.40445866175E+02  0.00000000000E+00 0. -1.
</event>
<event>
 7    1  0.3032584E-015  0.9000772E+02  0.7816164E-02  0.1186339E+00
        -11   -1    0    0    0    0  0.00000000000E+00  0.00000000000E+00  0.45593999997E+02  0.45594000000E+02  0.51100000000E-03 0. -1.
         11   -1    0    0    0    0 -0.00000000000E+00 -0.00000000000E+00 -0.45593999997E+02  0.45594000000E+02  0.51100000000E-03 0.  1.
    9900012    2    1    2    0    0  0.11032604123E+01 -0.14973026718E-01 -0.41912173709E+00  0.90007715814E+02  0.89999976863E+02 0.  0.
         12    1    1    2    0    0 -0.11032604123E+01  0.14973026718E-01  0.41912173709E+00  0.11802841858E+01  0.00000000000E+00 0. -1.
         11    1    3    3    0    0  0.37884981086E+01 -0.74849563683E+01  0.36831090327E+01  0.91620184546E+01  0.51100000000E-03 0. -1.
        -11    1    3    3    0    0  0.34573773333E+02 -0.78323120167E+01  0.12060019248E+02  0.37445092850E+02  0.51100000000E-03 0.  1.
         12    1    3    3    0    0 -0.37259011030E+02  0.15302295358E+02 -0.16162250018E+02  0.43400604509E+02  0.00000000000E+00 0. -1.
</event>
<event>
 7    1  0.3032584E-015  0.9000758E+02  0.7816164E-02  0.1186339E+00
        -11   -1    0    0    0    0  0.00000000000E+00  0.00000000000E+00  0.45593999997E+02  0.45594000000E+02  0.51100000000E-03 0.  1.
         11   -1    0    0    0    0 -0.00000000000E+00 -0.00000000000E+00 -0.45593999997E+02  0.45594000000E+02  0.51100000000E-03 0. -1.
    9900012    2    1    2    0    0 -0.76682506539E+00 -0.38634202125E+00  0.81000450393E+00  0.90007581373E+02  0.89999840647E+02 0.  0.
         12    1    1    2    0    0  0.76682506539E+00  0.38634202125E+00 -0.81000450393E+00  0.11804186269E+01  0.00000000000E+00 0. -1.
         11    1    3    3    0    0  0.28974058226E+02  0.81306861946E+01 -0.16690135341E+02  0.34411694611E+02  0.51100000000E-03 0. -1.
        -11    1    3    3    0    0 -0.15593757176E+01 -0.13836907104E+02 -0.89737103580E+01  0.16565600764E+02  0.51100000000E-03 0.  1.
        -12    1    3    3    0    0 -0.28181507574E+02  0.53198788881E+01  0.26473850203E+02  0.39030285998E+02  0.00000000000E+00 0.  1.
</event>
<event>
 7    1  0.3032584E-015  0.9000748E+02  0.7816164E-02  0.1186340E+00
        -11   -1    0    0    0    0  0.00000000000E+00  0.00000000000E+00  0.45593999997E+02  0.45594000000E+02  0.51100000000E-03 0. -1.
         11   -1    0    0    0    0 -0.00000000000E+00 -0.00000000000E+00 -0.45593999997E+02  0.45594000000E+02  0.51100000000E-03 0.  1.
    9900012    2    1    2    0    0  0.98024266532E+00 -0.33043268585E-01 -0.65699934280E+00  0.90007484995E+02  0.89999742997E+02 0.  0.
         12    1    1    2    0    0 -0.98024266532E+00  0.33043268585E-01  0.65699934280E+00  0.11805150050E+01  0.00000000000E+00 0. -1.
         11    1    3    3    0    0 -0.40653389222E+01 -0.57508743622E+01 -0.54768699305E+01  0.89216389178E+01  0.51100000000E-03 0. -1.
        -11    1    3    3    0    0 -0.37300926040E+02 -0.39398492072E+01  0.23280068477E+01  0.37580594878E+02  0.51100000000E-03 0.  1.
         12    1    3    3    0    0  0.42346507627E+02  0.96576803008E+01  0.24918637400E+01  0.43505251200E+02  0.00000000000E+00 0. -1.
</event>
<event>
 7    1  0.3032584E-015  0.9000775E+02  0.7816164E-02  0.1186339E+00
        -11   -1    0    0    0    0  0.00000000000E+00  0.00000000000E+00  0.45593999997E+02  0.45594000000E+02  0.51100000000E-03 0. -1.
         11   -1    0    0    0    0 -0.00000000000E+00 -0.00000000000E+00 -0.45593999997E+02  0.45594000000E+02  0.51100000000E-03 0.  1.
    9900012    2    1    2    0    0 -0.10481822895E+01  0.23907894815E+00  0.48697604366E+00  0.90007749805E+02  0.90000011302E+02 0.  0.
         12    1    1    2    0    0  0.10481822895E+01 -0.23907894815E+00 -0.48697604366E+00  0.11802501949E+01  0.00000000000E+00 0. -1.
         11    1    3    3    0    0  0.28119989464E+01  0.83259748292E+01  0.37803581165E+02  0.38811595485E+02  0.51100000000E-03 0. -1.
        -11    1    3    3    0    0  0.87988521892E+01  0.88981959311E+01 -0.73972544186E+01  0.14536748738E+02  0.51100000000E-03 0.  1.
        -12    1    3    3    0    0 -0.12659033425E+02 -0.16985091812E+02 -0.29919350703E+02  0.36659405582E+02  0.00000000000E+00 0.  1.
</event>
<event>
 7    1  0.3032584E-015  0.9000770E+02  0.7816164E-02  0.1186339E+00
        -11   -1    0    0    0    0  0.00000000000E+00  0.00000000000E+00  0.45593999997E+02  0.45594000000E+02  0.51100000000E-03 0. -1.
         11   -1    0    0    0    0 -0.00000000000E+00 -0.00000000000E+00 -0.45593999997E+02  0.45594000000E+02  0.51100000000E-03 0.  1.
    9900012    2    1    2    0    0 -0.94430095475E+00 -0.11301396962E+00 -0.69902450166E+00  0.90007698469E+02  0.89999959289E+02 0.  0.
         12    1    1    2    0    0  0.94430095475E+00  0.11301396962E+00  0.69902450166E+00  0.11803015311E+01  0.00000000000E+00 0. -1.
         11    1    3    3    0    0 -0.30209140134E+02  0.14070647003E+02  0.12510163770E+02  0.35596059509E+02  0.51100000000E-03 0. -1.
        -11    1    3    3    0    0 -0.97955334989E+01 -0.53880487531E+01  0.24066576972E+01  0.11435713682E+02  0.51100000000E-03 0.  1.
        -12    1    3    3    0    0  0.39060372679E+02 -0.87956122197E+01 -0.15615845969E+02  0.42975925277E+02  0.00000000000E+00 0.  1.
</event>
<event>
 7    1  0.3032584E-015  0.9000778E+02  0.7816164E-02  0.1186339E+00
        -11   -1    0    0    0    0  0.00000000000E+00  0.00000000000E+00  0.45593999997E+02  0.45594000000E+02  0.51100000000E-03 0.  1.
         11   -1    0    0    0    0 -0.00000000000E+00 -0.00000000000E+00 -0.45593999997E+02  0.45594000000E+02  0.51100000000E-03 0. -1.
    9900012    2    1    2    0    0  0.47498045190E+00 -0.10583874000E+01  0.21709698468E+00  0.90007779080E+02  0.90000040964E+02 0.  0.
         12    1    1    2    0    0 -0.47498045190E+00  0.10583874000E+01 -0.21709698468E+00  0.11802209195E+01  0.00000000000E+00 0. -1.
         11    1    3    3    0    0 -0.21775692048E+02  0.29494948482E+02  0.33996764105E+01  0.36819703286E+02  0.51100000000E-03 0. -1.
        -11    1    3    3    0    0 -0.95358885759E+01 -0.84839933983E+01  0.48720098836E+01  0.13661910389E+02  0.51100000000E-03 0.  1.
        -12    1    3    3    0    0  0.31786561076E+02 -0.22069342483E+02 -0.80545893094E+01  0.39526165405E+02  0.00000000000E+00 0.  1.
</event>
<event>
 7    1  0.3032584E-015  0.9000786E+02  0.7816164E-02  0.1186339E+00
        -11   -1    0    0    0    0  0.00000000000E+00  0.00000000000E+00  0.45593999997E+02  0.45594000000E+02  0.51100000000E-03 0.  1.
         11   -1    0    0    0    0 -0.00000000000E+00 -0.00000000000E+00 -0.45593999997E+02  0.45594000000E+02  0.51100000000E-03 0. -1.
    9900012    2    1    2    0    0  0.40262627973E+00 -0.30646593739E+00  0.10661613228E+01  0.90007860492E+02  0.90000123451E+02 0.  0.
         12    1    1    2    0    0 -0.40262627973E+00  0.30646593739E+00 -0.10661613228E+01  0.11801395079E+01  0.00000000000E+00 0. -1.
         11    1    3    3    0    0 -0.86434083007E+01  0.39651657402E+01  0.57854447986E+01  0.11131146310E+02  0.51100000000E-03 0. -1.
        -11    1    3    3    0    0 -0.12480986951E+02  0.12807802010E+02  0.29800657160E+02  0.34754769386E+02  0.51100000000E-03 0.  1.
         12    1    3    3    0    0  0.21527021531E+02 -0.17079433687E+02 -0.34519940636E+02  0.44121944796E+02  0.00000000000E+00 0. -1.
</event>
<event>
 7    1  0.3032584E-015  0.9000778E+02  0.7816164E-02  0.1186339E+00
        -11   -1    0    0    0    0  0.00000000000E+00  0.00000000000E+00  0.45593999997E+02  0.45594000000E+02  0.51100000000E-03 0. -1.
         11   -1    0    0    0    0 -0.00000000000E+00 -0.00000000000E+00 -0.45593999997E+02  0.45594000000E+02  0.51100000000E-03 0.  1.
    9900012    2    1    2    0    0  0.31080186235E+00  0.18363408084E+00 -0.11236507085E+01  0.90007783838E+02  0.90000045785E+02 0.  0.
         12    1    1    2    0    0 -0.31080186235E+00 -0.18363408084E+00  0.11236507085E+01  0.11802161616E+01  0.00000000000E+00 0. -1.
         11    1    3    3    0    0  0.25939019285E+02 -0.15061075451E+02  0.25930166985E+02  0.39648988327E+02  0.51100000000E-03 0. -1.
        -11    1    3    3    0    0 -0.78991506827E+00  0.40282417275E+01  0.61552094801E+01  0.73984661407E+01  0.51100000000E-03 0.  1.
        -12    1    3    3    0    0 -0.24838302354E+02  0.11216467804E+02 -0.33209027174E+02  0.42960329371E+02  0.00000000000E+00 0.  1.
</event>
<event>
 7    1  0.3032584E-015  0.9000773E+02  0.7816164E-02  0.1186339E+00
        -11   -1    0    0    0    0  0.00000000000E+00  0.00000000000E+00  0.45593999997E+02  0.45594000000E+02  0.51100000000E-03 0. -1.
         11   -1    0    0    0    0 -0.00000000000E+00 -0.00000000000E+00 -0.45593999997E+02  0.45594000000E+02  0.51100000000E-03 0.  1.
    9900012    2    1    2    0    0  0.54479673904E+00  0.46650460344E+00 -0.93733649570E+00  0.90007733192E+02  0.89999994470E+02 0.  0.
         12    1    1    2    0    0 -0.54479673904E+00 -0.46650460344E+00  0.93733649570E+00  0.11802668080E+01  0.00000000000E+00 0. -1.
         11    1    3    3    0    0 -0.78380205880E+01 -0.18518682183E+01 -0.96229021714E+00  0.81111025982E+01  0.51100000000E-03 0. -1.
        -11    1    3    3    0    0 -0.32659094262E+02 -0.31173733554E+01 -0.17215429845E+02  0.37050040211E+02  0.51100000000E-03 0.  1.
         12    1    3    3    0    0  0.41041911589E+02  0.54357461771E+01  0.17240383566E+02  0.44846590382E+02  0.00000000000E+00 0. -1.
</event>
<event>
 7    1  0.3032584E-015  0.9000766E+02  0.7816164E-02  0.1186339E+00
        -11   -1    0    0    0    0  0.00000000000E+00  0.00000000000E+00  0.45593999997E+02  0.45594000000E+02  0.51100000000E-03 0.  1.
         11   -1    0    0    0    0 -0.00000000000E+00 -0.00000000000E+00 -0.45593999997E+02  0.45594000000E+02  0.51100000000E-03 0. -1.
    9900012    2    1    2    0    0 -0.22050835224E+00  0.11386995309E+01 -0.21894705161E+00  0.90007661758E+02  0.89999922093E+02 0.  0.
         12    1    1    2    0    0  0.22050835224E+00 -0.11386995309E+01  0.21894705161E+00  0.11803382424E+01  0.00000000000E+00 0. -1.
         11    1    3    3    0    0  0.45713543632E+01 -0.79194787736E+01  0.46013683427E+01  0.10236601763E+02  0.51100000000E-03 0. -1.
        -11    1    3    3    0    0  0.26774074025E+02 -0.13404369553E+02  0.17873797253E+02  0.34871202897E+02  0.51100000000E-03 0.  1.
         12    1    3    3    0    0 -0.31565936740E+02  0.22462547858E+02 -0.22694112648E+02  0.44899857098E+02  0.00000000000E+00 0. -1.
</event>
<event>
 7    1  0.3032584E-015  0.9000773E+02  0.7816164E-02  0.1186339E+00
        -11   -1    0    0    0    0  0.00000000000E+00  0.00000000000E+00  0.45593999997E+02  0.45594000000E+02  0.51100000000E-03 0.  1.
         11   -1    0    0    0    0 -0.00000000000E+00 -0.00000000000E+00 -0.45593999997E+02  0.45594000000E+02  0.51100000000E-03 0. -1.
    9900012    2    1    2    0    0 -0.18245784788E+00 -0.10762642237E+01  0.44877595644E+00  0.90007730791E+02  0.89999992038E+02 0.  0.
         12    1    1    2    0    0  0.18245784788E+00  0.10762642237E+01 -0.44877595644E+00  0.11802692085E+01  0.00000000000E+00 0. -1.
         11    1    3    3    0    0  0.66430495227E+01  0.32164644049E+01  0.74585160104E+01  0.10493103048E+02  0.51100000000E-03 0. -1.
        -11    1    3    3    0    0 -0.34085316598E+02 -0.18819134335E+02  0.14852279002E+02  0.41672038785E+02  0.51100000000E-03 0.  1.
         12    1    3    3    0    0  0.27259809228E+02  0.14526405706E+02 -0.21862019056E+02  0.37842588959E+02  0.00000000000E+00 0. -1.
</event>
<event>
 7    1  0.3032584E-015  0.9000784E+02  0.7816164E-02  0.1186339E+00
        -11   -1    0    0    0    0  0.00000000000E+00  0.00000000000E+00  0.45593999997E+02  0.45594000000E+02  0.51100000000E-03 0. -1.
         11   -1    0    0    0    0 -0.00000000000E+00 -0.00000000000E+00 -0.45593999997E+02  0.45594000000E+02  0.51100000000E-03 0.  1.
    9900012    2    1    2    0    0  0.42343915930E+00  0.94070548659E+00 -0.57319875028E+00  0.90007837155E+02  0.90000099805E+02 0.  0.
         12    1    1    2    0    0 -0.42343915930E+00 -0.94070548659E+00  0.57319875028E+00  0.11801628453E+01  0.00000000000E+00 0. -1.
         11    1    3    3    0    0 -0.40537164107E+01 -0.24496630668E+01 -0.35783712602E+01  0.59361778120E+01  0.51100000000E-03 0. -1.
        -11    1    3    3    0    0 -0.31013360931E+02  0.20240536250E+02 -0.16103571145E+02  0.40383571756E+02  0.51100000000E-03 0.  1.
         12    1    3    3    0    0  0.35490516501E+02 -0.16850167696E+02  0.19108743655E+02  0.43688087586E+02  0.00000000000E+00 0. -1.
</event>
<event>
 7    1  0.3032584E-015  0.9000778E+02  0.7816164E-02  0.1186339E+00
        -11   -1    0    0    0    0  0.00000000000E+00  0.00000000000E+00  0.45593999997E+02  0.45594000000E+02  0.51100000000E-03 0.  1.
         11   -1    0    0    0    0 -0.00000000000E+00 -0.00000000000E+00 -0.45593999997E+02  0.45594000000E+02  0.51100000000E-03 0. -1.
    9900012    2    1    2    0    0  0.16356540282E+00  0.49536640114E+00  0.10586699403E+01  0.90007778176E+02  0.90000040048E+02 0.  0.
         12    1    1    2    0    0 -0.16356540282E+00 -0.49536640114E+00 -0.10586699403E+01  0.11802218244E+01  0.00000000000E+00 0. -1.
         11    1    3    3    0    0 -0.12659234921E+01 -0.27556638647E-02 -0.89705962077E+01  0.90594793705E+01  0.51100000000E-03 0. -1.
        -11    1    3    3    0    0 -0.26757515878E+02 -0.28820257909E+02  0.12787509650E+01  0.39347263261E+02  0.51100000000E-03 0.  1.
         12    1    3    3    0    0  0.28187004773E+02  0.29318379974E+02  0.87505151830E+01  0.41601035544E+02  0.00000000000E+00 0. -1.
</event>
<event>
 7    1  0.3032584E-015  0.9000744E+02  0.7816164E-02  0.1186340E+00
        -11   -1    0    0    0    0  0.00000000000E+00  0.00000000000E+00  0.45593999997E+02  0.45594000000E+02  0.51100000000E-03 0.  1.
         11   -1    0    0    0    0 -0.00000000000E+00 -0.00000000000E+00 -0.45593999997E+02  0.45594000000E+02  0.51100000000E-03 0. -1.
    9900012    2    1    2    0    0 -0.23535389490E+00  0.81119125336E+00  0.82480625827E+00  0.90007437393E+02  0.89999694766E+02 0.  0.
         12    1    1    2    0    0  0.23535389490E+00 -0.81119125336E+00 -0.82480625827E+00  0.11805626070E+01  0.00000000000E+00 0. -1.
         11    1    3    3    0    0 -0.26494697912E+02  0.23678154872E+02 -0.10995859983E+02  0.37195873059E+02  0.51100000000E-03 0. -1.
        -11    1    3    3    0    0 -0.41276668659E+01  0.67087876194E+01  0.62255547198E+01  0.10040069567E+02  0.51100000000E-03 0.  1.
        -12    1    3    3    0    0  0.30387010883E+02 -0.29575751238E+02  0.55951115219E+01  0.42771494767E+02  0.00000000000E+00 0.  1.
</event>
<event>
 7    1  0.3032584E-015  0.9000772E+02  0.7816164E-02  0.1186339E+00
        -11   -1    0    0    0    0  0.00000000000E+00  0.00000000000E+00  0.45593999997E+02  0.45594000000E+02  0.51100000000E-03 0.  1.
         11   -1    0    0    0    0 -0.00000000000E+00 -0.00000000000E+00 -0.45593999997E+02  0.45594000000E+02  0.51100000000E-03 0. -1.
    9900012    2    1    2    0    0 -0.11678392727E+01  0.11395279397E+00  0.12739499912E+00  0.90007718978E+02  0.89999980068E+02 0.  0.
         12    1    1    2    0    0  0.11678392727E+01 -0.11395279397E+00 -0.12739499912E+00  0.11802810225E+01  0.00000000000E+00 0. -1.
         11    1    3    3    0    0  0.83723446322E+01  0.41674627258E+01  0.46608189469E+01  0.10449264746E+02  0.51100000000E-03 0. -1.
        -11    1    3    3    0    0  0.21951080421E+02  0.80511015981E+01  0.25352179442E+02  0.34487724937E+02  0.51100000000E-03 0.  1.
         12    1    3    3    0    0 -0.31491264326E+02 -0.12104611530E+02 -0.29885603390E+02  0.45070729295E+02  0.00000000000E+00 0. -1.
</event>
<event>
 7    1  0.5360457E-015  0.9000800E+02  0.7816164E-02  0.1186339E+00
        -11   -1    0    0    0    0  0.00000000000E+00  0.00000000000E+00  0.45593999997E+02  0.45594000000E+02  0.51100000000E-03 0. -1.
         11   -1    0    0    0    0 -0.00000000000E+00 -0.00000000000E+00 -0.45593999997E+02  0.45594000000E+02  0.51100000000E-03 0.  1.
    9900012    2    1    2    0    0  0.33643998123E+00  0.15477045970E+00 -0.11203809439E+01  0.90008000332E+02  0.90000265136E+02 0.  0.
         12    1    1    2    0    0 -0.33643998123E+00 -0.15477045970E+00  0.11203809439E+01  0.11799996677E+01  0.00000000000E+00 0. -1.
         11    1    3    3    0    0  0.64135039902E+01 -0.20894543453E+02  0.31346407243E+02  0.38214031806E+02  0.51100000000E-03 0. -1.
        -11    1    3    3    0    0  0.78083356117E+01  0.51783885803E+01  0.35815902164E+01  0.10030633183E+02  0.51100000000E-03 0.  1.
        -12    1    3    3    0    0 -0.13885399621E+02  0.15870925332E+02 -0.36048378403E+02  0.41763335344E+02  0.00000000000E+00 0.  1.
</event>
<event>
 7    1  0.3032584E-015  0.9000771E+02  0.7816164E-02  0.1186339E+00
        -11   -1    0    0    0    0  0.00000000000E+00  0.00000000000E+00  0.45593999997E+02  0.45594000000E+02  0.51100000000E-03 0.  1.
         11   -1    0    0    0    0 -0.00000000000E+00 -0.00000000000E+00 -0.45593999997E+02  0.45594000000E+02  0.51100000000E-03 0. -1.
    9900012    2    1    2    0    0  0.56158836121E+00 -0.54933607995E+00  0.88086670372E+00  0.90007712846E+02  0.89999973856E+02 0.  0.
         12    1    1    2    0    0 -0.56158836121E+00  0.54933607995E+00 -0.88086670372E+00  0.11802871540E+01  0.00000000000E+00 0. -1.
         11    1    3    3    0    0  0.17698352053E+01  0.11997837644E+02  0.15861129916E+01  0.12230951699E+02  0.51100000000E-03 0. -1.
        -11    1    3    3    0    0  0.58232388439E+01  0.11386124477E+02  0.33260888794E+02  0.35634823767E+02  0.51100000000E-03 0.  1.
         12    1    3    3    0    0 -0.70314856880E+01 -0.23933298201E+02 -0.33966135082E+02  0.42141937380E+02  0.00000000000E+00 0. -1.
</event>
<event>
 7    1  0.3032584E-015  0.9000758E+02  0.7816164E-02  0.1186339E+00
        -11   -1    0    0    0    0  0.00000000000E+00  0.00000000000E+00  0.45593999997E+02  0.45594000000E+02  0.51100000000E-03 0.  1.
         11   -1    0    0    0    0 -0.00000000000E+00 -0.00000000000E+00 -0.45593999997E+02  0.45594000000E+02  0.51100000000E-03 0. -1.
    9900012    2    1    2    0    0  0.11373005521E+01  0.24155550872E+00  0.20392979974E+00  0.90007581018E+02  0.89999840287E+02 0.  0.
         12    1    1    2    0    0 -0.11373005521E+01 -0.24155550872E+00 -0.20392979974E+00  0.11804189819E+01  0.00000000000E+00 0. -1.
         11    1    3    3    0    0  0.18578288890E+01  0.46493297474E+01 -0.86710163385E+01  0.10012707920E+02  0.51100000000E-03 0. -1.
        -11    1    3    3    0    0  0.33449390656E+02 -0.27058504754E+01  0.25316452696E+02  0.42036961586E+02  0.51100000000E-03 0.  1.
         12    1    3    3    0    0 -0.34169918993E+02 -0.17019237632E+01 -0.16441506557E+02  0.37957911512E+02  0.00000000000E+00 0. -1.
</event>
<event>
 7    1  0.3032584E-015  0.9000767E+02  0.7816164E-02  0.1186339E+00
        -11   -1    0    0    0    0  0.00000000000E+00  0.00000000000E+00  0.45593999997E+02  0.45594000000E+02  0.51100000000E-03 0.  1.
         11   -1    0    0    0    0 -0.00000000000E+00 -0.00000000000E+00 -0.45593999997E+02  0.45594000000E+02  0.51100000000E-03 0. -1.
    9900012    2    1    2    0    0 -0.49683790336E+00  0.76368021281E+00  0.75041325274E+00  0.90007671478E+02  0.89999931942E+02 0.  0.
         12    1    1    2    0    0  0.49683790336E+00 -0.76368021281E+00 -0.75041325274E+00  0.11803285219E+01  0.00000000000E+00 0. -1.
         11    1    3    3    0    0  0.19272533943E+02 -0.37615978150E+02  0.74343796634E+01  0.42914593997E+02  0.51100000000E-03 0. -1.
        -11    1    3    3    0    0 -0.68009276544E+01  0.73393882387E+01 -0.88840285155E+01  0.13380777242E+02  0.51100000000E-03 0.  1.
        -12    1    3    3    0    0 -0.12968444192E+02  0.31040270124E+02  0.22000621048E+01  0.33712300239E+02  0.00000000000E+00 0.  1.
</event>
<event>
 7    1  0.3032584E-015  0.9000647E+02  0.7816164E-02  0.1186342E+00
        -11   -1    0    0    0    0  0.00000000000E+00  0.00000000000E+00  0.45593999997E+02  0.45594000000E+02  0.51100000000E-03 0.  1.
         11   -1    0    0    0    0 -0.00000000000E+00 -0.00000000000E+00 -0.45593999997E+02  0.45594000000E+02  0.51100000000E-03 0. -1.
    9900012    2    1    2    0    0 -0.66157875059E+00  0.97894551902E+00  0.17994872510E-02  0.90006465400E+02  0.89998709934E+02 0.  0.
         12    1    1    2    0    0  0.66157875059E+00 -0.97894551902E+00 -0.17994872510E-02  0.11815345998E+01  0.00000000000E+00 0. -1.
         11    1    3    3    0    0  0.65515548444E+00  0.62844694626E+01 -0.36459899155E+02  0.37003351629E+02  0.51100000000E-03 0. -1.
        -11    1    3    3    0    0  0.75366872830E+01  0.42967607040E+01 -0.46664899735E+01  0.98508850711E+01  0.51100000000E-03 0.  1.
        -12    1    3    3    0    0 -0.88534215181E+01 -0.96022846476E+01  0.41128188615E+02  0.43152228700E+02  0.00000000000E+00 0.  1.
</event>
<event>
 7    1  0.3032584E-015  0.9000775E+02  0.7816164E-02  0.1186339E+00
        -11   -1    0    0    0    0  0.00000000000E+00  0.00000000000E+00  0.45593999997E+02  0.45594000000E+02  0.51100000000E-03 0. -1.
         11   -1    0    0    0    0 -0.00000000000E+00 -0.00000000000E+00 -0.45593999997E+02  0.45594000000E+02  0.51100000000E-03 0.  1.
    9900012    2    1    2    0    0  0.11347953061E+01  0.31757991866E+00  0.66193988269E-01  0.90007746199E+02  0.90000007648E+02 0.  0.
         12    1    1    2    0    0 -0.11347953061E+01 -0.31757991866E+00 -0.66193988269E-01  0.11802538014E+01  0.00000000000E+00 0. -1.
         11    1    3    3    0    0  0.66547679149E+01 -0.21060048857E+01 -0.33775874390E+01  0.77543078188E+01  0.51100000000E-03 0. -1.
        -11    1    3    3    0    0 -0.18408128178E+02 -0.32201647762E+02  0.19573917705E+02  0.41939761041E+02  0.51100000000E-03 0.  1.
         12    1    3    3    0    0  0.12888155569E+02  0.34625232566E+02 -0.16130136278E+02  0.40313677339E+02  0.00000000000E+00 0. -1.
</event>
<event>
 7    1  0.3032584E-015  0.9000774E+02  0.7816164E-02  0.1186339E+00
        -11   -1    0    0    0    0  0.00000000000E+00  0.00000000000E+00  0.45593999997E+02  0.45594000000E+02  0.51100000000E-03 0.  1.
         11   -1    0    0    0    0 -0.00000000000E+00 -0.00000000000E+00 -0.45593999997E+02  0.45594000000E+02  0.51100000000E-03 0. -1.
    9900012    2    1    2    0    0  0.65226067420E-01 -0.96093458592E+00  0.68217162569E+00  0.90007742467E+02  0.90000003867E+02 0.  0.
         12    1    1    2    0    0 -0.65226067420E-01  0.96093458592E+00 -0.68217162569E+00  0.11802575334E+01  0.00000000000E+00 0. -1.
         11    1    3    3    0    0 -0.98315894560E+00 -0.96003342675E-01  0.90976557061E+01  0.91511287698E+01  0.51100000000E-03 0. -1.
        -11    1    3    3    0    0  0.18656366342E+02 -0.35511803312E+02 -0.11884437511E+02  0.41837638972E+02  0.51100000000E-03 0.  1.
         12    1    3    3    0    0 -0.17607981329E+02  0.34646872069E+02  0.34689534303E+01  0.39018974724E+02  0.00000000000E+00 0. -1.
</event>
<event>
 7    1  0.3032584E-015  0.9000750E+02  0.7816164E-02  0.1186340E+00
        -11   -1    0    0    0    0  0.00000000000E+00  0.00000000000E+00  0.45593999997E+02  0.45594000000E+02  0.51100000000E-03 0. -1.
         11   -1    0    0    0    0 -0.00000000000E+00 -0.00000000000E+00 -0.45593999997E+02  0.45594000000E+02  0.51100000000E-03 0.  1.
    9900012    2    1    2    0    0  0.41112628981E+00  0.11048720455E+01  0.61834127684E-01  0.90007495649E+02  0.89999753791E+02 0.  0.
         12    1    1    2    0    0 -0.41112628981E+00 -0.11048720455E+01 -0.61834127684E-01  0.11805043509E+01  0.00000000000E+00 0. -1.
         11    1    3    3    0    0 -0.33289457630E+02 -0.18608649196E+02  0.13593231098E+01  0.38161729177E+02  0.51100000000E-03 0. -1.
        -11    1    3    3    0    0  0.52255869154E+01 -0.96178291123E+01 -0.53816819405E+00  0.10958969875E+02  0.51100000000E-03 0.  1.
        -12    1    3    3    0    0  0.28474997004E+02  0.29331350354E+02 -0.75932078809E+00  0.40886796598E+02  0.00000000000E+00 0.  1.
</event>
<event>
 7    1  0.3032584E-015  0.9000773E+02  0.7816164E-02  0.1186339E+00
        -11   -1    0    0    0    0  0.00000000000E+00  0.00000000000E+00  0.45593999997E+02  0.45594000000E+02  0.51100000000E-03 0.  1.
         11   -1    0    0    0    0 -0.00000000000E+00 -0.00000000000E+00 -0.45593999997E+02  0.45594000000E+02  0.51100000000E-03 0. -1.
    9900012    2    1    2    0    0 -0.68296968886E+00  0.65026653692E+00  0.70974952231E+00  0.90007729459E+02  0.89999990688E+02 0.  0.
         12    1    1    2    0    0  0.68296968886E+00 -0.65026653692E+00 -0.70974952231E+00  0.11802705407E+01  0.00000000000E+00 0. -1.
         11    1    3    3    0    0 -0.57659956483E+01  0.10088161313E+02  0.76630082462E+01  0.13919030144E+02  0.51100000000E-03 0. -1.
        -11    1    3    3    0    0 -0.44328778988E+01 -0.41079380567E+02 -0.11113486754E+02  0.42786393892E+02  0.51100000000E-03 0.  1.
         12    1    3    3    0    0  0.95159038583E+01  0.31641485790E+02  0.41602280299E+01  0.33302305423E+02  0.00000000000E+00 0. -1.
</event>
<event>
 7    1  0.3032584E-015  0.9000774E+02  0.7816164E-02  0.1186339E+00
        -11   -1    0    0    0    0  0.00000000000E+00  0.00000000000E+00  0.45593999997E+02  0.45594000000E+02  0.51100000000E-03 0.  1.
         11   -1    0    0    0    0 -0.00000000000E+00 -0.00000000000E+00 -0.45593999997E+02  0.45594000000E+02  0.51100000000E-03 0. -1.
    9900012    2    1    2    0    0 -0.11230004870E+01 -0.30067747682E+00  0.20363871427E+00  0.90007743348E+02  0.90000004760E+02 0.  0.
         12    1    1    2    0    0  0.11230004870E+01  0.30067747682E+00 -0.20363871427E+00  0.11802566521E+01  0.00000000000E+00 0. -1.
         11    1    3    3    0    0  0.70708715501E+01 -0.26249296230E+01  0.39405002951E+01  0.85097016893E+01  0.51100000000E-03 0. -1.
        -11    1    3    3    0    0  0.37317719716E+01  0.38361028953E+02  0.12057884595E+02  0.40384245016E+02  0.51100000000E-03 0.  1.
         12    1    3    3    0    0 -0.11925644009E+02 -0.36036776807E+02 -0.15794746175E+02  0.41113796643E+02  0.00000000000E+00 0. -1.
</event>
<event>
 7    1  0.3032584E-015  0.9000772E+02  0.7816164E-02  0.1186339E+00
        -11   -1    0    0    0    0  0.00000000000E+00  0.00000000000E+00  0.45593999997E+02  0.45594000000E+02  0.51100000000E-03 0. -1.
         11   -1    0    0    0    0 -0.00000000000E+00 -0.00000000000E+00 -0.45593999997E+02  0.45594000000E+02  0.51100000000E-03 0.  1.
    9900012    2    1    2    0    0  0.58395962446E+00  0.86819694096E+00 -0.54616557870E+00  0.90007715454E+02  0.89999976498E+02 0.  0.
         12    1    1    2    0    0 -0.58395962446E+00 -0.86819694096E+00  0.54616557870E+00  0.11802845465E+01  0.00000000000E+00 0. -1.
         11    1    3    3    0    0 -0.23290241294E+01 -0.89266291363E+01  0.62767518007E+01  0.11158255892E+02  0.51100000000E-03 0. -1.
        -11    1    3    3    0    0  0.23437045214E+02 -0.26599867565E+02 -0.10311429009E+02  0.36921181066E+02  0.51100000000E-03 0.  1.
         12    1    3    3    0    0 -0.20524061460E+02  0.36394693642E+02  0.34885116292E+01  0.41928278495E+02  0.00000000000E+00 0. -1.
</event>
<event>
 7    1  0.3032584E-015  0.9000773E+02  0.7816164E-02  0.1186339E+00
        -11   -1    0    0    0    0  0.00000000000E+00  0.00000000000E+00  0.45593999997E+02  0.45594000000E+02  0.51100000000E-03 0.  1.
         11   -1    0    0    0    0 -0.00000000000E+00 -0.00000000000E+00 -0.45593999997E+02  0.45594000000E+02  0.51100000000E-03 0. -1.
    9900012    2    1    2    0    0 -0.58188798923E+00  0.56554062528E+00  0.85708576939E+00  0.90007734840E+02  0.89999996140E+02 0.  0.
         12    1    1    2    0    0  0.58188798923E+00 -0.56554062528E+00 -0.85708576939E+00  0.11802651596E+01  0.00000000000E+00 0. -1.
         11    1    3    3    0    0  0.71807768855E+01  0.31108009728E+02 -0.16573096722E+02  0.35971368631E+02  0.51100000000E-03 0. -1.
        -11    1    3    3    0    0  0.28919904589E+01  0.75973822352E+01 -0.39447168441E+01  0.90357410810E+01  0.51100000000E-03 0.  1.
        -12    1    3    3    0    0 -0.10654655334E+02 -0.38139851338E+02  0.21374899336E+02  0.45000625129E+02  0.00000000000E+00 0.  1.
</event>
<event>
 7    1  0.3032584E-015  0.9000773E+02  0.7816164E-02  0.1186339E+00
        -11   -1    0    0    0    0  0.00000000000E+00  0.00000000000E+00  0.45593999997E+02  0.45594000000E+02  0.51100000000E-03 0.  1.
         11   -1    0    0    0    0 -0.00000000000E+00 -0.00000000000E+00 -0.45593999997E+02  0.45594000000E+02  0.51100000000E-03 0. -1.
    9900012    2    1    2    0    0  0.89867802531E+00  0.76513008378E+00 -0.11457674539E-02  0.90007725646E+02  0.89999986824E+02 0.  0.
         12    1    1    2    0    0 -0.89867802531E+00 -0.76513008378E+00  0.11457674539E-02  0.11802743541E+01  0.00000000000E+00 0. -1.
         11    1    3    3    0    0  0.84244433267E+01  0.40241772589E+02 -0.67843428879E+01  0.41670118972E+02  0.51100000000E-03 0. -1.
        -11    1    3    3    0    0  0.73487172602E+01 -0.40856149955E+01  0.52595622309E+01  0.99176050730E+01  0.51100000000E-03 0.  1.
        -12    1    3    3    0    0 -0.14874482562E+02 -0.35391027510E+02  0.15236348895E+01  0.38420001600E+02  0.00000000000E+00 0.  1.
</event>
<event>
 7    1  0.3032584E-015  0.9000777E+02  0.7816164E-02  0.1186339E+00
        -11   -1    0    0    0    0  0.00000000000E+00  0.00000000000E+00  0.45593999997E+02  0.45594000000E+02  0.51100000000E-03 0. -1.
         11   -1    0    0    0    0 -0.00000000000E+00 -0.00000000000E+00 -0.45593999997E+02  0.45594000000E+02  0.51100000000E-03 0.  1.
    9900012    2    1    2    0    0  0.61846644722E+00 -0.11918480196E+00 -0.99811109275E+00  0.90007774802E+02  0.90000036630E+02 0.  0.
         12    1    1    2    0    0 -0.61846644722E+00  0.11918480196E+00  0.99811109275E+00  0.11802251975E+01  0.00000000000E+00 0. -1.
         11    1    3    3    0    0 -0.12209849196E+02 -0.38171048774E+01  0.78420662909E+00  0.12816617625E+02  0.51100000000E-03 0. -1.
        -11    1    3    3    0    0 -0.13899180467E+02  0.33983273911E+02  0.69856742131E+00  0.36722447087E+02  0.51100000000E-03 0.  1.
         12    1    3    3    0    0  0.26727496111E+02 -0.30285353835E+02 -0.24808851432E+01  0.40468710090E+02  0.00000000000E+00 0. -1.
</event>
<event>
 7    1  0.3032584E-015  0.9000769E+02  0.7816164E-02  0.1186339E+00
        -11   -1    0    0    0    0  0.00000000000E+00  0.00000000000E+00  0.45593999997E+02  0.45594000000E+02  0.51100000000E-03 0.  1.
         11   -1    0    0    0    0 -0.00000000000E+00 -0.00000000000E+00 -0.45593999997E+02  0.45594000000E+02  0.51100000000E-03 0. -1.
    9900012    2    1    2    0    0  0.39725094448E+00 -0.20583919718E+00  0.10922201982E+01  0.90007693663E+02  0.89999954419E+02 0.  0.
         12    1    1    2    0    0 -0.39725094448E+00  0.20583919718E+00 -0.10922201982E+01  0.11803063371E+01  0.00000000000E+00 0. -1.
         11    1    3    3    0    0 -0.71810774833E+01 -0.19433799102E+01 -0.76913024781E+01  0.10700501547E+02  0.51100000000E-03 0. -1.
        -11    1    3    3    0    0 -0.28832640462E+02  0.10986473195E+02  0.23679947399E+02  0.38894262538E+02  0.51100000000E-03 0.  1.
         12    1    3    3    0    0  0.36410968890E+02 -0.92489324818E+01 -0.14896424723E+02  0.40412929578E+02  0.00000000000E+00 0. -1.
</event>
<event>
 7    1  0.3032584E-015  0.9000788E+02  0.7816164E-02  0.1186339E+00
        -11   -1    0    0    0    0  0.00000000000E+00  0.00000000000E+00  0.45593999997E+02  0.45594000000E+02  0.51100000000E-03 0.  1.
         11   -1    0    0    0    0 -0.00000000000E+00 -0.00000000000E+00 -0.45593999997E+02  0.45594000000E+02  0.51100000000E-03 0. -1.
    9900012    2    1    2    0    0  0.92382100145E+00 -0.35569930668E+00  0.64243485905E+00  0.90007877215E+02  0.90000140394E+02 0.  0.
         12    1    1    2    0    0 -0.92382100145E+00  0.35569930668E+00 -0.64243485905E+00  0.11801227850E+01  0.00000000000E+00 0. -1.
         11    1    3    3    0    0  0.74292768154E+01 -0.22570488544E+01  0.63157203338E+01  0.10008833455E+02  0.51100000000E-03 0. -1.
        -11    1    3    3    0    0  0.22062982345E+02 -0.13876110280E+02  0.24339322903E+02  0.35661243193E+02  0.51100000000E-03 0.  1.
         12    1    3    3    0    0 -0.28568438159E+02  0.15777459828E+02 -0.30012608378E+02  0.44337800567E+02  0.00000000000E+00 0. -1.
</event>
<event>
 7    1  0.3032584E-015  0.9000775E+02  0.7816164E-02  0.1186339E+00
        -11   -1    0    0    0    0  0.00000000000E+00  0.00000000000E+00  0.45593999997E+02  0.45594000000E+02  0.51100000000E-03 0. -1.
         11   -1    0    0    0    0 -0.00000000000E+00 -0.00000000000E+00 -0.45593999997E+02  0.45594000000E+02  0.51100000000E-03 0.  1.
    9900012    2    1    2    0    0  0.59697339595E+00  0.86459448908E+00 -0.53766720593E+00  0.90007751344E+02  0.90000012862E+02 0.  0.
         12    1    1    2    0    0 -0.59697339595E+00 -0.86459448908E+00  0.53766720593E+00  0.11802486561E+01  0.00000000000E+00 0. -1.
         11    1    3    3    0    0  0.24792891437E+02 -0.16877095499E+02  0.73072870298E+01  0.30869406575E+02  0.51100000000E-03 0. -1.
        -11    1    3    3    0    0  0.73022111740E+01 -0.11380757158E+02  0.49073221109E+01  0.14384913350E+02  0.51100000000E-03 0.  1.
        -12    1    3    3    0    0 -0.31498129215E+02  0.29122447146E+02 -0.12752276347E+02  0.44753431419E+02  0.00000000000E+00 0.  1.
</event>
<event>
 7    1  0.6341874E-015  0.9000770E+02  0.7816164E-02  0.1186339E+00
        -11   -1    0    0    0    0  0.00000000000E+00  0.00000000000E+00  0.45593999997E+02  0.45594000000E+02  0.51100000000E-03 0. -1.
         11   -1    0    0    0    0 -0.00000000000E+00 -0.00000000000E+00 -0.45593999997E+02  0.45594000000E+02  0.51100000000E-03 0.  1.
    9900012    2    1    2    0    0  0.39577672183E+00 -0.11545270296E+00 -0.11059527001E+01  0.90007703463E+02  0.89999964349E+02 0.  0.
         12    1    1    2    0    0 -0.39577672183E+00  0.11545270296E+00  0.11059527001E+01  0.11802965369E+01  0.00000000000E+00 0. -1.
         11    1    3    3    0    0  0.13337216253E+00  0.22246034016E+02  0.28883443335E+02  0.36457607117E+02  0.51100000000E-03 0. -1.
        -11    1    3    3    0    0 -0.54494516753E+01 -0.88435727206E-01  0.76800038325E+01  0.94173671250E+01  0.51100000000E-03 0.  1.
        -12    1    3    3    0    0  0.57118562346E+01 -0.22273050992E+02 -0.37669399867E+02  0.44132729221E+02  0.00000000000E+00 0.  1.
</event>
<event>
 7    1  0.3032584E-015  0.9000774E+02  0.7816164E-02  0.1186339E+00
        -11   -1    0    0    0    0  0.00000000000E+00  0.00000000000E+00  0.45593999997E+02  0.45594000000E+02  0.51100000000E-03 0. -1.
         11   -1    0    0    0    0 -0.00000000000E+00 -0.00000000000E+00 -0.45593999997E+02  0.45594000000E+02  0.51100000000E-03 0.  1.
    9900012    2    1    2    0    0 -0.23088972851E+00  0.21202383565E+00 -0.11378659806E+01  0.90007744450E+02  0.90000005877E+02 0.  0.
         12    1    1    2    0    0  0.23088972851E+00 -0.21202383565E+00  0.11378659806E+01  0.11802555500E+01  0.00000000000E+00 0. -1.
         11    1    3    3    0    0  0.55662376795E+01 -0.73192309678E+01 -0.38869296359E+00  0.92035442274E+01  0.51100000000E-03 0. -1.
        -11    1    3    3    0    0 -0.30992781653E+01 -0.22811206482E+02 -0.30507725979E+02  0.38218817498E+02  0.51100000000E-03 0.  1.
         12    1    3    3    0    0 -0.26978492427E+01  0.30342461285E+02  0.29758552962E+02  0.42585382724E+02  0.00000000000E+00 0. -1.
</event>
<event>
 7    1  0.3032584E-015  0.9000764E+02  0.7816164E-02  0.1186339E+00
        -11   -1    0    0    0    0  0.00000000000E+00  0.00000000000E+00  0.45593999997E+02  0.45594000000E+02  0.51100000000E-03 0. -1.
         11   -1    0    0    0    0 -0.00000000000E+00 -0.00000000000E+00 -0.45593999997E+02  0.45594000000E+02  0.51100000000E-03 0.  1.
    9900012    2    1    2    0    0  0.83250167810E+00  0.82886782354E+00  0.11473842433E+00  0.90007641657E+02  0.89999901726E+02 0.  0.
         12    1    1    2    0    0 -0.83250167810E+00 -0.82886782354E+00 -0.11473842433E+00  0.11803583435E+01  0.00000000000E+00 0. -1.
         11    1    3    3    0    0  0.36241053328E+01  0.33295123231E+02  0.17957234127E+02  0.38002126627E+02  0.51100000000E-03 0. -1.
        -11    1    3    3    0    0  0.10727692529E+02 -0.70731496247E+01  0.64275595675E+01  0.14367545193E+02  0.51100000000E-03 0.  1.
        -12    1    3    3    0    0 -0.13519296183E+02 -0.25393105783E+02 -0.24270055271E+02  0.37637969837E+02  0.00000000000E+00 0.  1.
</event>
<event>
 7    1  0.3032584E-015  0.9000780E+02  0.7816164E-02  0.1186339E+00
        -11   -1    0    0    0    0  0.00000000000E+00  0.00000000000E+00  0.45593999997E+02  0.45594000000E+02  0.51100000000E-03 0. -1.
         11   -1    0    0    0    0 -0.00000000000E+00 -0.00000000000E+00 -0.45593999997E+02  0.45594000000E+02  0.51100000000E-03 0.  1.
    9900012    2    1    2    0    0 -0.26419487641E+00 -0.18743457377E+00 -0.11348711652E+01  0.90007803739E+02  0.90000065949E+02 0.  0.
         12    1    1    2    0    0  0.26419487641E+00  0.18743457377E+00  0.11348711652E+01  0.11801962607E+01  0.00000000000E+00 0. -1.
         11    1    3    3    0    0 -0.30662910329E-01  0.13930962256E+02 -0.35787398508E+01  0.14383324677E+02  0.51100000000E-03 0. -1.
        -11    1    3    3    0    0 -0.23427279702E+01  0.29241708221E+02 -0.90819705320E+01  0.30709087630E+02  0.51100000000E-03 0.  1.
         12    1    3    3    0    0  0.21091960042E+01 -0.43360105051E+02  0.11525839218E+02  0.44915391432E+02  0.00000000000E+00 0. -1.
</event>
<event>
 7    1  0.3032584E-015  0.9000771E+02  0.7816164E-02  0.1186339E+00
        -11   -1    0    0    0    0  0.00000000000E+00  0.00000000000E+00  0.45593999997E+02  0.45594000000E+02  0.51100000000E-03 0.  1.
         11   -1    0    0    0    0 -0.00000000000E+00 -0.00000000000E+00 -0.45593999997E+02  0.45594000000E+02  0.51100000000E-03 0. -1.
    9900012    2    1    2    0    0 -0.35844634481E-01  0.11226432607E+01 -0.36257956668E+00  0.90007713310E+02  0.89999974326E+02 0.  0.
         12    1    1    2    0    0  0.35844634481E-01 -0.11226432607E+01  0.36257956668E+00  0.11802866901E+01  0.00000000000E+00 0. -1.
         11    1    3    3    0    0  0.29881736155E+02  0.20388897697E+02  0.99268794517E+01  0.37512241214E+02  0.51100000000E-03 0. -1.
        -11    1    3    3    0    0  0.24464766785E+01  0.16623995023E+00  0.95429951308E+01  0.98530015826E+01  0.51100000000E-03 0.  1.
        -12    1    3    3    0    0 -0.32364057468E+02 -0.19432494387E+02 -0.19832454149E+02  0.42642470513E+02  0.00000000000E+00 0.  1.
</event>
<event>
 7    1  0.3032584E-015  0.9000774E+02  0.7816164E-02  0.1186339E+00
        -11   -1    0    0    0    0  0.00000000000E+00  0.00000000000E+00  0.45593999997E+02  0.45594000000E+02  0.51100000000E-03 0. -1.
         11   -1    0    0    0    0 -0.00000000000E+00 -0.00000000000E+00 -0.45593999997E+02  0.45594000000E+02  0.51100000000E-03 0.  1.
    9900012    2    1    2    0    0  0.33456597376E+00  0.47542299221E+00 -0.10271587987E+01  0.90007738753E+02  0.90000000105E+02 0.  0.
         12    1    1    2    0    0 -0.33456597376E+00 -0.47542299221E+00  0.10271587987E+01  0.11802612465E+01  0.00000000000E+00 0. -1.
         11    1    3    3    0    0  0.10797172843E+01  0.10262091013E+02  0.14090493945E+01  0.10414495755E+02  0.51100000000E-03 0. -1.
        -11    1    3    3    0    0 -0.14011510919E+02 -0.22963236025E+02 -0.33727304502E+02  0.43141206707E+02  0.51100000000E-03 0.  1.
         12    1    3    3    0    0  0.13266359608E+02  0.13176568004E+02  0.31291096308E+02  0.36452036292E+02  0.00000000000E+00 0. -1.
</event>
<event>
 7    1  0.3032584E-015  0.9000769E+02  0.7816164E-02  0.1186339E+00
        -11   -1    0    0    0    0  0.00000000000E+00  0.00000000000E+00  0.45593999997E+02  0.45594000000E+02  0.51100000000E-03 0.  1.
         11   -1    0    0    0    0 -0.00000000000E+00 -0.00000000000E+00 -0.45593999997E+02  0.45594000000E+02  0.51100000000E-03 0. -1.
    9900012    2    1    2    0    0 -0.82307038868E+00  0.36032967592E+00  0.76541522625E+00  0.90007685293E+02  0.89999945938E+02 0.  0.
         12    1    1    2    0    0  0.82307038868E+00 -0.36032967592E+00 -0.76541522625E+00  0.11803147075E+01  0.00000000000E+00 0. -1.
         11    1    3    3    0    0 -0.83265794852E+01  0.88064694930E+00 -0.20000235349E+01  0.86085747586E+01  0.51100000000E-03 0. -1.
        -11    1    3    3    0    0 -0.20189047289E+02  0.10158365721E+02  0.32369509424E+02  0.39478793867E+02  0.51100000000E-03 0.  1.
         12    1    3    3    0    0  0.27692556385E+02 -0.10678682995E+02 -0.29604070663E+02  0.41920316667E+02  0.00000000000E+00 0. -1.
</event>
<event>
 7    1  0.3032584E-015  0.9000779E+02  0.7816164E-02  0.1186339E+00
        -11   -1    0    0    0    0  0.00000000000E+00  0.00000000000E+00  0.45593999997E+02  0.45594000000E+02  0.51100000000E-03 0.  1.
         11   -1    0    0    0    0 -0.00000000000E+00 -0.00000000000E+00 -0.45593999997E+02  0.45594000000E+02  0.51100000000E-03 0. -1.
    9900012    2    1    2    0    0 -0.71859013001E-01 -0.24339780168E+00  0.11526003469E+01  0.90007790795E+02  0.90000052834E+02 0.  0.
         12    1    1    2    0    0  0.71859013001E-01  0.24339780168E+00 -0.11526003469E+01  0.11802092048E+01  0.00000000000E+00 0. -1.
         11    1    3    3    0    0 -0.35303400010E+01 -0.13371321772E+02  0.16343483714E+02  0.21409460681E+02  0.51100000000E-03 0. -1.
        -11    1    3    3    0    0  0.35343555816E+01  0.22493044536E+02  0.21146071354E+02  0.31073864514E+02  0.51100000000E-03 0.  1.
         12    1    3    3    0    0 -0.75874593552E-01 -0.93651205658E+01 -0.36336954721E+02  0.37524465600E+02  0.00000000000E+00 0. -1.
</event>
<event>
 7    1  0.3032584E-015  0.9000771E+02  0.7816164E-02  0.1186339E+00
        -11   -1    0    0    0    0  0.00000000000E+00  0.00000000000E+00  0.45593999997E+02  0.45594000000E+02  0.51100000000E-03 0.  1.
         11   -1    0    0    0    0 -0.00000000000E+00 -0.00000000000E+00 -0.45593999997E+02  0.45594000000E+02  0.51100000000E-03 0. -1.
    9900012    2    1    2    0    0  0.22472073590E+00  0.30210592669E-01  0.11583065404E+01  0.90007709302E+02  0.89999970265E+02 0.  0.
         12    1    1    2    0    0 -0.22472073590E+00 -0.30210592669E-01 -0.11583065404E+01  0.11802906975E+01  0.00000000000E+00 0. -1.
         11    1    3    3    0    0  0.21751874230E+02 -0.19446695185E+02 -0.29820783177E+02  0.41720463752E+02  0.51100000000E-03 0. -1.
        -11    1    3    3    0    0 -0.79561147295E+01 -0.37026818091E+01  0.24668447008E+01  0.91156424462E+01  0.51100000000E-03 0.  1.
        -12    1    3    3    0    0 -0.13571038765E+02  0.23179587587E+02  0.28512245016E+02  0.39171603104E+02  0.00000000000E+00 0.  1.
</event>
<event>
 7    1  0.3032584E-015  0.9000778E+02  0.7816164E-02  0.1186339E+00
        -11   -1    0    0    0    0  0.00000000000E+00  0.00000000000E+00  0.45593999997E+02  0.45594000000E+02  0.51100000000E-03 0. -1.
         11   -1    0    0    0    0 -0.00000000000E+00 -0.00000000000E+00 -0.45593999997E+02  0.45594000000E+02  0.51100000000E-03 0.  1.
    9900012    2    1    2    0    0  0.99806759682E+00  0.27359208238E-01 -0.62931961246E+00  0.90007775179E+02  0.90000037011E+02 0.  0.
         12    1    1    2    0    0 -0.99806759682E+00 -0.27359208238E-01  0.62931961246E+00  0.11802248213E+01  0.00000000000E+00 0. -1.
         11    1    3    3    0    0  0.89407716835E+01 -0.56469915618E+01  0.31555797462E+01  0.11035560511E+02  0.51100000000E-03 0. -1.
        -11    1    3    3    0    0 -0.25940594766E+02 -0.21150799390E+02 -0.23710458401E+02  0.41017759684E+02  0.51100000000E-03 0.  1.
         12    1    3    3    0    0  0.17997890679E+02  0.26825150160E+02  0.19925559042E+02  0.37954454984E+02  0.00000000000E+00 0. -1.
</event>
<event>
 7    1  0.3032584E-015  0.9000773E+02  0.7816164E-02  0.1186339E+00
        -11   -1    0    0    0    0  0.00000000000E+00  0.00000000000E+00  0.45593999997E+02  0.45594000000E+02  0.51100000000E-03 0.  1.
         11   -1    0    0    0    0 -0.00000000000E+00 -0.00000000000E+00 -0.45593999997E+02  0.45594000000E+02  0.51100000000E-03 0. -1.
    9900012    2    1    2    0    0 -0.10115173848E+01 -0.27665295708E+00  0.54160822690E+00  0.90007727256E+02  0.89999988456E+02 0.  0.
         12    1    1    2    0    0  0.10115173848E+01  0.27665295708E+00 -0.54160822690E+00  0.11802727438E+01  0.00000000000E+00 0. -1.
         11    1    3    3    0    0 -0.68137915037E+01 -0.60280376545E+01 -0.11179303738E+01  0.91659566441E+01  0.51100000000E-03 0. -1.
        -11    1    3    3    0    0  0.20098979267E+02 -0.31209761637E+02 -0.11858609869E+02  0.38969793652E+02  0.51100000000E-03 0.  1.
         12    1    3    3    0    0 -0.14296705148E+02  0.36961146334E+02  0.13518148470E+02  0.41871976960E+02  0.00000000000E+00 0. -1.
</event>
<event>
 7    1  0.3032584E-015  0.9000774E+02  0.7816164E-02  0.1186339E+00
        -11   -1    0    0    0    0  0.00000000000E+00  0.00000000000E+00  0.45593999997E+02  0.45594000000E+02  0.51100000000E-03 0. -1.
         11   -1    0    0    0    0 -0.00000000000E+00 -0.00000000000E+00 -0.45593999997E+02  0.45594000000E+02  0.51100000000E-03 0.  1.
    9900012    2    1    2    0    0  0.95697450555E+00 -0.44976625818E+00 -0.52433311965E+00  0.90007739388E+02  0.90000000748E+02 0.  0.
         12    1    1    2    0    0 -0.95697450555E+00  0.44976625818E+00  0.52433311965E+00  0.11802606117E+01  0.00000000000E+00 0. -1.
         11    1    3    3    0    0 -0.89941720227E+00 -0.10040348975E+02  0.16432877223E+01  0.10213616090E+02  0.51100000000E-03 0. -1.
        -11    1    3    3    0    0  0.32325552596E+02  0.12729921849E+02 -0.23959730835E+02  0.42202617962E+02  0.51100000000E-03 0.  1.
         12    1    3    3    0    0 -0.30469160888E+02 -0.31393391327E+01  0.21792109993E+02  0.37591505335E+02  0.00000000000E+00 0. -1.
</event>
<event>
 7    1  0.3032584E-015  0.9000781E+02  0.7816164E-02  0.1186339E+00
        -11   -1    0    0    0    0  0.00000000000E+00  0.00000000000E+00  0.45593999997E+02  0.45594000000E+02  0.51100000000E-03 0.  1.
         11   -1    0    0    0    0 -0.00000000000E+00 -0.00000000000E+00 -0.45593999997E+02  0.45594000000E+02  0.51100000000E-03 0. -1.
    9900012    2    1    2    0    0 -0.98234609368E+00  0.61094510298E+00  0.23366566881E+00  0.90007806198E+02  0.90000068439E+02 0.  0.
         12    1    1    2    0    0  0.98234609368E+00 -0.61094510298E+00 -0.23366566881E+00  0.11801938025E+01  0.00000000000E+00 0. -1.
         11    1    3    3    0    0  0.91450658385E+01 -0.36573839368E+02 -0.12872930483E+02  0.39837046763E+02  0.51100000000E-03 0. -1.
        -11    1    3    3    0    0 -0.89133754217E+01  0.40808024791E+01 -0.64194983022E+01  0.11717984852E+02  0.51100000000E-03 0.  1.
        -12    1    3    3    0    0 -0.12140365105E+01  0.33103981992E+02  0.19526094455E+02  0.38452774582E+02  0.00000000000E+00 0.  1.
</event>
<event>
 7    1  0.3032584E-015  0.9000751E+02  0.7816164E-02  0.1186340E+00
        -11   -1    0    0    0    0  0.00000000000E+00  0.00000000000E+00  0.45593999997E+02  0.45594000000E+02  0.51100000000E-03 0. -1.
         11   -1    0    0    0    0 -0.00000000000E+00 -0.00000000000E+00 -0.45593999997E+02  0.45594000000E+02  0.51100000000E-03 0.  1.
    9900012    2    1    2    0    0 -0.59764732885E+00  0.54006885499E+00 -0.86296303807E+00  0.90007507771E+02  0.89999766073E+02 0.  0.
         12    1    1    2    0    0  0.59764732885E+00 -0.54006885499E+00  0.86296303807E+00  0.11804922291E+01  0.00000000000E+00 0. -1.
         11    1    3    3    0    0 -0.56633423830E+01  0.11414101892E+02 -0.14658663276E+01  0.12825908673E+02  0.51100000000E-03 0. -1.
        -11    1    3    3    0    0 -0.41336507977E+01 -0.30538195449E+02  0.28402753601E+02  0.41909245550E+02  0.51100000000E-03 0.  1.
         12    1    3    3    0    0  0.91993458519E+01  0.19664162412E+02 -0.27799850311E+02  0.35272353548E+02  0.00000000000E+00 0. -1.
</event>
<event>
 7    1  0.3542770E-015  0.9000777E+02  0.7816164E-02  0.1186339E+00
        -11   -1    0    0    0    0  0.00000000000E+00  0.00000000000E+00  0.45593999997E+02  0.45594000000E+02  0.51100000000E-03 0. -1.
         11   -1    0    0    0    0 -0.00000000000E+00 -0.00000000000E+00 -0.45593999997E+02  0.45594000000E+02  0.51100000000E-03 0.  1.
    9900012    2    1    2    0    0  0.60132893922E+00 -0.10137487668E+01  0.60541901125E-01  0.90007767660E+02  0.90000029393E+02 0.  0.
         12    1    1    2    0    0 -0.60132893922E+00  0.10137487668E+01 -0.60541901125E-01  0.11802323403E+01  0.00000000000E+00 0. -1.
         11    1    3    3    0    0 -0.38108819471E+02 -0.98249504624E+01 -0.17663016986E+01  0.39394563014E+02  0.51100000000E-03 0. -1.
        -11    1    3    3    0    0 -0.22898630680E+01  0.68620066333E+01  0.59414561299E+01  0.93611702853E+01  0.51100000000E-03 0.  1.
        -12    1    3    3    0    0  0.41000011479E+02  0.19491950622E+01 -0.41146125302E+01  0.41252034361E+02  0.00000000000E+00 0.  1.
</event>
<event>
 7    1  0.3032584E-015  0.9000770E+02  0.7816164E-02  0.1186339E+00
        -11   -1    0    0    0    0  0.00000000000E+00  0.00000000000E+00  0.45593999997E+02  0.45594000000E+02  0.51100000000E-03 0. -1.
         11   -1    0    0    0    0 -0.00000000000E+00 -0.00000000000E+00 -0.45593999997E+02  0.45594000000E+02  0.51100000000E-03 0.  1.
    9900012    2    1    2    0    0 -0.59783975738E+00  0.36321271326E+00 -0.95067275296E+00  0.90007697270E+02  0.89999958074E+02 0.  0.
         12    1    1    2    0    0  0.59783975738E+00 -0.36321271326E+00  0.95067275296E+00  0.11803027297E+01  0.00000000000E+00 0. -1.
         11    1    3    3    0    0 -0.54965493515E+01 -0.77881525997E+01  0.34840571466E+01  0.10149188645E+02  0.51100000000E-03 0. -1.
        -11    1    3    3    0    0 -0.18684136987E+02 -0.29565205407E+02 -0.52647673703E+01  0.35368292600E+02  0.51100000000E-03 0.  1.
         12    1    3    3    0    0  0.23582846582E+02  0.37716570720E+02  0.83003747076E+00  0.44490216025E+02  0.00000000000E+00 0. -1.
</event>
<event>
 7    1  0.3032584E-015  0.9000776E+02  0.7816164E-02  0.1186339E+00
        -11   -1    0    0    0    0  0.00000000000E+00  0.00000000000E+00  0.45593999997E+02  0.45594000000E+02  0.51100000000E-03 0.  1.
         11   -1    0    0    0    0 -0.00000000000E+00 -0.00000000000E+00 -0.45593999997E+02  0.45594000000E+02  0.51100000000E-03 0. -1.
    9900012    2    1    2    0    0  0.76114904211E+00 -0.75237914507E+00  0.49752651819E+00  0.90007764905E+02  0.90000026602E+02 0.  0.
         12    1    1    2    0    0 -0.76114904211E+00  0.75237914507E+00 -0.49752651819E+00  0.11802350946E+01  0.00000000000E+00 0. -1.
         11    1    3    3    0    0  0.22077055504E+01 -0.14232283056E-01 -0.92515062789E+01  0.95112846159E+01  0.51100000000E-03 0. -1.
        -11    1    3    3    0    0  0.60594622038E+01 -0.36795932937E+02 -0.10130663886E+02  0.38643086237E+02  0.51100000000E-03 0.  1.
         12    1    3    3    0    0 -0.75060187120E+01  0.36057786075E+02  0.19879696683E+02  0.41853394053E+02  0.00000000000E+00 0. -1.
</event>
<event>
 7    1  0.3032584E-015  0.9000767E+02  0.7816164E-02  0.1186339E+00
        -11   -1    0    0    0    0  0.00000000000E+00  0.00000000000E+00  0.45593999997E+02  0.45594000000E+02  0.51100000000E-03 0.  1.
         11   -1    0    0    0    0 -0.00000000000E+00 -0.00000000000E+00 -0.45593999997E+02  0.45594000000E+02  0.51100000000E-03 0. -1.
    9900012    2    1    2    0    0 -0.87723009160E-01  0.78736195200E+00  0.87495036388E+00  0.90007672796E+02  0.89999933277E+02 0.  0.
         12    1    1    2    0    0  0.87723009160E-01 -0.78736195200E+00 -0.87495036388E+00  0.11803272042E+01  0.00000000000E+00 0. -1.
         11    1    3    3    0    0  0.23824763271E+02  0.12699657234E+02 -0.31788031586E+02  0.41705869984E+02  0.51100000000E-03 0. -1.
        -11    1    3    3    0    0 -0.11455462202E+02 -0.15432403102E+01 -0.30734806374E+00  0.11563030226E+02  0.51100000000E-03 0.  1.
        -12    1    3    3    0    0 -0.12457024079E+02 -0.10369054972E+02  0.32970330013E+02  0.36738772586E+02  0.00000000000E+00 0.  1.
</event>
<event>
 7    1  0.3032584E-015  0.9000771E+02  0.7816164E-02  0.1186339E+00
        -11   -1    0    0    0    0  0.00000000000E+00  0.00000000000E+00  0.45593999997E+02  0.45594000000E+02  0.51100000000E-03 0. -1.
         11   -1    0    0    0    0 -0.00000000000E+00 -0.00000000000E+00 -0.45593999997E+02  0.45594000000E+02  0.51100000000E-03 0.  1.
    9900012    2    1    2    0    0 -0.47180954200E+00  0.93172989254E+00 -0.54987550725E+00  0.90007708549E+02  0.89999969502E+02 0.  0.
         12    1    1    2    0    0  0.47180954200E+00 -0.93172989254E+00  0.54987550725E+00  0.11802914513E+01  0.00000000000E+00 0. -1.
         11    1    3    3    0    0  0.81041503324E+01  0.25171051600E+01 -0.22904679185E+01  0.87897277855E+01  0.51100000000E-03 0. -1.
        -11    1    3    3    0    0  0.35102843595E+02 -0.34901789973E+01 -0.85621081246E+01  0.36300147021E+02  0.51100000000E-03 0.  1.
         12    1    3    3    0    0 -0.43678803470E+02  0.19048037298E+01  0.10302700536E+02  0.44917833743E+02  0.00000000000E+00 0. -1.
</event>
<event>
 7    1  0.3032584E-015  0.9000781E+02  0.7816164E-02  0.1186339E+00
        -11   -1    0    0    0    0  0.00000000000E+00  0.00000000000E+00  0.45593999997E+02  0.45594000000E+02  0.51100000000E-03 0. -1.
         11   -1    0    0    0    0 -0.00000000000E+00 -0.00000000000E+00 -0.45593999997E+02  0.45594000000E+02  0.51100000000E-03 0.  1.
    9900012    2    1    2    0    0 -0.37881623785E+00 -0.52285075418E+00 -0.98791516277E+00  0.90007808904E+02  0.90000071182E+02 0.  0.
         12    1    1    2    0    0  0.37881623785E+00  0.52285075418E+00  0.98791516277E+00  0.11801910956E+01  0.00000000000E+00 0. -1.
         11    1    3    3    0    0 -0.51262142464E+01  0.58812060994E+00 -0.33331649854E+01  0.61427963854E+01  0.51100000000E-03 0. -1.
        -11    1    3    3    0    0  0.20971892652E+02  0.36586716984E+02 -0.39024543177E+01  0.42351355245E+02  0.51100000000E-03 0.  1.
         12    1    3    3    0    0 -0.16224494644E+02 -0.37697688348E+02  0.62477041403E+01  0.41513657274E+02  0.00000000000E+00 0. -1.
</event>
<event>
 7    1  0.3032584E-015  0.9000778E+02  0.7816164E-02  0.1186339E+00
        -11   -1    0    0    0    0  0.00000000000E+00  0.00000000000E+00  0.45593999997E+02  0.45594000000E+02  0.51100000000E-03 0. -1.
         11   -1    0    0    0    0 -0.00000000000E+00 -0.00000000000E+00 -0.45593999997E+02  0.45594000000E+02  0.51100000000E-03 0.  1.
    9900012    2    1    2    0    0 -0.20546245186E+00 -0.11334249980E+01 -0.25699530748E+00  0.90007782379E+02  0.90000044306E+02 0.  0.
         12    1    1    2    0    0  0.20546245186E+00  0.11334249980E+01  0.25699530748E+00  0.11802176211E+01  0.00000000000E+00 0. -1.
         11    1    3    3    0    0  0.13289852317E+02  0.62514625916E+01  0.21038556582E+02  0.25657782883E+02  0.51100000000E-03 0. -1.
        -11    1    3    3    0    0 -0.14764296788E+02 -0.11223654418E+02  0.17407870019E+02  0.25435974858E+02  0.51100000000E-03 0.  1.
         12    1    3    3    0    0  0.12689820184E+01  0.38387668288E+01 -0.38703421908E+02  0.38914024638E+02  0.00000000000E+00 0. -1.
</event>
<event>
 8    1  0.3032584E-015  0.9000776E+02  0.7816164E-02  0.1186339E+00
        -11   -1    0    0    0    0  0.00000000000E+00  0.00000000000E+00  0.45593999997E+02  0.45594000000E+02  0.51100000000E-03 0.  1.
         11   -1    0    0    0    0 -0.00000000000E+00 -0.00000000000E+00 -0.45593999997E+02  0.45594000000E+02  0.51100000000E-03 0. -1.
    9900012    2    1    2    0    0 -0.20865657966E+00  0.97879645387E+00  0.62561752849E+00  0.90007755382E+02  0.90000016953E+02 0.  0.
         23    2    3    3    0    0 -0.98475186591E+01 -0.15232010758E+02 -0.12699182353E+02  0.66915587348E+02  0.63146170289E+02 0.  0.
         12    1    1    2    0    0  0.20865657966E+00 -0.97879645387E+00 -0.62561752849E+00  0.11802446180E+01  0.00000000000E+00 0. -1.
         11    1    4    4    0    0  0.18044067004E+00  0.22492091107E+02 -0.16207861378E+02  0.27724023733E+02  0.51100000000E-03 0. -1.
        -11    1    4    4    0    0 -0.10027959329E+02 -0.37724101865E+02  0.35086790253E+01  0.39191563615E+02  0.51100000000E-03 0.  1.
         12    1    3    3    0    0  0.96388620795E+01  0.16210807212E+02  0.13324799881E+02  0.23092168034E+02  0.00000000000E+00 0. -1.
</event>
<event>
 7    1  0.3032584E-015  0.9000764E+02  0.7816164E-02  0.1186339E+00
        -11   -1    0    0    0    0  0.00000000000E+00  0.00000000000E+00  0.45593999997E+02  0.45594000000E+02  0.51100000000E-03 0.  1.
         11   -1    0    0    0    0 -0.00000000000E+00 -0.00000000000E+00 -0.45593999997E+02  0.45594000000E+02  0.51100000000E-03 0. -1.
    9900012    2    1    2    0    0 -0.18177958065E+00 -0.12912329999E+00  0.11591039308E+01  0.90007644729E+02  0.89999904840E+02 0.  0.
         12    1    1    2    0    0  0.18177958065E+00  0.12912329999E+00 -0.11591039308E+01  0.11803552706E+01  0.00000000000E+00 0. -1.
         11    1    3    3    0    0  0.15750524699E+01 -0.97397963261E+01  0.10159984190E+01  0.99185016916E+01  0.51100000000E-03 0. -1.
        -11    1    3    3    0    0  0.18599674654E+02 -0.26840676901E+02  0.14784162406E+02  0.35846077777E+02  0.51100000000E-03 0.  1.
         12    1    3    3    0    0 -0.20356506704E+02  0.36451349927E+02 -0.14641056894E+02  0.44243065261E+02  0.00000000000E+00 0. -1.
</event>
<event>
 7    1  0.3032584E-015  0.9000778E+02  0.7816164E-02  0.1186339E+00
        -11   -1    0    0    0    0  0.00000000000E+00  0.00000000000E+00  0.45593999997E+02  0.45594000000E+02  0.51100000000E-03 0. -1.
         11   -1    0    0    0    0 -0.00000000000E+00 -0.00000000000E+00 -0.45593999997E+02  0.45594000000E+02  0.51100000000E-03 0.  1.
    9900012    2    1    2    0    0  0.46641124971E+00  0.20531587238E+00  0.10645341579E+01  0.90007776701E+02  0.90000038554E+02 0.  0.
         12    1    1    2    0    0 -0.46641124971E+00 -0.20531587238E+00 -0.10645341579E+01  0.11802232986E+01  0.00000000000E+00 0. -1.
         11    1    3    3    0    0 -0.91343474536E+01 -0.30147744076E+02  0.24600000205E+02  0.39968522447E+02  0.51100000000E-03 0. -1.
        -11    1    3    3    0    0  0.53053683830E+01 -0.53236097301E+01 -0.89891452975E+00  0.75693990403E+01  0.51100000000E-03 0.  1.
        -12    1    3    3    0    0  0.42953903203E+01  0.35676669678E+02 -0.22636551517E+02  0.42469855214E+02  0.00000000000E+00 0.  1.
</event>
<event>
 7    1  0.3032584E-015  0.9000775E+02  0.7816164E-02  0.1186339E+00
        -11   -1    0    0    0    0  0.00000000000E+00  0.00000000000E+00  0.45593999997E+02  0.45594000000E+02  0.51100000000E-03 0.  1.
         11   -1    0    0    0    0 -0.00000000000E+00 -0.00000000000E+00 -0.45593999997E+02  0.45594000000E+02  0.51100000000E-03 0. -1.
    9900012    2    1    2    0    0  0.11037324186E+01 -0.41301021200E+00  0.64711820954E-01  0.90007749897E+02  0.90000011395E+02 0.  0.
         12    1    1    2    0    0 -0.11037324186E+01  0.41301021200E+00 -0.64711820954E-01  0.11802501035E+01  0.00000000000E+00 0. -1.
         11    1    3    3    0    0 -0.79162616632E+01  0.56399876819E+01  0.15348207237E+01  0.98403422038E+01  0.51100000000E-03 0. -1.
        -11    1    3    3    0    0  0.45883301657E+01  0.29589627534E+02 -0.23472563475E+02  0.38046814159E+02  0.51100000000E-03 0.  1.
         12    1    3    3    0    0  0.44316639161E+01 -0.35642625428E+02  0.22002454572E+02  0.42120593534E+02  0.00000000000E+00 0. -1.
</event>
<event>
 7    1  0.3032584E-015  0.9000775E+02  0.7816164E-02  0.1186339E+00
        -11   -1    0    0    0    0  0.00000000000E+00  0.00000000000E+00  0.45593999997E+02  0.45594000000E+02  0.51100000000E-03 0.  1.
         11   -1    0    0    0    0 -0.00000000000E+00 -0.00000000000E+00 -0.45593999997E+02  0.45594000000E+02  0.51100000000E-03 0. -1.
    9900012    2    1    2    0    0 -0.90699664960E+00  0.75235726711E+00 -0.65690183097E-01  0.90007745968E+02  0.90000007415E+02 0.  0.
         12    1    1    2    0    0  0.90699664960E+00 -0.75235726711E+00  0.65690183097E-01  0.11802540319E+01  0.00000000000E+00 0. -1.
         11    1    3    3    0    0 -0.16381213179E+02  0.28470210102E+02 -0.25807754669E+01  0.32947798268E+02  0.51100000000E-03 0. -1.
        -11    1    3    3    0    0 -0.15983991111E+02 -0.15147204051E+01  0.11161842775E+01  0.16094353586E+02  0.51100000000E-03 0.  1.
        -12    1    3    3    0    0  0.31458207640E+02 -0.26203132430E+02  0.13989010063E+01  0.40965594114E+02  0.00000000000E+00 0.  1.
</event>
<event>
 7    1  0.3032584E-015  0.9000773E+02  0.7816164E-02  0.1186339E+00
        -11   -1    0    0    0    0  0.00000000000E+00  0.00000000000E+00  0.45593999997E+02  0.45594000000E+02  0.51100000000E-03 0. -1.
         11   -1    0    0    0    0 -0.00000000000E+00 -0.00000000000E+00 -0.45593999997E+02  0.45594000000E+02  0.51100000000E-03 0.  1.
    9900012    2    1    2    0    0  0.59673387477E+00 -0.13928142921E-01 -0.10182044277E+01  0.90007734959E+02  0.89999996260E+02 0.  0.
         12    1    1    2    0    0 -0.59673387477E+00  0.13928142921E-01  0.10182044277E+01  0.11802650410E+01  0.00000000000E+00 0. -1.
         11    1    3    3    0    0 -0.18470866622E+01  0.92675914107E+01 -0.14860570220E+01  0.95659994474E+01  0.51100000000E-03 0. -1.
        -11    1    3    3    0    0 -0.23487432544E+02  0.25517398397E+02 -0.94066781365E+01  0.35934422247E+02  0.51100000000E-03 0.  1.
         12    1    3    3    0    0  0.25931253081E+02 -0.34798917950E+02  0.98745307308E+01  0.44507313264E+02  0.00000000000E+00 0. -1.
</event>
<event>
 7    1  0.3032584E-015  0.9000774E+02  0.7816164E-02  0.1186339E+00
        -11   -1    0    0    0    0  0.00000000000E+00  0.00000000000E+00  0.45593999997E+02  0.45594000000E+02  0.51100000000E-03 0.  1.
         11   -1    0    0    0    0 -0.00000000000E+00 -0.00000000000E+00 -0.45593999997E+02  0.45594000000E+02  0.51100000000E-03 0. -1.
    9900012    2    1    2    0    0 -0.22505588657E+00 -0.58868755427E+00  0.99790084489E+00  0.90007741857E+02  0.90000003249E+02 0.  0.
         12    1    1    2    0    0  0.22505588657E+00  0.58868755427E+00 -0.99790084489E+00  0.11802581433E+01  0.00000000000E+00 0. -1.
         11    1    3    3    0    0 -0.67688856906E+01 -0.15141493600E+01 -0.72727895342E+01  0.10050071126E+02  0.51100000000E-03 0. -1.
        -11    1    3    3    0    0 -0.26629496008E+02  0.20740826608E+02 -0.12614411544E+02  0.36033808082E+02  0.51100000000E-03 0.  1.
         12    1    3    3    0    0  0.33173325812E+02 -0.19815364802E+02  0.20885101923E+02  0.43923862649E+02  0.00000000000E+00 0. -1.
</event>
<event>
 7    1  0.3032584E-015  0.9000773E+02  0.7816164E-02  0.1186339E+00
        -11   -1    0    0    0    0  0.00000000000E+00  0.00000000000E+00  0.45593999997E+02  0.45594000000E+02  0.51100000000E-03 0.  1.
         11   -1    0    0    0    0 -0.00000000000E+00 -0.00000000000E+00 -0.45593999997E+02  0.45594000000E+02  0.51100000000E-03 0. -1.
    9900012    2    1    2    0    0  0.79889485826E+00 -0.49124431229E+00  0.71657726527E+00  0.90007730138E+02  0.89999991376E+02 0.  0.
         12    1    1    2    0    0 -0.79889485826E+00  0.49124431229E+00 -0.71657726527E+00  0.11802698615E+01  0.00000000000E+00 0. -1.
         11    1    3    3    0    0 -0.75332316197E+01 -0.13863189551E+01  0.61027053098E+01  0.97935933773E+01  0.51100000000E-03 0. -1.
        -11    1    3    3    0    0 -0.70707399079E+01  0.26651053386E+02  0.25207308142E+02  0.37358832870E+02  0.51100000000E-03 0.  1.
         12    1    3    3    0    0  0.15402866386E+02 -0.25755978743E+02 -0.30593436186E+02  0.42855303891E+02  0.00000000000E+00 0. -1.
</event>
<event>
 7    1  0.3032584E-015  0.9000785E+02  0.7816164E-02  0.1186339E+00
        -11   -1    0    0    0    0  0.00000000000E+00  0.00000000000E+00  0.45593999997E+02  0.45594000000E+02  0.51100000000E-03 0.  1.
         11   -1    0    0    0    0 -0.00000000000E+00 -0.00000000000E+00 -0.45593999997E+02  0.45594000000E+02  0.51100000000E-03 0. -1.
    9900012    2    1    2    0    0  0.10344706550E+01  0.50543032535E+00  0.25917132373E+00  0.90007847838E+02  0.90000110630E+02 0.  0.
         12    1    1    2    0    0 -0.10344706550E+01 -0.50543032535E+00 -0.25917132373E+00  0.11801521618E+01  0.00000000000E+00 0. -1.
         11    1    3    3    0    0  0.90026139670E+01  0.55433547512E+01  0.30547049908E+01  0.11004865423E+02  0.51100000000E-03 0. -1.
        -11    1    3    3    0    0 -0.42436163114E+02  0.53752988805E+01  0.10760202052E+01  0.42788778875E+02  0.51100000000E-03 0.  1.
         12    1    3    3    0    0  0.34468019802E+02 -0.10413223306E+02 -0.38715538723E+01  0.36214203540E+02  0.00000000000E+00 0. -1.
</event>
<event>
 7    1  0.3032584E-015  0.9000774E+02  0.7816164E-02  0.1186339E+00
        -11   -1    0    0    0    0  0.00000000000E+00  0.00000000000E+00  0.45593999997E+02  0.45594000000E+02  0.51100000000E-03 0. -1.
         11   -1    0    0    0    0 -0.00000000000E+00 -0.00000000000E+00 -0.45593999997E+02  0.45594000000E+02  0.51100000000E-03 0.  1.
    9900012    2    1    2    0    0  0.70636897074E+00  0.30017171961E+00 -0.89664031845E+00  0.90007735604E+02  0.89999996914E+02 0.  0.
         12    1    1    2    0    0 -0.70636897074E+00 -0.30017171961E+00  0.89664031845E+00  0.11802643961E+01  0.00000000000E+00 0. -1.
         11    1    3    3    0    0  0.10482475834E+01  0.36639415329E+01  0.39507988730E+02  0.39691365110E+02  0.51100000000E-03 0. -1.
        -11    1    3    3    0    0 -0.12826150610E+01  0.72744737925E+01  0.10924637178E+01  0.74670307076E+01  0.51100000000E-03 0.  1.
        -12    1    3    3    0    0  0.94073644840E+00 -0.10638243606E+02 -0.41497092766E+02  0.42849339786E+02  0.00000000000E+00 0.  1.
</event>
<event>
 7    1  0.3032584E-015  0.9000785E+02  0.7816164E-02  0.1186339E+00
        -11   -1    0    0    0    0  0.00000000000E+00  0.00000000000E+00  0.45593999997E+02  0.45594000000E+02  0.51100000000E-03 0.  1.
         11   -1    0    0    0    0 -0.00000000000E+00 -0.00000000000E+00 -0.45593999997E+02  0.45594000000E+02  0.51100000000E-03 0. -1.
    9900012    2    1    2    0    0  0.31140884992E+00 -0.11368742442E+01  0.57354667498E-01  0.90007852519E+02  0.90000115372E+02 0.  0.
         12    1    1    2    0    0 -0.31140884992E+00  0.11368742442E+01 -0.57354667498E-01  0.11801474810E+01  0.00000000000E+00 0. -1.
         11    1    3    3    0    0  0.27015759492E+02 -0.84967286967E+01 -0.24070710345E+02  0.37167791921E+02  0.51100000000E-03 0. -1.
        -11    1    3    3    0    0 -0.97437912412E+01  0.31193648703E+01 -0.10118343178E+02  0.14389328472E+02  0.51100000000E-03 0.  1.
        -12    1    3    3    0    0 -0.16960559401E+02  0.42404895822E+01  0.34246408191E+02  0.38450732126E+02  0.00000000000E+00 0.  1.
</event>
<event>
 7    1  0.3032584E-015  0.9000770E+02  0.7816164E-02  0.1186339E+00
        -11   -1    0    0    0    0  0.00000000000E+00  0.00000000000E+00  0.45593999997E+02  0.45594000000E+02  0.51100000000E-03 0.  1.
         11   -1    0    0    0    0 -0.00000000000E+00 -0.00000000000E+00 -0.45593999997E+02  0.45594000000E+02  0.51100000000E-03 0. -1.
    9900012    2    1    2    0    0  0.10141423258E+01  0.34241206976E+00 -0.49737941390E+00  0.90007696241E+02  0.89999957031E+02 0.  0.
         12    1    1    2    0    0 -0.10141423258E+01 -0.34241206976E+00  0.49737941390E+00  0.11803037592E+01  0.00000000000E+00 0. -1.
         11    1    3    3    0    0  0.29580622770E+01 -0.58309870991E+01 -0.81693127656E+00  0.65892275690E+01  0.51100000000E-03 0. -1.
        -11    1    3    3    0    0  0.32565413015E+02  0.20771954234E+02  0.17247490492E+02  0.42301963738E+02  0.51100000000E-03 0.  1.
         12    1    3    3    0    0 -0.34509332966E+02 -0.14598555065E+02 -0.16927938629E+02  0.41116504934E+02  0.00000000000E+00 0. -1.
</event>
<event>
 7    1  0.3032584E-015  0.9000776E+02  0.7816164E-02  0.1186339E+00
        -11   -1    0    0    0    0  0.00000000000E+00  0.00000000000E+00  0.45593999997E+02  0.45594000000E+02  0.51100000000E-03 0.  1.
         11   -1    0    0    0    0 -0.00000000000E+00 -0.00000000000E+00 -0.45593999997E+02  0.45594000000E+02  0.51100000000E-03 0. -1.
    9900012    2    1    2    0    0 -0.83984338109E+00 -0.82808945592E+00 -0.43441370750E-01  0.90007764344E+02  0.90000026033E+02 0.  0.
         12    1    1    2    0    0  0.83984338109E+00  0.82808945592E+00  0.43441370750E-01  0.11802356563E+01  0.00000000000E+00 0. -1.
         11    1    3    3    0    0  0.88701821668E+01  0.20074545756E+01  0.39491809286E+01  0.99149400308E+01  0.51100000000E-03 0. -1.
        -11    1    3    3    0    0  0.42437360503E+01  0.34368346833E+02  0.12849148152E+02  0.36936339399E+02  0.51100000000E-03 0.  1.
         12    1    3    3    0    0 -0.13953761598E+02 -0.37203890865E+02 -0.16841770451E+02  0.43156484914E+02  0.00000000000E+00 0. -1.
</event>
<event>
 7    1  0.3032584E-015  0.9000766E+02  0.7816164E-02  0.1186339E+00
        -11   -1    0    0    0    0  0.00000000000E+00  0.00000000000E+00  0.45593999997E+02  0.45594000000E+02  0.51100000000E-03 0.  1.
         11   -1    0    0    0    0 -0.00000000000E+00 -0.00000000000E+00 -0.45593999997E+02  0.45594000000E+02  0.51100000000E-03 0. -1.
    9900012    2    1    2    0    0  0.52947037147E+00  0.97204823416E+00  0.40987363177E+00  0.90007655543E+02  0.89999915796E+02 0.  0.
         12    1    1    2    0    0 -0.52947037147E+00 -0.97204823416E+00 -0.40987363177E+00  0.11803444573E+01  0.00000000000E+00 0. -1.
         11    1    3    3    0    0 -0.20169291106E+01  0.41530210857E+02  0.15935369107E+01  0.41609683692E+02  0.51100000000E-03 0. -1.
        -11    1    3    3    0    0 -0.36838364764E+01 -0.42897051862E+01  0.86252442046E+01  0.10313440726E+02  0.51100000000E-03 0.  1.
        -12    1    3    3    0    0  0.62302359584E+01 -0.36268457436E+02 -0.98089074835E+01  0.38084531124E+02  0.00000000000E+00 0.  1.
</event>
<event>
 7    1  0.3032584E-015  0.9000798E+02  0.7816164E-02  0.1186339E+00
        -11   -1    0    0    0    0  0.00000000000E+00  0.00000000000E+00  0.45593999997E+02  0.45594000000E+02  0.51100000000E-03 0. -1.
         11   -1    0    0    0    0 -0.00000000000E+00 -0.00000000000E+00 -0.45593999997E+02  0.45594000000E+02  0.51100000000E-03 0.  1.
    9900012    2    1    2    0    0  0.27195203155E+00  0.11479976562E+01  0.24398066492E-01  0.90007978055E+02  0.90000242565E+02 0.  0.
         12    1    1    2    0    0 -0.27195203155E+00 -0.11479976562E+01 -0.24398066492E-01  0.11800219454E+01  0.00000000000E+00 0. -1.
         11    1    3    3    0    0 -0.93339752188E+01 -0.38157750550E+00  0.12043454998E+01  0.94190839853E+01  0.51100000000E-03 0. -1.
        -11    1    3    3    0    0  0.25293753363E+02 -0.97816762281E+01  0.32146071880E+02  0.42057402281E+02  0.51100000000E-03 0.  1.
         12    1    3    3    0    0 -0.15687826113E+02  0.11311251390E+02 -0.33326019314E+02  0.38531491788E+02  0.00000000000E+00 0. -1.
</event>
<event>
 7    1  0.3032584E-015  0.9000876E+02  0.7816164E-02  0.1186337E+00
        -11   -1    0    0    0    0  0.00000000000E+00  0.00000000000E+00  0.45593999997E+02  0.45594000000E+02  0.51100000000E-03 0.  1.
         11   -1    0    0    0    0 -0.00000000000E+00 -0.00000000000E+00 -0.45593999997E+02  0.45594000000E+02  0.51100000000E-03 0. -1.
    9900012    2    1    2    0    0  0.57904486769E+00  0.18948889401E+00  0.10096539783E+01  0.90008762893E+02  0.90001037757E+02 0.  0.
         12    1    1    2    0    0 -0.57904486769E+00 -0.18948889401E+00 -0.10096539783E+01  0.11792371075E+01  0.00000000000E+00 0. -1.
         11    1    3    3    0    0  0.12227717392E+02 -0.28609398508E+02 -0.29234442763E+02  0.42692708974E+02  0.51100000000E-03 0. -1.
        -11    1    3    3    0    0 -0.73370335924E+01  0.41202487730E+01  0.50331901228E+00  0.84298186325E+01  0.51100000000E-03 0.  1.
        -12    1    3    3    0    0 -0.43116389317E+01  0.24678638629E+02  0.29740777729E+02  0.38886235286E+02  0.00000000000E+00 0.  1.
</event>
<event>
 7    1  0.3032584E-015  0.9000772E+02  0.7816164E-02  0.1186339E+00
        -11   -1    0    0    0    0  0.00000000000E+00  0.00000000000E+00  0.45593999997E+02  0.45594000000E+02  0.51100000000E-03 0.  1.
         11   -1    0    0    0    0 -0.00000000000E+00 -0.00000000000E+00 -0.45593999997E+02  0.45594000000E+02  0.51100000000E-03 0. -1.
    9900012    2    1    2    0    0 -0.28887801008E+00 -0.11306859398E+01  0.17649158297E+00  0.90007724406E+02  0.89999985568E+02 0.  0.
         12    1    1    2    0    0  0.28887801008E+00  0.11306859398E+01 -0.17649158297E+00  0.11802755941E+01  0.00000000000E+00 0. -1.
         11    1    3    3    0    0 -0.31578884427E+02  0.22050978565E+02 -0.13482901742E+02  0.40807600235E+02  0.51100000000E-03 0. -1.
        -11    1    3    3    0    0 -0.39656476193E+01 -0.49633516635E+01 -0.18118707135E+01  0.66063678765E+01  0.51100000000E-03 0.  1.
        -12    1    3    3    0    0  0.35255654036E+02 -0.18218312841E+02  0.15471264038E+02  0.42593756294E+02  0.00000000000E+00 0.  1.
</event>
<event>
 7    1  0.3032584E-015  0.9000789E+02  0.7816164E-02  0.1186339E+00
        -11   -1    0    0    0    0  0.00000000000E+00  0.00000000000E+00  0.45593999997E+02  0.45594000000E+02  0.51100000000E-03 0. -1.
         11   -1    0    0    0    0 -0.00000000000E+00 -0.00000000000E+00 -0.45593999997E+02  0.45594000000E+02  0.51100000000E-03 0.  1.
    9900012    2    1    2    0    0 -0.46300842186E+00  0.42532008881E+00 -0.99869176313E+00  0.90007890169E+02  0.90000153519E+02 0.  0.
         12    1    1    2    0    0  0.46300842186E+00 -0.42532008881E+00  0.99869176313E+00  0.11801098315E+01  0.00000000000E+00 0. -1.
         11    1    3    3    0    0  0.47142990001E+01  0.89106486851E+01 -0.17751240459E+01  0.10235982644E+02  0.51100000000E-03 0. -1.
        -11    1    3    3    0    0  0.12711438526E+02  0.31097899388E+02  0.10617378073E+02  0.35233346891E+02  0.51100000000E-03 0.  1.
         12    1    3    3    0    0 -0.17888745948E+02 -0.39583227984E+02 -0.98409457899E+01  0.44538560633E+02  0.00000000000E+00 0. -1.
</event>
<event>
 7    1  0.3032584E-015  0.9000779E+02  0.7816164E-02  0.1186339E+00
        -11   -1    0    0    0    0  0.00000000000E+00  0.00000000000E+00  0.45593999997E+02  0.45594000000E+02  0.51100000000E-03 0.  1.
         11   -1    0    0    0    0 -0.00000000000E+00 -0.00000000000E+00 -0.45593999997E+02  0.45594000000E+02  0.51100000000E-03 0. -1.
    9900012    2    1    2    0    0 -0.10815937405E+01 -0.23028716372E+00 -0.41232888030E+00  0.90007791416E+02  0.90000053462E+02 0.  0.
         12    1    1    2    0    0  0.10815937405E+01  0.23028716372E+00  0.41232888030E+00  0.11802085844E+01  0.00000000000E+00 0. -1.
         11    1    3    3    0    0 -0.33658346617E+01  0.15286225333E+02 -0.35596146436E+02  0.38885513617E+02  0.51100000000E-03 0. -1.
        -11    1    3    3    0    0  0.28993268334E+01 -0.83142444205E+01 -0.51131001431E+01  0.10182168222E+02  0.51100000000E-03 0.  1.
        -12    1    3    3    0    0 -0.61508591220E+00 -0.72022680767E+01  0.40296917699E+02  0.40940109576E+02  0.00000000000E+00 0.  1.
</event>
<event>
 7    1  0.3032584E-015  0.9000773E+02  0.7816164E-02  0.1186339E+00
        -11   -1    0    0    0    0  0.00000000000E+00  0.00000000000E+00  0.45593999997E+02  0.45594000000E+02  0.51100000000E-03 0. -1.
         11   -1    0    0    0    0 -0.00000000000E+00 -0.00000000000E+00 -0.45593999997E+02  0.45594000000E+02  0.51100000000E-03 0.  1.
    9900012    2    1    2    0    0 -0.10726960929E+01 -0.28539306342E+00 -0.40113496640E+00  0.90007730806E+02  0.89999992053E+02 0.  0.
         12    1    1    2    0    0  0.10726960929E+01  0.28539306342E+00  0.40113496640E+00  0.11802691937E+01  0.00000000000E+00 0. -1.
         11    1    3    3    0    0  0.50572211042E+01 -0.25888796154E+02  0.27944577106E+02  0.38427914873E+02  0.51100000000E-03 0. -1.
        -11    1    3    3    0    0 -0.52809776686E+01 -0.39273974025E+01 -0.19741112369E+02  0.20809245381E+02  0.51100000000E-03 0.  1.
        -12    1    3    3    0    0 -0.84893952845E+00  0.29530800493E+02 -0.86045997031E+01  0.30770570553E+02  0.00000000000E+00 0.  1.
</event>
<event>
 7    1  0.3032584E-015  0.9000774E+02  0.7816164E-02  0.1186339E+00
        -11   -1    0    0    0    0  0.00000000000E+00  0.00000000000E+00  0.45593999997E+02  0.45594000000E+02  0.51100000000E-03 0.  1.
         11   -1    0    0    0    0 -0.00000000000E+00 -0.00000000000E+00 -0.45593999997E+02  0.45594000000E+02  0.51100000000E-03 0. -1.
    9900012    2    1    2    0    0 -0.91312382207E+00 -0.73155121361E+00  0.15510491140E+00  0.90007737391E+02  0.89999998725E+02 0.  0.
         12    1    1    2    0    0  0.91312382207E+00  0.73155121361E+00 -0.15510491140E+00  0.11802626090E+01  0.00000000000E+00 0. -1.
         11    1    3    3    0    0  0.31695848260E+01  0.86990828935E+01 -0.16556812261E+01  0.94054022637E+01  0.51100000000E-03 0. -1.
        -11    1    3    3    0    0 -0.36738001339E+02  0.10232975747E+02 -0.12122846413E+02  0.40016970656E+02  0.51100000000E-03 0.  1.
         12    1    3    3    0    0  0.32655292691E+02 -0.19663609854E+02  0.13933632551E+02  0.40585364472E+02  0.00000000000E+00 0. -1.
</event>
<event>
 7    1  0.3032584E-015  0.9000672E+02  0.7816164E-02  0.1186341E+00
        -11   -1    0    0    0    0  0.00000000000E+00  0.00000000000E+00  0.45593999997E+02  0.45594000000E+02  0.51100000000E-03 0.  1.
         11   -1    0    0    0    0 -0.00000000000E+00 -0.00000000000E+00 -0.45593999997E+02  0.45594000000E+02  0.51100000000E-03 0. -1.
    9900012    2    1    2    0    0  0.11418101847E+01 -0.14786847592E+00  0.26423405423E+00  0.90006723056E+02  0.89998970994E+02 0.  0.
         12    1    1    2    0    0 -0.11418101847E+01  0.14786847592E+00 -0.26423405423E+00  0.11812769444E+01  0.00000000000E+00 0. -1.
         11    1    3    3    0    0  0.14206975052E+01 -0.33993774489E+01  0.71320844565E+01  0.80275013172E+01  0.51100000000E-03 0. -1.
        -11    1    3    3    0    0  0.19257795796E+02 -0.11990038754E+02  0.29967270532E+02  0.37585383218E+02  0.51100000000E-03 0.  1.
         12    1    3    3    0    0 -0.19536683116E+02  0.15241547727E+02 -0.36835120934E+02  0.44393838520E+02  0.00000000000E+00 0. -1.
</event>
<event>
 7    1  0.3032584E-015  0.9000774E+02  0.7816164E-02  0.1186339E+00
        -11   -1    0    0    0    0  0.00000000000E+00  0.00000000000E+00  0.45593999997E+02  0.45594000000E+02  0.51100000000E-03 0. -1.
         11   -1    0    0    0    0 -0.00000000000E+00 -0.00000000000E+00 -0.45593999997E+02  0.45594000000E+02  0.51100000000E-03 0.  1.
    9900012    2    1    2    0    0 -0.63400999864E+00  0.20998457819E-01 -0.99529388102E+00  0.90007737519E+02  0.89999998855E+02 0.  0.
         12    1    1    2    0    0  0.63400999864E+00 -0.20998457819E-01  0.99529388102E+00  0.11802624806E+01  0.00000000000E+00 0. -1.
         11    1    3    3    0    0 -0.29346252765E+00  0.15356242542E+02 -0.36246073110E+02  0.39365951296E+02  0.51100000000E-03 0. -1.
        -11    1    3    3    0    0  0.42227505931E+01  0.57538695708E+01 -0.21579973127E+01  0.74562450518E+01  0.51100000000E-03 0.  1.
        -12    1    3    3    0    0 -0.45632980640E+01 -0.21089113655E+02  0.37408776542E+02  0.43185541172E+02  0.00000000000E+00 0.  1.
</event>
<event>
 7    1  0.3032584E-015  0.9000776E+02  0.7816164E-02  0.1186339E+00
        -11   -1    0    0    0    0  0.00000000000E+00  0.00000000000E+00  0.45593999997E+02  0.45594000000E+02  0.51100000000E-03 0.  1.
         11   -1    0    0    0    0 -0.00000000000E+00 -0.00000000000E+00 -0.45593999997E+02  0.45594000000E+02  0.51100000000E-03 0. -1.
    9900012    2    1    2    0    0 -0.11792514463E+01  0.43975936695E-01  0.19668238882E-01  0.90007764983E+02  0.90000026680E+02 0.  0.
         12    1    1    2    0    0  0.11792514463E+01 -0.43975936695E-01 -0.19668238882E-01  0.11802350174E+01  0.00000000000E+00 0. -1.
         11    1    3    3    0    0 -0.24843412884E+02 -0.10966811776E+02 -0.32772590439E+02  0.42561823370E+02  0.51100000000E-03 0. -1.
        -11    1    3    3    0    0 -0.38194226726E+01  0.24784736649E+01  0.90800011052E+01  0.10157619878E+02  0.51100000000E-03 0.  1.
        -12    1    3    3    0    0  0.27483584110E+02  0.85323140481E+01  0.23712257572E+02  0.37288321734E+02  0.00000000000E+00 0.  1.
</event>
<event>
 7    1  0.3032584E-015  0.9000773E+02  0.7816164E-02  0.1186339E+00
        -11   -1    0    0    0    0  0.00000000000E+00  0.00000000000E+00  0.45593999997E+02  0.45594000000E+02  0.51100000000E-03 0.  1.
         11   -1    0    0    0    0 -0.00000000000E+00 -0.00000000000E+00 -0.45593999997E+02  0.45594000000E+02  0.51100000000E-03 0. -1.
    9900012    2    1    2    0    0  0.10176040929E+01  0.42869049762E+00  0.41681941724E+00  0.90007732209E+02  0.89999993474E+02 0.  0.
         12    1    1    2    0    0 -0.10176040929E+01 -0.42869049762E+00 -0.41681941724E+00  0.11802677913E+01  0.00000000000E+00 0. -1.
         11    1    3    3    0    0 -0.78909819345E+01 -0.44608128380E+01  0.26340553264E+01  0.94395283140E+01  0.51100000000E-03 0. -1.
        -11    1    3    3    0    0  0.32491218994E+02 -0.25245791305E+02 -0.78542666038E+01  0.41889363739E+02  0.51100000000E-03 0.  1.
         12    1    3    3    0    0 -0.23582632967E+02  0.30135294640E+02  0.56370306947E+01  0.38678840155E+02  0.00000000000E+00 0. -1.
</event>
<event>
 7    1  0.3032584E-015  0.9000769E+02  0.7816164E-02  0.1186339E+00
        -11   -1    0    0    0    0  0.00000000000E+00  0.00000000000E+00  0.45593999997E+02  0.45594000000E+02  0.51100000000E-03 0. -1.
         11   -1    0    0    0    0 -0.00000000000E+00 -0.00000000000E+00 -0.45593999997E+02  0.45594000000E+02  0.51100000000E-03 0.  1.
    9900012    2    1    2    0    0 -0.31019845710E-01  0.88772254303E+00 -0.77724439012E+00  0.90007693944E+02  0.89999954704E+02 0.  0.
         12    1    1    2    0    0  0.31019845710E-01 -0.88772254303E+00  0.77724439012E+00  0.11803060562E+01  0.00000000000E+00 0. -1.
         11    1    3    3    0    0 -0.27651526637E+01 -0.79704426173E+01 -0.32768033549E+01  0.90504953045E+01  0.51100000000E-03 0. -1.
        -11    1    3    3    0    0 -0.23852680871E+02  0.14429182490E+01 -0.29976929037E+02  0.38335997086E+02  0.51100000000E-03 0.  1.
         12    1    3    3    0    0  0.26586813689E+02  0.74152469114E+01  0.32476488002E+02  0.42621201553E+02  0.00000000000E+00 0. -1.
</event>
<event>
 7    1  0.3032584E-015  0.9000774E+02  0.7816164E-02  0.1186339E+00
        -11   -1    0    0    0    0  0.00000000000E+00  0.00000000000E+00  0.45593999997E+02  0.45594000000E+02  0.51100000000E-03 0. -1.
         11   -1    0    0    0    0 -0.00000000000E+00 -0.00000000000E+00 -0.45593999997E+02  0.45594000000E+02  0.51100000000E-03 0.  1.
    9900012    2    1    2    0    0  0.45239758192E+00 -0.22063040216E+00 -0.10675521485E+01  0.90007742004E+02  0.90000003399E+02 0.  0.
         12    1    1    2    0    0 -0.45239758192E+00  0.22063040216E+00  0.10675521485E+01  0.11802579956E+01  0.00000000000E+00 0. -1.
         11    1    3    3    0    0  0.12822560006E+02 -0.11536198827E+02 -0.39782495648E+02  0.43360683675E+02  0.51100000000E-03 0. -1.
        -11    1    3    3    0    0 -0.92902418674E+01  0.31868383604E+01  0.35815613693E+01  0.10454286910E+02  0.51100000000E-03 0.  1.
        -12    1    3    3    0    0 -0.30799205564E+01  0.81287300649E+01  0.35133382131E+02  0.36192771420E+02  0.00000000000E+00 0.  1.
</event>
<event>
 7    1  0.3032584E-015  0.9000783E+02  0.7816164E-02  0.1186339E+00
        -11   -1    0    0    0    0  0.00000000000E+00  0.00000000000E+00  0.45593999997E+02  0.45594000000E+02  0.51100000000E-03 0. -1.
         11   -1    0    0    0    0 -0.00000000000E+00 -0.00000000000E+00 -0.45593999997E+02  0.45594000000E+02  0.51100000000E-03 0.  1.
    9900012    2    1    2    0    0 -0.72391336502E-01  0.74451184266E+00 -0.91283112013E+00  0.90007830926E+02  0.90000093494E+02 0.  0.
         12    1    1    2    0    0  0.72391336502E-01 -0.74451184266E+00  0.91283112013E+00  0.11801690740E+01  0.00000000000E+00 0. -1.
         11    1    3    3    0    0  0.29071575890E+02  0.27664608762E+02 -0.47625041775E+01  0.40412480115E+02  0.51100000000E-03 0. -1.
        -11    1    3    3    0    0  0.33724327195E+01 -0.95493503982E+01 -0.55528232856E+01  0.11549772386E+02  0.51100000000E-03 0.  1.
        -12    1    3    3    0    0 -0.32516399946E+02 -0.17370746522E+02  0.94024963431E+01  0.38045578425E+02  0.00000000000E+00 0.  1.
</event>
<event>
 7    1  0.3032584E-015  0.9000779E+02  0.7816164E-02  0.1186339E+00
        -11   -1    0    0    0    0  0.00000000000E+00  0.00000000000E+00  0.45593999997E+02  0.45594000000E+02  0.51100000000E-03 0. -1.
         11   -1    0    0    0    0 -0.00000000000E+00 -0.00000000000E+00 -0.45593999997E+02  0.45594000000E+02  0.51100000000E-03 0.  1.
    9900012    2    1    2    0    0  0.27496209772E+00 -0.97483990506E+00 -0.60578600854E+00  0.90007790830E+02  0.90000052869E+02 0.  0.
         12    1    1    2    0    0 -0.27496209772E+00  0.97483990506E+00  0.60578600854E+00  0.11802091695E+01  0.00000000000E+00 0. -1.
         11    1    3    3    0    0 -0.40403532841E+01  0.16624196379E+02  0.31070554600E+02  0.35469250391E+02  0.51100000000E-03 0. -1.
        -11    1    3    3    0    0  0.44008282953E+01  0.78692650354E+01  0.46726324091E+01  0.10155102943E+02  0.51100000000E-03 0.  1.
        -12    1    3    3    0    0 -0.85512913484E-01 -0.25468301320E+02 -0.36348973018E+02  0.44383437497E+02  0.00000000000E+00 0.  1.
</event>
<event>
 7    1  0.3032584E-015  0.9000781E+02  0.7816164E-02  0.1186339E+00
        -11   -1    0    0    0    0  0.00000000000E+00  0.00000000000E+00  0.45593999997E+02  0.45594000000E+02  0.51100000000E-03 0.  1.
         11   -1    0    0    0    0 -0.00000000000E+00 -0.00000000000E+00 -0.45593999997E+02  0.45594000000E+02  0.51100000000E-03 0. -1.
    9900012    2    1    2    0    0 -0.24073483186E+00  0.11481705801E+01  0.12884968597E+00  0.90007808837E+02  0.90000071113E+02 0.  0.
         12    1    1    2    0    0  0.24073483186E+00 -0.11481705801E+01 -0.12884968597E+00  0.11801911632E+01  0.00000000000E+00 0. -1.
         11    1    3    3    0    0 -0.32323226172E+00 -0.41589216229E+02 -0.87306078536E+01  0.42496951648E+02  0.51100000000E-03 0. -1.
        -11    1    3    3    0    0 -0.61981991756E+01  0.67884314622E+01 -0.20567068704E+01  0.94196877947E+01  0.51100000000E-03 0.  1.
        -12    1    3    3    0    0  0.62806966055E+01  0.35948955347E+02  0.10916164410E+02  0.38091169394E+02  0.00000000000E+00 0.  1.
</event>
<event>
 7    1  0.3032584E-015  0.9000781E+02  0.7816164E-02  0.1186339E+00
        -11   -1    0    0    0    0  0.00000000000E+00  0.00000000000E+00  0.45593999997E+02  0.45594000000E+02  0.51100000000E-03 0.  1.
         11   -1    0    0    0    0 -0.00000000000E+00 -0.00000000000E+00 -0.45593999997E+02  0.45594000000E+02  0.51100000000E-03 0. -1.
    9900012    2    1    2    0    0 -0.64038632812E+00  0.76065282709E-01  0.98842161858E+00  0.90007806002E+02  0.90000068241E+02 0.  0.
         12    1    1    2    0    0  0.64038632812E+00 -0.76065282709E-01 -0.98842161858E+00  0.11801939978E+01  0.00000000000E+00 0. -1.
         11    1    3    3    0    0 -0.44102631778E+01  0.39962276377E+01 -0.95491210559E+01  0.11251931827E+02  0.51100000000E-03 0. -1.
        -11    1    3    3    0    0 -0.15642524285E+02  0.76600154659E+01 -0.28642767474E+02  0.33522716653E+02  0.51100000000E-03 0.  1.
         12    1    3    3    0    0  0.19412401134E+02 -0.11580177821E+02  0.39180310148E+02  0.45233157523E+02  0.00000000000E+00 0. -1.
</event>
<event>
 7    1  0.3032584E-015  0.9000777E+02  0.7816164E-02  0.1186339E+00
        -11   -1    0    0    0    0  0.00000000000E+00  0.00000000000E+00  0.45593999997E+02  0.45594000000E+02  0.51100000000E-03 0.  1.
         11   -1    0    0    0    0 -0.00000000000E+00 -0.00000000000E+00 -0.45593999997E+02  0.45594000000E+02  0.51100000000E-03 0. -1.
    9900012    2    1    2    0    0 -0.79191258342E+00  0.69667418265E+00  0.52958592839E+00  0.90007770483E+02  0.90000032254E+02 0.  0.
         12    1    1    2    0    0  0.79191258342E+00 -0.69667418265E+00 -0.52958592839E+00  0.11802295167E+01  0.00000000000E+00 0. -1.
         11    1    3    3    0    0  0.30312662092E+02 -0.17115263312E+02 -0.73434758260E+01  0.35576907663E+02  0.51100000000E-03 0. -1.
        -11    1    3    3    0    0 -0.96870646666E+01 -0.13058682592E+02  0.15972041136E+01  0.16337670401E+02  0.51100000000E-03 0.  1.
        -12    1    3    3    0    0 -0.21417510009E+02  0.30870620088E+02  0.62758576407E+01  0.38093192419E+02  0.00000000000E+00 0.  1.
</event>
<event>
 7    1  0.3032584E-015  0.9000777E+02  0.7816164E-02  0.1186339E+00
        -11   -1    0    0    0    0  0.00000000000E+00  0.00000000000E+00  0.45593999997E+02  0.45594000000E+02  0.51100000000E-03 0. -1.
         11   -1    0    0    0    0 -0.00000000000E+00 -0.00000000000E+00 -0.45593999997E+02  0.45594000000E+02  0.51100000000E-03 0.  1.
    9900012    2    1    2    0    0 -0.98217924748E+00 -0.39143745815E+00 -0.52444269226E+00  0.90007771422E+02  0.90000033205E+02 0.  0.
         12    1    1    2    0    0  0.98217924748E+00  0.39143745815E+00  0.52444269226E+00  0.11802285776E+01  0.00000000000E+00 0. -1.
         11    1    3    3    0    0  0.15182479340E+02  0.20468170561E+02  0.21357766345E+02  0.33250682227E+02  0.51100000000E-03 0. -1.
        -11    1    3    3    0    0  0.26657765882E+01  0.12823627248E+02 -0.16970085555E+01  0.13207256297E+02  0.51100000000E-03 0.  1.
        -12    1    3    3    0    0 -0.18830435176E+02 -0.33683235267E+02 -0.20185200482E+02  0.43549832898E+02  0.00000000000E+00 0.  1.
</event>
<event>
 7    1  0.3032584E-015  0.9000776E+02  0.7816164E-02  0.1186339E+00
        -11   -1    0    0    0    0  0.00000000000E+00  0.00000000000E+00  0.45593999997E+02  0.45594000000E+02  0.51100000000E-03 0.  1.
         11   -1    0    0    0    0 -0.00000000000E+00 -0.00000000000E+00 -0.45593999997E+02  0.45594000000E+02  0.51100000000E-03 0. -1.
    9900012    2    1    2    0    0 -0.11246725357E+01  0.32056567921E+00  0.15910251792E+00  0.90007760923E+02  0.90000022567E+02 0.  0.
         12    1    1    2    0    0  0.11246725357E+01 -0.32056567921E+00 -0.15910251792E+00  0.11802390769E+01  0.00000000000E+00 0. -1.
         11    1    3    3    0    0  0.11803309498E+02 -0.91802487528E+01 -0.32623022747E+02  0.35886720325E+02  0.51100000000E-03 0. -1.
        -11    1    3    3    0    0  0.25136105093E+01 -0.78670967278E+01 -0.50795162863E+01  0.96959236116E+01  0.51100000000E-03 0.  1.
        -12    1    3    3    0    0 -0.15441592543E+02  0.17367911160E+02  0.37861641551E+02  0.44425116987E+02  0.00000000000E+00 0.  1.
</event>
<event>
 7    1  0.3032584E-015  0.9000773E+02  0.7816164E-02  0.1186339E+00
        -11   -1    0    0    0    0  0.00000000000E+00  0.00000000000E+00  0.45593999997E+02  0.45594000000E+02  0.51100000000E-03 0.  1.
         11   -1    0    0    0    0 -0.00000000000E+00 -0.00000000000E+00 -0.45593999997E+02  0.45594000000E+02  0.51100000000E-03 0. -1.
    9900012    2    1    2    0    0 -0.20318153085E-01  0.34802473618E+00  0.11276052628E+01  0.90007734067E+02  0.89999995356E+02 0.  0.
         12    1    1    2    0    0  0.20318153085E-01 -0.34802473618E+00 -0.11276052628E+01  0.11802659332E+01  0.00000000000E+00 0. -1.
         11    1    3    3    0    0 -0.19834751247E+02  0.29554629436E+02 -0.47339580448E+01  0.35906877296E+02  0.51100000000E-03 0. -1.
        -11    1    3    3    0    0 -0.78581728760E+01  0.53177479193E+01  0.16598049520E+00  0.94898300126E+01  0.51100000000E-03 0.  1.
        -12    1    3    3    0    0  0.27672605969E+02 -0.34524352619E+02  0.56955828124E+01  0.44611026759E+02  0.00000000000E+00 0.  1.
</event>
<event>
 7    1  0.3032584E-015  0.9000768E+02  0.7816164E-02  0.1186339E+00
        -11   -1    0    0    0    0  0.00000000000E+00  0.00000000000E+00  0.45593999997E+02  0.45594000000E+02  0.51100000000E-03 0. -1.
         11   -1    0    0    0    0 -0.00000000000E+00 -0.00000000000E+00 -0.45593999997E+02  0.45594000000E+02  0.51100000000E-03 0.  1.
    9900012    2    1    2    0    0 -0.50330360708E+00  0.93580094802E+00 -0.51392349214E+00  0.90007680005E+02  0.89999940581E+02 0.  0.
         12    1    1    2    0    0  0.50330360708E+00 -0.93580094802E+00  0.51392349214E+00  0.11803199952E+01  0.00000000000E+00 0. -1.
         11    1    3    3    0    0  0.19526951969E+02 -0.16992393287E+02 -0.88114569419E+01  0.27343830319E+02  0.51100000000E-03 0. -1.
        -11    1    3    3    0    0  0.12512713535E+02 -0.88190202817E+01 -0.82691726297E+01  0.17398917638E+02  0.51100000000E-03 0.  1.
         12    1    3    3    0    0 -0.32542969111E+02  0.26747214517E+02  0.16566706079E+02  0.45264932048E+02  0.00000000000E+00 0. -1.
</event>
<event>
 7    1  0.3032584E-015  0.9000758E+02  0.7816164E-02  0.1186339E+00
        -11   -1    0    0    0    0  0.00000000000E+00  0.00000000000E+00  0.45593999997E+02  0.45594000000E+02  0.51100000000E-03 0. -1.
         11   -1    0    0    0    0 -0.00000000000E+00 -0.00000000000E+00 -0.45593999997E+02  0.45594000000E+02  0.51100000000E-03 0.  1.
    9900012    2    1    2    0    0 -0.92647049674E+00  0.72007350454E+00 -0.12860807817E+00  0.90007579113E+02  0.89999838357E+02 0.  0.
         12    1    1    2    0    0  0.92647049674E+00 -0.72007350454E+00  0.12860807817E+00  0.11804208872E+01  0.00000000000E+00 0. -1.
         11    1    3    3    0    0  0.18744371137E+02  0.31199908544E+02  0.30020199460E+01  0.36521197496E+02  0.51100000000E-03 0. -1.
        -11    1    3    3    0    0  0.13708774561E+01  0.79627552147E+01  0.41142491539E+01  0.90670735064E+01  0.51100000000E-03 0.  1.
        -12    1    3    3    0    0 -0.21041719090E+02 -0.38442590254E+02 -0.72448771781E+01  0.44419308111E+02  0.00000000000E+00 0.  1.
</event>
<event>
 7    1  0.3032584E-015  0.9000767E+02  0.7816164E-02  0.1186339E+00
        -11   -1    0    0    0    0  0.00000000000E+00  0.00000000000E+00  0.45593999997E+02  0.45594000000E+02  0.51100000000E-03 0. -1.
         11   -1    0    0    0    0 -0.00000000000E+00 -0.00000000000E+00 -0.45593999997E+02  0.45594000000E+02  0.51100000000E-03 0.  1.
    9900012    2    1    2    0    0 -0.22856316846E+00  0.10325484949E+01 -0.52419852106E+00  0.90007668858E+02  0.89999929286E+02 0.  0.
         12    1    1    2    0    0  0.22856316846E+00 -0.10325484949E+01  0.52419852106E+00  0.11803311424E+01  0.00000000000E+00 0. -1.
         11    1    3    3    0    0 -0.17746579021E+02 -0.25735385804E+02  0.25152596705E+02  0.40123612383E+02  0.51100000000E-03 0. -1.
        -11    1    3    3    0    0 -0.78725857430E+01  0.73642346129E+01 -0.56461287170E+01  0.12169154756E+02  0.51100000000E-03 0.  1.
        -12    1    3    3    0    0  0.25390601595E+02  0.19403699686E+02 -0.20030666509E+02  0.37714901719E+02  0.00000000000E+00 0.  1.
</event>
<event>
 7    1  0.3032584E-015  0.9000778E+02  0.7816164E-02  0.1186339E+00
        -11   -1    0    0    0    0  0.00000000000E+00  0.00000000000E+00  0.45593999997E+02  0.45594000000E+02  0.51100000000E-03 0.  1.
         11   -1    0    0    0    0 -0.00000000000E+00 -0.00000000000E+00 -0.45593999997E+02  0.45594000000E+02  0.51100000000E-03 0. -1.
    9900012    2    1    2    0    0 -0.25938846788E+00  0.59524330034E-01  0.11498283995E+01  0.90007775076E+02  0.90000036907E+02 0.  0.
         12    1    1    2    0    0  0.25938846788E+00 -0.59524330034E-01 -0.11498283995E+01  0.11802249241E+01  0.00000000000E+00 0. -1.
         11    1    3    3    0    0 -0.34812090296E+01  0.56635009479E+01 -0.37193596209E+02  0.37783034003E+02  0.51100000000E-03 0. -1.
        -11    1    3    3    0    0  0.79165260200E+01  0.64319301780E+01 -0.15267779675E+01  0.10313688053E+02  0.51100000000E-03 0.  1.
        -12    1    3    3    0    0 -0.46947054583E+01 -0.12035906796E+02  0.39870202576E+02  0.41911053019E+02  0.00000000000E+00 0.  1.
</event>
<event>
 7    1  0.3260137E-015  0.9000777E+02  0.7816164E-02  0.1186339E+00
        -11   -1    0    0    0    0  0.00000000000E+00  0.00000000000E+00  0.45593999997E+02  0.45594000000E+02  0.51100000000E-03 0. -1.
         11   -1    0    0    0    0 -0.00000000000E+00 -0.00000000000E+00 -0.45593999997E+02  0.45594000000E+02  0.51100000000E-03 0.  1.
    9900012    2    1    2    0    0 -0.31540588662E+00  0.83078862306E+00 -0.77668930633E+00  0.90007772527E+02  0.90000034324E+02 0.  0.
         12    1    1    2    0    0  0.31540588662E+00 -0.83078862306E+00  0.77668930633E+00  0.11802274730E+01  0.00000000000E+00 0. -1.
         11    1    3    3    0    0  0.15822728358E+02  0.18542622492E+02  0.35105560940E+02  0.42738600711E+02  0.51100000000E-03 0. -1.
        -11    1    3    3    0    0 -0.62359663704E+01 -0.67296590672E+01 -0.81401427697E+00  0.92107658334E+01  0.51100000000E-03 0.  1.
        -12    1    3    3    0    0 -0.99021678740E+01 -0.10982174801E+02 -0.35068235969E+02  0.38058405983E+02  0.00000000000E+00 0.  1.
</event>
<event>
 7    1  0.3032584E-015  0.9000772E+02  0.7816164E-02  0.1186339E+00
        -11   -1    0    0    0    0  0.00000000000E+00  0.00000000000E+00  0.45593999997E+02  0.45594000000E+02  0.51100000000E-03 0.  1.
         11   -1    0    0    0    0 -0.00000000000E+00 -0.00000000000E+00 -0.45593999997E+02  0.45594000000E+02  0.51100000000E-03 0. -1.
    9900012    2    1    2    0    0 -0.79440986196E+00 -0.40548739333E+00 -0.77301329797E+00  0.90007721807E+02  0.89999982934E+02 0.  0.
         12    1    1    2    0    0  0.79440986196E+00  0.40548739333E+00  0.77301329797E+00  0.11802781934E+01  0.00000000000E+00 0. -1.
         11    1    3    3    0    0  0.58370254355E+01  0.22982240494E+00 -0.27889758666E+02  0.28494952588E+02  0.51100000000E-03 0. -1.
        -11    1    3    3    0    0  0.51759248670E+01 -0.63157755215E+01 -0.15177872855E+02  0.17235052751E+02  0.51100000000E-03 0.  1.
        -12    1    3    3    0    0 -0.11807360165E+02  0.56804657232E+01  0.42294618224E+02  0.44277716467E+02  0.00000000000E+00 0.  1.
</event>
<event>
 7    1  0.3032584E-015  0.9000796E+02  0.7816164E-02  0.1186339E+00
        -11   -1    0    0    0    0  0.00000000000E+00  0.00000000000E+00  0.45593999997E+02  0.45594000000E+02  0.51100000000E-03 0.  1.
         11   -1    0    0    0    0 -0.00000000000E+00 -0.00000000000E+00 -0.45593999997E+02  0.45594000000E+02  0.51100000000E-03 0. -1.
    9900012    2    1    2    0    0 -0.91069452598E+00  0.74619970931E+00  0.79479125248E-01  0.90007959553E+02  0.90000223819E+02 0.  0.
         12    1    1    2    0    0  0.91069452598E+00 -0.74619970931E+00 -0.79479125248E-01  0.11800404473E+01  0.00000000000E+00 0. -1.
         11    1    3    3    0    0 -0.25703601799E+01 -0.35482286197E+02  0.18515526643E+02  0.40105163163E+02  0.51100000000E-03 0. -1.
        -11    1    3    3    0    0  0.11060157488E+02  0.33821376996E+01 -0.11759506369E+01  0.11625351575E+02  0.51100000000E-03 0.  1.
        -12    1    3    3    0    0 -0.94004918339E+01  0.32846348207E+02 -0.17260096881E+02  0.38277444815E+02  0.00000000000E+00 0.  1.
</event>
<event>
 7    1  0.3032584E-015  0.9000774E+02  0.7816164E-02  0.1186339E+00
        -11   -1    0    0    0    0  0.00000000000E+00  0.00000000000E+00  0.45593999997E+02  0.45594000000E+02  0.51100000000E-03 0. -1.
         11   -1    0    0    0    0 -0.00000000000E+00 -0.00000000000E+00 -0.45593999997E+02  0.45594000000E+02  0.51100000000E-03 0.  1.
    9900012    2    1    2    0    0  0.63340956465E+00  0.99531252243E+00 -0.34152694632E-01  0.90007736851E+02  0.89999998178E+02 0.  0.
         12    1    1    2    0    0 -0.63340956465E+00 -0.99531252243E+00  0.34152694632E-01  0.11802631488E+01  0.00000000000E+00 0. -1.
         11    1    3    3    0    0 -0.86677507659E+01  0.38392110846E+02  0.79030882001E+01  0.40144026728E+02  0.51100000000E-03 0. -1.
        -11    1    3    3    0    0  0.71628214017E+01  0.36269244215E+01 -0.25988647616E+01  0.84388796355E+01  0.51100000000E-03 0.  1.
        -12    1    3    3    0    0  0.21383389288E+01 -0.41023722745E+02 -0.53383761331E+01  0.41424830488E+02  0.00000000000E+00 0.  1.
</event>
<event>
 7    1  0.3032584E-015  0.9000786E+02  0.7816164E-02  0.1186339E+00
        -11   -1    0    0    0    0  0.00000000000E+00  0.00000000000E+00  0.45593999997E+02  0.45594000000E+02  0.51100000000E-03 0. -1.
         11   -1    0    0    0    0 -0.00000000000E+00 -0.00000000000E+00 -0.45593999997E+02  0.45594000000E+02  0.51100000000E-03 0.  1.
    9900012    2    1    2    0    0  0.46508262165E+00 -0.97158760019E+00 -0.48213182974E+00  0.90007857885E+02  0.90000120809E+02 0.  0.
         12    1    1    2    0    0 -0.46508262165E+00  0.97158760019E+00  0.48213182974E+00  0.11801421148E+01  0.00000000000E+00 0. -1.
         11    1    3    3    0    0 -0.51464617670E+01 -0.12669859477E+02  0.10394322056E+02  0.17177116730E+02  0.51100000000E-03 0. -1.
        -11    1    3    3    0    0  0.29880668678E+02 -0.11965271226E+02 -0.19786995458E+02  0.37782896470E+02  0.51100000000E-03 0.  1.
         12    1    3    3    0    0 -0.24269124289E+02  0.23663543104E+02  0.89105415722E+01  0.35047844685E+02  0.00000000000E+00 0. -1.
</event>
<event>
 7    1  0.3032584E-015  0.9000771E+02  0.7816164E-02  0.1186339E+00
        -11   -1    0    0    0    0  0.00000000000E+00  0.00000000000E+00  0.45593999997E+02  0.45594000000E+02  0.51100000000E-03 0. -1.
         11   -1    0    0    0    0 -0.00000000000E+00 -0.00000000000E+00 -0.45593999997E+02  0.45594000000E+02  0.51100000000E-03 0.  1.
    9900012    2    1    2    0    0  0.57957176963E+00  0.47837350303E+00 -0.91012866100E+00  0.90007712398E+02  0.89999973401E+02 0.  0.
         12    1    1    2    0    0 -0.57957176963E+00 -0.47837350303E+00  0.91012866100E+00  0.11802876023E+01  0.00000000000E+00 0. -1.
         11    1    3    3    0    0  0.87876351828E+01 -0.14963994236E+01  0.44033488474E+01  0.99423953188E+01  0.51100000000E-03 0. -1.
        -11    1    3    3    0    0  0.35475247895E+02 -0.23235328769E+01  0.18074979368E+01  0.35597177800E+02  0.51100000000E-03 0.  1.
         12    1    3    3    0    0 -0.43683311308E+02  0.42983058035E+01 -0.71209754452E+01  0.44468139279E+02  0.00000000000E+00 0. -1.
</event>
<event>
 7    1  0.3032584E-015  0.9000776E+02  0.7816164E-02  0.1186339E+00
        -11   -1    0    0    0    0  0.00000000000E+00  0.00000000000E+00  0.45593999997E+02  0.45594000000E+02  0.51100000000E-03 0.  1.
         11   -1    0    0    0    0 -0.00000000000E+00 -0.00000000000E+00 -0.45593999997E+02  0.45594000000E+02  0.51100000000E-03 0. -1.
    9900012    2    1    2    0    0  0.69955606870E+00  0.84699802068E+00  0.43149829647E+00  0.90007756330E+02  0.90000017914E+02 0.  0.
         12    1    1    2    0    0 -0.69955606870E+00 -0.84699802068E+00 -0.43149829647E+00  0.11802436698E+01  0.00000000000E+00 0. -1.
         11    1    3    3    0    0  0.39355172807E+00 -0.55709388905E+01  0.78174348954E+01  0.96074206575E+01  0.51100000000E-03 0. -1.
        -11    1    3    3    0    0 -0.26485884066E+02  0.32699156100E+01  0.26148517411E+02  0.37362271959E+02  0.51100000000E-03 0.  1.
         12    1    3    3    0    0  0.26791888407E+02  0.31480213012E+01 -0.33534454010E+02  0.43038063714E+02  0.00000000000E+00 0. -1.
</event>
<event>
 7    1  0.3032584E-015  0.9000767E+02  0.7816164E-02  0.1186339E+00
        -11   -1    0    0    0    0  0.00000000000E+00  0.00000000000E+00  0.45593999997E+02  0.45594000000E+02  0.51100000000E-03 0.  1.
         11   -1    0    0    0    0 -0.00000000000E+00 -0.00000000000E+00 -0.45593999997E+02  0.45594000000E+02  0.51100000000E-03 0. -1.
    9900012    2    1    2    0    0  0.10087015576E+00 -0.85857209996E+00  0.80364644304E+00  0.90007674433E+02  0.89999934935E+02 0.  0.
         12    1    1    2    0    0 -0.10087015576E+00  0.85857209996E+00 -0.80364644304E+00  0.11803255672E+01  0.00000000000E+00 0. -1.
         11    1    3    3    0    0  0.31579671932E+02  0.82466230901E+01 -0.29322240699E+02  0.43875691124E+02  0.51100000000E-03 0. -1.
        -11    1    3    3    0    0 -0.26638536306E+01 -0.24387371385E+01  0.92513162523E+01  0.99312842904E+01  0.51100000000E-03 0.  1.
        -12    1    3    3    0    0 -0.28814948146E+02 -0.66664580515E+01  0.20874570889E+02  0.36200699018E+02  0.00000000000E+00 0.  1.
</event>
<event>
 7    1  0.3032584E-015  0.9000780E+02  0.7816164E-02  0.1186339E+00
        -11   -1    0    0    0    0  0.00000000000E+00  0.00000000000E+00  0.45593999997E+02  0.45594000000E+02  0.51100000000E-03 0.  1.
         11   -1    0    0    0    0 -0.00000000000E+00 -0.00000000000E+00 -0.45593999997E+02  0.45594000000E+02  0.51100000000E-03 0. -1.
    9900012    2    1    2    0    0 -0.10762461952E+01 -0.18080034720E+00  0.44930866557E+00  0.90007799629E+02  0.90000061784E+02 0.  0.
         12    1    1    2    0    0  0.10762461952E+01  0.18080034720E+00 -0.44930866557E+00  0.11802003708E+01  0.00000000000E+00 0. -1.
         11    1    3    3    0    0  0.15581413656E+01 -0.10271808350E+00 -0.43233269519E+01  0.45966848613E+01  0.51100000000E-03 0. -1.
        -11    1    3    3    0    0  0.21474816853E+02  0.28669799107E+02  0.24132500123E+02  0.43191465617E+02  0.51100000000E-03 0.  1.
         12    1    3    3    0    0 -0.24109204414E+02 -0.28747881371E+02 -0.19359864505E+02  0.42219649151E+02  0.00000000000E+00 0. -1.
</event>
<event>
 7    1  0.3032584E-015  0.9000781E+02  0.7816164E-02  0.1186339E+00
        -11   -1    0    0    0    0  0.00000000000E+00  0.00000000000E+00  0.45593999997E+02  0.45594000000E+02  0.51100000000E-03 0.  1.
         11   -1    0    0    0    0 -0.00000000000E+00 -0.00000000000E+00 -0.45593999997E+02  0.45594000000E+02  0.51100000000E-03 0. -1.
    9900012    2    1    2    0    0  0.97432922903E+00  0.26609631776E+00  0.61050772327E+00  0.90007811720E+02  0.90000074034E+02 0.  0.
         12    1    1    2    0    0 -0.97432922903E+00 -0.26609631776E+00 -0.61050772327E+00  0.11801882803E+01  0.00000000000E+00 0. -1.
         11    1    3    3    0    0 -0.37871062821E+02  0.17536455217E+02  0.29350490107E+01  0.41837294053E+02  0.51100000000E-03 0. -1.
        -11    1    3    3    0    0  0.10218814754E+02  0.54034221778E+01  0.24433373428E+00  0.11562043307E+02  0.51100000000E-03 0.  1.
        -12    1    3    3    0    0  0.28626577296E+02 -0.22673781077E+02 -0.25688750217E+01  0.36608474359E+02  0.00000000000E+00 0.  1.
</event>
<event>
 7    1  0.3032584E-015  0.9000779E+02  0.7816164E-02  0.1186339E+00
        -11   -1    0    0    0    0  0.00000000000E+00  0.00000000000E+00  0.45593999997E+02  0.45594000000E+02  0.51100000000E-03 0. -1.
         11   -1    0    0    0    0 -0.00000000000E+00 -0.00000000000E+00 -0.45593999997E+02  0.45594000000E+02  0.51100000000E-03 0.  1.
    9900012    2    1    2    0    0  0.36441480499E+00 -0.40918470988E+00 -0.10453102350E+01  0.90007786560E+02  0.90000048542E+02 0.  0.
         12    1    1    2    0    0 -0.36441480499E+00  0.40918470988E+00  0.10453102350E+01  0.11802134401E+01  0.00000000000E+00 0. -1.
         11    1    3    3    0    0  0.68742760957E+01 -0.50819430806E+01  0.19455050482E+01  0.87673717537E+01  0.51100000000E-03 0. -1.
        -11    1    3    3    0    0  0.29610862941E+02 -0.63760267349E+01 -0.23428518276E+02  0.38292980948E+02  0.51100000000E-03 0.  1.
         12    1    3    3    0    0 -0.36120724232E+02  0.11048785106E+02  0.20437702993E+02  0.42947433858E+02  0.00000000000E+00 0. -1.
</event>
<event>
 7    1  0.3032584E-015  0.9000795E+02  0.7816164E-02  0.1186339E+00
        -11   -1    0    0    0    0  0.00000000000E+00  0.00000000000E+00  0.45593999997E+02  0.45594000000E+02  0.51100000000E-03 0.  1.
         11   -1    0    0    0    0 -0.00000000000E+00 -0.00000000000E+00 -0.45593999997E+02  0.45594000000E+02  0.51100000000E-03 0. -1.
    9900012    2    1    2    0    0 -0.61773129053E+00 -0.63381715476E+00  0.78051762852E+00  0.90007947501E+02  0.90000211607E+02 0.  0.
         12    1    1    2    0    0  0.61773129053E+00  0.63381715476E+00 -0.78051762852E+00  0.11800524994E+01  0.00000000000E+00 0. -1.
         11    1    3    3    0    0 -0.25740106263E+01 -0.85687983955E+01  0.85539506805E+01  0.12378202986E+02  0.51100000000E-03 0. -1.
        -11    1    3    3    0    0 -0.19016113713E+02  0.24768112608E+02  0.21474579063E+02  0.37897619043E+02  0.51100000000E-03 0.  1.
         12    1    3    3    0    0  0.20972393049E+02 -0.16833131368E+02 -0.29248012115E+02  0.39732125472E+02  0.00000000000E+00 0. -1.
</event>
<event>
 7    1  0.3032584E-015  0.9000768E+02  0.7816164E-02  0.1186339E+00
        -11   -1    0    0    0    0  0.00000000000E+00  0.00000000000E+00  0.45593999997E+02  0.45594000000E+02  0.51100000000E-03 0. -1.
         11   -1    0    0    0    0 -0.00000000000E+00 -0.00000000000E+00 -0.45593999997E+02  0.45594000000E+02  0.51100000000E-03 0.  1.
    9900012    2    1    2    0    0  0.99341973407E+00 -0.63576303378E+00  0.45524374650E-01  0.90007682300E+02  0.89999942907E+02 0.  0.
         12    1    1    2    0    0 -0.99341973407E+00  0.63576303378E+00 -0.45524374650E-01  0.11803176995E+01  0.00000000000E+00 0. -1.
         11    1    3    3    0    0  0.14029554780E+00  0.81876127581E+01  0.44310238623E+01  0.93107818278E+01  0.51100000000E-03 0. -1.
        -11    1    3    3    0    0  0.37107060040E+02  0.11481409317E+02  0.59087921096E+00  0.38847211010E+02  0.51100000000E-03 0.  1.
         12    1    3    3    0    0 -0.36253935854E+02 -0.20304785109E+02 -0.49763786986E+01  0.41849689463E+02  0.00000000000E+00 0. -1.
</event>
<event>
 7    1  0.3032584E-015  0.9000775E+02  0.7816164E-02  0.1186339E+00
        -11   -1    0    0    0    0  0.00000000000E+00  0.00000000000E+00  0.45593999997E+02  0.45594000000E+02  0.51100000000E-03 0.  1.
         11   -1    0    0    0    0 -0.00000000000E+00 -0.00000000000E+00 -0.45593999997E+02  0.45594000000E+02  0.51100000000E-03 0. -1.
    9900012    2    1    2    0    0  0.49064952223E+00  0.93985095260E+00  0.51858855137E+00  0.90007749665E+02  0.90000011161E+02 0.  0.
         12    1    1    2    0    0 -0.49064952223E+00 -0.93985095260E+00 -0.51858855137E+00  0.11802503346E+01  0.00000000000E+00 0. -1.
         11    1    3    3    0    0  0.84731722924E+01  0.51313230021E+01 -0.36404150512E+02  0.37727805385E+02  0.51100000000E-03 0. -1.
        -11    1    3    3    0    0  0.62968723904E+01  0.69072539421E+01 -0.18214720153E+01  0.95225269485E+01  0.51100000000E-03 0.  1.
        -12    1    3    3    0    0 -0.14279395161E+02 -0.11098725992E+02  0.38744211078E+02  0.42757417332E+02  0.00000000000E+00 0.  1.
</event>
<event>
 7    1  0.3032584E-015  0.9000774E+02  0.7816164E-02  0.1186339E+00
        -11   -1    0    0    0    0  0.00000000000E+00  0.00000000000E+00  0.45593999997E+02  0.45594000000E+02  0.51100000000E-03 0. -1.
         11   -1    0    0    0    0 -0.00000000000E+00 -0.00000000000E+00 -0.45593999997E+02  0.45594000000E+02  0.51100000000E-03 0.  1.
    9900012    2    1    2    0    0  0.10680933623E+01 -0.49068814073E+00 -0.10685978157E+00  0.90007738463E+02  0.89999999811E+02 0.  0.
         12    1    1    2    0    0 -0.10680933623E+01  0.49068814073E+00  0.10685978157E+00  0.11802615367E+01  0.00000000000E+00 0. -1.
         11    1    3    3    0    0  0.10334117338E+02 -0.18319372588E+00 -0.94975345791E+00  0.10379285765E+02  0.51100000000E-03 0. -1.
        -11    1    3    3    0    0 -0.42840486093E+01  0.18404465290E+02 -0.34495737294E+02  0.39332344283E+02  0.51100000000E-03 0.  1.
         12    1    3    3    0    0 -0.49819753665E+01 -0.18711959705E+02  0.35338630970E+02  0.40296108415E+02  0.00000000000E+00 0. -1.
</event>
<event>
 7    1  0.3032584E-015  0.9000766E+02  0.7816164E-02  0.1186339E+00
        -11   -1    0    0    0    0  0.00000000000E+00  0.00000000000E+00  0.45593999997E+02  0.45594000000E+02  0.51100000000E-03 0. -1.
         11   -1    0    0    0    0 -0.00000000000E+00 -0.00000000000E+00 -0.45593999997E+02  0.45594000000E+02  0.51100000000E-03 0.  1.
    9900012    2    1    2    0    0  0.61984565899E+00  0.23766858730E-01 -0.10042062475E+01  0.90007659502E+02  0.89999919807E+02 0.  0.
         12    1    1    2    0    0 -0.61984565899E+00 -0.23766858730E-01  0.10042062475E+01  0.11803404983E+01  0.00000000000E+00 0. -1.
         11    1    3    3    0    0 -0.11285941168E+02  0.30923167866E+01  0.56642893574E+01  0.13000733262E+02  0.51100000000E-03 0. -1.
        -11    1    3    3    0    0 -0.28524678265E+02 -0.17090389851E+02  0.21226507169E+01  0.33320329255E+02  0.51100000000E-03 0.  1.
         12    1    3    3    0    0  0.40430465092E+02  0.14021839923E+02 -0.87911463218E+01  0.43686596984E+02  0.00000000000E+00 0. -1.
</event>
<event>
 7    1  0.3032584E-015  0.9000766E+02  0.7816164E-02  0.1186339E+00
        -11   -1    0    0    0    0  0.00000000000E+00  0.00000000000E+00  0.45593999997E+02  0.45594000000E+02  0.51100000000E-03 0.  1.
         11   -1    0    0    0    0 -0.00000000000E+00 -0.00000000000E+00 -0.45593999997E+02  0.45594000000E+02  0.51100000000E-03 0. -1.
    9900012    2    1    2    0    0 -0.27956279369E+00 -0.93455625540E+00  0.66456215879E+00  0.90007663771E+02  0.89999924133E+02 0.  0.
         12    1    1    2    0    0  0.27956279369E+00  0.93455625540E+00 -0.66456215879E+00  0.11803362288E+01  0.00000000000E+00 0. -1.
         11    1    3    3    0    0  0.91016416974E+01 -0.26744570213E+02  0.15173012306E+02  0.32067619496E+02  0.51100000000E-03 0. -1.
        -11    1    3    3    0    0 -0.78120753579E+01  0.71817905595E+01  0.17736131006E+02  0.20668260216E+02  0.51100000000E-03 0.  1.
         12    1    3    3    0    0 -0.15691291332E+01  0.18628223398E+02 -0.32244581153E+02  0.37271784059E+02  0.00000000000E+00 0. -1.
</event>
<event>
 7    1  0.3032584E-015  0.9000776E+02  0.7816164E-02  0.1186339E+00
        -11   -1    0    0    0    0  0.00000000000E+00  0.00000000000E+00  0.45593999997E+02  0.45594000000E+02  0.51100000000E-03 0.  1.
         11   -1    0    0    0    0 -0.00000000000E+00 -0.00000000000E+00 -0.45593999997E+02  0.45594000000E+02  0.51100000000E-03 0. -1.
    9900012    2    1    2    0    0  0.99947265108E+00 -0.61926280613E+00 -0.10265343485E+00  0.90007758613E+02  0.90000020227E+02 0.  0.
         12    1    1    2    0    0 -0.99947265108E+00  0.61926280613E+00  0.10265343485E+00  0.11802413867E+01  0.00000000000E+00 0. -1.
         11    1    3    3    0    0  0.15590507814E+02  0.28185480040E+02 -0.17136766077E+01  0.32255571717E+02  0.51100000000E-03 0. -1.
        -11    1    3    3    0    0  0.74910098953E+01  0.10340046334E+02 -0.23656725580E+00  0.12770581497E+02  0.51100000000E-03 0.  1.
        -12    1    3    3    0    0 -0.22082045059E+02 -0.39144789180E+02  0.18475904287E+01  0.44981605400E+02  0.00000000000E+00 0.  1.
</event>
<event>
 7    1  0.3032584E-015  0.9000778E+02  0.7816164E-02  0.1186339E+00
        -11   -1    0    0    0    0  0.00000000000E+00  0.00000000000E+00  0.45593999997E+02  0.45594000000E+02  0.51100000000E-03 0.  1.
         11   -1    0    0    0    0 -0.00000000000E+00 -0.00000000000E+00 -0.45593999997E+02  0.45594000000E+02  0.51100000000E-03 0. -1.
    9900012    2    1    2    0    0 -0.47854605184E+00  0.48374752108E+00  0.96431238021E+00  0.90007781226E+02  0.90000043138E+02 0.  0.
         12    1    1    2    0    0  0.47854605184E+00 -0.48374752108E+00 -0.96431238021E+00  0.11802187740E+01  0.00000000000E+00 0. -1.
         11    1    3    3    0    0 -0.10061933873E+02  0.10814720774E+01  0.18273556696E+01  0.10283546282E+02  0.51100000000E-03 0. -1.
        -11    1    3    3    0    0 -0.19312601374E+02 -0.12067992198E+02  0.28825867865E+02  0.36736135697E+02  0.51100000000E-03 0.  1.
         12    1    3    3    0    0  0.28895989196E+02  0.11470267641E+02 -0.29688911154E+02  0.42988099247E+02  0.00000000000E+00 0. -1.
</event>
<event>
 7    1  0.3032584E-015  0.9000770E+02  0.7816164E-02  0.1186339E+00
        -11   -1    0    0    0    0  0.00000000000E+00  0.00000000000E+00  0.45593999997E+02  0.45594000000E+02  0.51100000000E-03 0.  1.
         11   -1    0    0    0    0 -0.00000000000E+00 -0.00000000000E+00 -0.45593999997E+02  0.45594000000E+02  0.51100000000E-03 0. -1.
    9900012    2    1    2    0    0 -0.41105112374E+00  0.32351214837E+00  0.10580576260E+01  0.90007699582E+02  0.89999960417E+02 0.  0.
         12    1    1    2    0    0  0.41105112374E+00 -0.32351214837E+00 -0.10580576260E+01  0.11803004179E+01  0.00000000000E+00 0. -1.
         11    1    3    3    0    0  0.27953884809E+02  0.51652282536E+01 -0.22625546076E+02  0.36332005096E+02  0.51100000000E-03 0. -1.
        -11    1    3    3    0    0  0.15924756758E+01  0.59844348133E+01 -0.70701701968E+01  0.93987629870E+01  0.51100000000E-03 0.  1.
        -12    1    3    3    0    0 -0.29957411608E+02 -0.10826150919E+02  0.30753773899E+02  0.44276931499E+02  0.00000000000E+00 0.  1.
</event>
<event>
 7    1  0.3032584E-015  0.9000819E+02  0.7816164E-02  0.1186338E+00
        -11   -1    0    0    0    0  0.00000000000E+00  0.00000000000E+00  0.45593999997E+02  0.45594000000E+02  0.51100000000E-03 0. -1.
         11   -1    0    0    0    0 -0.00000000000E+00 -0.00000000000E+00 -0.45593999997E+02  0.45594000000E+02  0.51100000000E-03 0.  1.
    9900012    2    1    2    0    0  0.79065653698E+00  0.70023528526E+00 -0.52581012883E+00  0.90008193446E+02  0.90000460798E+02 0.  0.
         12    1    1    2    0    0 -0.79065653698E+00 -0.70023528526E+00  0.52581012883E+00  0.11798065544E+01  0.00000000000E+00 0. -1.
         11    1    3    3    0    0  0.11790507122E+02  0.27041719510E+02 -0.21805609107E+02  0.36684536811E+02  0.51100000000E-03 0. -1.
        -11    1    3    3    0    0  0.24511258040E+01  0.10042558317E+00 -0.99507684555E+01  0.10248702168E+02  0.51100000000E-03 0.  1.
        -12    1    3    3    0    0 -0.13450976389E+02 -0.26441909808E+02  0.31230567434E+02  0.43074954467E+02  0.00000000000E+00 0.  1.
</event>
<event>
 7    1  0.3032584E-015  0.9000773E+02  0.7816164E-02  0.1186339E+00
        -11   -1    0    0    0    0  0.00000000000E+00  0.00000000000E+00  0.45593999997E+02  0.45594000000E+02  0.51100000000E-03 0. -1.
         11   -1    0    0    0    0 -0.00000000000E+00 -0.00000000000E+00 -0.45593999997E+02  0.45594000000E+02  0.51100000000E-03 0.  1.
    9900012    2    1    2    0    0  0.33968786458E-01  0.45161658929E+00 -0.10899210146E+01  0.90007729167E+02  0.89999990392E+02 0.  0.
         12    1    1    2    0    0 -0.33968786458E-01 -0.45161658929E+00  0.10899210146E+01  0.11802708335E+01  0.00000000000E+00 0. -1.
         11    1    3    3    0    0  0.62412929008E+01 -0.17160447710E+02  0.22496477394E+02  0.28974578480E+02  0.51100000000E-03 0. -1.
        -11    1    3    3    0    0 -0.97741762893E+00 -0.14139503148E+02  0.77185497900E+01  0.16138677319E+02  0.51100000000E-03 0.  1.
        -12    1    3    3    0    0 -0.52299064854E+01  0.31751567447E+02 -0.31304948199E+02  0.44894473367E+02  0.00000000000E+00 0.  1.
</event>
<event>
 7    1  0.3032584E-015  0.9000769E+02  0.7816164E-02  0.1186339E+00
        -11   -1    0    0    0    0  0.00000000000E+00  0.00000000000E+00  0.45593999997E+02  0.45594000000E+02  0.51100000000E-03 0. -1.
         11   -1    0    0    0    0 -0.00000000000E+00 -0.00000000000E+00 -0.45593999997E+02  0.45594000000E+02  0.51100000000E-03 0.  1.
    9900012    2    1    2    0    0  0.48031890036E+00 -0.92767589271E+00  0.54940245130E+00  0.90007689930E+02  0.89999950637E+02 0.  0.
         12    1    1    2    0    0 -0.48031890036E+00  0.92767589271E+00 -0.54940245130E+00  0.11803100700E+01  0.00000000000E+00 0. -1.
         11    1    3    3    0    0 -0.33361703165E+01  0.61286040994E+01 -0.71836878528E+01  0.10014748725E+02  0.51100000000E-03 0. -1.
        -11    1    3    3    0    0 -0.26256462319E+02  0.23957880135E+02 -0.23836933225E+01  0.35623922134E+02  0.51100000000E-03 0.  1.
         12    1    3    3    0    0  0.30072951536E+02 -0.31014160127E+02  0.10116783627E+02  0.44369019072E+02  0.00000000000E+00 0. -1.
</event>
<event>
 7    1  0.3032584E-015  0.9000778E+02  0.7816164E-02  0.1186339E+00
        -11   -1    0    0    0    0  0.00000000000E+00  0.00000000000E+00  0.45593999997E+02  0.45594000000E+02  0.51100000000E-03 0.  1.
         11   -1    0    0    0    0 -0.00000000000E+00 -0.00000000000E+00 -0.45593999997E+02  0.45594000000E+02  0.51100000000E-03 0. -1.
    9900012    2    1    2    0    0 -0.91075119473E+00 -0.10411006340E+00  0.74338612050E+00  0.90007775628E+02  0.90000037466E+02 0.  0.
         12    1    1    2    0    0  0.91075119473E+00  0.10411006340E+00 -0.74338612050E+00  0.11802243720E+01  0.00000000000E+00 0. -1.
         11    1    3    3    0    0  0.33272504073E+01 -0.71023895516E+01  0.99118838880E+01  0.12639619262E+02  0.51100000000E-03 0. -1.
        -11    1    3    3    0    0  0.12660785706E+02 -0.36335924369E+01  0.30354214545E+02  0.33088923065E+02  0.51100000000E-03 0.  1.
         12    1    3    3    0    0 -0.16898787308E+02  0.10631871925E+02 -0.39522712313E+02  0.44279233301E+02  0.00000000000E+00 0. -1.
</event>
<event>
 7    1  0.3032584E-015  0.9000778E+02  0.7816164E-02  0.1186339E+00
        -11   -1    0    0    0    0  0.00000000000E+00  0.00000000000E+00  0.45593999997E+02  0.45594000000E+02  0.51100000000E-03 0.  1.
         11   -1    0    0    0    0 -0.00000000000E+00 -0.00000000000E+00 -0.45593999997E+02  0.45594000000E+02  0.51100000000E-03 0. -1.
    9900012    2    1    2    0    0 -0.11307600977E-01  0.11415375752E+01  0.29948063224E+00  0.90007777755E+02  0.90000039622E+02 0.  0.
         12    1    1    2    0    0  0.11307600977E-01 -0.11415375752E+01 -0.29948063224E+00  0.11802222445E+01  0.00000000000E+00 0. -1.
         11    1    3    3    0    0  0.80849535592E+01 -0.67671496571E+01  0.25452304604E+01  0.10846150787E+02  0.51100000000E-03 0. -1.
        -11    1    3    3    0    0  0.22042346345E+02  0.79186436783E+01  0.27972196230E+02  0.36483060621E+02  0.51100000000E-03 0.  1.
         12    1    3    3    0    0 -0.30138607505E+02 -0.99564460021E-02 -0.30217946059E+02  0.42678566347E+02  0.00000000000E+00 0. -1.
</event>
<event>
 7    1  0.3032584E-015  0.9000773E+02  0.7816164E-02  0.1186339E+00
        -11   -1    0    0    0    0  0.00000000000E+00  0.00000000000E+00  0.45593999997E+02  0.45594000000E+02  0.51100000000E-03 0.  1.
         11   -1    0    0    0    0 -0.00000000000E+00 -0.00000000000E+00 -0.45593999997E+02  0.45594000000E+02  0.51100000000E-03 0. -1.
    9900012    2    1    2    0    0 -0.63890860150E-01  0.13287816201E-01  0.11784694910E+01  0.90007725053E+02  0.89999986224E+02 0.  0.
         12    1    1    2    0    0  0.63890860150E-01 -0.13287816201E-01 -0.11784694910E+01  0.11802749465E+01  0.00000000000E+00 0. -1.
         11    1    3    3    0    0 -0.16157554620E+02 -0.25796460984E+02 -0.19379821891E+02  0.36084643096E+02  0.51100000000E-03 0. -1.
        -11    1    3    3    0    0 -0.65131055765E+01 -0.44977138230E+01 -0.39687412537E+01  0.88544272137E+01  0.51100000000E-03 0.  1.
        -12    1    3    3    0    0  0.22606769336E+02  0.30307462623E+02  0.24527032635E+02  0.45068654744E+02  0.00000000000E+00 0.  1.
</event>
<event>
 7    1  0.3659835E-015  0.9000776E+02  0.7816164E-02  0.1186339E+00
        -11   -1    0    0    0    0  0.00000000000E+00  0.00000000000E+00  0.45593999997E+02  0.45594000000E+02  0.51100000000E-03 0.  1.
         11   -1    0    0    0    0 -0.00000000000E+00 -0.00000000000E+00 -0.45593999997E+02  0.45594000000E+02  0.51100000000E-03 0. -1.
    9900012    2    1    2    0    0 -0.82404163544E+00 -0.10857334000E+00 -0.83793331445E+00  0.90007760606E+02  0.90000022246E+02 0.  0.
         12    1    1    2    0    0  0.82404163544E+00  0.10857334000E+00  0.83793331445E+00  0.11802393937E+01  0.00000000000E+00 0. -1.
         11    1    3    3    0    0  0.27646860539E+02 -0.66628025852E+01  0.20053616356E+02  0.34797835639E+02  0.51100000000E-03 0. -1.
        -11    1    3    3    0    0  0.42108413296E+01 -0.10542864615E+01  0.91778946255E+01  0.10152657517E+02  0.51100000000E-03 0.  1.
        -12    1    3    3    0    0 -0.32681743504E+02  0.76085157067E+01 -0.30069444296E+02  0.45057267449E+02  0.00000000000E+00 0.  1.
</event>
<event>
 7    1  0.3032584E-015  0.9000778E+02  0.7816164E-02  0.1186339E+00
        -11   -1    0    0    0    0  0.00000000000E+00  0.00000000000E+00  0.45593999997E+02  0.45594000000E+02  0.51100000000E-03 0.  1.
         11   -1    0    0    0    0 -0.00000000000E+00 -0.00000000000E+00 -0.45593999997E+02  0.45594000000E+02  0.51100000000E-03 0. -1.
    9900012    2    1    2    0    0 -0.10665137010E+01 -0.37721989898E+00  0.33642779078E+00  0.90007775451E+02  0.90000037287E+02 0.  0.
         12    1    1    2    0    0  0.10665137010E+01  0.37721989898E+00 -0.33642779078E+00  0.11802245485E+01  0.00000000000E+00 0. -1.
         11    1    3    3    0    0 -0.16834725431E+02  0.33538708089E+02 -0.11397239689E+02  0.39219255391E+02  0.51100000000E-03 0. -1.
        -11    1    3    3    0    0  0.19131441223E+01  0.64509561761E+01  0.12972423264E+01  0.68525757152E+01  0.51100000000E-03 0.  1.
        -12    1    3    3    0    0  0.13855067608E+02 -0.40366884164E+02  0.10436425153E+02  0.43935944345E+02  0.00000000000E+00 0.  1.
</event>
<event>
 7    1  0.3032584E-015  0.9000768E+02  0.7816164E-02  0.1186339E+00
        -11   -1    0    0    0    0  0.00000000000E+00  0.00000000000E+00  0.45593999997E+02  0.45594000000E+02  0.51100000000E-03 0.  1.
         11   -1    0    0    0    0 -0.00000000000E+00 -0.00000000000E+00 -0.45593999997E+02  0.45594000000E+02  0.51100000000E-03 0. -1.
    9900012    2    1    2    0    0  0.10339122172E+00  0.11743563027E+01  0.57963161436E-01  0.90007677079E+02  0.89999937616E+02 0.  0.
         12    1    1    2    0    0 -0.10339122172E+00 -0.11743563027E+01 -0.57963161436E-01  0.11803229213E+01  0.00000000000E+00 0. -1.
         11    1    3    3    0    0  0.28403155180E-01 -0.51346645492E+01  0.96756858266E+01  0.10953742888E+02  0.51100000000E-03 0. -1.
        -11    1    3    3    0    0 -0.18661079034E+02 -0.15218477768E+02  0.24649312885E+02  0.34459056317E+02  0.51100000000E-03 0.  1.
         12    1    3    3    0    0  0.18736067101E+02  0.21527498620E+02 -0.34267035550E+02  0.44594877874E+02  0.00000000000E+00 0. -1.
</event>
<event>
 7    1  0.3032584E-015  0.9000767E+02  0.7816164E-02  0.1186339E+00
        -11   -1    0    0    0    0  0.00000000000E+00  0.00000000000E+00  0.45593999997E+02  0.45594000000E+02  0.51100000000E-03 0.  1.
         11   -1    0    0    0    0 -0.00000000000E+00 -0.00000000000E+00 -0.45593999997E+02  0.45594000000E+02  0.51100000000E-03 0. -1.
    9900012    2    1    2    0    0  0.28225159439E+00  0.54576726172E+00  0.10077981132E+01  0.90007667461E+02  0.89999927871E+02 0.  0.
         12    1    1    2    0    0 -0.28225159439E+00 -0.54576726172E+00 -0.10077981132E+01  0.11803325393E+01  0.00000000000E+00 0. -1.
         11    1    3    3    0    0  0.10984283853E+02 -0.89248011848E+01 -0.26740454907E+02  0.30254892114E+02  0.51100000000E-03 0. -1.
        -11    1    3    3    0    0  0.58535321613E+01 -0.29520205777E+01 -0.12713551144E+02  0.14304287721E+02  0.51100000000E-03 0.  1.
        -12    1    3    3    0    0 -0.16555564420E+02  0.12422589024E+02  0.40461804164E+02  0.45448487626E+02  0.00000000000E+00 0.  1.
</event>
<event>
 7    1  0.3032584E-015  0.9000704E+02  0.7816164E-02  0.1186340E+00
        -11   -1    0    0    0    0  0.00000000000E+00  0.00000000000E+00  0.45593999997E+02  0.45594000000E+02  0.51100000000E-03 0. -1.
         11   -1    0    0    0    0 -0.00000000000E+00 -0.00000000000E+00 -0.45593999997E+02  0.45594000000E+02  0.51100000000E-03 0.  1.
    9900012    2    1    2    0    0 -0.72296242025E+00 -0.89326704633E-01 -0.92952372179E+00  0.90007039259E+02  0.89999291375E+02 0.  0.
         12    1    1    2    0    0  0.72296242025E+00  0.89326704633E-01  0.92952372179E+00  0.11809607405E+01  0.00000000000E+00 0. -1.
         11    1    3    3    0    0 -0.30327603203E+00  0.25947904985E+01 -0.81467234793E+01  0.85553502436E+01  0.51100000000E-03 0. -1.
        -11    1    3    3    0    0  0.28273793555E+02  0.25902758109E+02 -0.60738169263E+01  0.38823337466E+02  0.51100000000E-03 0.  1.
         12    1    3    3    0    0 -0.28693479944E+02 -0.28586875312E+02  0.13291016684E+02  0.42628351550E+02  0.00000000000E+00 0. -1.
</event>
<event>
 7    1  0.3267055E-015  0.9000776E+02  0.7816164E-02  0.1186339E+00
        -11   -1    0    0    0    0  0.00000000000E+00  0.00000000000E+00  0.45593999997E+02  0.45594000000E+02  0.51100000000E-03 0. -1.
         11   -1    0    0    0    0 -0.00000000000E+00 -0.00000000000E+00 -0.45593999997E+02  0.45594000000E+02  0.51100000000E-03 0.  1.
    9900012    2    1    2    0    0 -0.38776243171E+00  0.98041143254E+00 -0.53047646174E+00  0.90007757840E+02  0.90000019443E+02 0.  0.
         12    1    1    2    0    0  0.38776243171E+00 -0.98041143254E+00  0.53047646174E+00  0.11802421603E+01  0.00000000000E+00 0. -1.
         11    1    3    3    0    0 -0.29096493956E+02 -0.27975421979E+02  0.24577122217E+01  0.40438478521E+02  0.51100000000E-03 0. -1.
        -11    1    3    3    0    0  0.13141685635E+01  0.65387189809E+00 -0.95289012370E+01  0.96412938198E+01  0.51100000000E-03 0.  1.
        -12    1    3    3    0    0  0.27394562960E+02  0.28301961514E+02  0.65407125536E+01  0.39927985499E+02  0.00000000000E+00 0.  1.
</event>
<event>
 7    1  0.3032584E-015  0.9000757E+02  0.7816164E-02  0.1186339E+00
        -11   -1    0    0    0    0  0.00000000000E+00  0.00000000000E+00  0.45593999997E+02  0.45594000000E+02  0.51100000000E-03 0.  1.
         11   -1    0    0    0    0 -0.00000000000E+00 -0.00000000000E+00 -0.45593999997E+02  0.45594000000E+02  0.51100000000E-03 0. -1.
    9900012    2    1    2    0    0  0.73624745331E+00  0.78347893827E+00  0.48735824898E+00  0.90007568883E+02  0.89999827992E+02 0.  0.
         12    1    1    2    0    0 -0.73624745331E+00 -0.78347893827E+00 -0.48735824898E+00  0.11804311170E+01  0.00000000000E+00 0. -1.
         11    1    3    3    0    0 -0.21462398352E+01  0.77206520778E+00  0.75104776421E+01  0.78491849761E+01  0.51100000000E-03 0. -1.
        -11    1    3    3    0    0 -0.83043518047E+01  0.39723782020E+02 -0.43244929122E+01  0.40812281927E+02  0.51100000000E-03 0.  1.
         12    1    3    3    0    0  0.11186839093E+02 -0.39712368290E+02 -0.26986264809E+01  0.41346101980E+02  0.00000000000E+00 0. -1.
</event>
<event>
 7    1  0.3032584E-015  0.9000728E+02  0.7816164E-02  0.1186340E+00
        -11   -1    0    0    0    0  0.00000000000E+00  0.00000000000E+00  0.45593999997E+02  0.45594000000E+02  0.51100000000E-03 0.  1.
         11   -1    0    0    0    0 -0.00000000000E+00 -0.00000000000E+00 -0.45593999997E+02  0.45594000000E+02  0.51100000000E-03 0. -1.
    9900012    2    1    2    0    0 -0.60966293201E-02  0.68603152162E+00  0.96095362091E+00  0.90007276375E+02  0.89999531622E+02 0.  0.
         12    1    1    2    0    0  0.60966293201E-02 -0.68603152162E+00 -0.96095362091E+00  0.11807236252E+01  0.00000000000E+00 0. -1.
         11    1    3    3    0    0  0.23050500925E+01  0.12061203940E+02  0.44942001036E+01  0.13076074764E+02  0.51100000000E-03 0. -1.
        -11    1    3    3    0    0 -0.99305518510E+01 -0.36987768875E+02  0.18279944121E+02  0.42436626442E+02  0.51100000000E-03 0.  1.
         12    1    3    3    0    0  0.76194051292E+01  0.25612596457E+02 -0.21813190603E+02  0.34494575169E+02  0.00000000000E+00 0. -1.
</event>
<event>
 7    1  0.3032584E-015  0.9000776E+02  0.7816164E-02  0.1186339E+00
        -11   -1    0    0    0    0  0.00000000000E+00  0.00000000000E+00  0.45593999997E+02  0.45594000000E+02  0.51100000000E-03 0. -1.
         11   -1    0    0    0    0 -0.00000000000E+00 -0.00000000000E+00 -0.45593999997E+02  0.45594000000E+02  0.51100000000E-03 0.  1.
    9900012    2    1    2    0    0  0.10343931394E+01 -0.53086064516E+00 -0.20294001045E+00  0.90007759838E+02  0.90000021468E+02 0.  0.
         12    1    1    2    0    0 -0.10343931394E+01  0.53086064516E+00  0.20294001045E+00  0.11802401617E+01  0.00000000000E+00 0. -1.
         11    1    3    3    0    0 -0.98719832838E+01 -0.17892740746E+01 -0.39517453361E+01  0.10783035154E+02  0.51100000000E-03 0. -1.
        -11    1    3    3    0    0  0.10189404969E+02  0.37867074478E+02 -0.93908926508E+01  0.40322799607E+02  0.51100000000E-03 0.  1.
         12    1    3    3    0    0  0.71697145412E+00 -0.36608661048E+02  0.13139697976E+02  0.38901925077E+02  0.00000000000E+00 0. -1.
</event>
<event>
 7    1  0.3032584E-015  0.9000777E+02  0.7816164E-02  0.1186339E+00
        -11   -1    0    0    0    0  0.00000000000E+00  0.00000000000E+00  0.45593999997E+02  0.45594000000E+02  0.51100000000E-03 0. -1.
         11   -1    0    0    0    0 -0.00000000000E+00 -0.00000000000E+00 -0.45593999997E+02  0.45594000000E+02  0.51100000000E-03 0.  1.
    9900012    2    1    2    0    0 -0.10862881159E+01 -0.41118012720E+00 -0.20941196652E+00  0.90007769370E+02  0.90000031126E+02 0.  0.
         12    1    1    2    0    0  0.10862881159E+01  0.41118012720E+00  0.20941196652E+00  0.11802306298E+01  0.00000000000E+00 0. -1.
         11    1    3    3    0    0  0.54732638238E+01 -0.21475896109E+01 -0.18494711485E+01  0.61635462043E+01  0.51100000000E-03 0. -1.
        -11    1    3    3    0    0  0.38308198071E+02 -0.35157401248E+01  0.35284151735E+01  0.38630663752E+02  0.51100000000E-03 0.  1.
         12    1    3    3    0    0 -0.44867750010E+02  0.52521496085E+01 -0.18883559915E+01  0.45213559414E+02  0.00000000000E+00 0. -1.
</event>
<event>
 7    1  0.3032584E-015  0.9000771E+02  0.7816164E-02  0.1186339E+00
        -11   -1    0    0    0    0  0.00000000000E+00  0.00000000000E+00  0.45593999997E+02  0.45594000000E+02  0.51100000000E-03 0.  1.
         11   -1    0    0    0    0 -0.00000000000E+00 -0.00000000000E+00 -0.45593999997E+02  0.45594000000E+02  0.51100000000E-03 0. -1.
    9900012    2    1    2    0    0  0.71264977585E+00  0.18936172358E+00  0.92160448039E+00  0.90007710890E+02  0.89999971874E+02 0.  0.
         12    1    1    2    0    0 -0.71264977585E+00 -0.18936172358E+00 -0.92160448039E+00  0.11802891102E+01  0.00000000000E+00 0. -1.
         11    1    3    3    0    0 -0.39275308973E+02  0.43504612054E+01  0.18425160098E+01  0.39558453877E+02  0.51100000000E-03 0. -1.
        -11    1    3    3    0    0 -0.29735348593E+00 -0.96547594906E+01 -0.15689233456E+01  0.97859246187E+01  0.51100000000E-03 0.  1.
        -12    1    3    3    0    0  0.40285312234E+02  0.54936600088E+01  0.64801181611E+00  0.40663332395E+02  0.00000000000E+00 0.  1.
</event>
<event>
 7    1  0.3032584E-015  0.9000756E+02  0.7816164E-02  0.1186339E+00
        -11   -1    0    0    0    0  0.00000000000E+00  0.00000000000E+00  0.45593999997E+02  0.45594000000E+02  0.51100000000E-03 0.  1.
         11   -1    0    0    0    0 -0.00000000000E+00 -0.00000000000E+00 -0.45593999997E+02  0.45594000000E+02  0.51100000000E-03 0. -1.
    9900012    2    1    2    0    0  0.82877932268E+00 -0.62162884857E+00  0.56580119378E+00  0.90007564241E+02  0.89999823288E+02 0.  0.
         12    1    1    2    0    0 -0.82877932268E+00  0.62162884857E+00 -0.56580119378E+00  0.11804357593E+01  0.00000000000E+00 0. -1.
         11    1    3    3    0    0 -0.14524634349E+01  0.60863015703E+00 -0.13472637845E+02  0.13564366976E+02  0.51100000000E-03 0. -1.
        -11    1    3    3    0    0 -0.28937122251E+02 -0.23066520141E+02  0.81647994402E+01  0.37895716721E+02  0.51100000000E-03 0.  1.
         12    1    3    3    0    0  0.31218365009E+02  0.21836261136E+02  0.58736395982E+01  0.38547480544E+02  0.00000000000E+00 0. -1.
</event>
<event>
 7    1  0.3032584E-015  0.9000780E+02  0.7816164E-02  0.1186339E+00
        -11   -1    0    0    0    0  0.00000000000E+00  0.00000000000E+00  0.45593999997E+02  0.45594000000E+02  0.51100000000E-03 0. -1.
         11   -1    0    0    0    0 -0.00000000000E+00 -0.00000000000E+00 -0.45593999997E+02  0.45594000000E+02  0.51100000000E-03 0.  1.
    9900012    2    1    2    0    0 -0.90865353122E+00  0.29212382554E+00 -0.69418420638E+00  0.90007796932E+02  0.90000059052E+02 0.  0.
         12    1    1    2    0    0  0.90865353122E+00 -0.29212382554E+00  0.69418420638E+00  0.11802030680E+01  0.00000000000E+00 0. -1.
         11    1    3    3    0    0  0.24783892438E+02  0.21044139766E+02  0.27444083080E+02  0.42547324701E+02  0.51100000000E-03 0. -1.
        -11    1    3    3    0    0 -0.23740241993E+01  0.18145532361E+01 -0.96742208261E+01  0.10125173737E+02  0.51100000000E-03 0.  1.
        -12    1    3    3    0    0 -0.23318521770E+02 -0.22566569177E+02 -0.18464046461E+02  0.37335298494E+02  0.00000000000E+00 0.  1.
</event>
<event>
 7    1  0.3350956E-015  0.9000762E+02  0.7816164E-02  0.1186339E+00
        -11   -1    0    0    0    0  0.00000000000E+00  0.00000000000E+00  0.45593999997E+02  0.45594000000E+02  0.51100000000E-03 0. -1.
         11   -1    0    0    0    0 -0.00000000000E+00 -0.00000000000E+00 -0.45593999997E+02  0.45594000000E+02  0.51100000000E-03 0.  1.
    9900012    2    1    2    0    0 -0.11444843282E+01 -0.10779338655E+00 -0.26799670935E+00  0.90007624624E+02  0.89999884469E+02 0.  0.
         12    1    1    2    0    0  0.11444843282E+01  0.10779338655E+00  0.26799670935E+00  0.11803753758E+01  0.00000000000E+00 0. -1.
         11    1    3    3    0    0  0.93884640453E+01  0.37258647802E+02 -0.11024942765E+01  0.38439115327E+02  0.51100000000E-03 0. -1.
        -11    1    3    3    0    0  0.89603457876E+01 -0.33775805218E+00  0.35275892512E+01  0.96356506434E+01  0.51100000000E-03 0.  1.
        -12    1    3    3    0    0 -0.19493294161E+02 -0.37028683137E+02 -0.26930916841E+01  0.41932858654E+02  0.00000000000E+00 0.  1.
</event>
<event>
 7    1  0.3249513E-015  0.9000773E+02  0.7816164E-02  0.1186339E+00
        -11   -1    0    0    0    0  0.00000000000E+00  0.00000000000E+00  0.45593999997E+02  0.45594000000E+02  0.51100000000E-03 0.  1.
         11   -1    0    0    0    0 -0.00000000000E+00 -0.00000000000E+00 -0.45593999997E+02  0.45594000000E+02  0.51100000000E-03 0. -1.
    9900012    2    1    2    0    0  0.13353433835E+00 -0.11677438936E+01  0.10755996861E+00  0.90007734620E+02  0.89999995917E+02 0.  0.
         12    1    1    2    0    0 -0.13353433835E+00  0.11677438936E+01 -0.10755996861E+00  0.11802653800E+01  0.00000000000E+00 0. -1.
         11    1    3    3    0    0  0.19321331428E+02  0.29552304181E+02 -0.10095929777E+02  0.36723021784E+02  0.51100000000E-03 0. -1.
        -11    1    3    3    0    0  0.10485709803E+01  0.38941223667E+01 -0.82223096740E+01  0.91580602064E+01  0.51100000000E-03 0.  1.
        -12    1    3    3    0    0 -0.20236368070E+02 -0.34614170442E+02  0.18425799420E+02  0.44126652630E+02  0.00000000000E+00 0.  1.
</event>
<event>
 7    1  0.3032584E-015  0.9000776E+02  0.7816164E-02  0.1186339E+00
        -11   -1    0    0    0    0  0.00000000000E+00  0.00000000000E+00  0.45593999997E+02  0.45594000000E+02  0.51100000000E-03 0.  1.
         11   -1    0    0    0    0 -0.00000000000E+00 -0.00000000000E+00 -0.45593999997E+02  0.45594000000E+02  0.51100000000E-03 0. -1.
    9900012    2    1    2    0    0 -0.42279191674E+00 -0.11016623012E+01  0.23495703536E-01  0.90007760669E+02  0.90000022310E+02 0.  0.
         12    1    1    2    0    0  0.42279191674E+00  0.11016623012E+01 -0.23495703536E-01  0.11802393312E+01  0.00000000000E+00 0. -1.
         11    1    3    3    0    0 -0.35738644702E+02  0.26644855469E+01 -0.26292393699E+01  0.35934149612E+02  0.51100000000E-03 0. -1.
        -11    1    3    3    0    0 -0.85537030120E+01 -0.28050118567E+01 -0.37065527489E+01  0.97351148054E+01  0.51100000000E-03 0.  1.
        -12    1    3    3    0    0  0.43869555797E+02 -0.96113599150E+00  0.63592878223E+01  0.44338496252E+02  0.00000000000E+00 0.  1.
</event>
<event>
 7    1  0.3032584E-015  0.9000776E+02  0.7816164E-02  0.1186339E+00
        -11   -1    0    0    0    0  0.00000000000E+00  0.00000000000E+00  0.45593999997E+02  0.45594000000E+02  0.51100000000E-03 0. -1.
         11   -1    0    0    0    0 -0.00000000000E+00 -0.00000000000E+00 -0.45593999997E+02  0.45594000000E+02  0.51100000000E-03 0.  1.
    9900012    2    1    2    0    0  0.11010829418E+01 -0.42375720664E+00  0.31663887776E-01  0.90007764254E+02  0.90000025942E+02 0.  0.
         12    1    1    2    0    0 -0.11010829418E+01  0.42375720664E+00 -0.31663887776E-01  0.11802357463E+01  0.00000000000E+00 0. -1.
         11    1    3    3    0    0  0.87693746467E+01  0.40480960639E+01  0.41519517915E+00  0.96675436764E+01  0.51100000000E-03 0. -1.
        -11    1    3    3    0    0 -0.18336114985E+02 -0.25531523375E+02  0.28917857720E+02  0.42711992391E+02  0.51100000000E-03 0.  1.
         12    1    3    3    0    0  0.10667823281E+02  0.21059670105E+02 -0.29301389011E+02  0.37628228187E+02  0.00000000000E+00 0. -1.
</event>
<event>
 7    1  0.3032584E-015  0.9000757E+02  0.7816164E-02  0.1186339E+00
        -11   -1    0    0    0    0  0.00000000000E+00  0.00000000000E+00  0.45593999997E+02  0.45594000000E+02  0.51100000000E-03 0.  1.
         11   -1    0    0    0    0 -0.00000000000E+00 -0.00000000000E+00 -0.45593999997E+02  0.45594000000E+02  0.51100000000E-03 0. -1.
    9900012    2    1    2    0    0 -0.27413317922E+00  0.80351079543E+00  0.82014578628E+00  0.90007568846E+02  0.89999827955E+02 0.  0.
         12    1    1    2    0    0  0.27413317922E+00 -0.80351079543E+00 -0.82014578628E+00  0.11804311539E+01  0.00000000000E+00 0. -1.
         11    1    3    3    0    0 -0.50519199684E+01  0.63644350308E+01 -0.40056121183E+01  0.90594071181E+01  0.51100000000E-03 0. -1.
        -11    1    3    3    0    0 -0.36544390155E+02  0.11026830691E+01  0.12003704196E+02  0.38481128835E+02  0.51100000000E-03 0.  1.
         12    1    3    3    0    0  0.41322176944E+02 -0.66636073045E+01 -0.71779462912E+01  0.42467032893E+02  0.00000000000E+00 0. -1.
</event>
<event>
 7    1  0.3032584E-015  0.9000770E+02  0.7816164E-02  0.1186339E+00
        -11   -1    0    0    0    0  0.00000000000E+00  0.00000000000E+00  0.45593999997E+02  0.45594000000E+02  0.51100000000E-03 0.  1.
         11   -1    0    0    0    0 -0.00000000000E+00 -0.00000000000E+00 -0.45593999997E+02  0.45594000000E+02  0.51100000000E-03 0. -1.
    9900012    2    1    2    0    0 -0.91493120208E+00 -0.53568112254E+00  0.51869507760E+00  0.90007704294E+02  0.89999965191E+02 0.  0.
         12    1    1    2    0    0  0.91493120208E+00  0.53568112254E+00 -0.51869507760E+00  0.11802957058E+01  0.00000000000E+00 0. -1.
         11    1    3    3    0    0  0.28081055879E+02 -0.15409847989E+02 -0.25071256617E+02  0.40676492264E+02  0.51100000000E-03 0. -1.
        -11    1    3    3    0    0 -0.25288188028E+01 -0.64576875265E+01  0.93939659659E+01  0.11676611219E+02  0.51100000000E-03 0.  1.
        -12    1    3    3    0    0 -0.26467168278E+02  0.21331854393E+02  0.16195985729E+02  0.37654600811E+02  0.00000000000E+00 0.  1.
</event>
<event>
 7    1  0.3032584E-015  0.9000735E+02  0.7816164E-02  0.1186340E+00
        -11   -1    0    0    0    0  0.00000000000E+00  0.00000000000E+00  0.45593999997E+02  0.45594000000E+02  0.51100000000E-03 0.  1.
         11   -1    0    0    0    0 -0.00000000000E+00 -0.00000000000E+00 -0.45593999997E+02  0.45594000000E+02  0.51100000000E-03 0. -1.
    9900012    2    1    2    0    0 -0.10567836105E+01 -0.48479160026E+00 -0.20524095558E+00  0.90007348339E+02  0.89999604536E+02 0.  0.
         12    1    1    2    0    0  0.10567836105E+01  0.48479160026E+00  0.20524095558E+00  0.11806516611E+01  0.00000000000E+00 0. -1.
         11    1    3    3    0    0  0.17782366309E+01  0.15897115278E+02 -0.33627528380E+02  0.37238301047E+02  0.51100000000E-03 0. -1.
        -11    1    3    3    0    0  0.63561038574E+01  0.91113143076E+01  0.20219273051E+01  0.11291779972E+02  0.51100000000E-03 0.  1.
        -12    1    3    3    0    0 -0.91911240988E+01 -0.25493221186E+02  0.31400360119E+02  0.41477267319E+02  0.00000000000E+00 0.  1.
</event>
<event>
 7    1  0.3032584E-015  0.9000779E+02  0.7816164E-02  0.1186339E+00
        -11   -1    0    0    0    0  0.00000000000E+00  0.00000000000E+00  0.45593999997E+02  0.45594000000E+02  0.51100000000E-03 0.  1.
         11   -1    0    0    0    0 -0.00000000000E+00 -0.00000000000E+00 -0.45593999997E+02  0.45594000000E+02  0.51100000000E-03 0. -1.
    9900012    2    1    2    0    0  0.92759535094E+00  0.52446551648E+00  0.50733700149E+00  0.90007793219E+02  0.90000055289E+02 0.  0.
         12    1    1    2    0    0 -0.92759535094E+00 -0.52446551648E+00 -0.50733700149E+00  0.11802067811E+01  0.00000000000E+00 0. -1.
         11    1    3    3    0    0 -0.15615149635E+01 -0.30140006565E+02 -0.27207647854E+02  0.40633907353E+02  0.51100000000E-03 0. -1.
        -11    1    3    3    0    0 -0.51372089857E+01 -0.25164803315E+01  0.86000634557E+01  0.10328827674E+02  0.51100000000E-03 0.  1.
        -12    1    3    3    0    0  0.76263193001E+01  0.33180952413E+02  0.19114921400E+02  0.39045058192E+02  0.00000000000E+00 0.  1.
</event>
<event>
 7    1  0.3032584E-015  0.9000781E+02  0.7816164E-02  0.1186339E+00
        -11   -1    0    0    0    0  0.00000000000E+00  0.00000000000E+00  0.45593999997E+02  0.45594000000E+02  0.51100000000E-03 0.  1.
         11   -1    0    0    0    0 -0.00000000000E+00 -0.00000000000E+00 -0.45593999997E+02  0.45594000000E+02  0.51100000000E-03 0. -1.
    9900012    2    1    2    0    0  0.22747324218E+00  0.61006298084E+00  0.98433700423E+00  0.90007813466E+02  0.90000075804E+02 0.  0.
         12    1    1    2    0    0 -0.22747324218E+00 -0.61006298084E+00 -0.98433700423E+00  0.11801865337E+01  0.00000000000E+00 0. -1.
         11    1    3    3    0    0 -0.32070318633E+01  0.31667220188E+01 -0.10034669003E+02  0.11000352902E+02  0.51100000000E-03 0. -1.
        -11    1    3    3    0    0 -0.23341082614E+02 -0.31065413816E+02  0.87534815464E+01  0.39830760884E+02  0.51100000000E-03 0.  1.
         12    1    3    3    0    0  0.26775587720E+02  0.28508754778E+02  0.22655244607E+01  0.39176699680E+02  0.00000000000E+00 0. -1.
</event>
<event>
 7    1  0.3032584E-015  0.9000782E+02  0.7816164E-02  0.1186339E+00
        -11   -1    0    0    0    0  0.00000000000E+00  0.00000000000E+00  0.45593999997E+02  0.45594000000E+02  0.51100000000E-03 0.  1.
         11   -1    0    0    0    0 -0.00000000000E+00 -0.00000000000E+00 -0.45593999997E+02  0.45594000000E+02  0.51100000000E-03 0. -1.
    9900012    2    1    2    0    0 -0.11780266955E+01  0.56214807199E-01  0.43771815616E-01  0.90007820788E+02  0.90000083223E+02 0.  0.
         12    1    1    2    0    0  0.11780266955E+01 -0.56214807199E-01 -0.43771815616E-01  0.11801792117E+01  0.00000000000E+00 0. -1.
         11    1    3    3    0    0 -0.73523600172E+01 -0.17393608436E+00 -0.10165423846E+02  0.12546843978E+02  0.51100000000E-03 0. -1.
        -11    1    3    3    0    0 -0.13957078764E+02 -0.11632824254E+02  0.37417762383E+02  0.41595812166E+02  0.51100000000E-03 0.  1.
         12    1    3    3    0    0  0.20131412085E+02  0.11862975146E+02 -0.27208566722E+02  0.35865164644E+02  0.00000000000E+00 0. -1.
</event>
<event>
 7    1  0.3032584E-015  0.9000802E+02  0.7816164E-02  0.1186338E+00
        -11   -1    0    0    0    0  0.00000000000E+00  0.00000000000E+00  0.45593999997E+02  0.45594000000E+02  0.51100000000E-03 0.  1.
         11   -1    0    0    0    0 -0.00000000000E+00 -0.00000000000E+00 -0.45593999997E+02  0.45594000000E+02  0.51100000000E-03 0. -1.
    9900012    2    1    2    0    0  0.11152928295E+01  0.30397023969E+00  0.23681667722E+00  0.90008017737E+02  0.90000282771E+02 0.  0.
         12    1    1    2    0    0 -0.11152928295E+01 -0.30397023969E+00 -0.23681667722E+00  0.11799822629E+01  0.00000000000E+00 0. -1.
         11    1    3    3    0    0  0.33582030771E+02 -0.16532825492E+02 -0.45080279750E+01  0.37701583865E+02  0.51100000000E-03 0. -1.
        -11    1    3    3    0    0  0.66808597176E+01  0.65670520928E+01  0.71168267579E+01  0.11764747474E+02  0.51100000000E-03 0.  1.
        -12    1    3    3    0    0 -0.39147597659E+02  0.10269743639E+02 -0.23719821057E+01  0.40541686398E+02  0.00000000000E+00 0.  1.
</event>
<event>
 7    1  0.3032584E-015  0.9000781E+02  0.7816164E-02  0.1186339E+00
        -11   -1    0    0    0    0  0.00000000000E+00  0.00000000000E+00  0.45593999997E+02  0.45594000000E+02  0.51100000000E-03 0. -1.
         11   -1    0    0    0    0 -0.00000000000E+00 -0.00000000000E+00 -0.45593999997E+02  0.45594000000E+02  0.51100000000E-03 0.  1.
    9900012    2    1    2    0    0 -0.90140068400E-01 -0.11758843111E+01 -0.45008242953E-01  0.90007807267E+02  0.90000069523E+02 0.  0.
         12    1    1    2    0    0  0.90140068400E-01  0.11758843111E+01  0.45008242953E-01  0.11801927330E+01  0.00000000000E+00 0. -1.
         11    1    3    3    0    0  0.21328166009E+01  0.81798589004E+01 -0.79578170157E+00  0.84907165223E+01  0.51100000000E-03 0. -1.
        -11    1    3    3    0    0 -0.36607473197E+02 -0.50390964802E+01 -0.19082089356E+02  0.41588769177E+02  0.51100000000E-03 0.  1.
         12    1    3    3    0    0  0.34384516527E+02 -0.43166467314E+01  0.19832862815E+02  0.39928321568E+02  0.00000000000E+00 0. -1.
</event>
<event>
 7    1  0.3032584E-015  0.9000767E+02  0.7816164E-02  0.1186339E+00
        -11   -1    0    0    0    0  0.00000000000E+00  0.00000000000E+00  0.45593999997E+02  0.45594000000E+02  0.51100000000E-03 0. -1.
         11   -1    0    0    0    0 -0.00000000000E+00 -0.00000000000E+00 -0.45593999997E+02  0.45594000000E+02  0.51100000000E-03 0.  1.
    9900012    2    1    2    0    0  0.99940444187E+00  0.43019332477E+00 -0.45750493246E+00  0.90007666870E+02  0.89999927272E+02 0.  0.
         12    1    1    2    0    0 -0.99940444187E+00 -0.43019332477E+00  0.45750493246E+00  0.11803331302E+01  0.00000000000E+00 0. -1.
         11    1    3    3    0    0  0.53997089523E+01  0.91873158426E+00 -0.74035441458E+01  0.92094185849E+01  0.51100000000E-03 0. -1.
        -11    1    3    3    0    0  0.17674992779E+02  0.33992763067E+02  0.10430687244E+02  0.39707839872E+02  0.51100000000E-03 0.  1.
         12    1    3    3    0    0 -0.22075297289E+02 -0.34481301327E+02 -0.34846480310E+01  0.41090408412E+02  0.00000000000E+00 0. -1.
</event>
