<event>
 7    1  0.6726285E-013  0.5052888E+02  0.7816164E-02  0.1300439E+00
        -11   -1    0    0    0    0  0.00000000000E+00  0.00000000000E+00  0.45593999997E+02  0.45594000000E+02  0.51100000000E-03 0.  1.
         11   -1    0    0    0    0 -0.00000000000E+00 -0.00000000000E+00 -0.45593999997E+02  0.45594000000E+02  0.51100000000E-03 0. -1.
    9900012    2    1    2    0    0 -0.86473172874E+01  0.17910297867E+02  0.35462784895E+02  0.50528880747E+02  0.30000063518E+02 0.  0.
         12    1    1    2    0    0  0.86473172874E+01 -0.17910297867E+02 -0.35462784895E+02  0.40659119253E+02  0.00000000000E+00 0. -1.
         11    1    3    3    0    0  0.15373474763E+01 -0.63607416772E+01  0.16826075976E+02  0.18053789213E+02  0.51100000000E-03 0. -1.
        -11    1    3    3    0    0 -0.23231359942E+01  0.98462336633E+01  0.80840521577E+01  0.12949794506E+02  0.51100000000E-03 0.  1.
        -12    1    3    3    0    0 -0.78615287695E+01  0.14424805881E+02  0.10552656761E+02  0.19525297028E+02  0.00000000000E+00 0.  1.
</event>
<event>
 7    1  0.6726285E-013  0.5052886E+02  0.7816164E-02  0.1300439E+00
        -11   -1    0    0    0    0  0.00000000000E+00  0.00000000000E+00  0.45593999997E+02  0.45594000000E+02  0.51100000000E-03 0.  1.
         11   -1    0    0    0    0 -0.00000000000E+00 -0.00000000000E+00 -0.45593999997E+02  0.45594000000E+02  0.51100000000E-03 0. -1.
    9900012    2    1    2    0    0  0.13667225947E+02  0.98591236726E+01  0.37002299736E+02  0.50528861170E+02  0.30000004011E+02 0.  0.
         12    1    1    2    0    0 -0.13667225947E+02 -0.98591236726E+01 -0.37002299736E+02  0.40659138830E+02  0.00000000000E+00 0. -1.
         11    1    3    3    0    0  0.67106306861E+01  0.40601056241E+01  0.32900828542E+01  0.85053904868E+01  0.51100000000E-03 0. -1.
        -11    1    3    3    0    0  0.60927219432E+00 -0.55342434124E+01  0.26675398962E+02  0.27250247206E+02  0.51100000000E-03 0.  1.
         12    1    3    3    0    0  0.63473230663E+01  0.11333261461E+02  0.70368179196E+01  0.14773223476E+02  0.00000000000E+00 0. -1.
</event>
<event>
 7    1  0.6726285E-013  0.5052886E+02  0.7816164E-02  0.1300439E+00
        -11   -1    0    0    0    0  0.00000000000E+00  0.00000000000E+00  0.45593999997E+02  0.45594000000E+02  0.51100000000E-03 0.  1.
         11   -1    0    0    0    0 -0.00000000000E+00 -0.00000000000E+00 -0.45593999997E+02  0.45594000000E+02  0.51100000000E-03 0. -1.
    9900012    2    1    2    0    0 -0.32216517481E+02  0.13776021717E+02  0.20627241254E+02  0.50528857674E+02  0.29999993385E+02 0.  0.
         12    1    1    2    0    0  0.32216517481E+02 -0.13776021717E+02 -0.20627241254E+02  0.40659142326E+02  0.00000000000E+00 0. -1.
         11    1    3    3    0    0 -0.19847758221E+02  0.14277321296E+02  0.88293876933E+01  0.25994874439E+02  0.51100000000E-03 0. -1.
        -11    1    3    3    0    0 -0.13177869430E+02  0.63368916544E+01  0.78332033683E+01  0.16588294482E+02  0.51100000000E-03 0.  1.
         12    1    3    3    0    0  0.80911016928E+00 -0.68381912336E+01  0.39646501923E+01  0.79456887531E+01  0.00000000000E+00 0. -1.
</event>
<event>
 7    1  0.6726285E-013  0.5052886E+02  0.7816164E-02  0.1300439E+00
        -11   -1    0    0    0    0  0.00000000000E+00  0.00000000000E+00  0.45593999997E+02  0.45594000000E+02  0.51100000000E-03 0.  1.
         11   -1    0    0    0    0 -0.00000000000E+00 -0.00000000000E+00 -0.45593999997E+02  0.45594000000E+02  0.51100000000E-03 0. -1.
    9900012    2    1    2    0    0  0.78322910621E+01  0.76627269125E+01  0.39154864698E+02  0.50528860849E+02  0.30000003036E+02 0.  0.
         12    1    1    2    0    0 -0.78322910621E+01 -0.76627269125E+01 -0.39154864698E+02  0.40659139151E+02  0.00000000000E+00 0. -1.
         11    1    3    3    0    0 -0.28258442973E+01 -0.11606381339E+01  0.29698235522E+01  0.42605550181E+01  0.51100000000E-03 0. -1.
        -11    1    3    3    0    0 -0.56142810081E+00  0.19726941236E+01  0.32570070597E+02  0.32634586294E+02  0.51100000000E-03 0.  1.
         12    1    3    3    0    0  0.11219563460E+02  0.68506709228E+01  0.36149705485E+01  0.13633719536E+02  0.00000000000E+00 0. -1.
</event>
<event>
 7    1  0.6726285E-013  0.5052887E+02  0.7816164E-02  0.1300439E+00
        -11   -1    0    0    0    0  0.00000000000E+00  0.00000000000E+00  0.45593999997E+02  0.45594000000E+02  0.51100000000E-03 0.  1.
         11   -1    0    0    0    0 -0.00000000000E+00 -0.00000000000E+00 -0.45593999997E+02  0.45594000000E+02  0.51100000000E-03 0. -1.
    9900012    2    1    2    0    0  0.17907837938E+02  0.13113811338E+02  0.34066149011E+02  0.50528865530E+02  0.30000017265E+02 0.  0.
         12    1    1    2    0    0 -0.17907837938E+02 -0.13113811338E+02 -0.34066149011E+02  0.40659134470E+02  0.00000000000E+00 0. -1.
         11    1    3    3    0    0 -0.30078462333E+01  0.20134029684E+01 -0.47237899867E+00  0.36502154259E+01  0.51100000000E-03 0. -1.
        -11    1    3    3    0    0  0.69901309022E+00  0.36892117201E+01  0.21243037471E+02  0.21572332829E+02  0.51100000000E-03 0.  1.
        -12    1    3    3    0    0  0.20216671082E+02  0.74111966493E+01  0.13295490538E+02  0.25306317275E+02  0.00000000000E+00 0.  1.
</event>
<event>
 7    1  0.6726285E-013  0.5052886E+02  0.7816164E-02  0.1300439E+00
        -11   -1    0    0    0    0  0.00000000000E+00  0.00000000000E+00  0.45593999997E+02  0.45594000000E+02  0.51100000000E-03 0.  1.
         11   -1    0    0    0    0 -0.00000000000E+00 -0.00000000000E+00 -0.45593999997E+02  0.45594000000E+02  0.51100000000E-03 0. -1.
    9900012    2    1    2    0    0 -0.23458123939E+02  0.29387818964E+02  0.15467331795E+02  0.50528857915E+02  0.29999994119E+02 0.  0.
         12    1    1    2    0    0  0.23458123939E+02 -0.29387818964E+02 -0.15467331795E+02  0.40659142085E+02  0.00000000000E+00 0. -1.
         11    1    3    3    0    0 -0.42233472878E+01 -0.52926308350E+01  0.51210490843E+00  0.67904974168E+01  0.51100000000E-03 0. -1.
        -11    1    3    3    0    0 -0.91513970115E+01  0.83327956857E+01  0.14507712953E+01  0.12461472177E+02  0.51100000000E-03 0.  1.
        -12    1    3    3    0    0 -0.10083379640E+02  0.26347654114E+02  0.13504455591E+02  0.31276888321E+02  0.00000000000E+00 0.  1.
</event>
<event>
 7    1  0.6726285E-013  0.5052888E+02  0.7816164E-02  0.1300439E+00
        -11   -1    0    0    0    0  0.00000000000E+00  0.00000000000E+00  0.45593999997E+02  0.45594000000E+02  0.51100000000E-03 0.  1.
         11   -1    0    0    0    0 -0.00000000000E+00 -0.00000000000E+00 -0.45593999997E+02  0.45594000000E+02  0.51100000000E-03 0. -1.
    9900012    2    1    2    0    0 -0.20850908576E+02  0.27892491015E+02  0.20986010434E+02  0.50528879530E+02  0.30000059820E+02 0.  0.
         12    1    1    2    0    0  0.20850908576E+02 -0.27892491015E+02 -0.20986010434E+02  0.40659120470E+02  0.00000000000E+00 0. -1.
         11    1    3    3    0    0 -0.11533778551E+01 -0.25881107902E+01  0.49773111894E+01  0.57273226621E+01  0.51100000000E-03 0.  1.
        -11    1    3    3    0    0 -0.21301110890E+02  0.18160552801E+02  0.16266287728E+02  0.32374914979E+02  0.51100000000E-03 0. -1.
         12    1    3    3    0    0  0.16035801692E+01  0.12320049004E+02 -0.25758848304E+00  0.12426641889E+02  0.00000000000E+00 0. -1.
</event>
<event>
 7    1  0.6726285E-013  0.5052886E+02  0.7816164E-02  0.1300439E+00
        -11   -1    0    0    0    0  0.00000000000E+00  0.00000000000E+00  0.45593999997E+02  0.45594000000E+02  0.51100000000E-03 0.  1.
         11   -1    0    0    0    0 -0.00000000000E+00 -0.00000000000E+00 -0.45593999997E+02  0.45594000000E+02  0.51100000000E-03 0. -1.
    9900012    2    1    2    0    0 -0.85561885675E+01 -0.30857171533E+02  0.25055782250E+02  0.50528860536E+02  0.30000002085E+02 0.  0.
         12    1    1    2    0    0  0.85561885675E+01  0.30857171533E+02 -0.25055782250E+02  0.40659139464E+02  0.00000000000E+00 0. -1.
         11    1    3    3    0    0 -0.47104396027E+01 -0.83749826002E+01 -0.34380386311E+00  0.96149246571E+01  0.51100000000E-03 0. -1.
        -11    1    3    3    0    0 -0.84308194364E+01 -0.12699965246E+02  0.23043758516E+01  0.15416808423E+02  0.51100000000E-03 0.  1.
         12    1    3    3    0    0  0.45850704717E+01 -0.97822236869E+01  0.23095210261E+02  0.25497127456E+02  0.00000000000E+00 0. -1.
</event>
<event>
 7    1  0.6726285E-013  0.5052886E+02  0.7816164E-02  0.1300439E+00
        -11   -1    0    0    0    0  0.00000000000E+00  0.00000000000E+00  0.45593999997E+02  0.45594000000E+02  0.51100000000E-03 0.  1.
         11   -1    0    0    0    0 -0.00000000000E+00 -0.00000000000E+00 -0.45593999997E+02  0.45594000000E+02  0.51100000000E-03 0. -1.
    9900012    2    1    2    0    0  0.83563108734E+01 -0.38265677048E+02  0.10912196820E+02  0.50528855754E+02  0.29999987549E+02 0.  0.
         12    1    1    2    0    0 -0.83563108734E+01  0.38265677048E+02 -0.10912196820E+02  0.40659144246E+02  0.00000000000E+00 0. -1.
         11    1    3    3    0    0  0.71781740326E+01 -0.11711541832E+01 -0.22555095852E+01  0.76147953560E+01  0.51100000000E-03 0. -1.
        -11    1    3    3    0    0  0.64626420704E+01 -0.49450172280E+01  0.40024626342E+01  0.90685525479E+01  0.51100000000E-03 0.  1.
         12    1    3    3    0    0 -0.52845052296E+01 -0.32149505637E+02  0.91652437713E+01  0.33845507850E+02  0.00000000000E+00 0. -1.
</event>
<event>
 7    1  0.8371967E-013  0.5052887E+02  0.7816164E-02  0.1300439E+00
        -11   -1    0    0    0    0  0.00000000000E+00  0.00000000000E+00  0.45593999997E+02  0.45594000000E+02  0.51100000000E-03 0.  1.
         11   -1    0    0    0    0 -0.00000000000E+00 -0.00000000000E+00 -0.45593999997E+02  0.45594000000E+02  0.51100000000E-03 0. -1.
    9900012    2    1    2    0    0 -0.17090078740E+02  0.34386295950E+02  0.13367011765E+02  0.50528866413E+02  0.30000019949E+02 0.  0.
         12    1    1    2    0    0  0.17090078740E+02 -0.34386295950E+02 -0.13367011765E+02  0.40659133587E+02  0.00000000000E+00 0. -1.
         11    1    3    3    0    0 -0.97304184706E+01  0.92912931981E+01 -0.18633573668E+01  0.13582388370E+02  0.51100000000E-03 0. -1.
        -11    1    3    3    0    0 -0.63828134892E+01  0.28764461975E+02  0.11516133780E+02  0.31634726461E+02  0.51100000000E-03 0.  1.
         12    1    3    3    0    0 -0.97684677968E+00 -0.36694592225E+01  0.37142353522E+01  0.53117515820E+01  0.00000000000E+00 0. -1.
</event>
<event>
 7    1  0.6726285E-013  0.5052887E+02  0.7816164E-02  0.1300439E+00
        -11   -1    0    0    0    0  0.00000000000E+00  0.00000000000E+00  0.45593999997E+02  0.45594000000E+02  0.51100000000E-03 0. -1.
         11   -1    0    0    0    0 -0.00000000000E+00 -0.00000000000E+00 -0.45593999997E+02  0.45594000000E+02  0.51100000000E-03 0.  1.
    9900012    2    1    2    0    0 -0.29795283640E+02  0.54729844557E+01 -0.27119231259E+02  0.50528865846E+02  0.30000018226E+02 0.  0.
         12    1    1    2    0    0  0.29795283640E+02 -0.54729844557E+01  0.27119231259E+02  0.40659134154E+02  0.00000000000E+00 0. -1.
         11    1    3    3    0    0 -0.99960301398E+01  0.77007110471E+01 -0.14079963392E+02  0.18906796095E+02  0.51100000000E-03 0.  1.
        -11    1    3    3    0    0  0.88459078542E+00  0.15358278933E+01 -0.10264380320E+02  0.10416274371E+02  0.51100000000E-03 0. -1.
        -12    1    3    3    0    0 -0.20683844286E+02 -0.37635544847E+01 -0.27748875473E+01  0.21205795380E+02  0.00000000000E+00 0.  1.
</event>
<event>
 7    1  0.6726285E-013  0.5052885E+02  0.7816164E-02  0.1300439E+00
        -11   -1    0    0    0    0  0.00000000000E+00  0.00000000000E+00  0.45593999997E+02  0.45594000000E+02  0.51100000000E-03 0.  1.
         11   -1    0    0    0    0 -0.00000000000E+00 -0.00000000000E+00 -0.45593999997E+02  0.45594000000E+02  0.51100000000E-03 0. -1.
    9900012    2    1    2    0    0  0.75971507285E+00 -0.38449186975E+02  0.13200348106E+02  0.50528851753E+02  0.29999975389E+02 0.  0.
         12    1    1    2    0    0 -0.75971507285E+00  0.38449186975E+02 -0.13200348106E+02  0.40659148247E+02  0.00000000000E+00 0. -1.
         11    1    3    3    0    0  0.15845557510E+01  0.30300816925E+01 -0.13220066410E+01  0.36660488010E+01  0.51100000000E-03 0. -1.
        -11    1    3    3    0    0 -0.22550589652E+01 -0.37143564594E+01 -0.29246832657E+01  0.52378914947E+01  0.51100000000E-03 0.  1.
        -12    1    3    3    0    0  0.14302182870E+01 -0.37764912208E+02  0.17447038013E+02  0.41624911458E+02  0.00000000000E+00 0.  1.
</event>
<event>
 7    1  0.6726285E-013  0.5052885E+02  0.7816164E-02  0.1300439E+00
        -11   -1    0    0    0    0  0.00000000000E+00  0.00000000000E+00  0.45593999997E+02  0.45594000000E+02  0.51100000000E-03 0.  1.
         11   -1    0    0    0    0 -0.00000000000E+00 -0.00000000000E+00 -0.45593999997E+02  0.45594000000E+02  0.51100000000E-03 0. -1.
    9900012    2    1    2    0    0 -0.18762379300E+01  0.30584658413E+02  0.26724980247E+02  0.50528853818E+02  0.29999981666E+02 0.  0.
         12    1    1    2    0    0  0.18762379300E+01 -0.30584658413E+02 -0.26724980247E+02  0.40659146182E+02  0.00000000000E+00 0. -1.
         11    1    3    3    0    0  0.16919770555E+01  0.45724843363E+01  0.59122190281E+01  0.76632064737E+01  0.51100000000E-03 0. -1.
        -11    1    3    3    0    0 -0.49956322813E+01  0.20170823944E+02  0.27110325644E+02  0.34158282117E+02  0.51100000000E-03 0.  1.
         12    1    3    3    0    0  0.14274172958E+01  0.58413501334E+01 -0.62975644246E+01  0.87073652272E+01  0.00000000000E+00 0. -1.
</event>
<event>
 7    1  0.6726285E-013  0.5052887E+02  0.7816164E-02  0.1300439E+00
        -11   -1    0    0    0    0  0.00000000000E+00  0.00000000000E+00  0.45593999997E+02  0.45594000000E+02  0.51100000000E-03 0.  1.
         11   -1    0    0    0    0 -0.00000000000E+00 -0.00000000000E+00 -0.45593999997E+02  0.45594000000E+02  0.51100000000E-03 0. -1.
    9900012    2    1    2    0    0 -0.22981132819E+02 -0.10180462862E+02  0.31959203959E+02  0.50528868094E+02  0.30000025057E+02 0.  0.
         12    1    1    2    0    0  0.22981132819E+02  0.10180462862E+02 -0.31959203959E+02  0.40659131906E+02  0.00000000000E+00 0. -1.
         11    1    3    3    0    0 -0.25002403665E+01  0.39529012099E+01  0.10197592176E+02  0.11219069316E+02  0.51100000000E-03 0. -1.
        -11    1    3    3    0    0 -0.75346812697E+01  0.51409309607E+01  0.34988680975E+01  0.97694765061E+01  0.51100000000E-03 0.  1.
         12    1    3    3    0    0 -0.12946211183E+02 -0.19274295033E+02  0.18262743685E+02  0.29540322271E+02  0.00000000000E+00 0. -1.
</event>
<event>
 7    1  0.6726285E-013  0.5052886E+02  0.7816164E-02  0.1300439E+00
        -11   -1    0    0    0    0  0.00000000000E+00  0.00000000000E+00  0.45593999997E+02  0.45594000000E+02  0.51100000000E-03 0. -1.
         11   -1    0    0    0    0 -0.00000000000E+00 -0.00000000000E+00 -0.45593999997E+02  0.45594000000E+02  0.51100000000E-03 0.  1.
    9900012    2    1    2    0    0  0.27924691676E+02 -0.56025933858E+01 -0.29017034702E+02  0.50528858829E+02  0.29999996897E+02 0.  0.
         12    1    1    2    0    0 -0.27924691676E+02  0.56025933858E+01  0.29017034702E+02  0.40659141171E+02  0.00000000000E+00 0. -1.
         11    1    3    3    0    0  0.12151064706E+02  0.53351873444E+01 -0.14336344325E+02  0.19535694673E+02  0.51100000000E-03 0. -1.
        -11    1    3    3    0    0  0.15513395359E+02 -0.17395349348E+01 -0.15184412894E+02  0.21777461113E+02  0.51100000000E-03 0.  1.
        -12    1    3    3    0    0  0.26023161135E+00 -0.91982457954E+01  0.50372251686E+00  0.92157030431E+01  0.00000000000E+00 0.  1.
</event>
<event>
 7    1  0.6726285E-013  0.5052885E+02  0.7816164E-02  0.1300439E+00
        -11   -1    0    0    0    0  0.00000000000E+00  0.00000000000E+00  0.45593999997E+02  0.45594000000E+02  0.51100000000E-03 0. -1.
         11   -1    0    0    0    0 -0.00000000000E+00 -0.00000000000E+00 -0.45593999997E+02  0.45594000000E+02  0.51100000000E-03 0.  1.
    9900012    2    1    2    0    0  0.21061252334E+02  0.68793819866E+01 -0.34091997320E+02  0.50528849398E+02  0.29999968230E+02 0.  0.
         12    1    1    2    0    0 -0.21061252334E+02 -0.68793819866E+01  0.34091997320E+02  0.40659150602E+02  0.00000000000E+00 0. -1.
         11    1    3    3    0    0  0.54467843480E+01  0.13016475977E+02 -0.12773760562E+02  0.19033262089E+02  0.51100000000E-03 0.  1.
        -11    1    3    3    0    0 -0.93939727232E+00 -0.20213417180E+00 -0.11130901115E+02  0.11172299913E+02  0.51100000000E-03 0. -1.
        -12    1    3    3    0    0  0.16553865259E+02 -0.59349598187E+01 -0.10187335643E+02  0.20323287395E+02  0.00000000000E+00 0.  1.
</event>
<event>
 7    1  0.6726285E-013  0.5052885E+02  0.7816164E-02  0.1300439E+00
        -11   -1    0    0    0    0  0.00000000000E+00  0.00000000000E+00  0.45593999997E+02  0.45594000000E+02  0.51100000000E-03 0. -1.
         11   -1    0    0    0    0 -0.00000000000E+00 -0.00000000000E+00 -0.45593999997E+02  0.45594000000E+02  0.51100000000E-03 0.  1.
    9900012    2    1    2    0    0  0.51847545355E+01  0.11325963814E+02 -0.38704103748E+02  0.50528846260E+02  0.29999958693E+02 0.  0.
         12    1    1    2    0    0 -0.51847545355E+01 -0.11325963814E+02  0.38704103748E+02  0.40659153740E+02  0.00000000000E+00 0. -1.
         11    1    3    3    0    0  0.64221068593E+01 -0.29216375189E+01 -0.26651462264E-01  0.70555037287E+01  0.51100000000E-03 0. -1.
        -11    1    3    3    0    0  0.45083646853E+01  0.38532021412E-01 -0.81276291796E+01  0.92943635175E+01  0.51100000000E-03 0.  1.
        -12    1    3    3    0    0 -0.57457170091E+01  0.14209069311E+02 -0.30549823106E+02  0.34178979014E+02  0.00000000000E+00 0.  1.
</event>
<event>
 7    1  0.6726285E-013  0.5052885E+02  0.7816164E-02  0.1300439E+00
        -11   -1    0    0    0    0  0.00000000000E+00  0.00000000000E+00  0.45593999997E+02  0.45594000000E+02  0.51100000000E-03 0.  1.
         11   -1    0    0    0    0 -0.00000000000E+00 -0.00000000000E+00 -0.45593999997E+02  0.45594000000E+02  0.51100000000E-03 0. -1.
    9900012    2    1    2    0    0  0.17344028202E+02 -0.33566893882E+01  0.36620811797E+02  0.50528849313E+02  0.29999967972E+02 0.  0.
         12    1    1    2    0    0 -0.17344028202E+02  0.33566893882E+01 -0.36620811797E+02  0.40659150687E+02  0.00000000000E+00 0. -1.
         11    1    3    3    0    0 -0.15676981904E+01  0.23060913209E+01  0.51265339310E+01  0.58358448578E+01  0.51100000000E-03 0. -1.
        -11    1    3    3    0    0  0.87882450142E+01  0.97307800105E+01  0.15434051205E+02  0.20251697877E+02  0.51100000000E-03 0.  1.
        -12    1    3    3    0    0  0.10123481378E+02 -0.15393560720E+02  0.16060226661E+02  0.24441306578E+02  0.00000000000E+00 0.  1.
</event>
<event>
 7    1  0.6726285E-013  0.5052889E+02  0.7816164E-02  0.1300439E+00
        -11   -1    0    0    0    0  0.00000000000E+00  0.00000000000E+00  0.45593999997E+02  0.45594000000E+02  0.51100000000E-03 0.  1.
         11   -1    0    0    0    0 -0.00000000000E+00 -0.00000000000E+00 -0.45593999997E+02  0.45594000000E+02  0.51100000000E-03 0. -1.
    9900012    2    1    2    0    0  0.17738800508E+02  0.16308251144E+02  0.32749646589E+02  0.50528887238E+02  0.30000083249E+02 0.  0.
         12    1    1    2    0    0 -0.17738800508E+02 -0.16308251144E+02 -0.32749646589E+02  0.40659112762E+02  0.00000000000E+00 0. -1.
         11    1    3    3    0    0  0.16433993838E+02  0.12781934500E+02  0.29665843612E+02  0.36242465155E+02  0.51100000000E-03 0.  1.
        -11    1    3    3    0    0  0.27959527869E+01  0.83629010684E+01  0.26457305767E+01  0.92062672572E+01  0.51100000000E-03 0. -1.
         12    1    3    3    0    0 -0.14911461166E+01 -0.48365844236E+01  0.43807240044E+00  0.50801548260E+01  0.00000000000E+00 0. -1.
</event>
<event>
 7    1  0.6726285E-013  0.5052886E+02  0.7816164E-02  0.1300439E+00
        -11   -1    0    0    0    0  0.00000000000E+00  0.00000000000E+00  0.45593999997E+02  0.45594000000E+02  0.51100000000E-03 0. -1.
         11   -1    0    0    0    0 -0.00000000000E+00 -0.00000000000E+00 -0.45593999997E+02  0.45594000000E+02  0.51100000000E-03 0.  1.
    9900012    2    1    2    0    0 -0.31023759941E+02 -0.24464450064E+02 -0.96011914714E+01  0.50528857418E+02  0.29999992607E+02 0.  0.
         12    1    1    2    0    0  0.31023759941E+02  0.24464450064E+02  0.96011914714E+01  0.40659142582E+02  0.00000000000E+00 0. -1.
         11    1    3    3    0    0 -0.41056774669E+01  0.28126941558E+01 -0.48240437020E+01  0.69310341059E+01  0.51100000000E-03 0. -1.
        -11    1    3    3    0    0 -0.43695120513E+01 -0.55659382358E+01  0.71883115956E+01  0.10086829426E+02  0.51100000000E-03 0.  1.
        -12    1    3    3    0    0 -0.22548570423E+02 -0.21711205984E+02 -0.11965459365E+02  0.33510993886E+02  0.00000000000E+00 0.  1.
</event>
<event>
 7    1  0.6726285E-013  0.5052887E+02  0.7816164E-02  0.1300439E+00
        -11   -1    0    0    0    0  0.00000000000E+00  0.00000000000E+00  0.45593999997E+02  0.45594000000E+02  0.51100000000E-03 0. -1.
         11   -1    0    0    0    0 -0.00000000000E+00 -0.00000000000E+00 -0.45593999997E+02  0.45594000000E+02  0.51100000000E-03 0.  1.
    9900012    2    1    2    0    0  0.30435415092E+02  0.14197292469E+02 -0.22919140482E+02  0.50528873033E+02  0.30000040071E+02 0.  0.
         12    1    1    2    0    0 -0.30435415092E+02 -0.14197292469E+02  0.22919140482E+02  0.40659126967E+02  0.00000000000E+00 0. -1.
         11    1    3    3    0    0  0.82367104687E+01 -0.58644098858E+00 -0.12472550489E+01  0.83512249279E+01  0.51100000000E-03 0. -1.
        -11    1    3    3    0    0  0.18361536526E+02  0.29700689452E+01 -0.17257313896E+01  0.18680082500E+02  0.51100000000E-03 0.  1.
         12    1    3    3    0    0  0.38371680979E+01  0.11813664513E+02 -0.19946154044E+02  0.23497565605E+02  0.00000000000E+00 0. -1.
</event>
<event>
 7    1  0.6726285E-013  0.5052887E+02  0.7816164E-02  0.1300439E+00
        -11   -1    0    0    0    0  0.00000000000E+00  0.00000000000E+00  0.45593999997E+02  0.45594000000E+02  0.51100000000E-03 0.  1.
         11   -1    0    0    0    0 -0.00000000000E+00 -0.00000000000E+00 -0.45593999997E+02  0.45594000000E+02  0.51100000000E-03 0. -1.
    9900012    2    1    2    0    0  0.37296149322E+02  0.10457279183E+02  0.12361544998E+02  0.50528865271E+02  0.30000016478E+02 0.  0.
         12    1    1    2    0    0 -0.37296149322E+02 -0.10457279183E+02 -0.12361544998E+02  0.40659134729E+02  0.00000000000E+00 0. -1.
         11    1    3    3    0    0  0.76743588370E+01  0.12862304116E+02 -0.18186276879E+01  0.15087811560E+02  0.51100000000E-03 0. -1.
        -11    1    3    3    0    0  0.20814506468E+02  0.38018075506E+01  0.62498318486E+01  0.22062588664E+02  0.51100000000E-03 0.  1.
        -12    1    3    3    0    0  0.88072840170E+01 -0.62068324831E+01  0.79303408370E+01  0.13378465047E+02  0.00000000000E+00 0.  1.
</event>
<event>
 7    1  0.6726285E-013  0.5052886E+02  0.7816164E-02  0.1300439E+00
        -11   -1    0    0    0    0  0.00000000000E+00  0.00000000000E+00  0.45593999997E+02  0.45594000000E+02  0.51100000000E-03 0.  1.
         11   -1    0    0    0    0 -0.00000000000E+00 -0.00000000000E+00 -0.45593999997E+02  0.45594000000E+02  0.51100000000E-03 0. -1.
    9900012    2    1    2    0    0 -0.25463177229E+02  0.21678116253E+02  0.23126851933E+02  0.50528863275E+02  0.30000010412E+02 0.  0.
         12    1    1    2    0    0  0.25463177229E+02 -0.21678116253E+02 -0.23126851933E+02  0.40659136725E+02  0.00000000000E+00 0. -1.
         11    1    3    3    0    0 -0.20241674800E+01  0.28973795743E+01 -0.43218921301E+01  0.55830828608E+01  0.51100000000E-03 0. -1.
        -11    1    3    3    0    0 -0.49778971659E+01  0.19687247486E+01 -0.25381959850E+01  0.59243376381E+01  0.51100000000E-03 0.  1.
        -12    1    3    3    0    0 -0.18461112583E+02  0.16812011930E+02  0.29986940048E+02  0.39021442777E+02  0.00000000000E+00 0.  1.
</event>
<event>
 7    1  0.6726285E-013  0.5052886E+02  0.7816164E-02  0.1300439E+00
        -11   -1    0    0    0    0  0.00000000000E+00  0.00000000000E+00  0.45593999997E+02  0.45594000000E+02  0.51100000000E-03 0.  1.
         11   -1    0    0    0    0 -0.00000000000E+00 -0.00000000000E+00 -0.45593999997E+02  0.45594000000E+02  0.51100000000E-03 0. -1.
    9900012    2    1    2    0    0  0.24500632848E+02 -0.55239988857E+00  0.32443483049E+02  0.50528858987E+02  0.29999997377E+02 0.  0.
         12    1    1    2    0    0 -0.24500632848E+02  0.55239988857E+00 -0.32443483049E+02  0.40659141013E+02  0.00000000000E+00 0. -1.
         11    1    3    3    0    0  0.15936219608E+02  0.32594753069E+01  0.23784691119E+02  0.28814905978E+02  0.51100000000E-03 0.  1.
        -11    1    3    3    0    0  0.40247813059E+01  0.16565879855E+01  0.12778285535E+02  0.13499175152E+02  0.51100000000E-03 0. -1.
         12    1    3    3    0    0  0.45396319341E+01 -0.54684631809E+01 -0.41194936054E+01  0.82147778560E+01  0.00000000000E+00 0. -1.
</event>
<event>
 7    1  0.6726285E-013  0.5052884E+02  0.7816164E-02  0.1300439E+00
        -11   -1    0    0    0    0  0.00000000000E+00  0.00000000000E+00  0.45593999997E+02  0.45594000000E+02  0.51100000000E-03 0.  1.
         11   -1    0    0    0    0 -0.00000000000E+00 -0.00000000000E+00 -0.45593999997E+02  0.45594000000E+02  0.51100000000E-03 0. -1.
    9900012    2    1    2    0    0 -0.11043895181E+02 -0.15724235411E+02  0.35832224000E+02  0.50528837726E+02  0.29999932753E+02 0.  0.
         12    1    1    2    0    0  0.11043895181E+02  0.15724235411E+02 -0.35832224000E+02  0.40659162274E+02  0.00000000000E+00 0. -1.
         11    1    3    3    0    0 -0.61869600271E+01 -0.10894126864E+02  0.10833077818E+02  0.16562489239E+02  0.51100000000E-03 0. -1.
        -11    1    3    3    0    0 -0.46105853956E+01 -0.15580905857E+01  0.28648390147E+02  0.29058826581E+02  0.51100000000E-03 0.  1.
        -12    1    3    3    0    0 -0.24634975841E+00 -0.32720179606E+01 -0.36492439661E+01  0.49075219065E+01  0.00000000000E+00 0.  1.
</event>
<event>
 7    1  0.6726285E-013  0.5052884E+02  0.7816164E-02  0.1300439E+00
        -11   -1    0    0    0    0  0.00000000000E+00  0.00000000000E+00  0.45593999997E+02  0.45594000000E+02  0.51100000000E-03 0.  1.
         11   -1    0    0    0    0 -0.00000000000E+00 -0.00000000000E+00 -0.45593999997E+02  0.45594000000E+02  0.51100000000E-03 0. -1.
    9900012    2    1    2    0    0 -0.16817467570E+02 -0.37323037816E+01  0.36829468592E+02  0.50528842806E+02  0.29999948192E+02 0.  0.
         12    1    1    2    0    0  0.16817467570E+02  0.37323037816E+01 -0.36829468592E+02  0.40659157194E+02  0.00000000000E+00 0. -1.
         11    1    3    3    0    0 -0.82233318015E+01 -0.48227494843E+01  0.14145582592E+02  0.17058124329E+02  0.51100000000E-03 0. -1.
        -11    1    3    3    0    0 -0.10739410094E+02  0.67689887816E+00  0.26761931301E+02  0.28844307731E+02  0.51100000000E-03 0.  1.
         12    1    3    3    0    0  0.21452743256E+01  0.41354682449E+00 -0.40780453010E+01  0.46264107454E+01  0.00000000000E+00 0. -1.
</event>
<event>
 7    1  0.6726285E-013  0.5052886E+02  0.7816164E-02  0.1300439E+00
        -11   -1    0    0    0    0  0.00000000000E+00  0.00000000000E+00  0.45593999997E+02  0.45594000000E+02  0.51100000000E-03 0.  1.
         11   -1    0    0    0    0 -0.00000000000E+00 -0.00000000000E+00 -0.45593999997E+02  0.45594000000E+02  0.51100000000E-03 0. -1.
    9900012    2    1    2    0    0  0.22549710988E+02 -0.33644448608E+02  0.35674807958E+01  0.50528864409E+02  0.30000013856E+02 0.  0.
         12    1    1    2    0    0 -0.22549710988E+02  0.33644448608E+02 -0.35674807958E+01  0.40659135591E+02  0.00000000000E+00 0. -1.
         11    1    3    3    0    0  0.33291102930E+01 -0.22207329217E+02  0.26888358749E+01  0.22615885676E+02  0.51100000000E-03 0. -1.
        -11    1    3    3    0    0  0.71417569862E+01 -0.62717233568E+01  0.84779659358E+01  0.12736369710E+02  0.51100000000E-03 0.  1.
        -12    1    3    3    0    0  0.12078843709E+02 -0.51653960346E+01 -0.75993210149E+01  0.15176609023E+02  0.00000000000E+00 0.  1.
</event>
<event>
 7    1  0.6726285E-013  0.5052872E+02  0.7816164E-02  0.1300439E+00
        -11   -1    0    0    0    0  0.00000000000E+00  0.00000000000E+00  0.45593999997E+02  0.45594000000E+02  0.51100000000E-03 0. -1.
         11   -1    0    0    0    0 -0.00000000000E+00 -0.00000000000E+00 -0.45593999997E+02  0.45594000000E+02  0.51100000000E-03 0.  1.
    9900012    2    1    2    0    0  0.38040111235E+02  0.71993068185E+01 -0.12421644698E+02  0.50528716454E+02  0.29999564131E+02 0.  0.
         12    1    1    2    0    0 -0.38040111235E+02 -0.71993068185E+01  0.12421644698E+02  0.40659283546E+02  0.00000000000E+00 0. -1.
         11    1    3    3    0    0  0.19460758517E+02  0.87334989783E+00 -0.18044637329E+01  0.19563740739E+02  0.51100000000E-03 0. -1.
        -11    1    3    3    0    0  0.13736293982E+02 -0.66190331411E+01 -0.61237057753E+01  0.16431589843E+02  0.51100000000E-03 0.  1.
        -12    1    3    3    0    0  0.48430587369E+01  0.12944990062E+02 -0.44934751897E+01  0.14533385872E+02  0.00000000000E+00 0.  1.
</event>
<event>
 7    1  0.6726285E-013  0.5052887E+02  0.7816164E-02  0.1300439E+00
        -11   -1    0    0    0    0  0.00000000000E+00  0.00000000000E+00  0.45593999997E+02  0.45594000000E+02  0.51100000000E-03 0.  1.
         11   -1    0    0    0    0 -0.00000000000E+00 -0.00000000000E+00 -0.45593999997E+02  0.45594000000E+02  0.51100000000E-03 0. -1.
    9900012    2    1    2    0    0  0.33590497859E+02  0.15013293597E+02  0.17304459649E+02  0.50528869970E+02  0.30000030762E+02 0.  0.
         12    1    1    2    0    0 -0.33590497859E+02 -0.15013293597E+02 -0.17304459649E+02  0.40659130030E+02  0.00000000000E+00 0. -1.
         11    1    3    3    0    0  0.74101461122E+01  0.28885914038E+01  0.43784337368E+00  0.79652955239E+01  0.51100000000E-03 0. -1.
        -11    1    3    3    0    0  0.29506354705E+02  0.15134353912E+02  0.18273134047E+02  0.37862660557E+02  0.51100000000E-03 0.  1.
        -12    1    3    3    0    0 -0.33260029589E+01 -0.30096517187E+01 -0.14065177717E+01  0.47009138891E+01  0.00000000000E+00 0.  1.
</event>
<event>
 7    1  0.6726285E-013  0.5052886E+02  0.7816164E-02  0.1300439E+00
        -11   -1    0    0    0    0  0.00000000000E+00  0.00000000000E+00  0.45593999997E+02  0.45594000000E+02  0.51100000000E-03 0.  1.
         11   -1    0    0    0    0 -0.00000000000E+00 -0.00000000000E+00 -0.45593999997E+02  0.45594000000E+02  0.51100000000E-03 0. -1.
    9900012    2    1    2    0    0 -0.19070049130E+02 -0.54056819216E+01  0.35500392751E+02  0.50528855194E+02  0.29999985848E+02 0.  0.
         12    1    1    2    0    0  0.19070049130E+02  0.54056819216E+01 -0.35500392751E+02  0.40659144806E+02  0.00000000000E+00 0. -1.
         11    1    3    3    0    0 -0.70332524864E+00 -0.75960093339E+01  0.48370904860E+01  0.90327996124E+01  0.51100000000E-03 0. -1.
        -11    1    3    3    0    0 -0.39062158370E+01  0.67708056222E+01  0.23413631163E+02  0.24684012142E+02  0.51100000000E-03 0.  1.
         12    1    3    3    0    0 -0.14460508045E+02 -0.45804782098E+01  0.72496711023E+01  0.16812043440E+02  0.00000000000E+00 0. -1.
</event>
<event>
 7    1  0.6726285E-013  0.5052885E+02  0.7816164E-02  0.1300439E+00
        -11   -1    0    0    0    0  0.00000000000E+00  0.00000000000E+00  0.45593999997E+02  0.45594000000E+02  0.51100000000E-03 0.  1.
         11   -1    0    0    0    0 -0.00000000000E+00 -0.00000000000E+00 -0.45593999997E+02  0.45594000000E+02  0.51100000000E-03 0. -1.
    9900012    2    1    2    0    0  0.31271382302E+02  0.47470275480E-01  0.25985856361E+02  0.50528851763E+02  0.29999975420E+02 0.  0.
         12    1    1    2    0    0 -0.31271382302E+02 -0.47470275480E-01 -0.25985856361E+02  0.40659148237E+02  0.00000000000E+00 0. -1.
         11    1    3    3    0    0  0.18840186298E+02  0.15449468767E+01  0.11799699138E+02  0.22283904071E+02  0.51100000000E-03 0. -1.
        -11    1    3    3    0    0  0.11227144813E+02 -0.94370215199E+01  0.13904124830E+02  0.20209672025E+02  0.51100000000E-03 0.  1.
         12    1    3    3    0    0  0.12040511901E+01  0.79395449186E+01  0.28203239290E+00  0.80352756676E+01  0.00000000000E+00 0. -1.
</event>
<event>
 7    1  0.6726285E-013  0.5052886E+02  0.7816164E-02  0.1300439E+00
        -11   -1    0    0    0    0  0.00000000000E+00  0.00000000000E+00  0.45593999997E+02  0.45594000000E+02  0.51100000000E-03 0.  1.
         11   -1    0    0    0    0 -0.00000000000E+00 -0.00000000000E+00 -0.45593999997E+02  0.45594000000E+02  0.51100000000E-03 0. -1.
    9900012    2    1    2    0    0  0.39741471202E+02 -0.54009066480E+01  0.66791627837E+01  0.50528861526E+02  0.30000005095E+02 0.  0.
         12    1    1    2    0    0 -0.39741471202E+02  0.54009066480E+01 -0.66791627837E+01  0.40659138474E+02  0.00000000000E+00 0. -1.
         11    1    3    3    0    0  0.16863890482E+02 -0.20521870445E+00  0.13014840462E+02  0.21303027706E+02  0.51100000000E-03 0. -1.
        -11    1    3    3    0    0  0.50837479499E+01 -0.24718327056E+01  0.53347606614E+01  0.77726521676E+01  0.51100000000E-03 0.  1.
         12    1    3    3    0    0  0.17793832770E+02 -0.27238552380E+01 -0.11670438340E+02  0.21453181653E+02  0.00000000000E+00 0. -1.
</event>
<event>
 7    1  0.6726285E-013  0.5052887E+02  0.7816164E-02  0.1300439E+00
        -11   -1    0    0    0    0  0.00000000000E+00  0.00000000000E+00  0.45593999997E+02  0.45594000000E+02  0.51100000000E-03 0.  1.
         11   -1    0    0    0    0 -0.00000000000E+00 -0.00000000000E+00 -0.45593999997E+02  0.45594000000E+02  0.51100000000E-03 0. -1.
    9900012    2    1    2    0    0  0.23495085481E+02  0.28504119164E+01  0.33060869930E+02  0.50528868057E+02  0.30000024945E+02 0.  0.
         12    1    1    2    0    0 -0.23495085481E+02 -0.28504119164E+01 -0.33060869930E+02  0.40659131943E+02  0.00000000000E+00 0. -1.
         11    1    3    3    0    0 -0.37158068729E+01  0.16489465635E+01  0.37151350283E+01  0.55071293815E+01  0.51100000000E-03 0.  1.
        -11    1    3    3    0    0  0.44165110641E+01  0.77648542517E+01  0.26667082666E+01  0.93225460455E+01  0.51100000000E-03 0. -1.
        -12    1    3    3    0    0  0.22794381290E+02 -0.65633888988E+01  0.26679026635E+02  0.35699192630E+02  0.00000000000E+00 0.  1.
</event>
<event>
 7    1  0.6726285E-013  0.5052887E+02  0.7816164E-02  0.1300439E+00
        -11   -1    0    0    0    0  0.00000000000E+00  0.00000000000E+00  0.45593999997E+02  0.45594000000E+02  0.51100000000E-03 0. -1.
         11   -1    0    0    0    0 -0.00000000000E+00 -0.00000000000E+00 -0.45593999997E+02  0.45594000000E+02  0.51100000000E-03 0.  1.
    9900012    2    1    2    0    0 -0.37689454249E+02 -0.13153106233E+01 -0.15196713872E+02  0.50528866756E+02  0.30000020991E+02 0.  0.
         12    1    1    2    0    0  0.37689454249E+02  0.13153106233E+01  0.15196713872E+02  0.40659133244E+02  0.00000000000E+00 0. -1.
         11    1    3    3    0    0 -0.43914766222E+01 -0.31708484342E+01 -0.16545670919E+00  0.54191072050E+01  0.51100000000E-03 0. -1.
        -11    1    3    3    0    0  0.44542438424E+01  0.12558531809E+01 -0.50719479253E+00  0.46556097601E+01  0.51100000000E-03 0.  1.
        -12    1    3    3    0    0 -0.37752221470E+02  0.59968463004E+00 -0.14524062371E+02  0.40454149791E+02  0.00000000000E+00 0.  1.
</event>
<event>
 7    1  0.6726285E-013  0.5052887E+02  0.7816164E-02  0.1300439E+00
        -11   -1    0    0    0    0  0.00000000000E+00  0.00000000000E+00  0.45593999997E+02  0.45594000000E+02  0.51100000000E-03 0. -1.
         11   -1    0    0    0    0 -0.00000000000E+00 -0.00000000000E+00 -0.45593999997E+02  0.45594000000E+02  0.51100000000E-03 0.  1.
    9900012    2    1    2    0    0  0.33567922145E+02 -0.22598953366E+02 -0.39556449968E+01  0.50528865507E+02  0.30000017196E+02 0.  0.
         12    1    1    2    0    0 -0.33567922145E+02  0.22598953366E+02  0.39556449968E+01  0.40659134493E+02  0.00000000000E+00 0. -1.
         11    1    3    3    0    0 -0.43577017250E-01 -0.88654605890E+01 -0.83135359384E+01  0.12153730722E+02  0.51100000000E-03 0. -1.
        -11    1    3    3    0    0  0.64064868789E+00 -0.76108017010E-01 -0.20214438078E+01  0.21218997386E+01  0.51100000000E-03 0.  1.
        -12    1    3    3    0    0  0.32970850474E+02 -0.13657384760E+02  0.63793347495E+01  0.36253235046E+02  0.00000000000E+00 0.  1.
</event>
<event>
 7    1  0.6726285E-013  0.5052886E+02  0.7816164E-02  0.1300439E+00
        -11   -1    0    0    0    0  0.00000000000E+00  0.00000000000E+00  0.45593999997E+02  0.45594000000E+02  0.51100000000E-03 0. -1.
         11   -1    0    0    0    0 -0.00000000000E+00 -0.00000000000E+00 -0.45593999997E+02  0.45594000000E+02  0.51100000000E-03 0.  1.
    9900012    2    1    2    0    0 -0.19331650602E+02  0.68012165820E+01 -0.35116892304E+02  0.50528863425E+02  0.30000010866E+02 0.  0.
         12    1    1    2    0    0  0.19331650602E+02 -0.68012165820E+01  0.35116892304E+02  0.40659136575E+02  0.00000000000E+00 0. -1.
         11    1    3    3    0    0 -0.11570104056E+02 -0.47156209254E+01 -0.19084216046E+02  0.22810341754E+02  0.51100000000E-03 0. -1.
        -11    1    3    3    0    0  0.32424098564E+01  0.46477607028E+00  0.20306475685E+01  0.38539289409E+01  0.51100000000E-03 0.  1.
        -12    1    3    3    0    0 -0.11003956402E+02  0.11052061437E+02 -0.18063323826E+02  0.23864592730E+02  0.00000000000E+00 0.  1.
</event>
<event>
 7    1  0.6726285E-013  0.5052885E+02  0.7816164E-02  0.1300439E+00
        -11   -1    0    0    0    0  0.00000000000E+00  0.00000000000E+00  0.45593999997E+02  0.45594000000E+02  0.51100000000E-03 0. -1.
         11   -1    0    0    0    0 -0.00000000000E+00 -0.00000000000E+00 -0.45593999997E+02  0.45594000000E+02  0.51100000000E-03 0.  1.
    9900012    2    1    2    0    0 -0.32490701424E+02  0.11545143498E+02 -0.21546005908E+02  0.50528851116E+02  0.29999973451E+02 0.  0.
         12    1    1    2    0    0  0.32490701424E+02 -0.11545143498E+02  0.21546005908E+02  0.40659148884E+02  0.00000000000E+00 0. -1.
         11    1    3    3    0    0 -0.57361431270E+01 -0.31123424231E+01 -0.10424053956E+02  0.12298411054E+02  0.51100000000E-03 0. -1.
        -11    1    3    3    0    0 -0.15200608246E+02  0.15577572787E+01 -0.13763275676E+02  0.20564845158E+02  0.51100000000E-03 0.  1.
         12    1    3    3    0    0 -0.11553950050E+02  0.13099728642E+02  0.26413237229E+01  0.17665594903E+02  0.00000000000E+00 0. -1.
</event>
<event>
 7    1  0.6726285E-013  0.5052886E+02  0.7816164E-02  0.1300439E+00
        -11   -1    0    0    0    0  0.00000000000E+00  0.00000000000E+00  0.45593999997E+02  0.45594000000E+02  0.51100000000E-03 0.  1.
         11   -1    0    0    0    0 -0.00000000000E+00 -0.00000000000E+00 -0.45593999997E+02  0.45594000000E+02  0.51100000000E-03 0. -1.
    9900012    2    1    2    0    0 -0.11916240892E+02  0.58706613501E+01  0.38427907865E+02  0.50528861242E+02  0.30000004230E+02 0.  0.
         12    1    1    2    0    0  0.11916240892E+02 -0.58706613501E+01 -0.38427907865E+02  0.40659138758E+02  0.00000000000E+00 0. -1.
         11    1    3    3    0    0 -0.36587654328E+01  0.20707454701E+01 -0.13562098824E+01  0.44174491282E+01  0.51100000000E-03 0. -1.
        -11    1    3    3    0    0 -0.12659409393E+02  0.96970743037E+01  0.27753411018E+02  0.32008525734E+02  0.51100000000E-03 0.  1.
        -12    1    3    3    0    0  0.44019339340E+01 -0.58971584237E+01  0.12030706729E+02  0.14102886380E+02  0.00000000000E+00 0.  1.
</event>
<event>
 7    1  0.6726285E-013  0.5052886E+02  0.7816164E-02  0.1300439E+00
        -11   -1    0    0    0    0  0.00000000000E+00  0.00000000000E+00  0.45593999997E+02  0.45594000000E+02  0.51100000000E-03 0.  1.
         11   -1    0    0    0    0 -0.00000000000E+00 -0.00000000000E+00 -0.45593999997E+02  0.45594000000E+02  0.51100000000E-03 0. -1.
    9900012    2    1    2    0    0  0.37514444278E+02 -0.15677981307E+02  0.18077798322E+00  0.50528864396E+02  0.30000013819E+02 0.  0.
         12    1    1    2    0    0 -0.37514444278E+02  0.15677981307E+02 -0.18077798322E+00  0.40659135604E+02  0.00000000000E+00 0. -1.
         11    1    3    3    0    0  0.24572165773E+01  0.14608717893E+01  0.70696402283E+01  0.76257375323E+01  0.51100000000E-03 0. -1.
        -11    1    3    3    0    0 -0.13651420814E+01 -0.27871394678E+01 -0.12729879328E+01  0.33544385303E+01  0.51100000000E-03 0.  1.
        -12    1    3    3    0    0  0.36422369782E+02 -0.14351713628E+02 -0.56158743122E+01  0.39548688334E+02  0.00000000000E+00 0.  1.
</event>
<event>
 7    1  0.6726285E-013  0.5052887E+02  0.7816164E-02  0.1300439E+00
        -11   -1    0    0    0    0  0.00000000000E+00  0.00000000000E+00  0.45593999997E+02  0.45594000000E+02  0.51100000000E-03 0. -1.
         11   -1    0    0    0    0 -0.00000000000E+00 -0.00000000000E+00 -0.45593999997E+02  0.45594000000E+02  0.51100000000E-03 0.  1.
    9900012    2    1    2    0    0 -0.40503426676E+02  0.12566429952E+01  0.33254072461E+01  0.50528867478E+02  0.30000023185E+02 0.  0.
         12    1    1    2    0    0  0.40503426676E+02 -0.12566429952E+01 -0.33254072461E+01  0.40659132522E+02  0.00000000000E+00 0. -1.
         11    1    3    3    0    0  0.16624367659E+01 -0.20403858487E+01  0.26918788897E+01  0.37647154780E+01  0.51100000000E-03 0. -1.
        -11    1    3    3    0    0  0.16519347677E+01  0.14919037946E+01 -0.17692733154E+01  0.28434123399E+01  0.51100000000E-03 0.  1.
        -12    1    3    3    0    0 -0.43817798210E+02  0.18051250493E+01  0.24028016718E+01  0.43920739660E+02  0.00000000000E+00 0.  1.
</event>
<event>
 7    1  0.6726285E-013  0.5052886E+02  0.7816164E-02  0.1300439E+00
        -11   -1    0    0    0    0  0.00000000000E+00  0.00000000000E+00  0.45593999997E+02  0.45594000000E+02  0.51100000000E-03 0.  1.
         11   -1    0    0    0    0 -0.00000000000E+00 -0.00000000000E+00 -0.45593999997E+02  0.45594000000E+02  0.51100000000E-03 0. -1.
    9900012    2    1    2    0    0  0.16756068884E+02 -0.11852307346E+02  0.35098757242E+02  0.50528858422E+02  0.29999995660E+02 0.  0.
         12    1    1    2    0    0 -0.16756068884E+02  0.11852307346E+02 -0.35098757242E+02  0.40659141578E+02  0.00000000000E+00 0. -1.
         11    1    3    3    0    0 -0.31419882767E+01 -0.11654762296E+01  0.36950272380E+01  0.49883516039E+01  0.51100000000E-03 0. -1.
        -11    1    3    3    0    0 -0.37384979207E+01  0.71091325291E+00  0.12852846349E+02  0.13404380772E+02  0.51100000000E-03 0.  1.
        -12    1    3    3    0    0  0.23636555082E+02 -0.11397744369E+02  0.18550883656E+02  0.32136126046E+02  0.00000000000E+00 0.  1.
</event>
<event>
 7    1  0.6726285E-013  0.5052884E+02  0.7816164E-02  0.1300439E+00
        -11   -1    0    0    0    0  0.00000000000E+00  0.00000000000E+00  0.45593999997E+02  0.45594000000E+02  0.51100000000E-03 0.  1.
         11   -1    0    0    0    0 -0.00000000000E+00 -0.00000000000E+00 -0.45593999997E+02  0.45594000000E+02  0.51100000000E-03 0. -1.
    9900012    2    1    2    0    0 -0.17690907854E+02 -0.29221833487E+02  0.22051841459E+02  0.50528837629E+02  0.29999932456E+02 0.  0.
         12    1    1    2    0    0  0.17690907854E+02  0.29221833487E+02 -0.22051841459E+02  0.40659162371E+02  0.00000000000E+00 0. -1.
         11    1    3    3    0    0 -0.10291915011E+02 -0.13293638747E+02 -0.30980026441E+01  0.17095086030E+02  0.51100000000E-03 0. -1.
        -11    1    3    3    0    0 -0.84233890233E+01 -0.15016969745E+02  0.13976722861E+02  0.22176826760E+02  0.51100000000E-03 0.  1.
        -12    1    3    3    0    0  0.10243961804E+01 -0.91122499458E+00  0.11173121242E+02  0.11256924838E+02  0.00000000000E+00 0.  1.
</event>
<event>
 7    1  0.6726285E-013  0.5052886E+02  0.7816164E-02  0.1300439E+00
        -11   -1    0    0    0    0  0.00000000000E+00  0.00000000000E+00  0.45593999997E+02  0.45594000000E+02  0.51100000000E-03 0.  1.
         11   -1    0    0    0    0 -0.00000000000E+00 -0.00000000000E+00 -0.45593999997E+02  0.45594000000E+02  0.51100000000E-03 0. -1.
    9900012    2    1    2    0    0  0.13272381274E+02  0.19415018407E+02  0.33167246657E+02  0.50528864554E+02  0.30000014298E+02 0.  0.
         12    1    1    2    0    0 -0.13272381274E+02 -0.19415018407E+02 -0.33167246657E+02  0.40659135446E+02  0.00000000000E+00 0. -1.
         11    1    3    3    0    0  0.30750126217E+01  0.84364803662E+01 -0.24078260306E+00  0.89826432699E+01  0.51100000000E-03 0. -1.
        -11    1    3    3    0    0 -0.41689744392E+00  0.13687400992E+02  0.19863187527E+02  0.24126022639E+02  0.51100000000E-03 0.  1.
        -12    1    3    3    0    0  0.10614266096E+02 -0.27088629509E+01  0.13544841733E+02  0.17420198645E+02  0.00000000000E+00 0.  1.
</event>
<event>
 7    1  0.6726285E-013  0.5052886E+02  0.7816164E-02  0.1300439E+00
        -11   -1    0    0    0    0  0.00000000000E+00  0.00000000000E+00  0.45593999997E+02  0.45594000000E+02  0.51100000000E-03 0. -1.
         11   -1    0    0    0    0 -0.00000000000E+00 -0.00000000000E+00 -0.45593999997E+02  0.45594000000E+02  0.51100000000E-03 0.  1.
    9900012    2    1    2    0    0 -0.71686613016E+01 -0.37906896231E+02 -0.12839130158E+02  0.50528858962E+02  0.29999997301E+02 0.  0.
         12    1    1    2    0    0  0.71686613016E+01  0.37906896231E+02  0.12839130158E+02  0.40659141038E+02  0.00000000000E+00 0. -1.
         11    1    3    3    0    0 -0.31752061536E+01 -0.96300826953E+01  0.59176076394E+01  0.11740464525E+02  0.51100000000E-03 0. -1.
        -11    1    3    3    0    0  0.31456242340E+01 -0.14498579146E+02 -0.52284190931E+00  0.14845104007E+02  0.51100000000E-03 0.  1.
        -12    1    3    3    0    0 -0.71390793820E+01 -0.13778234390E+02 -0.18233895888E+02  0.23943290429E+02  0.00000000000E+00 0.  1.
</event>
<event>
 7    1  0.9490874E-013  0.5052885E+02  0.7816164E-02  0.1300439E+00
        -11   -1    0    0    0    0  0.00000000000E+00  0.00000000000E+00  0.45593999997E+02  0.45594000000E+02  0.51100000000E-03 0. -1.
         11   -1    0    0    0    0 -0.00000000000E+00 -0.00000000000E+00 -0.45593999997E+02  0.45594000000E+02  0.51100000000E-03 0.  1.
    9900012    2    1    2    0    0  0.38649181107E+02  0.97523722908E+01 -0.80186192881E+01  0.50528853172E+02  0.29999979700E+02 0.  0.
         12    1    1    2    0    0 -0.38649181107E+02 -0.97523722908E+01  0.80186192881E+01  0.40659146828E+02  0.00000000000E+00 0. -1.
         11    1    3    3    0    0  0.10052057494E+02  0.13118034368E+02 -0.60763605005E+01  0.17608203848E+02  0.51100000000E-03 0. -1.
        -11    1    3    3    0    0  0.18425684131E+02  0.11487028942E+00 -0.85380770483E+01  0.20308072061E+02  0.51100000000E-03 0.  1.
         12    1    3    3    0    0  0.10171439482E+02 -0.34805323668E+01  0.65958182607E+01  0.12612577263E+02  0.00000000000E+00 0. -1.
</event>
<event>
 7    1  0.6726285E-013  0.5052886E+02  0.7816164E-02  0.1300439E+00
        -11   -1    0    0    0    0  0.00000000000E+00  0.00000000000E+00  0.45593999997E+02  0.45594000000E+02  0.51100000000E-03 0.  1.
         11   -1    0    0    0    0 -0.00000000000E+00 -0.00000000000E+00 -0.45593999997E+02  0.45594000000E+02  0.51100000000E-03 0. -1.
    9900012    2    1    2    0    0  0.23699449941E+02  0.32741854580E+02  0.44128083546E+01  0.50528857776E+02  0.29999993695E+02 0.  0.
         12    1    1    2    0    0 -0.23699449941E+02 -0.32741854580E+02 -0.44128083546E+01  0.40659142224E+02  0.00000000000E+00 0. -1.
         11    1    3    3    0    0  0.20189679747E+02  0.10434320851E+02  0.34781190241E+01  0.22991205539E+02  0.51100000000E-03 0. -1.
        -11    1    3    3    0    0  0.37387261872E+01  0.22076547674E+02 -0.38692256510E+01  0.22722740550E+02  0.51100000000E-03 0.  1.
         12    1    3    3    0    0 -0.22895599323E+00  0.23098605455E+00  0.48039149815E+01  0.48149116870E+01  0.00000000000E+00 0. -1.
</event>
<event>
 7    1  0.6726285E-013  0.5052886E+02  0.7816164E-02  0.1300439E+00
        -11   -1    0    0    0    0  0.00000000000E+00  0.00000000000E+00  0.45593999997E+02  0.45594000000E+02  0.51100000000E-03 0.  1.
         11   -1    0    0    0    0 -0.00000000000E+00 -0.00000000000E+00 -0.45593999997E+02  0.45594000000E+02  0.51100000000E-03 0. -1.
    9900012    2    1    2    0    0 -0.19521327482E+02 -0.28389052328E+02  0.21590391102E+02  0.50528861954E+02  0.30000006394E+02 0.  0.
         12    1    1    2    0    0  0.19521327482E+02  0.28389052328E+02 -0.21590391102E+02  0.40659138046E+02  0.00000000000E+00 0. -1.
         11    1    3    3    0    0 -0.66406042991E+00 -0.27484215577E+01  0.76674952022E+01  0.81722261502E+01  0.51100000000E-03 0. -1.
        -11    1    3    3    0    0 -0.13999875263E+02 -0.13922548099E+02  0.20162750121E+02  0.28220034473E+02  0.51100000000E-03 0.  1.
        -12    1    3    3    0    0 -0.48573917893E+01 -0.11718082671E+02 -0.62398542208E+01  0.14136601331E+02  0.00000000000E+00 0.  1.
</event>
<event>
 7    1  0.6726285E-013  0.5052886E+02  0.7816164E-02  0.1300439E+00
        -11   -1    0    0    0    0  0.00000000000E+00  0.00000000000E+00  0.45593999997E+02  0.45594000000E+02  0.51100000000E-03 0.  1.
         11   -1    0    0    0    0 -0.00000000000E+00 -0.00000000000E+00 -0.45593999997E+02  0.45594000000E+02  0.51100000000E-03 0. -1.
    9900012    2    1    2    0    0 -0.38067454768E+02  0.64366067832E+01  0.12751646081E+02  0.50528862071E+02  0.30000006750E+02 0.  0.
         12    1    1    2    0    0  0.38067454768E+02 -0.64366067832E+01 -0.12751646081E+02  0.40659137929E+02  0.00000000000E+00 0. -1.
         11    1    3    3    0    0 -0.58876798684E+01  0.44249621665E+00 -0.42641868349E+01  0.72831220475E+01  0.51100000000E-03 0. -1.
        -11    1    3    3    0    0 -0.65849422324E+01  0.10800773676E+02  0.10372828086E+01  0.12692286323E+02  0.51100000000E-03 0.  1.
        -12    1    3    3    0    0 -0.25594832667E+02 -0.48066631096E+01  0.15978550108E+02  0.30553453701E+02  0.00000000000E+00 0.  1.
</event>
<event>
 7    1  0.6726285E-013  0.5052886E+02  0.7816164E-02  0.1300439E+00
        -11   -1    0    0    0    0  0.00000000000E+00  0.00000000000E+00  0.45593999997E+02  0.45594000000E+02  0.51100000000E-03 0. -1.
         11   -1    0    0    0    0 -0.00000000000E+00 -0.00000000000E+00 -0.45593999997E+02  0.45594000000E+02  0.51100000000E-03 0.  1.
    9900012    2    1    2    0    0 -0.37866663128E+02 -0.14397039128E+02 -0.34650993536E+01  0.50528858032E+02  0.29999994474E+02 0.  0.
         12    1    1    2    0    0  0.37866663128E+02  0.14397039128E+02  0.34650993536E+01  0.40659141968E+02  0.00000000000E+00 0. -1.
         11    1    3    3    0    0 -0.50428387743E+01 -0.79895104894E+01  0.41272008185E+00  0.94568937232E+01  0.51100000000E-03 0. -1.
        -11    1    3    3    0    0 -0.30698252351E+02 -0.49648193045E+01  0.52963164333E+01  0.31544937727E+02  0.51100000000E-03 0.  1.
        -12    1    3    3    0    0 -0.21255720019E+01 -0.14427093338E+01 -0.91741358688E+01  0.95270265821E+01  0.00000000000E+00 0.  1.
</event>
<event>
 7    1  0.6726285E-013  0.5052894E+02  0.7816164E-02  0.1300438E+00
        -11   -1    0    0    0    0  0.00000000000E+00  0.00000000000E+00  0.45593999997E+02  0.45594000000E+02  0.51100000000E-03 0.  1.
         11   -1    0    0    0    0 -0.00000000000E+00 -0.00000000000E+00 -0.45593999997E+02  0.45594000000E+02  0.51100000000E-03 0. -1.
    9900012    2    1    2    0    0 -0.37110345897E+02 -0.27641156284E+01  0.16381107493E+02  0.50528944545E+02  0.30000257437E+02 0.  0.
         12    1    1    2    0    0  0.37110345897E+02  0.27641156284E+01 -0.16381107493E+02  0.40659055455E+02  0.00000000000E+00 0. -1.
         11    1    3    3    0    0 -0.26911614784E+02 -0.49984085141E+01  0.11494653797E+02  0.29687474869E+02  0.51100000000E-03 0. -1.
        -11    1    3    3    0    0 -0.12107337002E+02 -0.45472136419E+01  0.14841663851E+01  0.13017968785E+02  0.51100000000E-03 0.  1.
         12    1    3    3    0    0  0.19086058886E+01  0.67815065276E+01  0.34022873116E+01  0.78235008898E+01  0.00000000000E+00 0. -1.
</event>
<event>
 7    1  0.6726285E-013  0.5052886E+02  0.7816164E-02  0.1300439E+00
        -11   -1    0    0    0    0  0.00000000000E+00  0.00000000000E+00  0.45593999997E+02  0.45594000000E+02  0.51100000000E-03 0. -1.
         11   -1    0    0    0    0 -0.00000000000E+00 -0.00000000000E+00 -0.45593999997E+02  0.45594000000E+02  0.51100000000E-03 0.  1.
    9900012    2    1    2    0    0 -0.92076739436E+01  0.37935898143E+02 -0.11368896215E+02  0.50528862915E+02  0.30000009316E+02 0.  0.
         12    1    1    2    0    0  0.92076739436E+01 -0.37935898143E+02  0.11368896215E+02  0.40659137085E+02  0.00000000000E+00 0. -1.
         11    1    3    3    0    0  0.11167528146E+01  0.38338188635E+01  0.37503299939E-01  0.39933332801E+01  0.51100000000E-03 0. -1.
        -11    1    3    3    0    0  0.10643120154E+01  0.25533188113E+02 -0.17564721229E+02  0.31009609597E+02  0.51100000000E-03 0.  1.
         12    1    3    3    0    0 -0.11388738774E+02  0.85688911667E+01  0.61583217138E+01  0.15525920038E+02  0.00000000000E+00 0. -1.
</event>
<event>
 7    1  0.6726285E-013  0.5052885E+02  0.7816164E-02  0.1300439E+00
        -11   -1    0    0    0    0  0.00000000000E+00  0.00000000000E+00  0.45593999997E+02  0.45594000000E+02  0.51100000000E-03 0. -1.
         11   -1    0    0    0    0 -0.00000000000E+00 -0.00000000000E+00 -0.45593999997E+02  0.45594000000E+02  0.51100000000E-03 0.  1.
    9900012    2    1    2    0    0  0.14668540814E+02  0.96250661601E+01 -0.36679125318E+02  0.50528853153E+02  0.29999979644E+02 0.  0.
         12    1    1    2    0    0 -0.14668540814E+02 -0.96250661601E+01  0.36679125318E+02  0.40659146847E+02  0.00000000000E+00 0. -1.
         11    1    3    3    0    0  0.79728858207E+01 -0.23894332091E+01 -0.50252982175E+01  0.97226499375E+01  0.51100000000E-03 0. -1.
        -11    1    3    3    0    0  0.91631693145E+01 -0.32845230398E+01 -0.83752308086E+01  0.12841193669E+02  0.51100000000E-03 0.  1.
         12    1    3    3    0    0 -0.24675143210E+01  0.15299022409E+02 -0.23278596292E+02  0.27965009547E+02  0.00000000000E+00 0. -1.
</event>
<event>
 7    1  0.6726285E-013  0.5052886E+02  0.7816164E-02  0.1300439E+00
        -11   -1    0    0    0    0  0.00000000000E+00  0.00000000000E+00  0.45593999997E+02  0.45594000000E+02  0.51100000000E-03 0. -1.
         11   -1    0    0    0    0 -0.00000000000E+00 -0.00000000000E+00 -0.45593999997E+02  0.45594000000E+02  0.51100000000E-03 0.  1.
    9900012    2    1    2    0    0  0.10320416472E+02  0.21202814789E+02 -0.33122430407E+02  0.50528858996E+02  0.29999997404E+02 0.  0.
         12    1    1    2    0    0 -0.10320416472E+02 -0.21202814789E+02  0.33122430407E+02  0.40659141004E+02  0.00000000000E+00 0. -1.
         11    1    3    3    0    0 -0.20819740365E+01  0.96494661860E+00  0.22169276626E+01  0.31906905816E+01  0.51100000000E-03 0. -1.
        -11    1    3    3    0    0 -0.17464889745E+01 -0.31079281597E+01 -0.15189944747E+01  0.38751497595E+01  0.51100000000E-03 0.  1.
        -12    1    3    3    0    0  0.14148879483E+02  0.23345796330E+02 -0.33820363595E+02  0.43463018655E+02  0.00000000000E+00 0.  1.
</event>
<event>
 7    1  0.6726285E-013  0.5052887E+02  0.7816164E-02  0.1300439E+00
        -11   -1    0    0    0    0  0.00000000000E+00  0.00000000000E+00  0.45593999997E+02  0.45594000000E+02  0.51100000000E-03 0. -1.
         11   -1    0    0    0    0 -0.00000000000E+00 -0.00000000000E+00 -0.45593999997E+02  0.45594000000E+02  0.51100000000E-03 0.  1.
    9900012    2    1    2    0    0 -0.28166899537E+02 -0.36566317320E+01  0.29093297903E+02  0.50528866118E+02  0.30000019052E+02 0.  0.
         12    1    1    2    0    0  0.28166899537E+02  0.36566317320E+01 -0.29093297903E+02  0.40659133882E+02  0.00000000000E+00 0. -1.
         11    1    3    3    0    0 -0.19637574115E+01  0.48272958879E+01  0.68861637666E+01  0.86358775142E+01  0.51100000000E-03 0. -1.
        -11    1    3    3    0    0 -0.15179418302E+02  0.67829420126E+01  0.91423008629E+01  0.18973790018E+02  0.51100000000E-03 0.  1.
         12    1    3    3    0    0 -0.11023723824E+02 -0.15266869633E+02  0.13064833274E+02  0.22919198586E+02  0.00000000000E+00 0. -1.
</event>
<event>
 7    1  0.6726285E-013  0.5052885E+02  0.7816164E-02  0.1300439E+00
        -11   -1    0    0    0    0  0.00000000000E+00  0.00000000000E+00  0.45593999997E+02  0.45594000000E+02  0.51100000000E-03 0.  1.
         11   -1    0    0    0    0 -0.00000000000E+00 -0.00000000000E+00 -0.45593999997E+02  0.45594000000E+02  0.51100000000E-03 0. -1.
    9900012    2    1    2    0    0 -0.11854716289E+02 -0.17340092532E+02  0.34813124742E+02  0.50528846521E+02  0.29999959486E+02 0.  0.
         12    1    1    2    0    0  0.11854716289E+02  0.17340092532E+02 -0.34813124742E+02  0.40659153479E+02  0.00000000000E+00 0. -1.
         11    1    3    3    0    0  0.18857587021E+01 -0.55968970637E+00 -0.30658363400E+01  0.36426214702E+01  0.51100000000E-03 0. -1.
        -11    1    3    3    0    0 -0.46852025874E+01 -0.15940167971E+01 -0.14642399291E+00  0.49511062483E+01  0.51100000000E-03 0.  1.
        -12    1    3    3    0    0 -0.90552724038E+01 -0.15186386028E+02  0.38025385075E+02  0.41935118803E+02  0.00000000000E+00 0.  1.
</event>
<event>
 7    1  0.6726285E-013  0.5052886E+02  0.7816164E-02  0.1300439E+00
        -11   -1    0    0    0    0  0.00000000000E+00  0.00000000000E+00  0.45593999997E+02  0.45594000000E+02  0.51100000000E-03 0.  1.
         11   -1    0    0    0    0 -0.00000000000E+00 -0.00000000000E+00 -0.45593999997E+02  0.45594000000E+02  0.51100000000E-03 0. -1.
    9900012    2    1    2    0    0 -0.34812542303E+02  0.14136256701E+02  0.15537659213E+02  0.50528859467E+02  0.29999998835E+02 0.  0.
         12    1    1    2    0    0  0.34812542303E+02 -0.14136256701E+02 -0.15537659213E+02  0.40659140533E+02  0.00000000000E+00 0. -1.
         11    1    3    3    0    0 -0.98496308111E+00  0.31551738520E+01 -0.18142733936E+01  0.37705254959E+01  0.51100000000E-03 0. -1.
        -11    1    3    3    0    0 -0.20397061590E+02  0.18608568563E+02  0.81861257401E+01  0.28798118000E+02  0.51100000000E-03 0.  1.
        -12    1    3    3    0    0 -0.13430517632E+02 -0.76274857146E+01  0.91658068661E+01  0.17960215970E+02  0.00000000000E+00 0.  1.
</event>
<event>
 7    1  0.6726285E-013  0.5052887E+02  0.7816164E-02  0.1300439E+00
        -11   -1    0    0    0    0  0.00000000000E+00  0.00000000000E+00  0.45593999997E+02  0.45594000000E+02  0.51100000000E-03 0. -1.
         11   -1    0    0    0    0 -0.00000000000E+00 -0.00000000000E+00 -0.45593999997E+02  0.45594000000E+02  0.51100000000E-03 0.  1.
    9900012    2    1    2    0    0  0.22957794662E+02  0.18167404428E+02 -0.28214360938E+02  0.50528867169E+02  0.30000022247E+02 0.  0.
         12    1    1    2    0    0 -0.22957794662E+02 -0.18167404428E+02  0.28214360938E+02  0.40659132831E+02  0.00000000000E+00 0. -1.
         11    1    3    3    0    0  0.11523180091E+01 -0.44937663700E+01 -0.81943894026E+01  0.94164638227E+01  0.51100000000E-03 0. -1.
        -11    1    3    3    0    0  0.56296675867E-01 -0.25037946439E+01 -0.24164977353E+01  0.34801750675E+01  0.51100000000E-03 0.  1.
        -12    1    3    3    0    0  0.21749179977E+02  0.25164965442E+02 -0.17603473800E+02  0.37632228279E+02  0.00000000000E+00 0.  1.
</event>
<event>
 7    1  0.6726285E-013  0.5052886E+02  0.7816164E-02  0.1300439E+00
        -11   -1    0    0    0    0  0.00000000000E+00  0.00000000000E+00  0.45593999997E+02  0.45594000000E+02  0.51100000000E-03 0.  1.
         11   -1    0    0    0    0 -0.00000000000E+00 -0.00000000000E+00 -0.45593999997E+02  0.45594000000E+02  0.51100000000E-03 0. -1.
    9900012    2    1    2    0    0 -0.27039649068E+02  0.43620522328E+01  0.30049886799E+02  0.50528858125E+02  0.29999994756E+02 0.  0.
         12    1    1    2    0    0  0.27039649068E+02 -0.43620522328E+01 -0.30049886799E+02  0.40659141875E+02  0.00000000000E+00 0. -1.
         11    1    3    3    0    0 -0.24344586652E+01  0.17635287185E+01  0.77437258830E+01  0.83067390320E+01  0.51100000000E-03 0. -1.
        -11    1    3    3    0    0 -0.69291412367E+01  0.12542138759E+02  0.39395257225E+01  0.14860622669E+02  0.51100000000E-03 0.  1.
        -12    1    3    3    0    0 -0.17676049166E+02 -0.99436152443E+01  0.18366635193E+02  0.27361496424E+02  0.00000000000E+00 0.  1.
</event>
<event>
 7    1  0.6726285E-013  0.5052885E+02  0.7816164E-02  0.1300439E+00
        -11   -1    0    0    0    0  0.00000000000E+00  0.00000000000E+00  0.45593999997E+02  0.45594000000E+02  0.51100000000E-03 0.  1.
         11   -1    0    0    0    0 -0.00000000000E+00 -0.00000000000E+00 -0.45593999997E+02  0.45594000000E+02  0.51100000000E-03 0. -1.
    9900012    2    1    2    0    0  0.37574911120E+02  0.98398868539E+01  0.12019535829E+02  0.50528848994E+02  0.29999967002E+02 0.  0.
         12    1    1    2    0    0 -0.37574911120E+02 -0.98398868539E+01 -0.12019535829E+02  0.40659151006E+02  0.00000000000E+00 0. -1.
         11    1    3    3    0    0 -0.33843520272E+01 -0.55133695500E+00  0.10116622418E+01  0.35750904652E+01  0.51100000000E-03 0. -1.
        -11    1    3    3    0    0 -0.93337341296E+00 -0.36354284398E+00 -0.16131227492E+01  0.18988192627E+01  0.51100000000E-03 0.  1.
        -12    1    3    3    0    0  0.41892636560E+02  0.10754766653E+02  0.12620996336E+02  0.45054939266E+02  0.00000000000E+00 0.  1.
</event>
<event>
 7    1  0.6726285E-013  0.5052886E+02  0.7816164E-02  0.1300439E+00
        -11   -1    0    0    0    0  0.00000000000E+00  0.00000000000E+00  0.45593999997E+02  0.45594000000E+02  0.51100000000E-03 0.  1.
         11   -1    0    0    0    0 -0.00000000000E+00 -0.00000000000E+00 -0.45593999997E+02  0.45594000000E+02  0.51100000000E-03 0. -1.
    9900012    2    1    2    0    0  0.13934460160E+02  0.10714654524E+02  0.36663231770E+02  0.50528861232E+02  0.30000004202E+02 0.  0.
         12    1    1    2    0    0 -0.13934460160E+02 -0.10714654524E+02 -0.36663231770E+02  0.40659138768E+02  0.00000000000E+00 0. -1.
         11    1    3    3    0    0  0.37223381450E+01  0.10704423300E+02  0.25585596701E+02  0.27983267112E+02  0.51100000000E-03 0.  1.
        -11    1    3    3    0    0  0.14981102726E+01  0.74639342749E+01  0.18692437417E+01  0.78389235024E+01  0.51100000000E-03 0. -1.
        -12    1    3    3    0    0  0.87140117424E+01 -0.74537030515E+01  0.92083913270E+01  0.14706670618E+02  0.00000000000E+00 0.  1.
</event>
<event>
 7    1  0.6726285E-013  0.5052886E+02  0.7816164E-02  0.1300439E+00
        -11   -1    0    0    0    0  0.00000000000E+00  0.00000000000E+00  0.45593999997E+02  0.45594000000E+02  0.51100000000E-03 0.  1.
         11   -1    0    0    0    0 -0.00000000000E+00 -0.00000000000E+00 -0.45593999997E+02  0.45594000000E+02  0.51100000000E-03 0. -1.
    9900012    2    1    2    0    0  0.83810686401E+01 -0.19829558374E+02  0.34492202742E+02  0.50528859000E+02  0.29999997416E+02 0.  0.
         12    1    1    2    0    0 -0.83810686401E+01  0.19829558374E+02 -0.34492202742E+02  0.40659141000E+02  0.00000000000E+00 0. -1.
         11    1    3    3    0    0 -0.12140669572E+01 -0.94409369505E+00 -0.14690998544E+01  0.21268582757E+01  0.51100000000E-03 0. -1.
        -11    1    3    3    0    0 -0.35064488993E+01 -0.92014698083E+01  0.10831567086E+01  0.99063342984E+01  0.51100000000E-03 0.  1.
         12    1    3    3    0    0  0.13101584497E+02 -0.96839948706E+01  0.34878145888E+02  0.38495666426E+02  0.00000000000E+00 0. -1.
</event>
<event>
 7    1  0.6726285E-013  0.5052883E+02  0.7816164E-02  0.1300439E+00
        -11   -1    0    0    0    0  0.00000000000E+00  0.00000000000E+00  0.45593999997E+02  0.45594000000E+02  0.51100000000E-03 0. -1.
         11   -1    0    0    0    0 -0.00000000000E+00 -0.00000000000E+00 -0.45593999997E+02  0.45594000000E+02  0.51100000000E-03 0.  1.
    9900012    2    1    2    0    0  0.14789636252E+02  0.77177787106E+01 -0.37079245685E+02  0.50528832408E+02  0.29999916588E+02 0.  0.
         12    1    1    2    0    0 -0.14789636252E+02 -0.77177787106E+01  0.37079245685E+02  0.40659167592E+02  0.00000000000E+00 0. -1.
         11    1    3    3    0    0  0.26438084587E+01 -0.40793739392E+01 -0.15062075187E+02  0.15827100938E+02  0.51100000000E-03 0. -1.
        -11    1    3    3    0    0 -0.26439931897E+01  0.13548428705E+01 -0.14989205046E+02  0.15280790797E+02  0.51100000000E-03 0.  1.
        -12    1    3    3    0    0  0.14789820983E+02  0.10442309779E+02 -0.70279654513E+01  0.19420940673E+02  0.00000000000E+00 0.  1.
</event>
<event>
 7    1  0.6726285E-013  0.5052886E+02  0.7816164E-02  0.1300439E+00
        -11   -1    0    0    0    0  0.00000000000E+00  0.00000000000E+00  0.45593999997E+02  0.45594000000E+02  0.51100000000E-03 0. -1.
         11   -1    0    0    0    0 -0.00000000000E+00 -0.00000000000E+00 -0.45593999997E+02  0.45594000000E+02  0.51100000000E-03 0.  1.
    9900012    2    1    2    0    0  0.15501973539E+02 -0.34390926705E+02 -0.15169650515E+02  0.50528864249E+02  0.30000013372E+02 0.  0.
         12    1    1    2    0    0 -0.15501973539E+02  0.34390926705E+02  0.15169650515E+02  0.40659135751E+02  0.00000000000E+00 0. -1.
         11    1    3    3    0    0  0.27980061489E+01  0.14917079455E+01 -0.27364198371E+01  0.41883200439E+01  0.51100000000E-03 0. -1.
        -11    1    3    3    0    0  0.15102206984E+02 -0.10469452448E+02 -0.93821290358E+01  0.20632751533E+02  0.51100000000E-03 0.  1.
         12    1    3    3    0    0 -0.23982395936E+01 -0.25413182203E+02 -0.30511016417E+01  0.25707792672E+02  0.00000000000E+00 0. -1.
</event>
<event>
 7    1  0.6726285E-013  0.5052885E+02  0.7816164E-02  0.1300439E+00
        -11   -1    0    0    0    0  0.00000000000E+00  0.00000000000E+00  0.45593999997E+02  0.45594000000E+02  0.51100000000E-03 0.  1.
         11   -1    0    0    0    0 -0.00000000000E+00 -0.00000000000E+00 -0.45593999997E+02  0.45594000000E+02  0.51100000000E-03 0. -1.
    9900012    2    1    2    0    0 -0.22895972420E+02 -0.25065701583E+02  0.22375240327E+02  0.50528851846E+02  0.29999975672E+02 0.  0.
         12    1    1    2    0    0  0.22895972420E+02  0.25065701583E+02 -0.22375240327E+02  0.40659148154E+02  0.00000000000E+00 0. -1.
         11    1    3    3    0    0 -0.12343092373E+02 -0.16928200759E+02  0.23787419559E+02  0.31697905921E+02  0.51100000000E-03 0. -1.
        -11    1    3    3    0    0 -0.16858010375E+01 -0.69888350634E+01  0.41497838545E+01  0.83009907229E+01  0.51100000000E-03 0.  1.
         12    1    3    3    0    0 -0.88670790092E+01 -0.11486657603E+01 -0.55619630862E+01  0.10529955202E+02  0.00000000000E+00 0. -1.
</event>
<event>
 7    1  0.6726285E-013  0.5052886E+02  0.7816164E-02  0.1300439E+00
        -11   -1    0    0    0    0  0.00000000000E+00  0.00000000000E+00  0.45593999997E+02  0.45594000000E+02  0.51100000000E-03 0.  1.
         11   -1    0    0    0    0 -0.00000000000E+00 -0.00000000000E+00 -0.45593999997E+02  0.45594000000E+02  0.51100000000E-03 0. -1.
    9900012    2    1    2    0    0  0.70662827795E+01 -0.35125243169E+02 -0.19221104860E+02  0.50528856722E+02  0.29999990494E+02 0.  0.
         12    1    1    2    0    0 -0.70662827795E+01  0.35125243169E+02  0.19221104860E+02  0.40659143278E+02  0.00000000000E+00 0. -1.
         11    1    3    3    0    0  0.56015780891E+01  0.65274802796E+00  0.85512251824E+00  0.57039452889E+01  0.51100000000E-03 0. -1.
        -11    1    3    3    0    0 -0.80193272276E+01 -0.15862944440E+02 -0.65123280521E+01  0.18930214801E+02  0.51100000000E-03 0.  1.
         12    1    3    3    0    0  0.94840319181E+01 -0.19915046757E+02 -0.13563899326E+02  0.25894696633E+02  0.00000000000E+00 0. -1.
</event>
<event>
 7    1  0.6726285E-013  0.5052885E+02  0.7816164E-02  0.1300439E+00
        -11   -1    0    0    0    0  0.00000000000E+00  0.00000000000E+00  0.45593999997E+02  0.45594000000E+02  0.51100000000E-03 0.  1.
         11   -1    0    0    0    0 -0.00000000000E+00 -0.00000000000E+00 -0.45593999997E+02  0.45594000000E+02  0.51100000000E-03 0. -1.
    9900012    2    1    2    0    0  0.27094478610E+02 -0.14881590992E+02  0.26411997303E+02  0.50528854373E+02  0.29999983351E+02 0.  0.
         12    1    1    2    0    0 -0.27094478610E+02  0.14881590992E+02 -0.26411997303E+02  0.40659145627E+02  0.00000000000E+00 0. -1.
         11    1    3    3    0    0  0.29585337219E+01  0.55872076145E+00 -0.32434134791E+01  0.44254742040E+01  0.51100000000E-03 0. -1.
        -11    1    3    3    0    0  0.21780506083E+02 -0.37130529211E+01  0.13124656447E+02  0.25698906871E+02  0.51100000000E-03 0.  1.
        -12    1    3    3    0    0  0.23554388049E+01 -0.11727258832E+02  0.16530754335E+02  0.20404473298E+02  0.00000000000E+00 0.  1.
</event>
<event>
 7    1  0.6726285E-013  0.5052886E+02  0.7816164E-02  0.1300439E+00
        -11   -1    0    0    0    0  0.00000000000E+00  0.00000000000E+00  0.45593999997E+02  0.45594000000E+02  0.51100000000E-03 0. -1.
         11   -1    0    0    0    0 -0.00000000000E+00 -0.00000000000E+00 -0.45593999997E+02  0.45594000000E+02  0.51100000000E-03 0.  1.
    9900012    2    1    2    0    0  0.30803541108E+02  0.25457751712E+02 -0.74973472792E+01  0.50528862242E+02  0.30000007272E+02 0.  0.
         12    1    1    2    0    0 -0.30803541108E+02 -0.25457751712E+02  0.74973472792E+01  0.40659137758E+02  0.00000000000E+00 0. -1.
         11    1    3    3    0    0  0.13345633508E+01  0.11830029259E+02 -0.58288767318E+01  0.13255431182E+02  0.51100000000E-03 0. -1.
        -11    1    3    3    0    0  0.71599638287E+01  0.12040431933E+02 -0.45369020959E+01  0.14724828150E+02  0.51100000000E-03 0.  1.
         12    1    3    3    0    0  0.22309013928E+02  0.15872905194E+01  0.28684315484E+01  0.22548602910E+02  0.00000000000E+00 0. -1.
</event>
<event>
 7    1  0.6726285E-013  0.5052889E+02  0.7816164E-02  0.1300439E+00
        -11   -1    0    0    0    0  0.00000000000E+00  0.00000000000E+00  0.45593999997E+02  0.45594000000E+02  0.51100000000E-03 0. -1.
         11   -1    0    0    0    0 -0.00000000000E+00 -0.00000000000E+00 -0.45593999997E+02  0.45594000000E+02  0.51100000000E-03 0.  1.
    9900012    2    1    2    0    0  0.80164036987E+01 -0.33724864484E+02 -0.21249325368E+02  0.50528892271E+02  0.30000098547E+02 0.  0.
         12    1    1    2    0    0 -0.80164036987E+01  0.33724864484E+02  0.21249325368E+02  0.40659107729E+02  0.00000000000E+00 0. -1.
         11    1    3    3    0    0 -0.40789526362E+01 -0.16899183691E+02 -0.20461385028E+02  0.26849367619E+02  0.51100000000E-03 0. -1.
        -11    1    3    3    0    0 -0.22722605511E+01 -0.22352770414E+01 -0.21062762958E+00  0.31943693780E+01  0.51100000000E-03 0.  1.
         12    1    3    3    0    0  0.14367616886E+02 -0.14590403752E+02 -0.57731271018E+00  0.20485155274E+02  0.00000000000E+00 0. -1.
</event>
<event>
 7    1  0.8691153E-013  0.5052886E+02  0.7816164E-02  0.1300439E+00
        -11   -1    0    0    0    0  0.00000000000E+00  0.00000000000E+00  0.45593999997E+02  0.45594000000E+02  0.51100000000E-03 0. -1.
         11   -1    0    0    0    0 -0.00000000000E+00 -0.00000000000E+00 -0.45593999997E+02  0.45594000000E+02  0.51100000000E-03 0.  1.
    9900012    2    1    2    0    0  0.31307003716E+01 -0.36894929519E+02 -0.16796681372E+02  0.50528860632E+02  0.30000002376E+02 0.  0.
         12    1    1    2    0    0 -0.31307003716E+01  0.36894929519E+02  0.16796681372E+02  0.40659139368E+02  0.00000000000E+00 0. -1.
         11    1    3    3    0    0  0.23666653862E+01  0.12555605214E+01  0.23357954960E+01  0.35543604394E+01  0.51100000000E-03 0. -1.
        -11    1    3    3    0    0  0.53388105843E+01 -0.31106867099E+02 -0.71831763000E+01  0.32368782819E+02  0.51100000000E-03 0.  1.
         12    1    3    3    0    0 -0.45747755988E+01 -0.70436229415E+01 -0.11949300568E+02  0.14605717373E+02  0.00000000000E+00 0. -1.
</event>
<event>
 7    1  0.6726285E-013  0.5052885E+02  0.7816164E-02  0.1300439E+00
        -11   -1    0    0    0    0  0.00000000000E+00  0.00000000000E+00  0.45593999997E+02  0.45594000000E+02  0.51100000000E-03 0.  1.
         11   -1    0    0    0    0 -0.00000000000E+00 -0.00000000000E+00 -0.45593999997E+02  0.45594000000E+02  0.51100000000E-03 0. -1.
    9900012    2    1    2    0    0  0.25729096596E+02  0.22040980388E+02  0.22480543724E+02  0.50528854974E+02  0.29999985180E+02 0.  0.
         12    1    1    2    0    0 -0.25729096596E+02 -0.22040980388E+02 -0.22480543724E+02  0.40659145026E+02  0.00000000000E+00 0. -1.
         11    1    3    3    0    0  0.18026894488E+02  0.13981433296E+02  0.15655010051E+02  0.27668190072E+02  0.51100000000E-03 0. -1.
        -11    1    3    3    0    0  0.97536652061E+01  0.39227098836E+01  0.11981120148E+02  0.15939538200E+02  0.51100000000E-03 0.  1.
         12    1    3    3    0    0 -0.20514630988E+01  0.41368372081E+01 -0.51555864745E+01  0.69211267022E+01  0.00000000000E+00 0. -1.
</event>
<event>
 7    1  0.6726285E-013  0.5052893E+02  0.7816164E-02  0.1300439E+00
        -11   -1    0    0    0    0  0.00000000000E+00  0.00000000000E+00  0.45593999997E+02  0.45594000000E+02  0.51100000000E-03 0.  1.
         11   -1    0    0    0    0 -0.00000000000E+00 -0.00000000000E+00 -0.45593999997E+02  0.45594000000E+02  0.51100000000E-03 0. -1.
    9900012    2    1    2    0    0 -0.19123235047E+02 -0.39688072235E+01  0.35661046867E+02  0.50528931970E+02  0.30000219216E+02 0.  0.
         12    1    1    2    0    0  0.19123235047E+02  0.39688072235E+01 -0.35661046867E+02  0.40659068030E+02  0.00000000000E+00 0. -1.
         11    1    3    3    0    0 -0.86973253832E+01 -0.91925000915E+01  0.13959406187E+02  0.18841723597E+02  0.51100000000E-03 0.  1.
        -11    1    3    3    0    0 -0.20841133289E+01 -0.49467471818E+01  0.16821615225E+02  0.17657309395E+02  0.51100000000E-03 0. -1.
         12    1    3    3    0    0 -0.83417963344E+01  0.10170440050E+02  0.48800254554E+01  0.14029898978E+02  0.00000000000E+00 0. -1.
</event>
<event>
 7    1  0.6726285E-013  0.5052887E+02  0.7816164E-02  0.1300439E+00
        -11   -1    0    0    0    0  0.00000000000E+00  0.00000000000E+00  0.45593999997E+02  0.45594000000E+02  0.51100000000E-03 0.  1.
         11   -1    0    0    0    0 -0.00000000000E+00 -0.00000000000E+00 -0.45593999997E+02  0.45594000000E+02  0.51100000000E-03 0. -1.
    9900012    2    1    2    0    0  0.56963998254E+01  0.37964972276E+01  0.40078703934E+02  0.50528869769E+02  0.30000030149E+02 0.  0.
         12    1    1    2    0    0 -0.56963998254E+01 -0.37964972276E+01 -0.40078703934E+02  0.40659130231E+02  0.00000000000E+00 0. -1.
         11    1    3    3    0    0 -0.36517782632E+01  0.89749495251E+01  0.12207695118E+02  0.15585667256E+02  0.51100000000E-03 0. -1.
        -11    1    3    3    0    0 -0.41089849622E+01 -0.38319529523E+01  0.15965146823E+02  0.16924938233E+02  0.51100000000E-03 0.  1.
        -12    1    3    3    0    0  0.13457163051E+02 -0.13464993451E+01  0.11905861993E+02  0.18018264280E+02  0.00000000000E+00 0.  1.
</event>
<event>
 7    1  0.6726285E-013  0.5052885E+02  0.7816164E-02  0.1300439E+00
        -11   -1    0    0    0    0  0.00000000000E+00  0.00000000000E+00  0.45593999997E+02  0.45594000000E+02  0.51100000000E-03 0. -1.
         11   -1    0    0    0    0 -0.00000000000E+00 -0.00000000000E+00 -0.45593999997E+02  0.45594000000E+02  0.51100000000E-03 0.  1.
    9900012    2    1    2    0    0 -0.22310822801E+02  0.32148532802E+02  0.11039253679E+02  0.50528854692E+02  0.29999984322E+02 0.  0.
         12    1    1    2    0    0  0.22310822801E+02 -0.32148532802E+02 -0.11039253679E+02  0.40659145308E+02  0.00000000000E+00 0. -1.
         11    1    3    3    0    0 -0.22314883958E+01  0.11061521136E+02  0.52929589652E+01  0.12464036472E+02  0.51100000000E-03 0. -1.
        -11    1    3    3    0    0 -0.19323622957E+02  0.20038474980E+02  0.12980963298E+02  0.30715603398E+02  0.51100000000E-03 0.  1.
        -12    1    3    3    0    0 -0.75571144808E+00  0.10485366861E+01 -0.72346685842E+01  0.73492148218E+01  0.00000000000E+00 0.  1.
</event>
<event>
 7    1  0.6726285E-013  0.5052885E+02  0.7816164E-02  0.1300439E+00
        -11   -1    0    0    0    0  0.00000000000E+00  0.00000000000E+00  0.45593999997E+02  0.45594000000E+02  0.51100000000E-03 0.  1.
         11   -1    0    0    0    0 -0.00000000000E+00 -0.00000000000E+00 -0.45593999997E+02  0.45594000000E+02  0.51100000000E-03 0. -1.
    9900012    2    1    2    0    0 -0.12186098826E+02 -0.12224050215E+02  0.36813559625E+02  0.50528848748E+02  0.29999966255E+02 0.  0.
         12    1    1    2    0    0  0.12186098826E+02  0.12224050215E+02 -0.36813559625E+02  0.40659151252E+02  0.00000000000E+00 0. -1.
         11    1    3    3    0    0  0.16624690210E+01 -0.26149917625E+01 -0.35422594912E+01  0.47063348508E+01  0.51100000000E-03 0. -1.
        -11    1    3    3    0    0  0.18515620899E+01 -0.22293620583E+01  0.14853331787E+01  0.32564631539E+01  0.51100000000E-03 0.  1.
        -12    1    3    3    0    0 -0.15700129937E+02 -0.73796963942E+01  0.38870485937E+02  0.42566050744E+02  0.00000000000E+00 0.  1.
</event>
<event>
 7    1  0.6726285E-013  0.5052886E+02  0.7816164E-02  0.1300439E+00
        -11   -1    0    0    0    0  0.00000000000E+00  0.00000000000E+00  0.45593999997E+02  0.45594000000E+02  0.51100000000E-03 0.  1.
         11   -1    0    0    0    0 -0.00000000000E+00 -0.00000000000E+00 -0.45593999997E+02  0.45594000000E+02  0.51100000000E-03 0. -1.
    9900012    2    1    2    0    0  0.17342071089E+02 -0.33877451592E+02  0.14308606699E+02  0.50528863490E+02  0.30000011065E+02 0.  0.
         12    1    1    2    0    0 -0.17342071089E+02  0.33877451592E+02 -0.14308606699E+02  0.40659136510E+02  0.00000000000E+00 0. -1.
         11    1    3    3    0    0  0.14401379050E+01 -0.23923726201E+02  0.18467553815E+02  0.30256721843E+02  0.51100000000E-03 0.  1.
        -11    1    3    3    0    0  0.26706126972E+01 -0.21148577466E+01 -0.34923161018E+01  0.48786337721E+01  0.51100000000E-03 0. -1.
        -12    1    3    3    0    0  0.13231320487E+02 -0.78388676449E+01 -0.66663101441E+00  0.15393507875E+02  0.00000000000E+00 0.  1.
</event>
<event>
 7    1  0.6726285E-013  0.5052887E+02  0.7816164E-02  0.1300439E+00
        -11   -1    0    0    0    0  0.00000000000E+00  0.00000000000E+00  0.45593999997E+02  0.45594000000E+02  0.51100000000E-03 0.  1.
         11   -1    0    0    0    0 -0.00000000000E+00 -0.00000000000E+00 -0.45593999997E+02  0.45594000000E+02  0.51100000000E-03 0. -1.
    9900012    2    1    2    0    0 -0.11205312744E+02  0.85391284562E+01  0.38140382533E+02  0.50528873985E+02  0.30000042966E+02 0.  0.
         12    1    1    2    0    0  0.11205312744E+02 -0.85391284562E+01 -0.38140382533E+02  0.40659126015E+02  0.00000000000E+00 0. -1.
         11    1    3    3    0    0 -0.86977648606E+01 -0.25911679966E+01  0.42799274394E+01  0.10034094095E+02  0.51100000000E-03 0. -1.
        -11    1    3    3    0    0 -0.93978691822E+01  0.11442404068E+01  0.10273902029E+02  0.13970765707E+02  0.51100000000E-03 0.  1.
        -12    1    3    3    0    0  0.68903212985E+01  0.99860560460E+01  0.23586553064E+02  0.26524014183E+02  0.00000000000E+00 0.  1.
</event>
<event>
 7    1  0.6726285E-013  0.5052886E+02  0.7816164E-02  0.1300439E+00
        -11   -1    0    0    0    0  0.00000000000E+00  0.00000000000E+00  0.45593999997E+02  0.45594000000E+02  0.51100000000E-03 0.  1.
         11   -1    0    0    0    0 -0.00000000000E+00 -0.00000000000E+00 -0.45593999997E+02  0.45594000000E+02  0.51100000000E-03 0. -1.
    9900012    2    1    2    0    0  0.35606553861E+02  0.60528222235E+01  0.18673577740E+02  0.50528857850E+02  0.29999993922E+02 0.  0.
         12    1    1    2    0    0 -0.35606553861E+02 -0.60528222235E+01 -0.18673577740E+02  0.40659142150E+02  0.00000000000E+00 0. -1.
         11    1    3    3    0    0  0.98897741276E+00 -0.23558371449E+01  0.41444236254E+01  0.48687054156E+01  0.51100000000E-03 0.  1.
        -11    1    3    3    0    0 -0.29272569577E+01 -0.15924216188E+01  0.43779688788E+01  0.55019316311E+01  0.51100000000E-03 0. -1.
        -12    1    3    3    0    0  0.37544833406E+02  0.10001080987E+02  0.10151185236E+02  0.40158220803E+02  0.00000000000E+00 0.  1.
</event>
<event>
 7    1  0.6726285E-013  0.5052886E+02  0.7816164E-02  0.1300439E+00
        -11   -1    0    0    0    0  0.00000000000E+00  0.00000000000E+00  0.45593999997E+02  0.45594000000E+02  0.51100000000E-03 0.  1.
         11   -1    0    0    0    0 -0.00000000000E+00 -0.00000000000E+00 -0.45593999997E+02  0.45594000000E+02  0.51100000000E-03 0. -1.
    9900012    2    1    2    0    0 -0.76844442734E+01  0.21521263470E+02  0.33629604146E+02  0.50528859083E+02  0.29999997668E+02 0.  0.
         12    1    1    2    0    0  0.76844442734E+01 -0.21521263470E+02 -0.33629604146E+02  0.40659140917E+02  0.00000000000E+00 0. -1.
         11    1    3    3    0    0  0.49639277638E+01  0.13268584659E+02  0.15342728951E+02  0.20882893708E+02  0.51100000000E-03 0. -1.
        -11    1    3    3    0    0 -0.85570084351E+01  0.69889932434E+01  0.21580117137E+02  0.24243965761E+02  0.51100000000E-03 0.  1.
        -12    1    3    3    0    0 -0.40913636021E+01  0.12636855679E+01 -0.32932419421E+01  0.54019996139E+01  0.00000000000E+00 0.  1.
</event>
<event>
 7    1  0.6726285E-013  0.5052886E+02  0.7816164E-02  0.1300439E+00
        -11   -1    0    0    0    0  0.00000000000E+00  0.00000000000E+00  0.45593999997E+02  0.45594000000E+02  0.51100000000E-03 0.  1.
         11   -1    0    0    0    0 -0.00000000000E+00 -0.00000000000E+00 -0.45593999997E+02  0.45594000000E+02  0.51100000000E-03 0. -1.
    9900012    2    1    2    0    0 -0.13517053274E+01 -0.30545953643E+02  0.26800805677E+02  0.50528861098E+02  0.30000003795E+02 0.  0.
         12    1    1    2    0    0  0.13517053274E+01  0.30545953643E+02 -0.26800805677E+02  0.40659138902E+02  0.00000000000E+00 0. -1.
         11    1    3    3    0    0 -0.18932318198E+00 -0.15433249810E+02  0.59455101707E+01  0.16539955696E+02  0.51100000000E-03 0. -1.
        -11    1    3    3    0    0  0.62816141563E+01 -0.14077357210E+02  0.46108050296E+01  0.16090064814E+02  0.51100000000E-03 0.  1.
         12    1    3    3    0    0 -0.74439963017E+01 -0.10353466231E+01  0.16244490477E+02  0.17898840589E+02  0.00000000000E+00 0. -1.
</event>
<event>
 7    1  0.6726285E-013  0.5052886E+02  0.7816164E-02  0.1300439E+00
        -11   -1    0    0    0    0  0.00000000000E+00  0.00000000000E+00  0.45593999997E+02  0.45594000000E+02  0.51100000000E-03 0.  1.
         11   -1    0    0    0    0 -0.00000000000E+00 -0.00000000000E+00 -0.45593999997E+02  0.45594000000E+02  0.51100000000E-03 0. -1.
    9900012    2    1    2    0    0 -0.57770320691E+00 -0.26411912170E+02  0.30907007485E+02  0.50528856414E+02  0.29999989555E+02 0.  0.
         12    1    1    2    0    0  0.57770320691E+00  0.26411912170E+02 -0.30907007485E+02  0.40659143586E+02  0.00000000000E+00 0. -1.
         11    1    3    3    0    0  0.97432791996E-01 -0.10252215675E+02  0.22162660897E+01  0.10489483068E+02  0.51100000000E-03 0. -1.
        -11    1    3    3    0    0 -0.37837556032E+01 -0.47289978908E+01 -0.25928502482E+01  0.65881029278E+01  0.51100000000E-03 0.  1.
        -12    1    3    3    0    0  0.31086196043E+01 -0.11430698605E+02  0.31283591644E+02  0.33451270418E+02  0.00000000000E+00 0.  1.
</event>
<event>
 7    1  0.6726285E-013  0.5052886E+02  0.7816164E-02  0.1300439E+00
        -11   -1    0    0    0    0  0.00000000000E+00  0.00000000000E+00  0.45593999997E+02  0.45594000000E+02  0.51100000000E-03 0.  1.
         11   -1    0    0    0    0 -0.00000000000E+00 -0.00000000000E+00 -0.45593999997E+02  0.45594000000E+02  0.51100000000E-03 0. -1.
    9900012    2    1    2    0    0  0.17411912916E+02  0.21570582404E+02  0.29743915960E+02  0.50528864824E+02  0.30000015119E+02 0.  0.
         12    1    1    2    0    0 -0.17411912916E+02 -0.21570582404E+02 -0.29743915960E+02  0.40659135176E+02  0.00000000000E+00 0. -1.
         11    1    3    3    0    0  0.14239319825E+01  0.30920008124E+01 -0.10168685872E+01  0.35527557331E+01  0.51100000000E-03 0. -1.
        -11    1    3    3    0    0  0.14682602824E+02  0.16140788572E+02  0.67837207334E+01  0.22850005441E+02  0.51100000000E-03 0.  1.
        -12    1    3    3    0    0  0.13053781098E+01  0.23377930193E+01  0.23977063813E+02  0.24126103650E+02  0.00000000000E+00 0.  1.
</event>
<event>
 7    1  0.6726285E-013  0.5052886E+02  0.7816164E-02  0.1300439E+00
        -11   -1    0    0    0    0  0.00000000000E+00  0.00000000000E+00  0.45593999997E+02  0.45594000000E+02  0.51100000000E-03 0.  1.
         11   -1    0    0    0    0 -0.00000000000E+00 -0.00000000000E+00 -0.45593999997E+02  0.45594000000E+02  0.51100000000E-03 0. -1.
    9900012    2    1    2    0    0  0.38702675667E+02 -0.12218032195E+02  0.24471307125E+01  0.50528857569E+02  0.29999993067E+02 0.  0.
         12    1    1    2    0    0 -0.38702675667E+02  0.12218032195E+02 -0.24471307125E+01  0.40659142431E+02  0.00000000000E+00 0. -1.
         11    1    3    3    0    0 -0.16057876991E+01 -0.41458355729E+00 -0.13360121765E+01  0.21296390440E+01  0.51100000000E-03 0. -1.
        -11    1    3    3    0    0  0.50172390120E+01 -0.38134288734E+01  0.98661330084E+01  0.11707070850E+02  0.51100000000E-03 0.  1.
        -12    1    3    3    0    0  0.35291224354E+02 -0.79900197647E+01 -0.60829901194E+01  0.36692147675E+02  0.00000000000E+00 0.  1.
</event>
<event>
 7    1  0.6726285E-013  0.5052886E+02  0.7816164E-02  0.1300439E+00
        -11   -1    0    0    0    0  0.00000000000E+00  0.00000000000E+00  0.45593999997E+02  0.45594000000E+02  0.51100000000E-03 0.  1.
         11   -1    0    0    0    0 -0.00000000000E+00 -0.00000000000E+00 -0.45593999997E+02  0.45594000000E+02  0.51100000000E-03 0. -1.
    9900012    2    1    2    0    0 -0.29848536187E+02 -0.14129854105E+02  0.23718719846E+02  0.50528861290E+02  0.30000004377E+02 0.  0.
         12    1    1    2    0    0  0.29848536187E+02  0.14129854105E+02 -0.23718719846E+02  0.40659138710E+02  0.00000000000E+00 0. -1.
         11    1    3    3    0    0 -0.46183113449E+01 -0.38554161735E+01  0.13693221757E+02  0.14956515500E+02  0.51100000000E-03 0. -1.
        -11    1    3    3    0    0 -0.23207476973E+02 -0.13806300664E+01  0.12114084062E+02  0.26215342069E+02  0.51100000000E-03 0.  1.
         12    1    3    3    0    0 -0.20227478683E+01 -0.88938078647E+01 -0.20885859730E+01  0.93570037213E+01  0.00000000000E+00 0. -1.
</event>
<event>
 7    1  0.6726285E-013  0.5052882E+02  0.7816164E-02  0.1300439E+00
        -11   -1    0    0    0    0  0.00000000000E+00  0.00000000000E+00  0.45593999997E+02  0.45594000000E+02  0.51100000000E-03 0.  1.
         11   -1    0    0    0    0 -0.00000000000E+00 -0.00000000000E+00 -0.45593999997E+02  0.45594000000E+02  0.51100000000E-03 0. -1.
    9900012    2    1    2    0    0 -0.36722346852E+01  0.39943781669E+02  0.66466577696E+01  0.50528818243E+02  0.29999873531E+02 0.  0.
         12    1    1    2    0    0  0.36722346852E+01 -0.39943781669E+02 -0.66466577696E+01  0.40659181757E+02  0.00000000000E+00 0. -1.
         11    1    3    3    0    0  0.17871794273E+01  0.27013367827E+00 -0.37965853095E+01  0.42048832068E+01  0.51100000000E-03 0. -1.
        -11    1    3    3    0    0  0.13139021786E+01  0.21469461689E+02  0.15185570644E+02  0.26329938857E+02  0.51100000000E-03 0.  1.
         12    1    3    3    0    0 -0.67733162910E+01  0.18204186302E+02 -0.47423275646E+01  0.19993996180E+02  0.00000000000E+00 0. -1.
</event>
<event>
 7    1  0.6726285E-013  0.5052886E+02  0.7816164E-02  0.1300439E+00
        -11   -1    0    0    0    0  0.00000000000E+00  0.00000000000E+00  0.45593999997E+02  0.45594000000E+02  0.51100000000E-03 0. -1.
         11   -1    0    0    0    0 -0.00000000000E+00 -0.00000000000E+00 -0.45593999997E+02  0.45594000000E+02  0.51100000000E-03 0.  1.
    9900012    2    1    2    0    0 -0.19283975428E+02  0.12810049228E+02 -0.33424491283E+02  0.50528859735E+02  0.29999999652E+02 0.  0.
         12    1    1    2    0    0  0.19283975428E+02 -0.12810049228E+02  0.33424491283E+02  0.40659140265E+02  0.00000000000E+00 0. -1.
         11    1    3    3    0    0 -0.59303748606E+01  0.10473988006E+02 -0.43776759013E+01  0.12807724907E+02  0.51100000000E-03 0. -1.
        -11    1    3    3    0    0 -0.96599500754E+01  0.95988912837E+01 -0.96738553667E+01  0.16704395447E+02  0.51100000000E-03 0.  1.
        -12    1    3    3    0    0 -0.36936504918E+01 -0.72628300621E+01 -0.19372960015E+02  0.21016739381E+02  0.00000000000E+00 0.  1.
</event>
<event>
 7    1  0.6726285E-013  0.5052886E+02  0.7816164E-02  0.1300439E+00
        -11   -1    0    0    0    0  0.00000000000E+00  0.00000000000E+00  0.45593999997E+02  0.45594000000E+02  0.51100000000E-03 0.  1.
         11   -1    0    0    0    0 -0.00000000000E+00 -0.00000000000E+00 -0.45593999997E+02  0.45594000000E+02  0.51100000000E-03 0. -1.
    9900012    2    1    2    0    0  0.28228423855E+02  0.28133694739E+02 -0.80509028542E+01  0.50528859210E+02  0.29999998055E+02 0.  0.
         12    1    1    2    0    0 -0.28228423855E+02 -0.28133694739E+02  0.80509028542E+01  0.40659140790E+02  0.00000000000E+00 0. -1.
         11    1    3    3    0    0  0.14855977828E+02  0.79965795632E+01 -0.47387839547E+01  0.17524309846E+02  0.51100000000E-03 0. -1.
        -11    1    3    3    0    0  0.13913931998E+02  0.24055012887E+02  0.87150176302E-01  0.27789363866E+02  0.51100000000E-03 0.  1.
         12    1    3    3    0    0 -0.54148597131E+00 -0.39178977116E+01 -0.33992690758E+01  0.52151854986E+01  0.00000000000E+00 0. -1.
</event>
<event>
 7    1  0.6726285E-013  0.5052886E+02  0.7816164E-02  0.1300439E+00
        -11   -1    0    0    0    0  0.00000000000E+00  0.00000000000E+00  0.45593999997E+02  0.45594000000E+02  0.51100000000E-03 0.  1.
         11   -1    0    0    0    0 -0.00000000000E+00 -0.00000000000E+00 -0.45593999997E+02  0.45594000000E+02  0.51100000000E-03 0. -1.
    9900012    2    1    2    0    0 -0.39472361620E+02 -0.94174736614E+01  0.25316792700E+01  0.50528861520E+02  0.30000005075E+02 0.  0.
         12    1    1    2    0    0  0.39472361620E+02  0.94174736614E+01 -0.25316792700E+01  0.40659138480E+02  0.00000000000E+00 0. -1.
         11    1    3    3    0    0 -0.10262793769E+02  0.57967120891E+01  0.40006660796E+01  0.12447173829E+02  0.51100000000E-03 0. -1.
        -11    1    3    3    0    0  0.22253140349E+01  0.52548304749E+00  0.16030939112E+01  0.27925016269E+01  0.51100000000E-03 0.  1.
        -12    1    3    3    0    0 -0.31434881887E+02 -0.15739668798E+02 -0.30720807208E+01  0.35289186064E+02  0.00000000000E+00 0.  1.
</event>
<event>
 7    1  0.6726285E-013  0.5052885E+02  0.7816164E-02  0.1300439E+00
        -11   -1    0    0    0    0  0.00000000000E+00  0.00000000000E+00  0.45593999997E+02  0.45594000000E+02  0.51100000000E-03 0.  1.
         11   -1    0    0    0    0 -0.00000000000E+00 -0.00000000000E+00 -0.45593999997E+02  0.45594000000E+02  0.51100000000E-03 0. -1.
    9900012    2    1    2    0    0  0.21784878319E+02  0.76920248478E+01  0.33457704455E+02  0.50528853956E+02  0.29999982085E+02 0.  0.
         12    1    1    2    0    0 -0.21784878319E+02 -0.76920248478E+01 -0.33457704455E+02  0.40659146044E+02  0.00000000000E+00 0. -1.
         11    1    3    3    0    0  0.62833840232E+01  0.19834107258E+01 -0.27134306912E+01  0.71258360399E+01  0.51100000000E-03 0. -1.
        -11    1    3    3    0    0  0.13869391513E+01  0.73302003184E+01  0.45538309021E+01  0.87402982251E+01  0.51100000000E-03 0.  1.
        -12    1    3    3    0    0  0.14114555145E+02 -0.16215861963E+01  0.31617304244E+02  0.34662719691E+02  0.00000000000E+00 0.  1.
</event>
<event>
 7    1  0.6726285E-013  0.5052885E+02  0.7816164E-02  0.1300439E+00
        -11   -1    0    0    0    0  0.00000000000E+00  0.00000000000E+00  0.45593999997E+02  0.45594000000E+02  0.51100000000E-03 0.  1.
         11   -1    0    0    0    0 -0.00000000000E+00 -0.00000000000E+00 -0.45593999997E+02  0.45594000000E+02  0.51100000000E-03 0. -1.
    9900012    2    1    2    0    0 -0.32028832601E+02  0.24605973718E+02  0.46761503004E+01  0.50528850451E+02  0.29999971432E+02 0.  0.
         12    1    1    2    0    0  0.32028832601E+02 -0.24605973718E+02 -0.46761503004E+01  0.40659149549E+02  0.00000000000E+00 0. -1.
         11    1    3    3    0    0 -0.82956911190E+01  0.15705939029E+02 -0.27911554619E+01  0.17980143520E+02  0.51100000000E-03 0. -1.
        -11    1    3    3    0    0 -0.14976313573E+02  0.12223896042E+02 -0.17460499359E+01  0.19410365615E+02  0.51100000000E-03 0.  1.
        -12    1    3    3    0    0 -0.87568279086E+01 -0.33238613527E+01  0.92133556982E+01  0.13138341316E+02  0.00000000000E+00 0.  1.
</event>
<event>
 7    1  0.6726285E-013  0.5052883E+02  0.7816164E-02  0.1300439E+00
        -11   -1    0    0    0    0  0.00000000000E+00  0.00000000000E+00  0.45593999997E+02  0.45594000000E+02  0.51100000000E-03 0.  1.
         11   -1    0    0    0    0 -0.00000000000E+00 -0.00000000000E+00 -0.45593999997E+02  0.45594000000E+02  0.51100000000E-03 0. -1.
    9900012    2    1    2    0    0  0.51128544268E+01  0.38581614949E+02  0.11767984040E+02  0.50528834480E+02  0.29999922884E+02 0.  0.
         12    1    1    2    0    0 -0.51128544268E+01 -0.38581614949E+02 -0.11767984040E+02  0.40659165520E+02  0.00000000000E+00 0. -1.
         11    1    3    3    0    0  0.35172358966E+01  0.22881849746E+02  0.97920582072E+01  0.25136316364E+02  0.51100000000E-03 0. -1.
        -11    1    3    3    0    0 -0.78773752013E+01  0.95955215889E+01  0.55090961987E+01  0.13582238984E+02  0.51100000000E-03 0.  1.
         12    1    3    3    0    0  0.94729937315E+01  0.61042436138E+01 -0.35331703661E+01  0.11810279132E+02  0.00000000000E+00 0. -1.
</event>
<event>
 7    1  0.6726285E-013  0.5052885E+02  0.7816164E-02  0.1300439E+00
        -11   -1    0    0    0    0  0.00000000000E+00  0.00000000000E+00  0.45593999997E+02  0.45594000000E+02  0.51100000000E-03 0.  1.
         11   -1    0    0    0    0 -0.00000000000E+00 -0.00000000000E+00 -0.45593999997E+02  0.45594000000E+02  0.51100000000E-03 0. -1.
    9900012    2    1    2    0    0  0.17141525772E+02 -0.32229035682E+02  0.17905980110E+02  0.50528846412E+02  0.29999959154E+02 0.  0.
         12    1    1    2    0    0 -0.17141525772E+02  0.32229035682E+02 -0.17905980110E+02  0.40659153588E+02  0.00000000000E+00 0. -1.
         11    1    3    3    0    0 -0.28131505431E+00 -0.34267810983E+01 -0.38525974342E+01  0.51637654969E+01  0.51100000000E-03 0. -1.
        -11    1    3    3    0    0  0.12954284838E+02 -0.22529514967E+02  0.43779074273E+01  0.26354479961E+02  0.51100000000E-03 0.  1.
        -12    1    3    3    0    0  0.44685559882E+01 -0.62727396171E+01  0.17380670117E+02  0.19010600954E+02  0.00000000000E+00 0.  1.
</event>
<event>
 7    1  0.6726285E-013  0.5052885E+02  0.7816164E-02  0.1300439E+00
        -11   -1    0    0    0    0  0.00000000000E+00  0.00000000000E+00  0.45593999997E+02  0.45594000000E+02  0.51100000000E-03 0.  1.
         11   -1    0    0    0    0 -0.00000000000E+00 -0.00000000000E+00 -0.45593999997E+02  0.45594000000E+02  0.51100000000E-03 0. -1.
    9900012    2    1    2    0    0 -0.65194334608E+01  0.37492429082E+02 -0.14317152931E+02  0.50528854421E+02  0.29999983499E+02 0.  0.
         12    1    1    2    0    0  0.65194334608E+01 -0.37492429082E+02  0.14317152931E+02  0.40659145579E+02  0.00000000000E+00 0. -1.
         11    1    3    3    0    0  0.50109938332E+01  0.17694957348E+02 -0.78585750195E+01  0.19999469402E+02  0.51100000000E-03 0. -1.
        -11    1    3    3    0    0  0.34835866452E+01  0.12814859992E+02 -0.28211314796E+01  0.13576258528E+02  0.51100000000E-03 0.  1.
         12    1    3    3    0    0 -0.15014013939E+02  0.69826117420E+01 -0.36374464321E+01  0.16953126492E+02  0.00000000000E+00 0. -1.
</event>
<event>
 7    1  0.6726285E-013  0.5052887E+02  0.7816164E-02  0.1300439E+00
        -11   -1    0    0    0    0  0.00000000000E+00  0.00000000000E+00  0.45593999997E+02  0.45594000000E+02  0.51100000000E-03 0.  1.
         11   -1    0    0    0    0 -0.00000000000E+00 -0.00000000000E+00 -0.45593999997E+02  0.45594000000E+02  0.51100000000E-03 0. -1.
    9900012    2    1    2    0    0  0.26104711233E+02 -0.27297153566E+02  0.15052391199E+02  0.50528867911E+02  0.30000024503E+02 0.  0.
         12    1    1    2    0    0 -0.26104711233E+02  0.27297153566E+02 -0.15052391199E+02  0.40659132089E+02  0.00000000000E+00 0. -1.
         11    1    3    3    0    0  0.55183973874E+00 -0.20376818048E+01  0.32932429583E+01  0.39117928982E+01  0.51100000000E-03 0.  1.
        -11    1    3    3    0    0  0.46432195552E+01  0.58944872901E+01  0.30454621065E+01  0.80981052077E+01  0.51100000000E-03 0. -1.
         12    1    3    3    0    0  0.20909651939E+02 -0.31153959052E+02  0.87136861346E+01  0.38518969805E+02  0.00000000000E+00 0. -1.
</event>
<event>
 7    1  0.6726285E-013  0.5052885E+02  0.7816164E-02  0.1300439E+00
        -11   -1    0    0    0    0  0.00000000000E+00  0.00000000000E+00  0.45593999997E+02  0.45594000000E+02  0.51100000000E-03 0.  1.
         11   -1    0    0    0    0 -0.00000000000E+00 -0.00000000000E+00 -0.45593999997E+02  0.45594000000E+02  0.51100000000E-03 0. -1.
    9900012    2    1    2    0    0 -0.37041199232E+01 -0.11357364084E+02  0.38864589871E+02  0.50528848888E+02  0.29999966679E+02 0.  0.
         12    1    1    2    0    0  0.37041199232E+01  0.11357364084E+02 -0.38864589871E+02  0.40659151112E+02  0.00000000000E+00 0. -1.
         11    1    3    3    0    0  0.62059695870E+00 -0.31224396145E+01  0.19842090870E+02  0.20095853803E+02  0.51100000000E-03 0.  1.
        -11    1    3    3    0    0 -0.11671639330E+02 -0.61789451824E+00  0.46371762627E+01  0.12574273825E+02  0.51100000000E-03 0. -1.
         12    1    3    3    0    0  0.73469224479E+01 -0.76170299517E+01  0.14385322738E+02  0.17858721259E+02  0.00000000000E+00 0. -1.
</event>
<event>
 7    1  0.6726285E-013  0.5052886E+02  0.7816164E-02  0.1300439E+00
        -11   -1    0    0    0    0  0.00000000000E+00  0.00000000000E+00  0.45593999997E+02  0.45594000000E+02  0.51100000000E-03 0.  1.
         11   -1    0    0    0    0 -0.00000000000E+00 -0.00000000000E+00 -0.45593999997E+02  0.45594000000E+02  0.51100000000E-03 0. -1.
    9900012    2    1    2    0    0  0.31399241248E+00  0.23968130798E+02  0.32841983736E+02  0.50528858581E+02  0.29999996143E+02 0.  0.
         12    1    1    2    0    0 -0.31399241248E+00 -0.23968130798E+02 -0.32841983736E+02  0.40659141419E+02  0.00000000000E+00 0. -1.
         11    1    3    3    0    0  0.98421111085E+01  0.12900888095E+02  0.21987565699E+02  0.27326783754E+02  0.51100000000E-03 0. -1.
        -11    1    3    3    0    0  0.33309073183E+01  0.21154733733E+01  0.52375925312E+01  0.65576327238E+01  0.51100000000E-03 0.  1.
        -12    1    3    3    0    0 -0.12859026014E+02  0.89517693294E+01  0.56168255061E+01  0.16644442103E+02  0.00000000000E+00 0.  1.
</event>
<event>
 7    1  0.6726285E-013  0.5052888E+02  0.7816164E-02  0.1300439E+00
        -11   -1    0    0    0    0  0.00000000000E+00  0.00000000000E+00  0.45593999997E+02  0.45594000000E+02  0.51100000000E-03 0.  1.
         11   -1    0    0    0    0 -0.00000000000E+00 -0.00000000000E+00 -0.45593999997E+02  0.45594000000E+02  0.51100000000E-03 0. -1.
    9900012    2    1    2    0    0 -0.39407354601E+02  0.56050361262E+01  0.82950515650E+01  0.50528881625E+02  0.30000066186E+02 0.  0.
         12    1    1    2    0    0  0.39407354601E+02 -0.56050361262E+01 -0.82950515650E+01  0.40659118375E+02  0.00000000000E+00 0. -1.
         11    1    3    3    0    0 -0.12306023104E+02  0.62223165770E+01  0.24846622660E+01  0.14011744183E+02  0.51100000000E-03 0. -1.
        -11    1    3    3    0    0 -0.31203212320E+02  0.43945543341E+00  0.72608368261E+01  0.32039870971E+02  0.51100000000E-03 0.  1.
         12    1    3    3    0    0  0.41018808233E+01 -0.10567358842E+01 -0.14504475272E+01  0.44772664703E+01  0.00000000000E+00 0. -1.
</event>
<event>
 7    1  0.6726285E-013  0.5052887E+02  0.7816164E-02  0.1300439E+00
        -11   -1    0    0    0    0  0.00000000000E+00  0.00000000000E+00  0.45593999997E+02  0.45594000000E+02  0.51100000000E-03 0. -1.
         11   -1    0    0    0    0 -0.00000000000E+00 -0.00000000000E+00 -0.45593999997E+02  0.45594000000E+02  0.51100000000E-03 0.  1.
    9900012    2    1    2    0    0 -0.23499246710E+02  0.32135525023E+02 -0.82618803128E+01  0.50528865347E+02  0.30000016708E+02 0.  0.
         12    1    1    2    0    0  0.23499246710E+02 -0.32135525023E+02  0.82618803128E+01  0.40659134653E+02  0.00000000000E+00 0. -1.
         11    1    3    3    0    0 -0.12858189797E+02  0.16245294326E+02 -0.10859804350E+01  0.20746613853E+02  0.51100000000E-03 0.  1.
        -11    1    3    3    0    0 -0.72541744863E+01  0.36215804221E+01 -0.13363126135E+02  0.15630484081E+02  0.51100000000E-03 0. -1.
         12    1    3    3    0    0 -0.33868824265E+01  0.12268650275E+02  0.61872262575E+01  0.14151767413E+02  0.00000000000E+00 0. -1.
</event>
<event>
 7    1  0.6726285E-013  0.5052885E+02  0.7816164E-02  0.1300439E+00
        -11   -1    0    0    0    0  0.00000000000E+00  0.00000000000E+00  0.45593999997E+02  0.45594000000E+02  0.51100000000E-03 0. -1.
         11   -1    0    0    0    0 -0.00000000000E+00 -0.00000000000E+00 -0.45593999997E+02  0.45594000000E+02  0.51100000000E-03 0.  1.
    9900012    2    1    2    0    0 -0.28152504097E+02  0.14219945211E+02 -0.25659235598E+02  0.50528847276E+02  0.29999961781E+02 0.  0.
         12    1    1    2    0    0  0.28152504097E+02 -0.14219945211E+02  0.25659235598E+02  0.40659152724E+02  0.00000000000E+00 0. -1.
         11    1    3    3    0    0  0.29148465851E+01 -0.13476828104E+01 -0.90332045133E+01  0.95870414421E+01  0.51100000000E-03 0. -1.
        -11    1    3    3    0    0 -0.40659948598E+01  0.98783580131E-02 -0.73975205989E+01  0.84413105057E+01  0.51100000000E-03 0.  1.
         12    1    3    3    0    0 -0.27001355822E+02  0.15557749664E+02 -0.92285104858E+01  0.32500495329E+02  0.00000000000E+00 0. -1.
</event>
<event>
 7    1  0.6726285E-013  0.5052885E+02  0.7816164E-02  0.1300439E+00
        -11   -1    0    0    0    0  0.00000000000E+00  0.00000000000E+00  0.45593999997E+02  0.45594000000E+02  0.51100000000E-03 0.  1.
         11   -1    0    0    0    0 -0.00000000000E+00 -0.00000000000E+00 -0.45593999997E+02  0.45594000000E+02  0.51100000000E-03 0. -1.
    9900012    2    1    2    0    0  0.17891150681E+02  0.13596977126E+02  0.33885028035E+02  0.50528853617E+02  0.29999981055E+02 0.  0.
         12    1    1    2    0    0 -0.17891150681E+02 -0.13596977126E+02 -0.33885028035E+02  0.40659146383E+02  0.00000000000E+00 0. -1.
         11    1    3    3    0    0  0.13728265521E+02  0.13859688526E+02  0.30097204818E+02  0.35866390652E+02  0.51100000000E-03 0. -1.
        -11    1    3    3    0    0  0.88656142580E+01 -0.81336569787E+00  0.43239766100E+01  0.98973458015E+01  0.51100000000E-03 0.  1.
         12    1    3    3    0    0 -0.47027290981E+01  0.55065429753E+00 -0.53615339335E+00  0.47651171640E+01  0.00000000000E+00 0. -1.
</event>
<event>
 7    1  0.6726285E-013  0.5052887E+02  0.7816164E-02  0.1300439E+00
        -11   -1    0    0    0    0  0.00000000000E+00  0.00000000000E+00  0.45593999997E+02  0.45594000000E+02  0.51100000000E-03 0.  1.
         11   -1    0    0    0    0 -0.00000000000E+00 -0.00000000000E+00 -0.45593999997E+02  0.45594000000E+02  0.51100000000E-03 0. -1.
    9900012    2    1    2    0    0 -0.75687647322E+01 -0.13730971182E+02  0.37514520990E+02  0.50528867517E+02  0.30000023304E+02 0.  0.
         12    1    1    2    0    0  0.75687647322E+01  0.13730971182E+02 -0.37514520990E+02  0.40659132483E+02  0.00000000000E+00 0. -1.
         11    1    3    3    0    0 -0.51681363956E-01 -0.76882125853E+01  0.38968911958E+01  0.86195733638E+01  0.51100000000E-03 0. -1.
        -11    1    3    3    0    0 -0.19708002701E+01 -0.14326792679E+02  0.15290402558E+02  0.21046079275E+02  0.51100000000E-03 0.  1.
         12    1    3    3    0    0 -0.55462830981E+01  0.82840340829E+01  0.18327227236E+02  0.20863214878E+02  0.00000000000E+00 0. -1.
</event>
<event>
 7    1  0.8257787E-013  0.5052884E+02  0.7816164E-02  0.1300439E+00
        -11   -1    0    0    0    0  0.00000000000E+00  0.00000000000E+00  0.45593999997E+02  0.45594000000E+02  0.51100000000E-03 0.  1.
         11   -1    0    0    0    0 -0.00000000000E+00 -0.00000000000E+00 -0.45593999997E+02  0.45594000000E+02  0.51100000000E-03 0. -1.
    9900012    2    1    2    0    0  0.16325486035E+02  0.25400832470E+02  0.27229458474E+02  0.50528841213E+02  0.29999943352E+02 0.  0.
         12    1    1    2    0    0 -0.16325486035E+02 -0.25400832470E+02 -0.27229458474E+02  0.40659158787E+02  0.00000000000E+00 0. -1.
         11    1    3    3    0    0  0.96783057689E+01  0.10006199028E+02  0.55306638441E+01  0.14979381308E+02  0.51100000000E-03 0. -1.
        -11    1    3    3    0    0  0.13786812369E+02  0.14026514333E+02  0.20068864906E+02  0.28099441961E+02  0.51100000000E-03 0.  1.
         12    1    3    3    0    0 -0.71396321036E+01  0.13681191097E+01  0.16299297239E+01  0.74500179448E+01  0.00000000000E+00 0. -1.
</event>
<event>
 7    1  0.6726285E-013  0.5052886E+02  0.7816164E-02  0.1300439E+00
        -11   -1    0    0    0    0  0.00000000000E+00  0.00000000000E+00  0.45593999997E+02  0.45594000000E+02  0.51100000000E-03 0.  1.
         11   -1    0    0    0    0 -0.00000000000E+00 -0.00000000000E+00 -0.45593999997E+02  0.45594000000E+02  0.51100000000E-03 0. -1.
    9900012    2    1    2    0    0  0.39811786141E+02  0.68126119445E+01 -0.46664203958E+01  0.50528862324E+02  0.30000007520E+02 0.  0.
         12    1    1    2    0    0 -0.39811786141E+02 -0.68126119445E+01  0.46664203958E+01  0.40659137676E+02  0.00000000000E+00 0. -1.
         11    1    3    3    0    0  0.33376023056E+00 -0.29603090936E+01 -0.32819687039E+00  0.29970884651E+01  0.51100000000E-03 0. -1.
        -11    1    3    3    0    0  0.68016661397E+01 -0.73230809949E+00  0.84777506465E+01  0.10893630878E+02  0.51100000000E-03 0.  1.
        -12    1    3    3    0    0  0.32676359771E+02  0.10505229138E+02 -0.12815974172E+02  0.36638142981E+02  0.00000000000E+00 0.  1.
</event>
<event>
 7    1  0.6726285E-013  0.5052885E+02  0.7816164E-02  0.1300439E+00
        -11   -1    0    0    0    0  0.00000000000E+00  0.00000000000E+00  0.45593999997E+02  0.45594000000E+02  0.51100000000E-03 0.  1.
         11   -1    0    0    0    0 -0.00000000000E+00 -0.00000000000E+00 -0.45593999997E+02  0.45594000000E+02  0.51100000000E-03 0. -1.
    9900012    2    1    2    0    0  0.55577075044E+01  0.10336350658E+02  0.38928629779E+02  0.50528850057E+02  0.29999970232E+02 0.  0.
         12    1    1    2    0    0 -0.55577075044E+01 -0.10336350658E+02 -0.38928629779E+02  0.40659149943E+02  0.00000000000E+00 0. -1.
         11    1    3    3    0    0 -0.52108489437E+01  0.14188467219E+01  0.17112764946E+02  0.17944715018E+02  0.51100000000E-03 0. -1.
        -11    1    3    3    0    0 -0.31805169410E+01  0.96650633915E+01  0.10326517093E+02  0.14497106398E+02  0.51100000000E-03 0.  1.
         12    1    3    3    0    0  0.13949073389E+02 -0.74755945517E+00  0.11489347741E+02  0.18087028641E+02  0.00000000000E+00 0. -1.
</event>
<event>
 7    1  0.6726285E-013  0.5052887E+02  0.7816164E-02  0.1300439E+00
        -11   -1    0    0    0    0  0.00000000000E+00  0.00000000000E+00  0.45593999997E+02  0.45594000000E+02  0.51100000000E-03 0.  1.
         11   -1    0    0    0    0 -0.00000000000E+00 -0.00000000000E+00 -0.45593999997E+02  0.45594000000E+02  0.51100000000E-03 0. -1.
    9900012    2    1    2    0    0  0.10336753800E+02 -0.16163644758E+02  0.35847638763E+02  0.50528867006E+02  0.30000021750E+02 0.  0.
         12    1    1    2    0    0 -0.10336753800E+02  0.16163644758E+02 -0.35847638763E+02  0.40659132994E+02  0.00000000000E+00 0. -1.
         11    1    3    3    0    0  0.38656070499E+01  0.24690132274E+01 -0.10023944511E+01  0.46950760460E+01  0.51100000000E-03 0. -1.
        -11    1    3    3    0    0  0.61272719256E+01 -0.13217660684E+02  0.82887076774E+01  0.16761643429E+02  0.51100000000E-03 0.  1.
        -12    1    3    3    0    0  0.34387482464E+00 -0.54149973015E+01  0.28561325536E+02  0.29072147531E+02  0.00000000000E+00 0.  1.
</event>
<event>
 7    1  0.6726285E-013  0.5052878E+02  0.7816164E-02  0.1300439E+00
        -11   -1    0    0    0    0  0.00000000000E+00  0.00000000000E+00  0.45593999997E+02  0.45594000000E+02  0.51100000000E-03 0.  1.
         11   -1    0    0    0    0 -0.00000000000E+00 -0.00000000000E+00 -0.45593999997E+02  0.45594000000E+02  0.51100000000E-03 0. -1.
    9900012    2    1    2    0    0  0.16061399538E+02 -0.19349161370E+02  0.31950179101E+02  0.50528775396E+02  0.29999743292E+02 0.  0.
         12    1    1    2    0    0 -0.16061399538E+02  0.19349161370E+02 -0.31950179101E+02  0.40659224604E+02  0.00000000000E+00 0. -1.
         11    1    3    3    0    0  0.13229530064E+02 -0.15181896225E+02  0.94668699367E+01  0.22251563211E+02  0.51100000000E-03 0. -1.
        -11    1    3    3    0    0  0.17169127033E+01  0.31255733096E+01 -0.96609264074E+00  0.36946357054E+01  0.51100000000E-03 0.  1.
        -12    1    3    3    0    0  0.11149567706E+01 -0.72928384550E+01  0.23449401805E+02  0.24582576479E+02  0.00000000000E+00 0.  1.
</event>
<event>
 7    1  0.6726285E-013  0.5052885E+02  0.7816164E-02  0.1300439E+00
        -11   -1    0    0    0    0  0.00000000000E+00  0.00000000000E+00  0.45593999997E+02  0.45594000000E+02  0.51100000000E-03 0. -1.
         11   -1    0    0    0    0 -0.00000000000E+00 -0.00000000000E+00 -0.45593999997E+02  0.45594000000E+02  0.51100000000E-03 0.  1.
    9900012    2    1    2    0    0 -0.18215593268E+02 -0.18872120682E+02 -0.31067694041E+02  0.50528851089E+02  0.29999973371E+02 0.  0.
         12    1    1    2    0    0  0.18215593268E+02  0.18872120682E+02  0.31067694041E+02  0.40659148911E+02  0.00000000000E+00 0. -1.
         11    1    3    3    0    0 -0.52379905421E+01 -0.66229415421E+00 -0.51401470110E+01  0.73686016327E+01  0.51100000000E-03 0. -1.
        -11    1    3    3    0    0  0.11219848495E+01 -0.14397534303E+02 -0.24559224403E+02  0.28490407992E+02  0.51100000000E-03 0.  1.
         12    1    3    3    0    0 -0.14099587575E+02 -0.38122922249E+01 -0.13683226272E+01  0.14669841465E+02  0.00000000000E+00 0. -1.
</event>
<event>
 7    1  0.6726285E-013  0.5052894E+02  0.7816164E-02  0.1300438E+00
        -11   -1    0    0    0    0  0.00000000000E+00  0.00000000000E+00  0.45593999997E+02  0.45594000000E+02  0.51100000000E-03 0. -1.
         11   -1    0    0    0    0 -0.00000000000E+00 -0.00000000000E+00 -0.45593999997E+02  0.45594000000E+02  0.51100000000E-03 0.  1.
    9900012    2    1    2    0    0  0.13533139488E+02 -0.29558699384E+02  0.24419178445E+02  0.50528943818E+02  0.30000255227E+02 0.  0.
         12    1    1    2    0    0 -0.13533139488E+02  0.29558699384E+02 -0.24419178445E+02  0.40659056182E+02  0.00000000000E+00 0. -1.
         11    1    3    3    0    0  0.17031730752E+02 -0.23070199045E+02  0.22362718112E+02  0.36364888258E+02  0.51100000000E-03 0. -1.
        -11    1    3    3    0    0 -0.16850808118E+01 -0.99453707834E+01  0.18464798067E+01  0.10254725023E+02  0.51100000000E-03 0.  1.
        -12    1    3    3    0    0 -0.18135104526E+01  0.34568704435E+01  0.20998052647E+00  0.39093305368E+01  0.00000000000E+00 0.  1.
</event>
<event>
 7    1  0.6726285E-013  0.5052889E+02  0.7816164E-02  0.1300439E+00
        -11   -1    0    0    0    0  0.00000000000E+00  0.00000000000E+00  0.45593999997E+02  0.45594000000E+02  0.51100000000E-03 0.  1.
         11   -1    0    0    0    0 -0.00000000000E+00 -0.00000000000E+00 -0.45593999997E+02  0.45594000000E+02  0.51100000000E-03 0. -1.
    9900012    2    1    2    0    0 -0.20894839864E+02 -0.13652324221E+02  0.32096468682E+02  0.50528885506E+02  0.30000077984E+02 0.  0.
         12    1    1    2    0    0  0.20894839864E+02  0.13652324221E+02 -0.32096468682E+02  0.40659114494E+02  0.00000000000E+00 0. -1.
         11    1    3    3    0    0 -0.25104069206E+01  0.12592406926E+01  0.98152826376E+01  0.10209192110E+02  0.51100000000E-03 0. -1.
        -11    1    3    3    0    0 -0.15924903071E+01  0.88907369011E+00  0.16431117195E+02  0.16532032238E+02  0.51100000000E-03 0.  1.
        -12    1    3    3    0    0 -0.16791942636E+02 -0.15800638604E+02  0.58500688501E+01  0.23787661157E+02  0.00000000000E+00 0.  1.
</event>
<event>
 7    1  0.6726285E-013  0.5052886E+02  0.7816164E-02  0.1300439E+00
        -11   -1    0    0    0    0  0.00000000000E+00  0.00000000000E+00  0.45593999997E+02  0.45594000000E+02  0.51100000000E-03 0.  1.
         11   -1    0    0    0    0 -0.00000000000E+00 -0.00000000000E+00 -0.45593999997E+02  0.45594000000E+02  0.51100000000E-03 0. -1.
    9900012    2    1    2    0    0  0.12766329412E+02  0.31915370166E+02  0.21716257377E+02  0.50528857682E+02  0.29999993412E+02 0.  0.
         12    1    1    2    0    0 -0.12766329412E+02 -0.31915370166E+02 -0.21716257377E+02  0.40659142318E+02  0.00000000000E+00 0. -1.
         11    1    3    3    0    0  0.49567684756E+01  0.49345969021E+01  0.20344094458E+02  0.21512832911E+02  0.51100000000E-03 0. -1.
        -11    1    3    3    0    0 -0.51188139929E-01  0.82278386787E+01  0.26442670884E+01  0.86424590392E+01  0.51100000000E-03 0.  1.
         12    1    3    3    0    0  0.78607490768E+01  0.18752934585E+02 -0.12721041686E+01  0.20373565732E+02  0.00000000000E+00 0. -1.
</event>
<event>
 7    1  0.6726285E-013  0.5052885E+02  0.7816164E-02  0.1300439E+00
        -11   -1    0    0    0    0  0.00000000000E+00  0.00000000000E+00  0.45593999997E+02  0.45594000000E+02  0.51100000000E-03 0.  1.
         11   -1    0    0    0    0 -0.00000000000E+00 -0.00000000000E+00 -0.45593999997E+02  0.45594000000E+02  0.51100000000E-03 0. -1.
    9900012    2    1    2    0    0  0.17087977496E+01 -0.49160899422E+01  0.40324669291E+02  0.50528845022E+02  0.29999954928E+02 0.  0.
         12    1    1    2    0    0 -0.17087977496E+01  0.49160899422E+01 -0.40324669291E+02  0.40659154978E+02  0.00000000000E+00 0. -1.
         11    1    3    3    0    0  0.95132687245E+01 -0.39397261933E+00  0.62392684741E+01  0.11383583250E+02  0.51100000000E-03 0. -1.
        -11    1    3    3    0    0  0.32124618599E+01  0.26853454813E+01  0.23822228489E+01  0.48172582989E+01  0.51100000000E-03 0.  1.
        -12    1    3    3    0    0 -0.11016932835E+02 -0.72074628042E+01  0.31703177968E+02  0.34328003473E+02  0.00000000000E+00 0.  1.
</event>
<event>
 7    1  0.6726285E-013  0.5052886E+02  0.7816164E-02  0.1300439E+00
        -11   -1    0    0    0    0  0.00000000000E+00  0.00000000000E+00  0.45593999997E+02  0.45594000000E+02  0.51100000000E-03 0.  1.
         11   -1    0    0    0    0 -0.00000000000E+00 -0.00000000000E+00 -0.45593999997E+02  0.45594000000E+02  0.51100000000E-03 0. -1.
    9900012    2    1    2    0    0  0.13363845856E+02  0.16511271501E+02  0.34669168080E+02  0.50528859847E+02  0.29999999991E+02 0.  0.
         12    1    1    2    0    0 -0.13363845856E+02 -0.16511271501E+02 -0.34669168080E+02  0.40659140153E+02  0.00000000000E+00 0. -1.
         11    1    3    3    0    0 -0.10132301990E+01 -0.39285897353E+01 -0.17903294477E+01  0.44346062437E+01  0.51100000000E-03 0. -1.
        -11    1    3    3    0    0  0.30127656632E+01 -0.15939973471E+01  0.45971670269E+01  0.57228951955E+01  0.51100000000E-03 0.  1.
        -12    1    3    3    0    0  0.11364310392E+02  0.22033858583E+02  0.31862330501E+02  0.40371358408E+02  0.00000000000E+00 0.  1.
</event>
<event>
 7    1  0.6726285E-013  0.5052891E+02  0.7816164E-02  0.1300439E+00
        -11   -1    0    0    0    0  0.00000000000E+00  0.00000000000E+00  0.45593999997E+02  0.45594000000E+02  0.51100000000E-03 0.  1.
         11   -1    0    0    0    0 -0.00000000000E+00 -0.00000000000E+00 -0.45593999997E+02  0.45594000000E+02  0.51100000000E-03 0. -1.
    9900012    2    1    2    0    0  0.10564679618E+02 -0.35796704663E+02  0.16129020327E+02  0.50528907328E+02  0.30000144314E+02 0.  0.
         12    1    1    2    0    0 -0.10564679618E+02  0.35796704663E+02 -0.16129020327E+02  0.40659092672E+02  0.00000000000E+00 0. -1.
         11    1    3    3    0    0 -0.63295265903E+01 -0.63571102668E+01  0.40271624335E+01  0.98333003273E+01  0.51100000000E-03 0. -1.
        -11    1    3    3    0    0  0.10362252703E+02 -0.26153508563E+02  0.16047715424E+02  0.32386902628E+02  0.51100000000E-03 0.  1.
        -12    1    3    3    0    0  0.65319535060E+01 -0.32860858334E+01 -0.39458575301E+01  0.83087043729E+01  0.00000000000E+00 0.  1.
</event>
<event>
 7    1  0.6726285E-013  0.5052887E+02  0.7816164E-02  0.1300439E+00
        -11   -1    0    0    0    0  0.00000000000E+00  0.00000000000E+00  0.45593999997E+02  0.45594000000E+02  0.51100000000E-03 0. -1.
         11   -1    0    0    0    0 -0.00000000000E+00 -0.00000000000E+00 -0.45593999997E+02  0.45594000000E+02  0.51100000000E-03 0.  1.
    9900012    2    1    2    0    0 -0.25495662919E+02  0.31554628989E+02 -0.27279431698E+01  0.50528866804E+02  0.30000021138E+02 0.  0.
         12    1    1    2    0    0  0.25495662919E+02 -0.31554628989E+02  0.27279431698E+01  0.40659133196E+02  0.00000000000E+00 0. -1.
         11    1    3    3    0    0  0.37178073481E+00 -0.83043998097E-01 -0.14382383924E+01  0.14878330400E+01  0.51100000000E-03 0. -1.
        -11    1    3    3    0    0 -0.16460647362E+02  0.22134064551E+02 -0.13699050886E+02  0.30798274636E+02  0.51100000000E-03 0.  1.
         12    1    3    3    0    0 -0.94067962921E+01  0.95036084354E+01  0.12409346108E+02  0.18242759128E+02  0.00000000000E+00 0. -1.
</event>
<event>
 7    1  0.6726285E-013  0.5052885E+02  0.7816164E-02  0.1300439E+00
        -11   -1    0    0    0    0  0.00000000000E+00  0.00000000000E+00  0.45593999997E+02  0.45594000000E+02  0.51100000000E-03 0.  1.
         11   -1    0    0    0    0 -0.00000000000E+00 -0.00000000000E+00 -0.45593999997E+02  0.45594000000E+02  0.51100000000E-03 0. -1.
    9900012    2    1    2    0    0 -0.19351232569E+02 -0.13957598080E+02  0.32922361207E+02  0.50528848342E+02  0.29999965022E+02 0.  0.
         12    1    1    2    0    0  0.19351232569E+02  0.13957598080E+02 -0.32922361207E+02  0.40659151658E+02  0.00000000000E+00 0. -1.
         11    1    3    3    0    0 -0.27691863238E+01 -0.15593331828E+01 -0.20908186793E+00  0.31849063345E+01  0.51100000000E-03 0. -1.
        -11    1    3    3    0    0 -0.13046583454E+02 -0.39243860457E+01  0.70462107998E+00  0.13642237235E+02  0.51100000000E-03 0.  1.
        -12    1    3    3    0    0 -0.35354627913E+01 -0.84738788517E+01  0.32426821995E+02  0.33701704773E+02  0.00000000000E+00 0.  1.
</event>
<event>
 7    1  0.6726285E-013  0.5052886E+02  0.7816164E-02  0.1300439E+00
        -11   -1    0    0    0    0  0.00000000000E+00  0.00000000000E+00  0.45593999997E+02  0.45594000000E+02  0.51100000000E-03 0.  1.
         11   -1    0    0    0    0 -0.00000000000E+00 -0.00000000000E+00 -0.45593999997E+02  0.45594000000E+02  0.51100000000E-03 0. -1.
    9900012    2    1    2    0    0 -0.22653091872E+02  0.49279936539E+01  0.33402363807E+02  0.50528860797E+02  0.30000002879E+02 0.  0.
         12    1    1    2    0    0  0.22653091872E+02 -0.49279936539E+01 -0.33402363807E+02  0.40659139203E+02  0.00000000000E+00 0. -1.
         11    1    3    3    0    0  0.14774419767E+01 -0.53248211478E+01  0.18469431813E+00  0.55290747239E+01  0.51100000000E-03 0. -1.
        -11    1    3    3    0    0  0.17835686245E+01 -0.55181611902E+00  0.59636041469E+00  0.19599143024E+01  0.51100000000E-03 0.  1.
        -12    1    3    3    0    0 -0.25914102473E+02  0.10804630921E+02  0.32621309074E+02  0.43039871771E+02  0.00000000000E+00 0.  1.
</event>
<event>
 7    1  0.6726285E-013  0.5052885E+02  0.7816164E-02  0.1300439E+00
        -11   -1    0    0    0    0  0.00000000000E+00  0.00000000000E+00  0.45593999997E+02  0.45594000000E+02  0.51100000000E-03 0.  1.
         11   -1    0    0    0    0 -0.00000000000E+00 -0.00000000000E+00 -0.45593999997E+02  0.45594000000E+02  0.51100000000E-03 0. -1.
    9900012    2    1    2    0    0  0.41167026621E+01  0.15421294018E+02  0.37395226581E+02  0.50528849480E+02  0.29999968479E+02 0.  0.
         12    1    1    2    0    0 -0.41167026621E+01 -0.15421294018E+02 -0.37395226581E+02  0.40659150520E+02  0.00000000000E+00 0. -1.
         11    1    3    3    0    0 -0.19289368770E+01  0.11430067836E+01  0.75042873352E+01  0.78320872475E+01  0.51100000000E-03 0. -1.
        -11    1    3    3    0    0  0.25690588271E+01  0.20737389377E+02  0.28320847120E+02  0.35195308825E+02  0.51100000000E-03 0.  1.
        -12    1    3    3    0    0  0.34765807120E+01 -0.64591021431E+01  0.15700921258E+01  0.75014534075E+01  0.00000000000E+00 0.  1.
</event>
<event>
 7    1  0.6726285E-013  0.5052885E+02  0.7816164E-02  0.1300439E+00
        -11   -1    0    0    0    0  0.00000000000E+00  0.00000000000E+00  0.45593999997E+02  0.45594000000E+02  0.51100000000E-03 0.  1.
         11   -1    0    0    0    0 -0.00000000000E+00 -0.00000000000E+00 -0.45593999997E+02  0.45594000000E+02  0.51100000000E-03 0. -1.
    9900012    2    1    2    0    0  0.20143742533E+02 -0.14138887631E+02  0.32364914829E+02  0.50528853200E+02  0.29999979785E+02 0.  0.
         12    1    1    2    0    0 -0.20143742533E+02  0.14138887631E+02 -0.32364914829E+02  0.40659146800E+02  0.00000000000E+00 0. -1.
         11    1    3    3    0    0 -0.10596272752E+01 -0.74363490124E+00  0.61936258226E+01  0.63274642567E+01  0.51100000000E-03 0. -1.
        -11    1    3    3    0    0  0.13647084262E+02 -0.46313628934E+01  0.28916315703E+02  0.32308601722E+02  0.51100000000E-03 0.  1.
         12    1    3    3    0    0  0.75562855456E+01 -0.87638898366E+01 -0.27450266972E+01  0.11892787221E+02  0.00000000000E+00 0. -1.
</event>
<event>
 7    1  0.6726285E-013  0.5052887E+02  0.7816164E-02  0.1300439E+00
        -11   -1    0    0    0    0  0.00000000000E+00  0.00000000000E+00  0.45593999997E+02  0.45594000000E+02  0.51100000000E-03 0.  1.
         11   -1    0    0    0    0 -0.00000000000E+00 -0.00000000000E+00 -0.45593999997E+02  0.45594000000E+02  0.51100000000E-03 0. -1.
    9900012    2    1    2    0    0 -0.79684870725E+01 -0.37160664246E+02  0.14448301821E+02  0.50528865984E+02  0.30000018645E+02 0.  0.
         12    1    1    2    0    0  0.79684870725E+01  0.37160664246E+02 -0.14448301821E+02  0.40659134016E+02  0.00000000000E+00 0. -1.
         11    1    3    3    0    0  0.35216457753E+01 -0.22272821776E+01  0.88530832116E+01  0.97846746230E+01  0.51100000000E-03 0. -1.
        -11    1    3    3    0    0 -0.87817211209E+01 -0.18451121871E+02  0.10976015684E+02  0.23195591062E+02  0.51100000000E-03 0.  1.
         12    1    3    3    0    0 -0.27084117269E+01 -0.16482260198E+02 -0.53807970748E+01  0.17548600299E+02  0.00000000000E+00 0. -1.
</event>
<event>
 7    1  0.6726285E-013  0.5052887E+02  0.7816164E-02  0.1300439E+00
        -11   -1    0    0    0    0  0.00000000000E+00  0.00000000000E+00  0.45593999997E+02  0.45594000000E+02  0.51100000000E-03 0.  1.
         11   -1    0    0    0    0 -0.00000000000E+00 -0.00000000000E+00 -0.45593999997E+02  0.45594000000E+02  0.51100000000E-03 0. -1.
    9900012    2    1    2    0    0 -0.33542195176E+02 -0.10291686839E+02  0.20546705250E+02  0.50528870990E+02  0.30000033862E+02 0.  0.
         12    1    1    2    0    0  0.33542195176E+02  0.10291686839E+02 -0.20546705250E+02  0.40659129010E+02  0.00000000000E+00 0. -1.
         11    1    3    3    0    0 -0.59739845979E+01 -0.11516063909E+02  0.65621255209E+01  0.14538559473E+02  0.51100000000E-03 0. -1.
        -11    1    3    3    0    0 -0.23552706805E+02  0.15285171836E+00  0.23909142116E+01  0.23674244075E+02  0.51100000000E-03 0.  1.
        -12    1    3    3    0    0 -0.40155037728E+01  0.10715253514E+01  0.11593665517E+02  0.12316067443E+02  0.00000000000E+00 0.  1.
</event>
<event>
 7    1  0.6726285E-013  0.5052886E+02  0.7816164E-02  0.1300439E+00
        -11   -1    0    0    0    0  0.00000000000E+00  0.00000000000E+00  0.45593999997E+02  0.45594000000E+02  0.51100000000E-03 0.  1.
         11   -1    0    0    0    0 -0.00000000000E+00 -0.00000000000E+00 -0.45593999997E+02  0.45594000000E+02  0.51100000000E-03 0. -1.
    9900012    2    1    2    0    0 -0.12543108636E+02 -0.36136512822E+02  0.13783634041E+02  0.50528859570E+02  0.29999999148E+02 0.  0.
         12    1    1    2    0    0  0.12543108636E+02  0.36136512822E+02 -0.13783634041E+02  0.40659140430E+02  0.00000000000E+00 0. -1.
         11    1    3    3    0    0 -0.14928813680E+01  0.11921379943E+01 -0.28119189314E+01  0.33995258661E+01  0.51100000000E-03 0. -1.
        -11    1    3    3    0    0 -0.76427465207E+01 -0.13483281767E+02 -0.33489430989E+01  0.15856414529E+02  0.51100000000E-03 0.  1.
         12    1    3    3    0    0 -0.34074807469E+01 -0.23845369049E+02  0.19944496072E+02  0.31272919174E+02  0.00000000000E+00 0. -1.
</event>
<event>
 7    1  0.6726285E-013  0.5052886E+02  0.7816164E-02  0.1300439E+00
        -11   -1    0    0    0    0  0.00000000000E+00  0.00000000000E+00  0.45593999997E+02  0.45594000000E+02  0.51100000000E-03 0. -1.
         11   -1    0    0    0    0 -0.00000000000E+00 -0.00000000000E+00 -0.45593999997E+02  0.45594000000E+02  0.51100000000E-03 0.  1.
    9900012    2    1    2    0    0  0.36851260229E+01  0.12625236723E+02 -0.38473225416E+02  0.50528857977E+02  0.29999994307E+02 0.  0.
         12    1    1    2    0    0 -0.36851260229E+01 -0.12625236723E+02  0.38473225416E+02  0.40659142023E+02  0.00000000000E+00 0. -1.
         11    1    3    3    0    0 -0.72120640016E+01  0.45535261782E-01 -0.42226809126E+01  0.83574502675E+01  0.51100000000E-03 0. -1.
        -11    1    3    3    0    0 -0.48481459274E+01  0.10812893643E+01 -0.88769470731E+01  0.10172211914E+02  0.51100000000E-03 0.  1.
         12    1    3    3    0    0  0.15745335952E+02  0.11498412097E+02 -0.25373597431E+02  0.31999195796E+02  0.00000000000E+00 0. -1.
</event>
<event>
 7    1  0.6726285E-013  0.5052887E+02  0.7816164E-02  0.1300439E+00
        -11   -1    0    0    0    0  0.00000000000E+00  0.00000000000E+00  0.45593999997E+02  0.45594000000E+02  0.51100000000E-03 0.  1.
         11   -1    0    0    0    0 -0.00000000000E+00 -0.00000000000E+00 -0.45593999997E+02  0.45594000000E+02  0.51100000000E-03 0. -1.
    9900012    2    1    2    0    0 -0.37423777962E+01  0.16691296582E+02  0.36885774415E+02  0.50528866618E+02  0.30000020572E+02 0.  0.
         12    1    1    2    0    0  0.37423777962E+01 -0.16691296582E+02 -0.36885774415E+02  0.40659133382E+02  0.00000000000E+00 0. -1.
         11    1    3    3    0    0  0.55700587968E+01  0.45620055065E+01  0.18290108306E+01  0.74285079337E+01  0.51100000000E-03 0. -1.
        -11    1    3    3    0    0  0.30030105602E+01  0.19985196811E+01  0.22542945504E+02  0.22829729425E+02  0.51100000000E-03 0.  1.
        -12    1    3    3    0    0 -0.12315447153E+02  0.10130771395E+02  0.12513818080E+02  0.20270629260E+02  0.00000000000E+00 0.  1.
</event>
<event>
 7    1  0.6726285E-013  0.5052886E+02  0.7816164E-02  0.1300439E+00
        -11   -1    0    0    0    0  0.00000000000E+00  0.00000000000E+00  0.45593999997E+02  0.45594000000E+02  0.51100000000E-03 0.  1.
         11   -1    0    0    0    0 -0.00000000000E+00 -0.00000000000E+00 -0.45593999997E+02  0.45594000000E+02  0.51100000000E-03 0. -1.
    9900012    2    1    2    0    0 -0.29239528622E+02  0.58454666683E+01  0.27641391490E+02  0.50528855418E+02  0.29999986528E+02 0.  0.
         12    1    1    2    0    0  0.29239528622E+02 -0.58454666683E+01 -0.27641391490E+02  0.40659144582E+02  0.00000000000E+00 0. -1.
         11    1    3    3    0    0  0.27649223546E+01 -0.57682105024E+01  0.44847697887E+01  0.78121833277E+01  0.51100000000E-03 0. -1.
        -11    1    3    3    0    0 -0.99067461325E+01  0.18564078362E+01  0.13154001298E+02  0.16571590733E+02  0.51100000000E-03 0.  1.
        -12    1    3    3    0    0 -0.22097704845E+02  0.97572693345E+01  0.10002620403E+02  0.26145081358E+02  0.00000000000E+00 0.  1.
</event>
<event>
 7    1  0.6726285E-013  0.5052886E+02  0.7816164E-02  0.1300439E+00
        -11   -1    0    0    0    0  0.00000000000E+00  0.00000000000E+00  0.45593999997E+02  0.45594000000E+02  0.51100000000E-03 0. -1.
         11   -1    0    0    0    0 -0.00000000000E+00 -0.00000000000E+00 -0.45593999997E+02  0.45594000000E+02  0.51100000000E-03 0.  1.
    9900012    2    1    2    0    0 -0.30577829614E+02 -0.17996512765E+02 -0.19856672136E+02  0.50528861249E+02  0.30000004254E+02 0.  0.
         12    1    1    2    0    0  0.30577829614E+02  0.17996512765E+02  0.19856672136E+02  0.40659138751E+02  0.00000000000E+00 0. -1.
         11    1    3    3    0    0 -0.80009003629E+01 -0.33712663180E+01 -0.84097106124E+01  0.12087310538E+02  0.51100000000E-03 0.  1.
        -11    1    3    3    0    0 -0.20904124864E+02 -0.99846271175E+01 -0.18629875420E+02  0.29727890498E+02  0.51100000000E-03 0. -1.
         12    1    3    3    0    0 -0.16728043868E+01 -0.46406193297E+01  0.71829138959E+01  0.87136602135E+01  0.00000000000E+00 0. -1.
</event>
<event>
 7    1  0.6726285E-013  0.5052886E+02  0.7816164E-02  0.1300439E+00
        -11   -1    0    0    0    0  0.00000000000E+00  0.00000000000E+00  0.45593999997E+02  0.45594000000E+02  0.51100000000E-03 0.  1.
         11   -1    0    0    0    0 -0.00000000000E+00 -0.00000000000E+00 -0.45593999997E+02  0.45594000000E+02  0.51100000000E-03 0. -1.
    9900012    2    1    2    0    0 -0.17298170514E+02  0.32462661118E+02  0.17323822042E+02  0.50528857361E+02  0.29999992435E+02 0.  0.
         12    1    1    2    0    0  0.17298170514E+02 -0.32462661118E+02 -0.17323822042E+02  0.40659142639E+02  0.00000000000E+00 0. -1.
         11    1    3    3    0    0 -0.70384756989E+01  0.27322600452E+00  0.20880826026E+01  0.73467599546E+01  0.51100000000E-03 0. -1.
        -11    1    3    3    0    0 -0.11406057334E+02  0.18199929513E+02  0.18971015362E+02  0.28657198089E+02  0.51100000000E-03 0.  1.
        -12    1    3    3    0    0  0.11463625183E+01  0.13989505601E+02 -0.37352759232E+01  0.14524899318E+02  0.00000000000E+00 0.  1.
</event>
<event>
 7    1  0.6726285E-013  0.5052885E+02  0.7816164E-02  0.1300439E+00
        -11   -1    0    0    0    0  0.00000000000E+00  0.00000000000E+00  0.45593999997E+02  0.45594000000E+02  0.51100000000E-03 0.  1.
         11   -1    0    0    0    0 -0.00000000000E+00 -0.00000000000E+00 -0.45593999997E+02  0.45594000000E+02  0.51100000000E-03 0. -1.
    9900012    2    1    2    0    0  0.27565501279E+02 -0.25359121702E+02  0.15818477032E+02  0.50528854290E+02  0.29999983101E+02 0.  0.
         12    1    1    2    0    0 -0.27565501279E+02  0.25359121702E+02 -0.15818477032E+02  0.40659145710E+02  0.00000000000E+00 0. -1.
         11    1    3    3    0    0  0.12696509487E+02  0.29901781747E+00 -0.23250508163E+00  0.12702158229E+02  0.51100000000E-03 0. -1.
        -11    1    3    3    0    0  0.16609802089E+01 -0.37515750529E+00 -0.30526903848E+01  0.34954995715E+01  0.51100000000E-03 0.  1.
        -12    1    3    3    0    0  0.13208011583E+02 -0.25282982014E+02  0.19103672498E+02  0.34331196490E+02  0.00000000000E+00 0.  1.
</event>
<event>
 7    1  0.6726285E-013  0.5052886E+02  0.7816164E-02  0.1300439E+00
        -11   -1    0    0    0    0  0.00000000000E+00  0.00000000000E+00  0.45593999997E+02  0.45594000000E+02  0.51100000000E-03 0.  1.
         11   -1    0    0    0    0 -0.00000000000E+00 -0.00000000000E+00 -0.45593999997E+02  0.45594000000E+02  0.51100000000E-03 0. -1.
    9900012    2    1    2    0    0  0.10381776059E+02 -0.33225177459E+02  0.21011230406E+02  0.50528862103E+02  0.30000006848E+02 0.  0.
         12    1    1    2    0    0 -0.10381776059E+02  0.33225177459E+02 -0.21011230406E+02  0.40659137897E+02  0.00000000000E+00 0. -1.
         11    1    3    3    0    0  0.61549151145E+01  0.12857058273E+01  0.50030439846E+01  0.80353263104E+01  0.51100000000E-03 0. -1.
        -11    1    3    3    0    0 -0.32209365627E+01  0.45459283857E+00  0.30747483161E+01  0.44760657344E+01  0.51100000000E-03 0.  1.
        -12    1    3    3    0    0  0.74477975074E+01 -0.34965476125E+02  0.12933438106E+02  0.38017470058E+02  0.00000000000E+00 0.  1.
</event>
<event>
 7    1  0.6726285E-013  0.5052886E+02  0.7816164E-02  0.1300439E+00
        -11   -1    0    0    0    0  0.00000000000E+00  0.00000000000E+00  0.45593999997E+02  0.45594000000E+02  0.51100000000E-03 0. -1.
         11   -1    0    0    0    0 -0.00000000000E+00 -0.00000000000E+00 -0.45593999997E+02  0.45594000000E+02  0.51100000000E-03 0.  1.
    9900012    2    1    2    0    0 -0.12104929339E+02  0.38171863398E+02 -0.70388214589E+01  0.50528862318E+02  0.30000007501E+02 0.  0.
         12    1    1    2    0    0  0.12104929339E+02 -0.38171863398E+02  0.70388214589E+01  0.40659137682E+02  0.00000000000E+00 0. -1.
         11    1    3    3    0    0 -0.53280631267E+00  0.31065627509E+00  0.31825747899E+01  0.32417853789E+01  0.51100000000E-03 0. -1.
        -11    1    3    3    0    0  0.65419071294E+01  0.10172265553E+02  0.14947861146E+01  0.12186300553E+02  0.51100000000E-03 0.  1.
        -12    1    3    3    0    0 -0.18114030156E+02  0.27688941570E+02 -0.11716182363E+02  0.35100776386E+02  0.00000000000E+00 0.  1.
</event>
<event>
 7    1  0.6726285E-013  0.5052886E+02  0.7816164E-02  0.1300439E+00
        -11   -1    0    0    0    0  0.00000000000E+00  0.00000000000E+00  0.45593999997E+02  0.45594000000E+02  0.51100000000E-03 0.  1.
         11   -1    0    0    0    0 -0.00000000000E+00 -0.00000000000E+00 -0.45593999997E+02  0.45594000000E+02  0.51100000000E-03 0. -1.
    9900012    2    1    2    0    0  0.13869476479E+02 -0.37424704820E+02  0.77585453230E+01  0.50528856696E+02  0.29999990414E+02 0.  0.
         12    1    1    2    0    0 -0.13869476479E+02  0.37424704820E+02 -0.77585453230E+01  0.40659143304E+02  0.00000000000E+00 0. -1.
         11    1    3    3    0    0 -0.44817985468E+01 -0.33851970131E+00 -0.39130094881E+01  0.59592581180E+01  0.51100000000E-03 0. -1.
        -11    1    3    3    0    0  0.12428559589E+01 -0.84641332812E+01 -0.15580556643E+01  0.86956184858E+01  0.51100000000E-03 0.  1.
         12    1    3    3    0    0  0.17108419067E+02 -0.28622051837E+02  0.13229610475E+02  0.35873980093E+02  0.00000000000E+00 0. -1.
</event>
<event>
 7    1  0.6726285E-013  0.5052886E+02  0.7816164E-02  0.1300439E+00
        -11   -1    0    0    0    0  0.00000000000E+00  0.00000000000E+00  0.45593999997E+02  0.45594000000E+02  0.51100000000E-03 0. -1.
         11   -1    0    0    0    0 -0.00000000000E+00 -0.00000000000E+00 -0.45593999997E+02  0.45594000000E+02  0.51100000000E-03 0.  1.
    9900012    2    1    2    0    0  0.22276352261E+02  0.32987750352E+02  0.82908700709E+01  0.50528855027E+02  0.29999985341E+02 0.  0.
         12    1    1    2    0    0 -0.22276352261E+02 -0.32987750352E+02 -0.82908700709E+01  0.40659144973E+02  0.00000000000E+00 0. -1.
         11    1    3    3    0    0  0.68960412916E+01 -0.26286693231E+01  0.59379703767E+01  0.94723165256E+01  0.51100000000E-03 0. -1.
        -11    1    3    3    0    0  0.10297492240E+02  0.88535268515E+01 -0.96212318660E+00  0.13614292689E+02  0.51100000000E-03 0.  1.
         12    1    3    3    0    0  0.50828187296E+01  0.26762892824E+02  0.33150228808E+01  0.27442245813E+02  0.00000000000E+00 0. -1.
</event>
<event>
 7    1  0.6726285E-013  0.5052884E+02  0.7816164E-02  0.1300439E+00
        -11   -1    0    0    0    0  0.00000000000E+00  0.00000000000E+00  0.45593999997E+02  0.45594000000E+02  0.51100000000E-03 0.  1.
         11   -1    0    0    0    0 -0.00000000000E+00 -0.00000000000E+00 -0.45593999997E+02  0.45594000000E+02  0.51100000000E-03 0. -1.
    9900012    2    1    2    0    0 -0.22419207659E+02  0.10600576717E+02  0.32220708295E+02  0.50528841846E+02  0.29999945274E+02 0.  0.
         12    1    1    2    0    0  0.22419207659E+02 -0.10600576717E+02 -0.32220708295E+02  0.40659158154E+02  0.00000000000E+00 0. -1.
         11    1    3    3    0    0 -0.21081994136E+02  0.20889695172E+01  0.23511582622E+02  0.31648203551E+02  0.51100000000E-03 0. -1.
        -11    1    3    3    0    0 -0.16483912038E+01  0.89702935241E+01  0.12263548278E+02  0.15283258033E+02  0.51100000000E-03 0.  1.
         12    1    3    3    0    0  0.31117768028E+00 -0.45868632385E+00 -0.35544226048E+01  0.35973802615E+01  0.00000000000E+00 0. -1.
</event>
<event>
 7    1  0.6726285E-013  0.5052887E+02  0.7816164E-02  0.1300439E+00
        -11   -1    0    0    0    0  0.00000000000E+00  0.00000000000E+00  0.45593999997E+02  0.45594000000E+02  0.51100000000E-03 0. -1.
         11   -1    0    0    0    0 -0.00000000000E+00 -0.00000000000E+00 -0.45593999997E+02  0.45594000000E+02  0.51100000000E-03 0.  1.
    9900012    2    1    2    0    0 -0.25786703437E+02 -0.24695452390E+01 -0.31338670236E+02  0.50528868430E+02  0.30000026080E+02 0.  0.
         12    1    1    2    0    0  0.25786703437E+02  0.24695452390E+01  0.31338670236E+02  0.40659131570E+02  0.00000000000E+00 0. -1.
         11    1    3    3    0    0  0.35417468533E+01  0.23427917589E+01 -0.83954551734E+01  0.94083107850E+01  0.51100000000E-03 0. -1.
        -11    1    3    3    0    0  0.79754442463E+00  0.54653489734E+00 -0.61318270400E+01  0.62075825096E+01  0.51100000000E-03 0.  1.
         12    1    3    3    0    0 -0.30125994715E+02 -0.53588718953E+01 -0.16811388023E+02  0.34912975135E+02  0.00000000000E+00 0. -1.
</event>
<event>
 7    1  0.6726285E-013  0.5052886E+02  0.7816164E-02  0.1300439E+00
        -11   -1    0    0    0    0  0.00000000000E+00  0.00000000000E+00  0.45593999997E+02  0.45594000000E+02  0.51100000000E-03 0.  1.
         11   -1    0    0    0    0 -0.00000000000E+00 -0.00000000000E+00 -0.45593999997E+02  0.45594000000E+02  0.51100000000E-03 0. -1.
    9900012    2    1    2    0    0 -0.44927043228E+01 -0.17432393480E+02  0.36456729600E+02  0.50528857514E+02  0.29999992900E+02 0.  0.
         12    1    1    2    0    0  0.44927043228E+01  0.17432393480E+02 -0.36456729600E+02  0.40659142486E+02  0.00000000000E+00 0. -1.
         11    1    3    3    0    0 -0.36435993378E+01 -0.13615305929E+02  0.53094191407E+00  0.14104406093E+02  0.51100000000E-03 0. -1.
        -11    1    3    3    0    0 -0.13621603672E+00  0.86619894846E-01 -0.93955438578E-01  0.18677714101E+00  0.51100000000E-03 0.  1.
        -12    1    3    3    0    0 -0.71288894832E+00 -0.39037074461E+01  0.36019743124E+02  0.36237674280E+02  0.00000000000E+00 0.  1.
</event>
<event>
 7    1  0.6726285E-013  0.5052885E+02  0.7816164E-02  0.1300439E+00
        -11   -1    0    0    0    0  0.00000000000E+00  0.00000000000E+00  0.45593999997E+02  0.45594000000E+02  0.51100000000E-03 0. -1.
         11   -1    0    0    0    0 -0.00000000000E+00 -0.00000000000E+00 -0.45593999997E+02  0.45594000000E+02  0.51100000000E-03 0.  1.
    9900012    2    1    2    0    0 -0.24334067375E+01  0.13257997930E+02 -0.38359754605E+02  0.50528846654E+02  0.29999959890E+02 0.  0.
         12    1    1    2    0    0  0.24334067375E+01 -0.13257997930E+02  0.38359754605E+02  0.40659153346E+02  0.00000000000E+00 0. -1.
         11    1    3    3    0    0  0.51307801234E+01 -0.34340341452E+01 -0.53481860696E+01  0.81682672386E+01  0.51100000000E-03 0. -1.
        -11    1    3    3    0    0  0.91624279609E+00  0.94803930712E+01 -0.24499376985E+01  0.98346097347E+01  0.51100000000E-03 0.  1.
         12    1    3    3    0    0 -0.84804296571E+01  0.72116390044E+01 -0.30561630836E+02  0.32525969681E+02  0.00000000000E+00 0. -1.
</event>
<event>
 7    1  0.6726285E-013  0.5052887E+02  0.7816164E-02  0.1300439E+00
        -11   -1    0    0    0    0  0.00000000000E+00  0.00000000000E+00  0.45593999997E+02  0.45594000000E+02  0.51100000000E-03 0. -1.
         11   -1    0    0    0    0 -0.00000000000E+00 -0.00000000000E+00 -0.45593999997E+02  0.45594000000E+02  0.51100000000E-03 0.  1.
    9900012    2    1    2    0    0 -0.14224656190E+02  0.15638853823E+02 -0.34731112820E+02  0.50528870763E+02  0.30000033171E+02 0.  0.
         12    1    1    2    0    0  0.14224656190E+02 -0.15638853823E+02  0.34731112820E+02  0.40659129237E+02  0.00000000000E+00 0. -1.
         11    1    3    3    0    0 -0.30920864273E+01  0.17395569546E+02 -0.13447594839E+02  0.22203707922E+02  0.51100000000E-03 0.  1.
        -11    1    3    3    0    0  0.34484172838E+01  0.14690517887E+01 -0.46171341809E+01  0.59470684566E+01  0.51100000000E-03 0. -1.
         12    1    3    3    0    0 -0.14580987046E+02 -0.32257675112E+01 -0.16666383800E+02  0.22378094384E+02  0.00000000000E+00 0. -1.
</event>
<event>
 7    1  0.6726285E-013  0.5052885E+02  0.7816164E-02  0.1300439E+00
        -11   -1    0    0    0    0  0.00000000000E+00  0.00000000000E+00  0.45593999997E+02  0.45594000000E+02  0.51100000000E-03 0.  1.
         11   -1    0    0    0    0 -0.00000000000E+00 -0.00000000000E+00 -0.45593999997E+02  0.45594000000E+02  0.51100000000E-03 0. -1.
    9900012    2    1    2    0    0 -0.11822036228E+02 -0.30303541673E+02  0.24394690824E+02  0.50528854425E+02  0.29999983510E+02 0.  0.
         12    1    1    2    0    0  0.11822036228E+02  0.30303541673E+02 -0.24394690824E+02  0.40659145575E+02  0.00000000000E+00 0. -1.
         11    1    3    3    0    0 -0.18092541387E+01 -0.31784269009E+01 -0.62950447458E+01  0.72803424861E+01  0.51100000000E-03 0. -1.
        -11    1    3    3    0    0 -0.87594851232E+01 -0.10502391507E+02  0.15804243649E+02  0.20899830731E+02  0.51100000000E-03 0.  1.
        -12    1    3    3    0    0 -0.12532969661E+01 -0.16622723265E+02  0.14885491920E+02  0.22348681208E+02  0.00000000000E+00 0.  1.
</event>
<event>
 7    1  0.6726285E-013  0.5052886E+02  0.7816164E-02  0.1300439E+00
        -11   -1    0    0    0    0  0.00000000000E+00  0.00000000000E+00  0.45593999997E+02  0.45594000000E+02  0.51100000000E-03 0.  1.
         11   -1    0    0    0    0 -0.00000000000E+00 -0.00000000000E+00 -0.45593999997E+02  0.45594000000E+02  0.51100000000E-03 0. -1.
    9900012    2    1    2    0    0  0.40451895761E+02  0.40940343240E+01 -0.22140278243E+00  0.50528855803E+02  0.29999987698E+02 0.  0.
         12    1    1    2    0    0 -0.40451895761E+02 -0.40940343240E+01  0.22140278243E+00  0.40659144197E+02  0.00000000000E+00 0. -1.
         11    1    3    3    0    0  0.26094096470E+02  0.34822198345E+01 -0.36088208387E+01  0.26571626101E+02  0.51100000000E-03 0. -1.
        -11    1    3    3    0    0  0.16337998065E+02  0.64258407799E+01  0.20957704685E+01  0.17680889814E+02  0.51100000000E-03 0.  1.
         12    1    3    3    0    0 -0.19801987742E+01 -0.58140262904E+01  0.12916475878E+01  0.62763398874E+01  0.00000000000E+00 0. -1.
</event>
<event>
 7    1  0.8801875E-013  0.5052886E+02  0.7816164E-02  0.1300439E+00
        -11   -1    0    0    0    0  0.00000000000E+00  0.00000000000E+00  0.45593999997E+02  0.45594000000E+02  0.51100000000E-03 0.  1.
         11   -1    0    0    0    0 -0.00000000000E+00 -0.00000000000E+00 -0.45593999997E+02  0.45594000000E+02  0.51100000000E-03 0. -1.
    9900012    2    1    2    0    0 -0.29229707895E+02  0.15323911579E+02  0.23747999660E+02  0.50528861082E+02  0.30000003745E+02 0.  0.
         12    1    1    2    0    0  0.29229707895E+02 -0.15323911579E+02 -0.23747999660E+02  0.40659138918E+02  0.00000000000E+00 0. -1.
         11    1    3    3    0    0 -0.13383995021E+02 -0.39134395383E+01  0.80320040612E+01  0.16092216169E+02  0.51100000000E-03 0. -1.
        -11    1    3    3    0    0 -0.16362658829E+02  0.61156063085E+01  0.98522604915E+01  0.20055031327E+02  0.51100000000E-03 0.  1.
         12    1    3    3    0    0  0.51694595423E+00  0.13121744809E+02  0.58637351072E+01  0.14381613586E+02  0.00000000000E+00 0. -1.
</event>
<event>
 7    1  0.6726285E-013  0.5052888E+02  0.7816164E-02  0.1300439E+00
        -11   -1    0    0    0    0  0.00000000000E+00  0.00000000000E+00  0.45593999997E+02  0.45594000000E+02  0.51100000000E-03 0.  1.
         11   -1    0    0    0    0 -0.00000000000E+00 -0.00000000000E+00 -0.45593999997E+02  0.45594000000E+02  0.51100000000E-03 0. -1.
    9900012    2    1    2    0    0  0.20769734699E+02 -0.32934952023E+00  0.34952448613E+02  0.50528880302E+02  0.30000062166E+02 0.  0.
         12    1    1    2    0    0 -0.20769734699E+02  0.32934952023E+00 -0.34952448613E+02  0.40659119698E+02  0.00000000000E+00 0. -1.
         11    1    3    3    0    0 -0.51985716503E+01  0.56378459296E+01  0.70688730588E+01  0.10429737317E+02  0.51100000000E-03 0. -1.
        -11    1    3    3    0    0  0.11964716158E+02 -0.67621695203E+01  0.19167380835E+02  0.23585373809E+02  0.51100000000E-03 0.  1.
        -12    1    3    3    0    0  0.14003590190E+02  0.79497407044E+00  0.87161947196E+01  0.16513769175E+02  0.00000000000E+00 0.  1.
</event>
<event>
 7    1  0.6726285E-013  0.5052885E+02  0.7816164E-02  0.1300439E+00
        -11   -1    0    0    0    0  0.00000000000E+00  0.00000000000E+00  0.45593999997E+02  0.45594000000E+02  0.51100000000E-03 0. -1.
         11   -1    0    0    0    0 -0.00000000000E+00 -0.00000000000E+00 -0.45593999997E+02  0.45594000000E+02  0.51100000000E-03 0.  1.
    9900012    2    1    2    0    0 -0.30557743240E+02  0.14496453264E+00 -0.26821068521E+02  0.50528850928E+02  0.29999972882E+02 0.  0.
         12    1    1    2    0    0  0.30557743240E+02 -0.14496453264E+00  0.26821068521E+02  0.40659149072E+02  0.00000000000E+00 0. -1.
         11    1    3    3    0    0 -0.40488139155E+00  0.17643733671E+01 -0.40212606452E+01  0.44099296772E+01  0.51100000000E-03 0. -1.
        -11    1    3    3    0    0 -0.10070078015E+02  0.11585383414E+02 -0.47740903562E+01  0.16075432158E+02  0.51100000000E-03 0.  1.
         12    1    3    3    0    0 -0.20082783833E+02 -0.13204792248E+02 -0.18025717520E+02  0.30043489094E+02  0.00000000000E+00 0. -1.
</event>
<event>
 7    1  0.6726285E-013  0.5052887E+02  0.7816164E-02  0.1300439E+00
        -11   -1    0    0    0    0  0.00000000000E+00  0.00000000000E+00  0.45593999997E+02  0.45594000000E+02  0.51100000000E-03 0.  1.
         11   -1    0    0    0    0 -0.00000000000E+00 -0.00000000000E+00 -0.45593999997E+02  0.45594000000E+02  0.51100000000E-03 0. -1.
    9900012    2    1    2    0    0  0.16042492784E+02  0.38247624710E+00  0.37358490725E+02  0.50528871972E+02  0.30000036845E+02 0.  0.
         12    1    1    2    0    0 -0.16042492784E+02 -0.38247624710E+00 -0.37358490725E+02  0.40659128028E+02  0.00000000000E+00 0. -1.
         11    1    3    3    0    0 -0.43242603281E+01 -0.35841236983E+01  0.15408844649E+01  0.58240445796E+01  0.51100000000E-03 0. -1.
        -11    1    3    3    0    0  0.56431168832E+01  0.65358504763E+01  0.24440952261E+02  0.25921463255E+02  0.51100000000E-03 0.  1.
        -12    1    3    3    0    0  0.14723636229E+02 -0.25692505309E+01  0.11376653999E+02  0.18783364137E+02  0.00000000000E+00 0.  1.
</event>
<event>
 7    1  0.6726285E-013  0.5052886E+02  0.7816164E-02  0.1300439E+00
        -11   -1    0    0    0    0  0.00000000000E+00  0.00000000000E+00  0.45593999997E+02  0.45594000000E+02  0.51100000000E-03 0.  1.
         11   -1    0    0    0    0 -0.00000000000E+00 -0.00000000000E+00 -0.45593999997E+02  0.45594000000E+02  0.51100000000E-03 0. -1.
    9900012    2    1    2    0    0  0.23454870964E+02 -0.20512051474E+02  0.26120686447E+02  0.50528862182E+02  0.30000007089E+02 0.  0.
         12    1    1    2    0    0 -0.23454870964E+02  0.20512051474E+02 -0.26120686447E+02  0.40659137818E+02  0.00000000000E+00 0. -1.
         11    1    3    3    0    0  0.15070659844E+02  0.24338060861E+01  0.13569189171E+02  0.20424766712E+02  0.51100000000E-03 0. -1.
        -11    1    3    3    0    0  0.13766791210E+00 -0.49031554010E+01  0.85641655797E+01  0.98693879080E+01  0.51100000000E-03 0.  1.
         12    1    3    3    0    0  0.82465432076E+01 -0.18042702159E+02  0.39873316968E+01  0.20234707562E+02  0.00000000000E+00 0. -1.
</event>
<event>
 7    1  0.6726285E-013  0.5052886E+02  0.7816164E-02  0.1300439E+00
        -11   -1    0    0    0    0  0.00000000000E+00  0.00000000000E+00  0.45593999997E+02  0.45594000000E+02  0.51100000000E-03 0.  1.
         11   -1    0    0    0    0 -0.00000000000E+00 -0.00000000000E+00 -0.45593999997E+02  0.45594000000E+02  0.51100000000E-03 0. -1.
    9900012    2    1    2    0    0  0.24480280845E+02  0.13415477953E+02  0.29561907779E+02  0.50528860923E+02  0.30000003262E+02 0.  0.
         12    1    1    2    0    0 -0.24480280845E+02 -0.13415477953E+02 -0.29561907779E+02  0.40659139077E+02  0.00000000000E+00 0. -1.
         11    1    3    3    0    0  0.15545255476E+02  0.77717147953E+01  0.11955498926E+02  0.21094749904E+02  0.51100000000E-03 0. -1.
        -11    1    3    3    0    0  0.10547676844E+02 -0.18717131276E+01  0.18817183319E+02  0.21652787007E+02  0.51100000000E-03 0.  1.
         12    1    3    3    0    0 -0.16126514756E+01  0.75154762856E+01 -0.12107744660E+01  0.77813240126E+01  0.00000000000E+00 0. -1.
</event>
<event>
 7    1  0.6726285E-013  0.5052889E+02  0.7816164E-02  0.1300439E+00
        -11   -1    0    0    0    0  0.00000000000E+00  0.00000000000E+00  0.45593999997E+02  0.45594000000E+02  0.51100000000E-03 0. -1.
         11   -1    0    0    0    0 -0.00000000000E+00 -0.00000000000E+00 -0.45593999997E+02  0.45594000000E+02  0.51100000000E-03 0.  1.
    9900012    2    1    2    0    0 -0.30910951011E+02 -0.11307532142E+02 -0.23870826263E+02  0.50528886359E+02  0.30000080578E+02 0.  0.
         12    1    1    2    0    0  0.30910951011E+02  0.11307532142E+02  0.23870826263E+02  0.40659113641E+02  0.00000000000E+00 0. -1.
         11    1    3    3    0    0 -0.59356851182E+01 -0.54869150162E+01 -0.19688299022E+01  0.83195484050E+01  0.51100000000E-03 0.  1.
        -11    1    3    3    0    0 -0.15962422549E+02 -0.15320606394E+02 -0.91862570567E+01  0.23956361011E+02  0.51100000000E-03 0. -1.
         12    1    3    3    0    0 -0.90128433437E+01  0.94999892680E+01 -0.12715739305E+02  0.18252976943E+02  0.00000000000E+00 0. -1.
</event>
<event>
 7    1  0.6726285E-013  0.5052887E+02  0.7816164E-02  0.1300439E+00
        -11   -1    0    0    0    0  0.00000000000E+00  0.00000000000E+00  0.45593999997E+02  0.45594000000E+02  0.51100000000E-03 0.  1.
         11   -1    0    0    0    0 -0.00000000000E+00 -0.00000000000E+00 -0.45593999997E+02  0.45594000000E+02  0.51100000000E-03 0. -1.
    9900012    2    1    2    0    0 -0.69966256485E+01  0.32365608156E+02  0.23594058504E+02  0.50528868695E+02  0.30000026885E+02 0.  0.
         12    1    1    2    0    0  0.69966256485E+01 -0.32365608156E+02 -0.23594058504E+02  0.40659131305E+02  0.00000000000E+00 0. -1.
         11    1    3    3    0    0 -0.26892296998E+00  0.91640362583E+01  0.98363248929E+01  0.13446381215E+02  0.51100000000E-03 0.  1.
        -11    1    3    3    0    0  0.40210093178E+01  0.75676730363E+01 -0.53927500991E+01  0.10125213332E+02  0.51100000000E-03 0. -1.
         12    1    3    3    0    0 -0.10748711996E+02  0.15633898862E+02  0.19150483710E+02  0.26957274149E+02  0.00000000000E+00 0. -1.
</event>
<event>
 7    1  0.6726285E-013  0.5052886E+02  0.7816164E-02  0.1300439E+00
        -11   -1    0    0    0    0  0.00000000000E+00  0.00000000000E+00  0.45593999997E+02  0.45594000000E+02  0.51100000000E-03 0.  1.
         11   -1    0    0    0    0 -0.00000000000E+00 -0.00000000000E+00 -0.45593999997E+02  0.45594000000E+02  0.51100000000E-03 0. -1.
    9900012    2    1    2    0    0 -0.38905281219E+02 -0.10016225189E+02 -0.62625757444E+01  0.50528861682E+02  0.30000005569E+02 0.  0.
         12    1    1    2    0    0  0.38905281219E+02  0.10016225189E+02  0.62625757444E+01  0.40659138318E+02  0.00000000000E+00 0. -1.
         11    1    3    3    0    0 -0.75923224200E+01 -0.50467780108E+01  0.11340322680E+01  0.91869122923E+01  0.51100000000E-03 0. -1.
        -11    1    3    3    0    0 -0.15529374662E+02 -0.14535269302E+02  0.47861953247E+00  0.21275916150E+02  0.51100000000E-03 0.  1.
         12    1    3    3    0    0 -0.15783584137E+02  0.95658221236E+01 -0.78752275449E+01  0.20066033240E+02  0.00000000000E+00 0. -1.
</event>
<event>
 7    1  0.6726285E-013  0.5052886E+02  0.7816164E-02  0.1300439E+00
        -11   -1    0    0    0    0  0.00000000000E+00  0.00000000000E+00  0.45593999997E+02  0.45594000000E+02  0.51100000000E-03 0.  1.
         11   -1    0    0    0    0 -0.00000000000E+00 -0.00000000000E+00 -0.45593999997E+02  0.45594000000E+02  0.51100000000E-03 0. -1.
    9900012    2    1    2    0    0 -0.26643701938E+02  0.11554388201E+02  0.28456539118E+02  0.50528863779E+02  0.30000011942E+02 0.  0.
         12    1    1    2    0    0  0.26643701938E+02 -0.11554388201E+02 -0.28456539118E+02  0.40659136221E+02  0.00000000000E+00 0. -1.
         11    1    3    3    0    0 -0.35763960702E+01  0.89948594078E+01 -0.15632260963E+01  0.98051915181E+01  0.51100000000E-03 0. -1.
        -11    1    3    3    0    0  0.90055603946E+00  0.25213702327E+01  0.54215940426E+00  0.27317112057E+01  0.51100000000E-03 0.  1.
        -12    1    3    3    0    0 -0.23967861908E+02  0.38158560950E-01  0.29477605810E+02  0.37991961055E+02  0.00000000000E+00 0.  1.
</event>
<event>
 7    1  0.6726285E-013  0.5052886E+02  0.7816164E-02  0.1300439E+00
        -11   -1    0    0    0    0  0.00000000000E+00  0.00000000000E+00  0.45593999997E+02  0.45594000000E+02  0.51100000000E-03 0.  1.
         11   -1    0    0    0    0 -0.00000000000E+00 -0.00000000000E+00 -0.45593999997E+02  0.45594000000E+02  0.51100000000E-03 0. -1.
    9900012    2    1    2    0    0  0.14416784032E+02  0.37895984793E+02 -0.30357825935E+01  0.50528864480E+02  0.30000014074E+02 0.  0.
         12    1    1    2    0    0 -0.14416784032E+02 -0.37895984793E+02  0.30357825935E+01  0.40659135520E+02  0.00000000000E+00 0. -1.
         11    1    3    3    0    0  0.49923713654E+01  0.16942432603E+02 -0.10488409012E+01  0.17693780315E+02  0.51100000000E-03 0. -1.
        -11    1    3    3    0    0  0.30562090422E+01  0.24824233299E+02 -0.34258309430E+01  0.25245183511E+02  0.51100000000E-03 0.  1.
        -12    1    3    3    0    0  0.63682036248E+01 -0.38706811091E+01  0.14388892507E+01  0.75899006535E+01  0.00000000000E+00 0.  1.
</event>
<event>
 7    1  0.6726285E-013  0.5052885E+02  0.7816164E-02  0.1300439E+00
        -11   -1    0    0    0    0  0.00000000000E+00  0.00000000000E+00  0.45593999997E+02  0.45594000000E+02  0.51100000000E-03 0. -1.
         11   -1    0    0    0    0 -0.00000000000E+00 -0.00000000000E+00 -0.45593999997E+02  0.45594000000E+02  0.51100000000E-03 0.  1.
    9900012    2    1    2    0    0  0.23813432165E+02 -0.32780189857E+02 -0.33979298941E+01  0.50528851877E+02  0.29999975765E+02 0.  0.
         12    1    1    2    0    0 -0.23813432165E+02  0.32780189857E+02  0.33979298941E+01  0.40659148123E+02  0.00000000000E+00 0. -1.
         11    1    3    3    0    0  0.13768974710E-01 -0.11572658523E+01  0.55249979001E+01  0.56449141619E+01  0.51100000000E-03 0. -1.
        -11    1    3    3    0    0  0.33927122114E+01 -0.19450260225E+02 -0.73592190155E+01  0.21070861960E+02  0.51100000000E-03 0.  1.
        -12    1    3    3    0    0  0.20406950979E+02 -0.12172663780E+02 -0.15637087787E+01  0.23813075755E+02  0.00000000000E+00 0.  1.
</event>
<event>
 7    1  0.6726285E-013  0.5052889E+02  0.7816164E-02  0.1300439E+00
        -11   -1    0    0    0    0  0.00000000000E+00  0.00000000000E+00  0.45593999997E+02  0.45594000000E+02  0.51100000000E-03 0.  1.
         11   -1    0    0    0    0 -0.00000000000E+00 -0.00000000000E+00 -0.45593999997E+02  0.45594000000E+02  0.51100000000E-03 0. -1.
    9900012    2    1    2    0    0  0.52709831451E+01 -0.24816524439E+02  0.31772947222E+02  0.50528888798E+02  0.30000087991E+02 0.  0.
         12    1    1    2    0    0 -0.52709831451E+01  0.24816524439E+02 -0.31772947222E+02  0.40659111202E+02  0.00000000000E+00 0. -1.
         11    1    3    3    0    0  0.62238632777E+01 -0.71434403468E+01  0.24834404362E+02  0.26580309524E+02  0.51100000000E-03 0. -1.
        -11    1    3    3    0    0  0.25773421716E+01 -0.66718536911E+01  0.97169225664E+01  0.12065442751E+02  0.51100000000E-03 0.  1.
        -12    1    3    3    0    0 -0.35302223041E+01 -0.11001230401E+02 -0.27783797068E+01  0.11883136524E+02  0.00000000000E+00 0.  1.
</event>
<event>
 7    1  0.6726285E-013  0.5052887E+02  0.7816164E-02  0.1300439E+00
        -11   -1    0    0    0    0  0.00000000000E+00  0.00000000000E+00  0.45593999997E+02  0.45594000000E+02  0.51100000000E-03 0. -1.
         11   -1    0    0    0    0 -0.00000000000E+00 -0.00000000000E+00 -0.45593999997E+02  0.45594000000E+02  0.51100000000E-03 0.  1.
    9900012    2    1    2    0    0 -0.37767386675E+02 -0.30096119725E+01  0.14755740751E+02  0.50528866394E+02  0.30000019892E+02 0.  0.
         12    1    1    2    0    0  0.37767386675E+02  0.30096119725E+01 -0.14755740751E+02  0.40659133606E+02  0.00000000000E+00 0. -1.
         11    1    3    3    0    0 -0.92557530232E+01  0.10397545086E+02  0.14276143830E+01  0.13993426704E+02  0.51100000000E-03 0. -1.
        -11    1    3    3    0    0 -0.96484134487E+01 -0.73823454212E+01 -0.85398902445E+00  0.12178678233E+02  0.51100000000E-03 0.  1.
        -12    1    3    3    0    0 -0.18863220203E+02 -0.60248116368E+01  0.14182115392E+02  0.24356761457E+02  0.00000000000E+00 0.  1.
</event>
<event>
 7    1  0.7344200E-013  0.5052886E+02  0.7816164E-02  0.1300439E+00
        -11   -1    0    0    0    0  0.00000000000E+00  0.00000000000E+00  0.45593999997E+02  0.45594000000E+02  0.51100000000E-03 0. -1.
         11   -1    0    0    0    0 -0.00000000000E+00 -0.00000000000E+00 -0.45593999997E+02  0.45594000000E+02  0.51100000000E-03 0.  1.
    9900012    2    1    2    0    0 -0.27538579514E+02 -0.25888627075E+02  0.14985703922E+02  0.50528859631E+02  0.29999999335E+02 0.  0.
         12    1    1    2    0    0  0.27538579514E+02  0.25888627075E+02 -0.14985703922E+02  0.40659140369E+02  0.00000000000E+00 0. -1.
         11    1    3    3    0    0 -0.12000113560E+02 -0.43924880617E+01  0.45064857042E+01  0.13550095589E+02  0.51100000000E-03 0. -1.
        -11    1    3    3    0    0 -0.19618868114E+02 -0.20411160017E+02  0.31042796972E+01  0.28480730187E+02  0.51100000000E-03 0.  1.
         12    1    3    3    0    0  0.40804021596E+01 -0.10849789968E+01  0.73749385206E+01  0.84980338544E+01  0.00000000000E+00 0. -1.
</event>
<event>
 7    1  0.6726285E-013  0.5052886E+02  0.7816164E-02  0.1300439E+00
        -11   -1    0    0    0    0  0.00000000000E+00  0.00000000000E+00  0.45593999997E+02  0.45594000000E+02  0.51100000000E-03 0.  1.
         11   -1    0    0    0    0 -0.00000000000E+00 -0.00000000000E+00 -0.45593999997E+02  0.45594000000E+02  0.51100000000E-03 0. -1.
    9900012    2    1    2    0    0 -0.37673402435E+02  0.64381817955E+01  0.13871935949E+02  0.50528855361E+02  0.29999986354E+02 0.  0.
         12    1    1    2    0    0  0.37673402435E+02 -0.64381817955E+01 -0.13871935949E+02  0.40659144639E+02  0.00000000000E+00 0. -1.
         11    1    3    3    0    0 -0.64893562297E+01 -0.38878528680E+01 -0.35800690301E+01  0.83692316685E+01  0.51100000000E-03 0. -1.
        -11    1    3    3    0    0 -0.25226203720E+02  0.43930453242E+01  0.34640549784E+01  0.25839115281E+02  0.51100000000E-03 0.  1.
         12    1    3    3    0    0 -0.59578424848E+01  0.59329893393E+01  0.13987950001E+02  0.16320508411E+02  0.00000000000E+00 0. -1.
</event>
<event>
 7    1  0.6726285E-013  0.5052881E+02  0.7816164E-02  0.1300439E+00
        -11   -1    0    0    0    0  0.00000000000E+00  0.00000000000E+00  0.45593999997E+02  0.45594000000E+02  0.51100000000E-03 0.  1.
         11   -1    0    0    0    0 -0.00000000000E+00 -0.00000000000E+00 -0.45593999997E+02  0.45594000000E+02  0.51100000000E-03 0. -1.
    9900012    2    1    2    0    0 -0.51250260576E+01 -0.94565585629E+01  0.39210683632E+02  0.50528805433E+02  0.29999834594E+02 0.  0.
         12    1    1    2    0    0  0.51250260576E+01  0.94565585629E+01 -0.39210683632E+02  0.40659194567E+02  0.00000000000E+00 0. -1.
         11    1    3    3    0    0 -0.34324012993E+01 -0.14382944994E+01  0.17806396379E+02  0.18191146803E+02  0.51100000000E-03 0. -1.
        -11    1    3    3    0    0  0.68281315324E+01 -0.13891105514E+01  0.20327144527E+02  0.21488271527E+02  0.51100000000E-03 0.  1.
         12    1    3    3    0    0 -0.85207562907E+01 -0.66291535122E+01  0.10771427262E+01  0.10849387103E+02  0.00000000000E+00 0. -1.
</event>
<event>
 7    1  0.6726285E-013  0.5052886E+02  0.7816164E-02  0.1300439E+00
        -11   -1    0    0    0    0  0.00000000000E+00  0.00000000000E+00  0.45593999997E+02  0.45594000000E+02  0.51100000000E-03 0. -1.
         11   -1    0    0    0    0 -0.00000000000E+00 -0.00000000000E+00 -0.45593999997E+02  0.45594000000E+02  0.51100000000E-03 0.  1.
    9900012    2    1    2    0    0 -0.33399775547E+02  0.19798581815E+02 -0.12068006631E+02  0.50528860406E+02  0.30000001690E+02 0.  0.
         12    1    1    2    0    0  0.33399775547E+02 -0.19798581815E+02  0.12068006631E+02  0.40659139594E+02  0.00000000000E+00 0. -1.
         11    1    3    3    0    0  0.33618741225E+01 -0.23853190947E+01 -0.47574470423E+01  0.62948588086E+01  0.51100000000E-03 0. -1.
        -11    1    3    3    0    0 -0.22832481944E+01  0.40992716495E+01 -0.78797762602E+00  0.47579574792E+01  0.51100000000E-03 0.  1.
        -12    1    3    3    0    0 -0.34478401475E+02  0.18084629260E+02 -0.65225819622E+01  0.39476044118E+02  0.00000000000E+00 0.  1.
</event>
<event>
 7    1  0.6726285E-013  0.5052887E+02  0.7816164E-02  0.1300439E+00
        -11   -1    0    0    0    0  0.00000000000E+00  0.00000000000E+00  0.45593999997E+02  0.45594000000E+02  0.51100000000E-03 0. -1.
         11   -1    0    0    0    0 -0.00000000000E+00 -0.00000000000E+00 -0.45593999997E+02  0.45594000000E+02  0.51100000000E-03 0.  1.
    9900012    2    1    2    0    0 -0.36308917870E+02  0.16775285201E+02 -0.73087176234E+01  0.50528867400E+02  0.30000022949E+02 0.  0.
         12    1    1    2    0    0  0.36308917870E+02 -0.16775285201E+02  0.73087176234E+01  0.40659132600E+02  0.00000000000E+00 0. -1.
         11    1    3    3    0    0  0.20406756053E+01  0.21668086494E+01 -0.47225379524E+01  0.55822738756E+01  0.51100000000E-03 0. -1.
        -11    1    3    3    0    0  0.36252071474E+00 -0.10013714556E+01  0.26715096415E+01  0.28759572470E+01  0.51100000000E-03 0.  1.
        -12    1    3    3    0    0 -0.38712114190E+02  0.15609848007E+02 -0.52576893125E+01  0.42070636277E+02  0.00000000000E+00 0.  1.
</event>
<event>
 7    1  0.6726285E-013  0.5052888E+02  0.7816164E-02  0.1300439E+00
        -11   -1    0    0    0    0  0.00000000000E+00  0.00000000000E+00  0.45593999997E+02  0.45594000000E+02  0.51100000000E-03 0.  1.
         11   -1    0    0    0    0 -0.00000000000E+00 -0.00000000000E+00 -0.45593999997E+02  0.45594000000E+02  0.51100000000E-03 0. -1.
    9900012    2    1    2    0    0  0.22783982967E+02 -0.12955935287E+02  0.31083717692E+02  0.50528884853E+02  0.30000075998E+02 0.  0.
         12    1    1    2    0    0 -0.22783982967E+02  0.12955935287E+02 -0.31083717692E+02  0.40659115147E+02  0.00000000000E+00 0. -1.
         11    1    3    3    0    0  0.10496910584E+02  0.27307272590E+01  0.71796418293E+01  0.13007277203E+02  0.51100000000E-03 0. -1.
        -11    1    3    3    0    0  0.23213390714E+01  0.30130471482E+01 -0.18012951227E+01  0.42085309291E+01  0.51100000000E-03 0.  1.
        -12    1    3    3    0    0  0.99657333113E+01 -0.18699709694E+02  0.25705370986E+02  0.33313076720E+02  0.00000000000E+00 0.  1.
</event>
<event>
 7    1  0.6726285E-013  0.5052886E+02  0.7816164E-02  0.1300439E+00
        -11   -1    0    0    0    0  0.00000000000E+00  0.00000000000E+00  0.45593999997E+02  0.45594000000E+02  0.51100000000E-03 0. -1.
         11   -1    0    0    0    0 -0.00000000000E+00 -0.00000000000E+00 -0.45593999997E+02  0.45594000000E+02  0.51100000000E-03 0.  1.
    9900012    2    1    2    0    0  0.31325664939E+02  0.25076308001E+02  0.65610360889E+01  0.50528859559E+02  0.29999999116E+02 0.  0.
         12    1    1    2    0    0 -0.31325664939E+02 -0.25076308001E+02 -0.65610360889E+01  0.40659140441E+02  0.00000000000E+00 0. -1.
         11    1    3    3    0    0  0.26220414787E+02  0.19668084508E+02  0.49586519368E+01  0.33150142218E+02  0.51100000000E-03 0. -1.
        -11    1    3    3    0    0  0.52463406542E+01  0.98930174887E+01  0.44660445910E+01  0.12055763760E+02  0.51100000000E-03 0.  1.
         12    1    3    3    0    0 -0.14109050185E+00 -0.44847939956E+01 -0.28636604389E+01  0.53229535807E+01  0.00000000000E+00 0. -1.
</event>
<event>
 7    1  0.6726285E-013  0.5052885E+02  0.7816164E-02  0.1300439E+00
        -11   -1    0    0    0    0  0.00000000000E+00  0.00000000000E+00  0.45593999997E+02  0.45594000000E+02  0.51100000000E-03 0.  1.
         11   -1    0    0    0    0 -0.00000000000E+00 -0.00000000000E+00 -0.45593999997E+02  0.45594000000E+02  0.51100000000E-03 0. -1.
    9900012    2    1    2    0    0 -0.49010088245E+01 -0.14305067177E+01  0.40337327697E+02  0.50528852902E+02  0.29999978882E+02 0.  0.
         12    1    1    2    0    0  0.49010088245E+01  0.14305067177E+01 -0.40337327697E+02  0.40659147098E+02  0.00000000000E+00 0. -1.
         11    1    3    3    0    0  0.81703645127E+01  0.12591589350E+01  0.12596091597E+02  0.15066580942E+02  0.51100000000E-03 0. -1.
        -11    1    3    3    0    0 -0.26206001542E+01 -0.68373980855E+01  0.21256850814E+02  0.22482688108E+02  0.51100000000E-03 0.  1.
         12    1    3    3    0    0 -0.10450773183E+02  0.41477324328E+01  0.64843852852E+01  0.12979583852E+02  0.00000000000E+00 0. -1.
</event>
<event>
 7    1  0.6726285E-013  0.5052886E+02  0.7816164E-02  0.1300439E+00
        -11   -1    0    0    0    0  0.00000000000E+00  0.00000000000E+00  0.45593999997E+02  0.45594000000E+02  0.51100000000E-03 0. -1.
         11   -1    0    0    0    0 -0.00000000000E+00 -0.00000000000E+00 -0.45593999997E+02  0.45594000000E+02  0.51100000000E-03 0.  1.
    9900012    2    1    2    0    0 -0.37023341705E+02  0.11988972867E+02 -0.11777194026E+02  0.50528860799E+02  0.30000002886E+02 0.  0.
         12    1    1    2    0    0  0.37023341705E+02 -0.11988972867E+02  0.11777194026E+02  0.40659139201E+02  0.00000000000E+00 0. -1.
         11    1    3    3    0    0  0.18175278208E+01 -0.57683325493E+01 -0.18992686099E+01  0.63391079257E+01  0.51100000000E-03 0. -1.
        -11    1    3    3    0    0 -0.20793972096E+01  0.14028287219E+01  0.66724063021E+00  0.25955792220E+01  0.51100000000E-03 0.  1.
        -12    1    3    3    0    0 -0.36761472316E+02  0.16354476695E+02 -0.10545166046E+02  0.41594173652E+02  0.00000000000E+00 0.  1.
</event>
<event>
 7    1  0.6726285E-013  0.5052886E+02  0.7816164E-02  0.1300439E+00
        -11   -1    0    0    0    0  0.00000000000E+00  0.00000000000E+00  0.45593999997E+02  0.45594000000E+02  0.51100000000E-03 0. -1.
         11   -1    0    0    0    0 -0.00000000000E+00 -0.00000000000E+00 -0.45593999997E+02  0.45594000000E+02  0.51100000000E-03 0.  1.
    9900012    2    1    2    0    0 -0.15191008841E+02  0.31641609004E+02  0.20523343889E+02  0.50528858170E+02  0.29999994892E+02 0.  0.
         12    1    1    2    0    0  0.15191008841E+02 -0.31641609004E+02 -0.20523343889E+02  0.40659141830E+02  0.00000000000E+00 0. -1.
         11    1    3    3    0    0 -0.66727870721E+01  0.13956791113E+02  0.11357027447E+02  0.19191148433E+02  0.51100000000E-03 0. -1.
        -11    1    3    3    0    0 -0.11338622050E+02  0.18282605155E+02  0.14029935856E+02  0.25683790640E+02  0.51100000000E-03 0.  1.
        -12    1    3    3    0    0  0.28204002811E+01 -0.59778726396E+00 -0.48636194131E+01  0.56539190969E+01  0.00000000000E+00 0.  1.
</event>
<event>
 7    1  0.6726285E-013  0.5052886E+02  0.7816164E-02  0.1300439E+00
        -11   -1    0    0    0    0  0.00000000000E+00  0.00000000000E+00  0.45593999997E+02  0.45594000000E+02  0.51100000000E-03 0.  1.
         11   -1    0    0    0    0 -0.00000000000E+00 -0.00000000000E+00 -0.45593999997E+02  0.45594000000E+02  0.51100000000E-03 0. -1.
    9900012    2    1    2    0    0  0.25660549855E+02  0.27931654157E+02  0.14646666975E+02  0.50528856179E+02  0.29999988840E+02 0.  0.
         12    1    1    2    0    0 -0.25660549855E+02 -0.27931654157E+02 -0.14646666975E+02  0.40659143821E+02  0.00000000000E+00 0. -1.
         11    1    3    3    0    0  0.97004641268E+01  0.27784036498E+02  0.62421711229E+01  0.30083490306E+02  0.51100000000E-03 0. -1.
        -11    1    3    3    0    0  0.13047358850E+02  0.36134861101E+01  0.39711312286E+01  0.14108888628E+02  0.51100000000E-03 0.  1.
        -12    1    3    3    0    0  0.29127268782E+01 -0.34658684509E+01  0.44333646231E+01  0.63364772443E+01  0.00000000000E+00 0.  1.
</event>
<event>
 7    1  0.6726285E-013  0.5052886E+02  0.7816164E-02  0.1300439E+00
        -11   -1    0    0    0    0  0.00000000000E+00  0.00000000000E+00  0.45593999997E+02  0.45594000000E+02  0.51100000000E-03 0.  1.
         11   -1    0    0    0    0 -0.00000000000E+00 -0.00000000000E+00 -0.45593999997E+02  0.45594000000E+02  0.51100000000E-03 0. -1.
    9900012    2    1    2    0    0  0.65539262697E+01  0.40088250347E+02  0.17730768370E+01  0.50528861213E+02  0.30000004144E+02 0.  0.
         12    1    1    2    0    0 -0.65539262697E+01 -0.40088250347E+02 -0.17730768370E+01  0.40659138787E+02  0.00000000000E+00 0. -1.
         11    1    3    3    0    0  0.51462163751E+01  0.26426736070E+02  0.10021470030E+00  0.26923334963E+02  0.51100000000E-03 0. -1.
        -11    1    3    3    0    0  0.74819799883E+01  0.15047698735E+02 -0.98026346834E+00  0.16833721469E+02  0.51100000000E-03 0.  1.
         12    1    3    3    0    0 -0.60742700937E+01 -0.13861844581E+01  0.26531256050E+01  0.67718047815E+01  0.00000000000E+00 0. -1.
</event>
<event>
 7    1  0.6726285E-013  0.5052886E+02  0.7816164E-02  0.1300439E+00
        -11   -1    0    0    0    0  0.00000000000E+00  0.00000000000E+00  0.45593999997E+02  0.45594000000E+02  0.51100000000E-03 0.  1.
         11   -1    0    0    0    0 -0.00000000000E+00 -0.00000000000E+00 -0.45593999997E+02  0.45594000000E+02  0.51100000000E-03 0. -1.
    9900012    2    1    2    0    0  0.30168332952E+01 -0.29490393351E+02  0.27827702518E+02  0.50528860676E+02  0.30000002511E+02 0.  0.
         12    1    1    2    0    0 -0.30168332952E+01  0.29490393351E+02 -0.27827702518E+02  0.40659139324E+02  0.00000000000E+00 0. -1.
         11    1    3    3    0    0 -0.52567888807E+01 -0.11696255105E+02  0.42291918502E+01  0.13502676653E+02  0.51100000000E-03 0. -1.
        -11    1    3    3    0    0 -0.21096362088E+01 -0.94294399225E+00 -0.30528256435E+01  0.38287665085E+01  0.51100000000E-03 0.  1.
        -12    1    3    3    0    0  0.10383258385E+02 -0.16851194254E+02  0.26651336311E+02  0.33197417514E+02  0.00000000000E+00 0.  1.
</event>
<event>
 7    1  0.6726285E-013  0.5052886E+02  0.7816164E-02  0.1300439E+00
        -11   -1    0    0    0    0  0.00000000000E+00  0.00000000000E+00  0.45593999997E+02  0.45594000000E+02  0.51100000000E-03 0. -1.
         11   -1    0    0    0    0 -0.00000000000E+00 -0.00000000000E+00 -0.45593999997E+02  0.45594000000E+02  0.51100000000E-03 0.  1.
    9900012    2    1    2    0    0 -0.19314443633E+02  0.21372176032E+02 -0.28694036149E+02  0.50528863859E+02  0.30000012185E+02 0.  0.
         12    1    1    2    0    0  0.19314443633E+02 -0.21372176032E+02  0.28694036149E+02  0.40659136141E+02  0.00000000000E+00 0. -1.
         11    1    3    3    0    0 -0.42353507824E+01 -0.17216694719E+01  0.13135077939E+00  0.45737944104E+01  0.51100000000E-03 0.  1.
        -11    1    3    3    0    0 -0.44691844144E+01 -0.13440275353E+01  0.21161075356E+01  0.51242492824E+01  0.51100000000E-03 0. -1.
        -12    1    3    3    0    0 -0.10609908436E+02  0.24437873039E+02 -0.30941494464E+02  0.40830820166E+02  0.00000000000E+00 0.  1.
</event>
<event>
 7    1  0.6726285E-013  0.5052885E+02  0.7816164E-02  0.1300439E+00
        -11   -1    0    0    0    0  0.00000000000E+00  0.00000000000E+00  0.45593999997E+02  0.45594000000E+02  0.51100000000E-03 0.  1.
         11   -1    0    0    0    0 -0.00000000000E+00 -0.00000000000E+00 -0.45593999997E+02  0.45594000000E+02  0.51100000000E-03 0. -1.
    9900012    2    1    2    0    0 -0.21331140568E+02  0.23943005127E+02  0.24997623237E+02  0.50528853182E+02  0.29999979732E+02 0.  0.
         12    1    1    2    0    0  0.21331140568E+02 -0.23943005127E+02 -0.24997623237E+02  0.40659146818E+02  0.00000000000E+00 0. -1.
         11    1    3    3    0    0  0.48920910882E+01 -0.60867183047E+00  0.51295561941E+01  0.71144489332E+01  0.51100000000E-03 0. -1.
        -11    1    3    3    0    0 -0.11365530780E+02  0.85985930636E+01  0.15727909843E+02  0.21224472688E+02  0.51100000000E-03 0.  1.
        -12    1    3    3    0    0 -0.14857700876E+02  0.15953083894E+02  0.41401572004E+01  0.22189931561E+02  0.00000000000E+00 0.  1.
</event>
<event>
 7    1  0.6726285E-013  0.5052886E+02  0.7816164E-02  0.1300439E+00
        -11   -1    0    0    0    0  0.00000000000E+00  0.00000000000E+00  0.45593999997E+02  0.45594000000E+02  0.51100000000E-03 0. -1.
         11   -1    0    0    0    0 -0.00000000000E+00 -0.00000000000E+00 -0.45593999997E+02  0.45594000000E+02  0.51100000000E-03 0.  1.
    9900012    2    1    2    0    0  0.99748497756E+01  0.97813471613E+01 -0.38183676235E+02  0.50528861899E+02  0.30000006228E+02 0.  0.
         12    1    1    2    0    0 -0.99748497756E+01 -0.97813471613E+01  0.38183676235E+02  0.40659138101E+02  0.00000000000E+00 0. -1.
         11    1    3    3    0    0  0.13090508343E+02  0.27293757211E+01 -0.84611151755E+01  0.15824075669E+02  0.51100000000E-03 0. -1.
        -11    1    3    3    0    0  0.52180665686E+01 -0.12298116633E+01 -0.49924862732E+01  0.73256791419E+01  0.51100000000E-03 0.  1.
         12    1    3    3    0    0 -0.83337251360E+01  0.82817831034E+01 -0.24730074786E+02  0.27379107088E+02  0.00000000000E+00 0. -1.
</event>
<event>
 7    1  0.6726285E-013  0.5052886E+02  0.7816164E-02  0.1300439E+00
        -11   -1    0    0    0    0  0.00000000000E+00  0.00000000000E+00  0.45593999997E+02  0.45594000000E+02  0.51100000000E-03 0.  1.
         11   -1    0    0    0    0 -0.00000000000E+00 -0.00000000000E+00 -0.45593999997E+02  0.45594000000E+02  0.51100000000E-03 0. -1.
    9900012    2    1    2    0    0  0.10861797003E+00  0.39728634415E+02 -0.86481138921E+01  0.50528855097E+02  0.29999985553E+02 0.  0.
         12    1    1    2    0    0 -0.10861797003E+00 -0.39728634415E+02  0.86481138921E+01  0.40659144903E+02  0.00000000000E+00 0. -1.
         11    1    3    3    0    0  0.19539357617E+01  0.29608470431E+01 -0.32780380836E+01  0.48301153311E+01  0.51100000000E-03 0. -1.
        -11    1    3    3    0    0  0.63294809356E+01  0.21219785526E+02 -0.13927146524E+02  0.26159262934E+02  0.51100000000E-03 0.  1.
         12    1    3    3    0    0 -0.81747987273E+01  0.15548001846E+02  0.85570707155E+01  0.19539476832E+02  0.00000000000E+00 0. -1.
</event>
<event>
 7    1  0.6726285E-013  0.5052883E+02  0.7816164E-02  0.1300439E+00
        -11   -1    0    0    0    0  0.00000000000E+00  0.00000000000E+00  0.45593999997E+02  0.45594000000E+02  0.51100000000E-03 0.  1.
         11   -1    0    0    0    0 -0.00000000000E+00 -0.00000000000E+00 -0.45593999997E+02  0.45594000000E+02  0.51100000000E-03 0. -1.
    9900012    2    1    2    0    0  0.41612296195E+00  0.40619240083E+02  0.17528845779E+01  0.50528826034E+02  0.29999897213E+02 0.  0.
         12    1    1    2    0    0 -0.41612296195E+00 -0.40619240083E+02 -0.17528845779E+01  0.40659173966E+02  0.00000000000E+00 0. -1.
         11    1    3    3    0    0  0.85128014652E+01  0.10311372599E+02  0.68736587013E+01  0.15034606009E+02  0.51100000000E-03 0. -1.
        -11    1    3    3    0    0 -0.60145449032E+01  0.29390718139E+02 -0.11983587588E+00  0.30000057067E+02  0.51100000000E-03 0.  1.
         12    1    3    3    0    0 -0.20821336001E+01  0.91714934505E+00 -0.50009382475E+01  0.54941629576E+01  0.00000000000E+00 0. -1.
</event>
<event>
 7    1  0.6726285E-013  0.5052885E+02  0.7816164E-02  0.1300439E+00
        -11   -1    0    0    0    0  0.00000000000E+00  0.00000000000E+00  0.45593999997E+02  0.45594000000E+02  0.51100000000E-03 0.  1.
         11   -1    0    0    0    0 -0.00000000000E+00 -0.00000000000E+00 -0.45593999997E+02  0.45594000000E+02  0.51100000000E-03 0. -1.
    9900012    2    1    2    0    0  0.89274600608E+01  0.25965990159E+02  0.29987230032E+02  0.50528854004E+02  0.29999982232E+02 0.  0.
         12    1    1    2    0    0 -0.89274600608E+01 -0.25965990159E+02 -0.29987230032E+02  0.40659145996E+02  0.00000000000E+00 0. -1.
         11    1    3    3    0    0 -0.18896826488E+01  0.58641046746E+01 -0.31262893726E+01  0.69088573332E+01  0.51100000000E-03 0.  1.
        -11    1    3    3    0    0 -0.33950608586E+00 -0.18005468864E+01 -0.57233835695E+00  0.19195845718E+01  0.51100000000E-03 0. -1.
        -12    1    3    3    0    0  0.11156648795E+02  0.21902432371E+02  0.33685857762E+02  0.41700412099E+02  0.00000000000E+00 0.  1.
</event>
<event>
 7    1  0.6726285E-013  0.5052886E+02  0.7816164E-02  0.1300439E+00
        -11   -1    0    0    0    0  0.00000000000E+00  0.00000000000E+00  0.45593999997E+02  0.45594000000E+02  0.51100000000E-03 0.  1.
         11   -1    0    0    0    0 -0.00000000000E+00 -0.00000000000E+00 -0.45593999997E+02  0.45594000000E+02  0.51100000000E-03 0. -1.
    9900012    2    1    2    0    0 -0.32657224715E+02 -0.20223945372E+02  0.13329044196E+02  0.50528859433E+02  0.29999998732E+02 0.  0.
         12    1    1    2    0    0  0.32657224715E+02  0.20223945372E+02 -0.13329044196E+02  0.40659140567E+02  0.00000000000E+00 0. -1.
         11    1    3    3    0    0 -0.85603836955E+01 -0.11292708658E+02  0.22012160396E+01  0.14340529633E+02  0.51100000000E-03 0. -1.
        -11    1    3    3    0    0 -0.14944693113E+02 -0.12690218463E+02 -0.20466951572E+01  0.19712292059E+02  0.51100000000E-03 0.  1.
         12    1    3    3    0    0 -0.91521479063E+01  0.37589817497E+01  0.13174523313E+02  0.16476037740E+02  0.00000000000E+00 0. -1.
</event>
<event>
 7    1  0.6726285E-013  0.5052885E+02  0.7816164E-02  0.1300439E+00
        -11   -1    0    0    0    0  0.00000000000E+00  0.00000000000E+00  0.45593999997E+02  0.45594000000E+02  0.51100000000E-03 0.  1.
         11   -1    0    0    0    0 -0.00000000000E+00 -0.00000000000E+00 -0.45593999997E+02  0.45594000000E+02  0.51100000000E-03 0. -1.
    9900012    2    1    2    0    0 -0.29655744992E+02 -0.27809358366E+02 -0.58565670072E+00  0.50528848293E+02  0.29999964872E+02 0.  0.
         12    1    1    2    0    0  0.29655744992E+02  0.27809358366E+02  0.58565670072E+00  0.40659151707E+02  0.00000000000E+00 0. -1.
         11    1    3    3    0    0 -0.16557221658E+02 -0.28347260095E+02 -0.35545122153E+01  0.33020346777E+02  0.51100000000E-03 0. -1.
        -11    1    3    3    0    0 -0.50810257242E+01 -0.48574822419E+01  0.34546939288E+01  0.78324240528E+01  0.51100000000E-03 0.  1.
        -12    1    3    3    0    0 -0.80174976093E+01  0.53953839711E+01 -0.48583841415E+00  0.96760774633E+01  0.00000000000E+00 0.  1.
</event>
<event>
 7    1  0.6726285E-013  0.5052886E+02  0.7816164E-02  0.1300439E+00
        -11   -1    0    0    0    0  0.00000000000E+00  0.00000000000E+00  0.45593999997E+02  0.45594000000E+02  0.51100000000E-03 0.  1.
         11   -1    0    0    0    0 -0.00000000000E+00 -0.00000000000E+00 -0.45593999997E+02  0.45594000000E+02  0.51100000000E-03 0. -1.
    9900012    2    1    2    0    0 -0.12760306849E+02 -0.27754464706E+02  0.26833371094E+02  0.50528861467E+02  0.30000004915E+02 0.  0.
         12    1    1    2    0    0  0.12760306849E+02  0.27754464706E+02 -0.26833371094E+02  0.40659138533E+02  0.00000000000E+00 0. -1.
         11    1    3    3    0    0 -0.13207392741E+02 -0.25075780392E+01  0.53395716099E+01  0.14464929861E+02  0.51100000000E-03 0. -1.
        -11    1    3    3    0    0 -0.29489323513E+01 -0.52365008422E+00  0.59562346076E+01  0.66668690091E+01  0.51100000000E-03 0.  1.
         12    1    3    3    0    0  0.33960182435E+01 -0.24723236583E+02  0.15537564876E+02  0.29397062597E+02  0.00000000000E+00 0. -1.
</event>
<event>
 7    1  0.6726285E-013  0.5052886E+02  0.7816164E-02  0.1300439E+00
        -11   -1    0    0    0    0  0.00000000000E+00  0.00000000000E+00  0.45593999997E+02  0.45594000000E+02  0.51100000000E-03 0.  1.
         11   -1    0    0    0    0 -0.00000000000E+00 -0.00000000000E+00 -0.45593999997E+02  0.45594000000E+02  0.51100000000E-03 0. -1.
    9900012    2    1    2    0    0  0.23632379968E+02 -0.10584831119E+02  0.31347053080E+02  0.50528858721E+02  0.29999996567E+02 0.  0.
         12    1    1    2    0    0 -0.23632379968E+02  0.10584831119E+02 -0.31347053080E+02  0.40659141279E+02  0.00000000000E+00 0. -1.
         11    1    3    3    0    0  0.13534515708E+02 -0.71254238926E+01  0.31903894807E+01  0.15624767723E+02  0.51100000000E-03 0. -1.
        -11    1    3    3    0    0  0.14179519602E+02 -0.27620972058E+00  0.14424281613E+02  0.20228568122E+02  0.51100000000E-03 0.  1.
         12    1    3    3    0    0 -0.40816553408E+01 -0.31831975062E+01  0.13732381986E+02  0.14675522877E+02  0.00000000000E+00 0. -1.
</event>
<event>
 7    1  0.6726285E-013  0.5052885E+02  0.7816164E-02  0.1300439E+00
        -11   -1    0    0    0    0  0.00000000000E+00  0.00000000000E+00  0.45593999997E+02  0.45594000000E+02  0.51100000000E-03 0. -1.
         11   -1    0    0    0    0 -0.00000000000E+00 -0.00000000000E+00 -0.45593999997E+02  0.45594000000E+02  0.51100000000E-03 0.  1.
    9900012    2    1    2    0    0  0.27914084698E+02 -0.28848694582E+02  0.64593182449E+01  0.50528854709E+02  0.29999984374E+02 0.  0.
         12    1    1    2    0    0 -0.27914084698E+02  0.28848694582E+02 -0.64593182449E+01  0.40659145291E+02  0.00000000000E+00 0. -1.
         11    1    3    3    0    0  0.15314727940E+02 -0.11060282843E+02  0.79170698144E+01  0.20482937855E+02  0.51100000000E-03 0. -1.
        -11    1    3    3    0    0  0.73976649725E+01 -0.57328820345E+01  0.92084462653E+01  0.13129617906E+02  0.51100000000E-03 0.  1.
         12    1    3    3    0    0  0.52016917853E+01 -0.12055529704E+02 -0.10666197835E+02  0.16916298949E+02  0.00000000000E+00 0. -1.
</event>
<event>
 7    1  0.6726285E-013  0.5052886E+02  0.7816164E-02  0.1300439E+00
        -11   -1    0    0    0    0  0.00000000000E+00  0.00000000000E+00  0.45593999997E+02  0.45594000000E+02  0.51100000000E-03 0.  1.
         11   -1    0    0    0    0 -0.00000000000E+00 -0.00000000000E+00 -0.45593999997E+02  0.45594000000E+02  0.51100000000E-03 0. -1.
    9900012    2    1    2    0    0 -0.48827579778E+00  0.22804877491E+02  0.33658057826E+02  0.50528859487E+02  0.29999998897E+02 0.  0.
         12    1    1    2    0    0  0.48827579778E+00 -0.22804877491E+02 -0.33658057826E+02  0.40659140513E+02  0.00000000000E+00 0. -1.
         11    1    3    3    0    0  0.35144196859E+01 -0.19913526158E+01  0.23712693303E+01  0.46839672786E+01  0.51100000000E-03 0. -1.
        -11    1    3    3    0    0  0.91346970194E+01  0.81700979398E+01  0.12846773912E+02  0.17754796259E+02  0.51100000000E-03 0.  1.
        -12    1    3    3    0    0 -0.13137392503E+02  0.16626132167E+02  0.18440014584E+02  0.28090095950E+02  0.00000000000E+00 0.  1.
</event>
<event>
 7    1  0.6726285E-013  0.5052887E+02  0.7816164E-02  0.1300439E+00
        -11   -1    0    0    0    0  0.00000000000E+00  0.00000000000E+00  0.45593999997E+02  0.45594000000E+02  0.51100000000E-03 0.  1.
         11   -1    0    0    0    0 -0.00000000000E+00 -0.00000000000E+00 -0.45593999997E+02  0.45594000000E+02  0.51100000000E-03 0. -1.
    9900012    2    1    2    0    0  0.25125798528E+02 -0.12791494142E+02  0.29295680388E+02  0.50528868634E+02  0.30000026698E+02 0.  0.
         12    1    1    2    0    0 -0.25125798528E+02  0.12791494142E+02 -0.29295680388E+02  0.40659131366E+02  0.00000000000E+00 0. -1.
         11    1    3    3    0    0  0.44381371689E+01 -0.11970356588E+02  0.42462531544E+01  0.13454261945E+02  0.51100000000E-03 0. -1.
        -11    1    3    3    0    0  0.38904143476E+01 -0.79541239172E+01  0.10502882398E+02  0.13737319608E+02  0.51100000000E-03 0.  1.
        -12    1    3    3    0    0  0.16797247012E+02  0.71329863627E+01  0.14546544836E+02  0.23337287081E+02  0.00000000000E+00 0.  1.
</event>
<event>
 7    1  0.6726285E-013  0.5052884E+02  0.7816164E-02  0.1300439E+00
        -11   -1    0    0    0    0  0.00000000000E+00  0.00000000000E+00  0.45593999997E+02  0.45594000000E+02  0.51100000000E-03 0.  1.
         11   -1    0    0    0    0 -0.00000000000E+00 -0.00000000000E+00 -0.45593999997E+02  0.45594000000E+02  0.51100000000E-03 0. -1.
    9900012    2    1    2    0    0 -0.24031292677E+02  0.22928822361E+02  0.23450657029E+02  0.50528840667E+02  0.29999941690E+02 0.  0.
         12    1    1    2    0    0  0.24031292677E+02 -0.22928822361E+02 -0.23450657029E+02  0.40659159333E+02  0.00000000000E+00 0. -1.
         11    1    3    3    0    0 -0.72616172652E+01 -0.44083790429E+01  0.30835774388E+01  0.90373304231E+01  0.51100000000E-03 0. -1.
        -11    1    3    3    0    0 -0.13223541704E+02  0.12597678557E+02  0.18864621401E+02  0.26257141906E+02  0.51100000000E-03 0.  1.
        -12    1    3    3    0    0 -0.35461337078E+01  0.14739522847E+02  0.15024581895E+01  0.15234368337E+02  0.00000000000E+00 0.  1.
</event>
<event>
 7    1  0.6726285E-013  0.5052885E+02  0.7816164E-02  0.1300439E+00
        -11   -1    0    0    0    0  0.00000000000E+00  0.00000000000E+00  0.45593999997E+02  0.45594000000E+02  0.51100000000E-03 0. -1.
         11   -1    0    0    0    0 -0.00000000000E+00 -0.00000000000E+00 -0.45593999997E+02  0.45594000000E+02  0.51100000000E-03 0.  1.
    9900012    2    1    2    0    0  0.13945283304E+02 -0.37752909709E+02 -0.57803986773E+01  0.50528854328E+02  0.29999983215E+02 0.  0.
         12    1    1    2    0    0 -0.13945283304E+02  0.37752909709E+02  0.57803986773E+01  0.40659145672E+02  0.00000000000E+00 0. -1.
         11    1    3    3    0    0 -0.29711508313E+00 -0.67208849635E+00  0.34883493920E+01  0.35649070200E+01  0.51100000000E-03 0. -1.
        -11    1    3    3    0    0 -0.62415340359E+01 -0.74777822911E+01 -0.42099015867E+01  0.10611184983E+02  0.51100000000E-03 0.  1.
        -12    1    3    3    0    0  0.20483932423E+02 -0.29603038922E+02 -0.50588464826E+01  0.36352762325E+02  0.00000000000E+00 0.  1.
</event>
<event>
 7    1  0.6726285E-013  0.5052880E+02  0.7816164E-02  0.1300439E+00
        -11   -1    0    0    0    0  0.00000000000E+00  0.00000000000E+00  0.45593999997E+02  0.45594000000E+02  0.51100000000E-03 0.  1.
         11   -1    0    0    0    0 -0.00000000000E+00 -0.00000000000E+00 -0.45593999997E+02  0.45594000000E+02  0.51100000000E-03 0. -1.
    9900012    2    1    2    0    0  0.35705908503E+02 -0.16824063022E+02 -0.97575321931E+01  0.50528801372E+02  0.29999822250E+02 0.  0.
         12    1    1    2    0    0 -0.35705908503E+02  0.16824063022E+02  0.97575321931E+01  0.40659198628E+02  0.00000000000E+00 0. -1.
         11    1    3    3    0    0  0.17724595160E+01  0.49832570673E+01 -0.32164590802E+01  0.61903209133E+01  0.51100000000E-03 0. -1.
        -11    1    3    3    0    0  0.16532085340E+02 -0.15079330443E+02 -0.11323955299E+02  0.25078437275E+02  0.51100000000E-03 0.  1.
        -12    1    3    3    0    0  0.17401363646E+02 -0.67279896461E+01  0.47828821859E+01  0.19260043184E+02  0.00000000000E+00 0.  1.
</event>
<event>
 7    1  0.6726285E-013  0.5052886E+02  0.7816164E-02  0.1300439E+00
        -11   -1    0    0    0    0  0.00000000000E+00  0.00000000000E+00  0.45593999997E+02  0.45594000000E+02  0.51100000000E-03 0.  1.
         11   -1    0    0    0    0 -0.00000000000E+00 -0.00000000000E+00 -0.45593999997E+02  0.45594000000E+02  0.51100000000E-03 0. -1.
    9900012    2    1    2    0    0 -0.35041233719E+02  0.17311192197E+02  0.11207147620E+02  0.50528860885E+02  0.30000003146E+02 0.  0.
         12    1    1    2    0    0  0.35041233719E+02 -0.17311192197E+02 -0.11207147620E+02  0.40659139115E+02  0.00000000000E+00 0. -1.
         11    1    3    3    0    0 -0.23064528479E+02  0.20660098990E+02 -0.24823781295E+01  0.31064036532E+02  0.51100000000E-03 0. -1.
        -11    1    3    3    0    0 -0.39330921633E+01 -0.25916243108E+01  0.17006804647E+01  0.50077984022E+01  0.51100000000E-03 0.  1.
        -12    1    3    3    0    0 -0.80436130767E+01 -0.75728248221E+00  0.11988845285E+02  0.14457025951E+02  0.00000000000E+00 0.  1.
</event>
<event>
 7    1  0.6726285E-013  0.5052886E+02  0.7816164E-02  0.1300439E+00
        -11   -1    0    0    0    0  0.00000000000E+00  0.00000000000E+00  0.45593999997E+02  0.45594000000E+02  0.51100000000E-03 0.  1.
         11   -1    0    0    0    0 -0.00000000000E+00 -0.00000000000E+00 -0.45593999997E+02  0.45594000000E+02  0.51100000000E-03 0. -1.
    9900012    2    1    2    0    0 -0.18312244871E+02  0.34775303801E+02  0.10416606574E+02  0.50528858849E+02  0.29999996956E+02 0.  0.
         12    1    1    2    0    0  0.18312244871E+02 -0.34775303801E+02 -0.10416606574E+02  0.40659141151E+02  0.00000000000E+00 0. -1.
         11    1    3    3    0    0 -0.72172350076E+01  0.16019644259E+00  0.82588615734E+01  0.10969181319E+02  0.51100000000E-03 0. -1.
        -11    1    3    3    0    0 -0.14696416944E+02  0.26342359854E+02  0.37525821070E+01  0.30397145695E+02  0.51100000000E-03 0.  1.
        -12    1    3    3    0    0  0.36014070803E+01  0.82727475045E+01 -0.15948371068E+01  0.91625318351E+01  0.00000000000E+00 0.  1.
</event>
<event>
 7    1  0.6726285E-013  0.5052886E+02  0.7816164E-02  0.1300439E+00
        -11   -1    0    0    0    0  0.00000000000E+00  0.00000000000E+00  0.45593999997E+02  0.45594000000E+02  0.51100000000E-03 0. -1.
         11   -1    0    0    0    0 -0.00000000000E+00 -0.00000000000E+00 -0.45593999997E+02  0.45594000000E+02  0.51100000000E-03 0.  1.
    9900012    2    1    2    0    0  0.44334709846E+01  0.37069990469E+02  0.16103596014E+02  0.50528860032E+02  0.30000000555E+02 0.  0.
         12    1    1    2    0    0 -0.44334709846E+01 -0.37069990469E+02 -0.16103596014E+02  0.40659139968E+02  0.00000000000E+00 0. -1.
         11    1    3    3    0    0  0.73297365773E+00  0.12929970620E+02  0.18397935018E+02  0.22499008952E+02  0.51100000000E-03 0. -1.
        -11    1    3    3    0    0 -0.15619578555E+01  0.72020935780E+01  0.49427502380E+01  0.88735925321E+01  0.51100000000E-03 0.  1.
        -12    1    3    3    0    0  0.52624551823E+01  0.16937926270E+02 -0.72370892420E+01  0.19156258548E+02  0.00000000000E+00 0.  1.
</event>
<event>
 7    1  0.6726285E-013  0.5052888E+02  0.7816164E-02  0.1300439E+00
        -11   -1    0    0    0    0  0.00000000000E+00  0.00000000000E+00  0.45593999997E+02  0.45594000000E+02  0.51100000000E-03 0.  1.
         11   -1    0    0    0    0 -0.00000000000E+00 -0.00000000000E+00 -0.45593999997E+02  0.45594000000E+02  0.51100000000E-03 0. -1.
    9900012    2    1    2    0    0  0.18236930393E+02 -0.76232874011E+01  0.35531164176E+02  0.50528883327E+02  0.30000071360E+02 0.  0.
         12    1    1    2    0    0 -0.18236930393E+02  0.76232874011E+01 -0.35531164176E+02  0.40659116673E+02  0.00000000000E+00 0. -1.
         11    1    3    3    0    0  0.43546815065E+01 -0.56812980306E+00  0.19365328789E+01  0.47996023115E+01  0.51100000000E-03 0.  1.
        -11    1    3    3    0    0  0.53548687768E+01  0.42980662210E+01 -0.22088987090E+01  0.72129901307E+01  0.51100000000E-03 0. -1.
        -12    1    3    3    0    0  0.85273801093E+01 -0.11353223819E+02  0.35803530006E+02  0.38516290885E+02  0.00000000000E+00 0.  1.
</event>
<event>
 7    1  0.6726285E-013  0.5052888E+02  0.7816164E-02  0.1300439E+00
        -11   -1    0    0    0    0  0.00000000000E+00  0.00000000000E+00  0.45593999997E+02  0.45594000000E+02  0.51100000000E-03 0.  1.
         11   -1    0    0    0    0 -0.00000000000E+00 -0.00000000000E+00 -0.45593999997E+02  0.45594000000E+02  0.51100000000E-03 0. -1.
    9900012    2    1    2    0    0  0.39335987142E+02 -0.90622527653E+01  0.48703055426E+01  0.50528878198E+02  0.30000055771E+02 0.  0.
         12    1    1    2    0    0 -0.39335987142E+02  0.90622527653E+01 -0.48703055426E+01  0.40659121802E+02  0.00000000000E+00 0. -1.
         11    1    3    3    0    0 -0.18887697153E+01 -0.25279018663E+01 -0.51090083270E+01  0.60049733746E+01  0.51100000000E-03 0. -1.
        -11    1    3    3    0    0 -0.22717139203E+00  0.37999190123E+00 -0.99579661441E+00  0.10897760526E+01  0.51100000000E-03 0.  1.
        -12    1    3    3    0    0  0.41451928249E+02 -0.69143428002E+01  0.10975110484E+02  0.43434128771E+02  0.00000000000E+00 0.  1.
</event>
<event>
 7    1  0.6726285E-013  0.5052887E+02  0.7816164E-02  0.1300439E+00
        -11   -1    0    0    0    0  0.00000000000E+00  0.00000000000E+00  0.45593999997E+02  0.45594000000E+02  0.51100000000E-03 0.  1.
         11   -1    0    0    0    0 -0.00000000000E+00 -0.00000000000E+00 -0.45593999997E+02  0.45594000000E+02  0.51100000000E-03 0. -1.
    9900012    2    1    2    0    0 -0.37717267800E+02  0.14624684688E+02 -0.40854984577E+01  0.50528868305E+02  0.30000025701E+02 0.  0.
         12    1    1    2    0    0  0.37717267800E+02 -0.14624684688E+02  0.40854984577E+01  0.40659131695E+02  0.00000000000E+00 0. -1.
         11    1    3    3    0    0 -0.11684699744E+02 -0.56549762467E+01 -0.97468935594E+01  0.16233080385E+02  0.51100000000E-03 0. -1.
        -11    1    3    3    0    0 -0.40729955179E+00  0.49266009915E+00  0.15293513992E+01  0.16575653416E+01  0.51100000000E-03 0.  1.
        -12    1    3    3    0    0 -0.25625268504E+02  0.19787000836E+02  0.41320437025E+01  0.32638222579E+02  0.00000000000E+00 0.  1.
</event>
<event>
 7    1  0.6726285E-013  0.5052886E+02  0.7816164E-02  0.1300439E+00
        -11   -1    0    0    0    0  0.00000000000E+00  0.00000000000E+00  0.45593999997E+02  0.45594000000E+02  0.51100000000E-03 0. -1.
         11   -1    0    0    0    0 -0.00000000000E+00 -0.00000000000E+00 -0.45593999997E+02  0.45594000000E+02  0.51100000000E-03 0.  1.
    9900012    2    1    2    0    0  0.30225034194E+02 -0.10790801573E+02 -0.24963397569E+02  0.50528864387E+02  0.30000013792E+02 0.  0.
         12    1    1    2    0    0 -0.30225034194E+02  0.10790801573E+02  0.24963397569E+02  0.40659135613E+02  0.00000000000E+00 0. -1.
         11    1    3    3    0    0  0.59843796319E+01  0.80409099004E+01 -0.91473938578E+01  0.13569961174E+02  0.51100000000E-03 0. -1.
        -11    1    3    3    0    0  0.77605792123E+01 -0.47008597617E+01  0.14916627703E+01  0.91950927288E+01  0.51100000000E-03 0.  1.
        -12    1    3    3    0    0  0.16480075350E+02 -0.14130851711E+02 -0.17307666481E+02  0.27763810485E+02  0.00000000000E+00 0.  1.
</event>
<event>
 7    1  0.6726285E-013  0.5052885E+02  0.7816164E-02  0.1300439E+00
        -11   -1    0    0    0    0  0.00000000000E+00  0.00000000000E+00  0.45593999997E+02  0.45594000000E+02  0.51100000000E-03 0.  1.
         11   -1    0    0    0    0 -0.00000000000E+00 -0.00000000000E+00 -0.45593999997E+02  0.45594000000E+02  0.51100000000E-03 0. -1.
    9900012    2    1    2    0    0  0.26981099505E+02  0.49267147308E+01  0.30015227267E+02  0.50528854455E+02  0.29999983603E+02 0.  0.
         12    1    1    2    0    0 -0.26981099505E+02 -0.49267147308E+01 -0.30015227267E+02  0.40659145545E+02  0.00000000000E+00 0. -1.
         11    1    3    3    0    0  0.60363041682E+01  0.59145553526E+01  0.62235214656E+00  0.84738571787E+01  0.51100000000E-03 0. -1.
        -11    1    3    3    0    0  0.17877461713E+02  0.24118226576E+01  0.72469306976E+01  0.19440641209E+02  0.51100000000E-03 0.  1.
         12    1    3    3    0    0  0.30673336239E+01 -0.33996632794E+01  0.22145944423E+02  0.22614356068E+02  0.00000000000E+00 0. -1.
</event>
<event>
 7    1  0.6726285E-013  0.5052886E+02  0.7816164E-02  0.1300439E+00
        -11   -1    0    0    0    0  0.00000000000E+00  0.00000000000E+00  0.45593999997E+02  0.45594000000E+02  0.51100000000E-03 0.  1.
         11   -1    0    0    0    0 -0.00000000000E+00 -0.00000000000E+00 -0.45593999997E+02  0.45594000000E+02  0.51100000000E-03 0. -1.
    9900012    2    1    2    0    0 -0.39469507889E+02 -0.34185777791E+01 -0.91453065435E+01  0.50528863772E+02  0.30000011921E+02 0.  0.
         12    1    1    2    0    0  0.39469507889E+02  0.34185777791E+01  0.91453065435E+01  0.40659136228E+02  0.00000000000E+00 0. -1.
         11    1    3    3    0    0 -0.17290184897E+02 -0.62900743277E+01  0.16075865878E+01  0.18468889076E+02  0.51100000000E-03 0.  1.
        -11    1    3    3    0    0 -0.80947704162E+01 -0.86974329409E+01 -0.30106955779E+01  0.12257036182E+02  0.51100000000E-03 0. -1.
        -12    1    3    3    0    0 -0.14084552576E+02  0.11568929489E+02 -0.77421975534E+01  0.19802938513E+02  0.00000000000E+00 0.  1.
</event>
<event>
 7    1  0.6726285E-013  0.5052889E+02  0.7816164E-02  0.1300439E+00
        -11   -1    0    0    0    0  0.00000000000E+00  0.00000000000E+00  0.45593999997E+02  0.45594000000E+02  0.51100000000E-03 0. -1.
         11   -1    0    0    0    0 -0.00000000000E+00 -0.00000000000E+00 -0.45593999997E+02  0.45594000000E+02  0.51100000000E-03 0.  1.
    9900012    2    1    2    0    0 -0.29818880543E+01  0.87767423775E+01 -0.39588386948E+02  0.50528889775E+02  0.30000090961E+02 0.  0.
         12    1    1    2    0    0  0.29818880543E+01 -0.87767423775E+01  0.39588386948E+02  0.40659110225E+02  0.00000000000E+00 0. -1.
         11    1    3    3    0    0  0.32367998658E+01 -0.16043860420E+01 -0.97239131498E+01  0.10373303001E+02  0.51100000000E-03 0. -1.
        -11    1    3    3    0    0  0.58699342987E+01  0.32427985587E+01 -0.24037541363E+02  0.24955465658E+02  0.51100000000E-03 0.  1.
        -12    1    3    3    0    0 -0.12088622219E+02  0.71383298607E+01 -0.58269324348E+01  0.15200121116E+02  0.00000000000E+00 0.  1.
</event>
<event>
 7    1  0.6726285E-013  0.5052885E+02  0.7816164E-02  0.1300439E+00
        -11   -1    0    0    0    0  0.00000000000E+00  0.00000000000E+00  0.45593999997E+02  0.45594000000E+02  0.51100000000E-03 0. -1.
         11   -1    0    0    0    0 -0.00000000000E+00 -0.00000000000E+00 -0.45593999997E+02  0.45594000000E+02  0.51100000000E-03 0.  1.
    9900012    2    1    2    0    0 -0.17105653030E+02  0.26976414436E+02 -0.25156233753E+02  0.50528850992E+02  0.29999973076E+02 0.  0.
         12    1    1    2    0    0  0.17105653030E+02 -0.26976414436E+02  0.25156233753E+02  0.40659149008E+02  0.00000000000E+00 0. -1.
         11    1    3    3    0    0 -0.47056610552E+01  0.55071114347E+00  0.70997882055E+00  0.47906783357E+01  0.51100000000E-03 0. -1.
        -11    1    3    3    0    0 -0.17464245934E+02  0.10392749161E+02 -0.10122153853E+02  0.22703900988E+02  0.51100000000E-03 0.  1.
        -12    1    3    3    0    0  0.50642539588E+01  0.16032954131E+02 -0.15744058720E+02  0.23034271669E+02  0.00000000000E+00 0.  1.
</event>
<event>
 7    1  0.6726285E-013  0.5052885E+02  0.7816164E-02  0.1300439E+00
        -11   -1    0    0    0    0  0.00000000000E+00  0.00000000000E+00  0.45593999997E+02  0.45594000000E+02  0.51100000000E-03 0.  1.
         11   -1    0    0    0    0 -0.00000000000E+00 -0.00000000000E+00 -0.45593999997E+02  0.45594000000E+02  0.51100000000E-03 0. -1.
    9900012    2    1    2    0    0  0.21375457229E+02 -0.24175456391E+02  0.24734667453E+02  0.50528848047E+02  0.29999964124E+02 0.  0.
         12    1    1    2    0    0 -0.21375457229E+02  0.24175456391E+02 -0.24734667453E+02  0.40659151953E+02  0.00000000000E+00 0. -1.
         11    1    3    3    0    0  0.59489533537E+01 -0.90033378401E+01  0.86663046612E+01  0.13840338688E+02  0.51100000000E-03 0.  1.
        -11    1    3    3    0    0  0.21789228153E+02 -0.14904948302E+02  0.14542706089E+02  0.30139977573E+02  0.51100000000E-03 0. -1.
         12    1    3    3    0    0 -0.63627242777E+01 -0.26717024886E+00  0.15256567032E+01  0.65485317860E+01  0.00000000000E+00 0. -1.
</event>
<event>
 7    1  0.8550125E-013  0.5052892E+02  0.7816164E-02  0.1300439E+00
        -11   -1    0    0    0    0  0.00000000000E+00  0.00000000000E+00  0.45593999997E+02  0.45594000000E+02  0.51100000000E-03 0. -1.
         11   -1    0    0    0    0 -0.00000000000E+00 -0.00000000000E+00 -0.45593999997E+02  0.45594000000E+02  0.51100000000E-03 0.  1.
    9900012    2    1    2    0    0 -0.17651620330E+02  0.10743641780E+02 -0.35016503834E+02  0.50528916393E+02  0.30000171868E+02 0.  0.
         12    1    1    2    0    0  0.17651620330E+02 -0.10743641780E+02  0.35016503834E+02  0.40659083607E+02  0.00000000000E+00 0. -1.
         11    1    3    3    0    0  0.49886671670E+01  0.30018541633E+00 -0.11025281985E+00  0.49989066137E+01  0.51100000000E-03 0. -1.
        -11    1    3    3    0    0 -0.35397239807E+01  0.71852707743E+01 -0.18430606806E+02  0.20095895836E+02  0.51100000000E-03 0.  1.
         12    1    3    3    0    0 -0.19100563517E+02  0.32581855894E+01 -0.16475644208E+02  0.25434113943E+02  0.00000000000E+00 0. -1.
</event>
<event>
 7    1  0.6726285E-013  0.5052886E+02  0.7816164E-02  0.1300439E+00
        -11   -1    0    0    0    0  0.00000000000E+00  0.00000000000E+00  0.45593999997E+02  0.45594000000E+02  0.51100000000E-03 0.  1.
         11   -1    0    0    0    0 -0.00000000000E+00 -0.00000000000E+00 -0.45593999997E+02  0.45594000000E+02  0.51100000000E-03 0. -1.
    9900012    2    1    2    0    0  0.90738762867E+01 -0.30087725552E+02  0.25798433191E+02  0.50528860623E+02  0.30000002350E+02 0.  0.
         12    1    1    2    0    0 -0.90738762867E+01  0.30087725552E+02 -0.25798433191E+02  0.40659139377E+02  0.00000000000E+00 0. -1.
         11    1    3    3    0    0 -0.30996607113E+01 -0.77092542743E+01  0.91188023673E+01  0.12336654930E+02  0.51100000000E-03 0. -1.
        -11    1    3    3    0    0 -0.25945655446E+01 -0.57083382910E+01  0.14521043109E+02  0.15817003181E+02  0.51100000000E-03 0.  1.
         12    1    3    3    0    0  0.14768102543E+02 -0.16670132987E+02  0.21585877151E+01  0.22375202511E+02  0.00000000000E+00 0. -1.
</event>
<event>
 7    1  0.6726285E-013  0.5052886E+02  0.7816164E-02  0.1300439E+00
        -11   -1    0    0    0    0  0.00000000000E+00  0.00000000000E+00  0.45593999997E+02  0.45594000000E+02  0.51100000000E-03 0.  1.
         11   -1    0    0    0    0 -0.00000000000E+00 -0.00000000000E+00 -0.45593999997E+02  0.45594000000E+02  0.51100000000E-03 0. -1.
    9900012    2    1    2    0    0 -0.83448162611E+01 -0.13313274614E+02  0.37500486231E+02  0.50528859490E+02  0.29999998907E+02 0.  0.
         12    1    1    2    0    0  0.83448162611E+01  0.13313274614E+02 -0.37500486231E+02  0.40659140510E+02  0.00000000000E+00 0. -1.
         11    1    3    3    0    0  0.90991300814E+01 -0.15262258128E+01  0.11865402148E+02  0.15030346033E+02  0.51100000000E-03 0. -1.
        -11    1    3    3    0    0 -0.60147429463E+01 -0.10309976855E+02  0.18264216082E+02  0.21818669639E+02  0.51100000000E-03 0.  1.
        -12    1    3    3    0    0 -0.11429203396E+02 -0.14770719462E+01  0.73708680011E+01  0.13679843818E+02  0.00000000000E+00 0.  1.
</event>
<event>
 7    1  0.6726285E-013  0.5052886E+02  0.7816164E-02  0.1300439E+00
        -11   -1    0    0    0    0  0.00000000000E+00  0.00000000000E+00  0.45593999997E+02  0.45594000000E+02  0.51100000000E-03 0.  1.
         11   -1    0    0    0    0 -0.00000000000E+00 -0.00000000000E+00 -0.45593999997E+02  0.45594000000E+02  0.51100000000E-03 0. -1.
    9900012    2    1    2    0    0 -0.24061339353E+02 -0.15312870327E+02  0.28978156978E+02  0.50528860425E+02  0.30000001749E+02 0.  0.
         12    1    1    2    0    0  0.24061339353E+02  0.15312870327E+02 -0.28978156978E+02  0.40659139575E+02  0.00000000000E+00 0. -1.
         11    1    3    3    0    0 -0.11561618857E+02 -0.13694203305E+02  0.74184942720E+01  0.19396811395E+02  0.51100000000E-03 0. -1.
        -11    1    3    3    0    0 -0.15240620087E+02 -0.39791424185E+01  0.91725819641E+01  0.18227625605E+02  0.51100000000E-03 0.  1.
         12    1    3    3    0    0  0.27408995912E+01  0.23604753959E+01  0.12387080741E+02  0.12904423426E+02  0.00000000000E+00 0. -1.
</event>
<event>
 7    1  0.6726285E-013  0.5052887E+02  0.7816164E-02  0.1300439E+00
        -11   -1    0    0    0    0  0.00000000000E+00  0.00000000000E+00  0.45593999997E+02  0.45594000000E+02  0.51100000000E-03 0.  1.
         11   -1    0    0    0    0 -0.00000000000E+00 -0.00000000000E+00 -0.45593999997E+02  0.45594000000E+02  0.51100000000E-03 0. -1.
    9900012    2    1    2    0    0  0.15518563773E+02  0.16463490432E+02  0.33783022680E+02  0.50528868674E+02  0.30000026821E+02 0.  0.
         12    1    1    2    0    0 -0.15518563773E+02 -0.16463490432E+02 -0.33783022680E+02  0.40659131326E+02  0.00000000000E+00 0. -1.
         11    1    3    3    0    0  0.15303908628E+02  0.11001128414E+02  0.16230662392E+02  0.24873054650E+02  0.51100000000E-03 0. -1.
        -11    1    3    3    0    0  0.37620811189E+01  0.11082909427E+02  0.13518299423E+02  0.17880955099E+02  0.51100000000E-03 0.  1.
        -12    1    3    3    0    0 -0.35474259742E+01 -0.56205474095E+01  0.40340608658E+01  0.77748589244E+01  0.00000000000E+00 0.  1.
</event>
<event>
 7    1  0.6726285E-013  0.5052886E+02  0.7816164E-02  0.1300439E+00
        -11   -1    0    0    0    0  0.00000000000E+00  0.00000000000E+00  0.45593999997E+02  0.45594000000E+02  0.51100000000E-03 0. -1.
         11   -1    0    0    0    0 -0.00000000000E+00 -0.00000000000E+00 -0.45593999997E+02  0.45594000000E+02  0.51100000000E-03 0.  1.
    9900012    2    1    2    0    0 -0.17900470359E+02  0.23692410411E+02 -0.27774241007E+02  0.50528860638E+02  0.30000002396E+02 0.  0.
         12    1    1    2    0    0  0.17900470359E+02 -0.23692410411E+02  0.27774241007E+02  0.40659139362E+02  0.00000000000E+00 0. -1.
         11    1    3    3    0    0 -0.52924979005E+00  0.72223040431E+01 -0.11524996132E+02  0.13611293735E+02  0.51100000000E-03 0. -1.
        -11    1    3    3    0    0 -0.54736366593E+01 -0.57434634416E+01 -0.43861262634E+01  0.90656590738E+01  0.51100000000E-03 0.  1.
         12    1    3    3    0    0 -0.11897583909E+02  0.22213569809E+02 -0.11863118611E+02  0.27851907829E+02  0.00000000000E+00 0. -1.
</event>
<event>
 7    1  0.6726285E-013  0.5052885E+02  0.7816164E-02  0.1300439E+00
        -11   -1    0    0    0    0  0.00000000000E+00  0.00000000000E+00  0.45593999997E+02  0.45594000000E+02  0.51100000000E-03 0. -1.
         11   -1    0    0    0    0 -0.00000000000E+00 -0.00000000000E+00 -0.45593999997E+02  0.45594000000E+02  0.51100000000E-03 0.  1.
    9900012    2    1    2    0    0  0.32208565813E+02 -0.24569153609E+02 -0.34830408613E+01  0.50528848577E+02  0.29999965735E+02 0.  0.
         12    1    1    2    0    0 -0.32208565813E+02  0.24569153609E+02  0.34830408613E+01  0.40659151423E+02  0.00000000000E+00 0. -1.
         11    1    3    3    0    0  0.70004505817E+01 -0.15222215048E+02 -0.93102956830E+01  0.19167778830E+02  0.51100000000E-03 0. -1.
        -11    1    3    3    0    0  0.64744482585E+01 -0.16941265706E+01 -0.50523539075E+01  0.83853935720E+01  0.51100000000E-03 0.  1.
         12    1    3    3    0    0  0.18733666973E+02 -0.76528119904E+01  0.10879608729E+02  0.22975676175E+02  0.00000000000E+00 0. -1.
</event>
<event>
 7    1  0.6726285E-013  0.5052885E+02  0.7816164E-02  0.1300439E+00
        -11   -1    0    0    0    0  0.00000000000E+00  0.00000000000E+00  0.45593999997E+02  0.45594000000E+02  0.51100000000E-03 0. -1.
         11   -1    0    0    0    0 -0.00000000000E+00 -0.00000000000E+00 -0.45593999997E+02  0.45594000000E+02  0.51100000000E-03 0.  1.
    9900012    2    1    2    0    0  0.88329578627E+01  0.39217947329E+02  0.60908317732E+01  0.50528846430E+02  0.29999959209E+02 0.  0.
         12    1    1    2    0    0 -0.88329578627E+01 -0.39217947329E+02 -0.60908317732E+01  0.40659153570E+02  0.00000000000E+00 0. -1.
         11    1    3    3    0    0 -0.15462103376E+01  0.17388078340E+02 -0.17711016087E+01  0.17546305478E+02  0.51100000000E-03 0. -1.
        -11    1    3    3    0    0  0.14374957578E+01  0.69051113279E+01 -0.71203869108E+01  0.10022318421E+02  0.51100000000E-03 0.  1.
         12    1    3    3    0    0  0.89416724425E+01  0.14924757661E+02  0.14982320293E+02  0.22960222531E+02  0.00000000000E+00 0. -1.
</event>
<event>
 7    1  0.6726285E-013  0.5052885E+02  0.7816164E-02  0.1300439E+00
        -11   -1    0    0    0    0  0.00000000000E+00  0.00000000000E+00  0.45593999997E+02  0.45594000000E+02  0.51100000000E-03 0.  1.
         11   -1    0    0    0    0 -0.00000000000E+00 -0.00000000000E+00 -0.45593999997E+02  0.45594000000E+02  0.51100000000E-03 0. -1.
    9900012    2    1    2    0    0 -0.28894897427E+02 -0.15766945239E+02  0.23867434686E+02  0.50528854682E+02  0.29999984291E+02 0.  0.
         12    1    1    2    0    0  0.28894897427E+02  0.15766945239E+02 -0.23867434686E+02  0.40659145318E+02  0.00000000000E+00 0. -1.
         11    1    3    3    0    0 -0.82506421892E+00  0.34672496074E+01  0.31317381064E+01  0.47445057312E+01  0.51100000000E-03 0. -1.
        -11    1    3    3    0    0 -0.52054148571E+01 -0.41839799002E+00  0.14651934431E+02  0.15554760800E+02  0.51100000000E-03 0.  1.
         12    1    3    3    0    0 -0.22864418351E+02 -0.18815796856E+02  0.60837621487E+01  0.30229588150E+02  0.00000000000E+00 0. -1.
</event>
<event>
 7    1  0.6726285E-013  0.5052886E+02  0.7816164E-02  0.1300439E+00
        -11   -1    0    0    0    0  0.00000000000E+00  0.00000000000E+00  0.45593999997E+02  0.45594000000E+02  0.51100000000E-03 0.  1.
         11   -1    0    0    0    0 -0.00000000000E+00 -0.00000000000E+00 -0.45593999997E+02  0.45594000000E+02  0.51100000000E-03 0. -1.
    9900012    2    1    2    0    0  0.20124044917E+02  0.31341094115E+02  0.16307188643E+02  0.50528858770E+02  0.29999996716E+02 0.  0.
         12    1    1    2    0    0 -0.20124044917E+02 -0.31341094115E+02 -0.16307188643E+02  0.40659141230E+02  0.00000000000E+00 0. -1.
         11    1    3    3    0    0 -0.58504690605E+01  0.20638160708E+01  0.62333289313E+01  0.87944138422E+01  0.51100000000E-03 0. -1.
        -11    1    3    3    0    0  0.12540387683E+02  0.21639839623E+02  0.53679120346E+01  0.25580431233E+02  0.51100000000E-03 0.  1.
        -12    1    3    3    0    0  0.13434126294E+02  0.76374384210E+01  0.47059476774E+01  0.16154013695E+02  0.00000000000E+00 0.  1.
</event>
<event>
 7    1  0.6726285E-013  0.5052886E+02  0.7816164E-02  0.1300439E+00
        -11   -1    0    0    0    0  0.00000000000E+00  0.00000000000E+00  0.45593999997E+02  0.45594000000E+02  0.51100000000E-03 0. -1.
         11   -1    0    0    0    0 -0.00000000000E+00 -0.00000000000E+00 -0.45593999997E+02  0.45594000000E+02  0.51100000000E-03 0.  1.
    9900012    2    1    2    0    0 -0.18610734012E+02 -0.27392063927E+01 -0.36045845843E+02  0.50528859887E+02  0.30000000113E+02 0.  0.
         12    1    1    2    0    0  0.18610734012E+02  0.27392063927E+01  0.36045845843E+02  0.40659140113E+02  0.00000000000E+00 0. -1.
         11    1    3    3    0    0  0.75371573245E+00  0.57864475536E+01 -0.70080767519E+01  0.91194409213E+01  0.51100000000E-03 0. -1.
        -11    1    3    3    0    0  0.37205240939E+01  0.11852717929E+01 -0.14907826144E+01  0.41796652761E+01  0.51100000000E-03 0.  1.
        -12    1    3    3    0    0 -0.23084973839E+02 -0.97109257392E+01 -0.27546986477E+02  0.37229753690E+02  0.00000000000E+00 0.  1.
</event>
<event>
 7    1  0.6726285E-013  0.5052886E+02  0.7816164E-02  0.1300439E+00
        -11   -1    0    0    0    0  0.00000000000E+00  0.00000000000E+00  0.45593999997E+02  0.45594000000E+02  0.51100000000E-03 0.  1.
         11   -1    0    0    0    0 -0.00000000000E+00 -0.00000000000E+00 -0.45593999997E+02  0.45594000000E+02  0.51100000000E-03 0. -1.
    9900012    2    1    2    0    0  0.38536093418E+02 -0.33464745014E+01  0.12527416729E+02  0.50528861330E+02  0.30000004499E+02 0.  0.
         12    1    1    2    0    0 -0.38536093418E+02  0.33464745014E+01 -0.12527416729E+02  0.40659138670E+02  0.00000000000E+00 0. -1.
         11    1    3    3    0    0 -0.33820086172E+01 -0.85026961834E-01  0.70201343070E+00  0.34551461603E+01  0.51100000000E-03 0. -1.
        -11    1    3    3    0    0  0.35739696101E+01  0.50793214879E+01  0.27766048365E+01  0.68031096001E+01  0.51100000000E-03 0.  1.
         12    1    3    3    0    0  0.38344132425E+02 -0.83407690275E+01  0.90487984614E+01  0.40270605570E+02  0.00000000000E+00 0. -1.
</event>
<event>
 7    1  0.6726285E-013  0.5052887E+02  0.7816164E-02  0.1300439E+00
        -11   -1    0    0    0    0  0.00000000000E+00  0.00000000000E+00  0.45593999997E+02  0.45594000000E+02  0.51100000000E-03 0. -1.
         11   -1    0    0    0    0 -0.00000000000E+00 -0.00000000000E+00 -0.45593999997E+02  0.45594000000E+02  0.51100000000E-03 0.  1.
    9900012    2    1    2    0    0  0.33813449333E+02 -0.18370857661E+02 -0.13127344448E+02  0.50528868932E+02  0.30000027604E+02 0.  0.
         12    1    1    2    0    0 -0.33813449333E+02  0.18370857661E+02  0.13127344448E+02  0.40659131068E+02  0.00000000000E+00 0. -1.
         11    1    3    3    0    0  0.19179152368E+01 -0.11717782742E+00 -0.87751940816E+01  0.89831041923E+01  0.51100000000E-03 0. -1.
        -11    1    3    3    0    0  0.20957147993E+02 -0.10807625765E+02 -0.11793545580E+02  0.26364645727E+02  0.51100000000E-03 0.  1.
         12    1    3    3    0    0  0.10938386103E+02 -0.74460540681E+01  0.74413952145E+01  0.15181119012E+02  0.00000000000E+00 0. -1.
</event>
<event>
 7    1  0.9276674E-013  0.5052886E+02  0.7816164E-02  0.1300439E+00
        -11   -1    0    0    0    0  0.00000000000E+00  0.00000000000E+00  0.45593999997E+02  0.45594000000E+02  0.51100000000E-03 0.  1.
         11   -1    0    0    0    0 -0.00000000000E+00 -0.00000000000E+00 -0.45593999997E+02  0.45594000000E+02  0.51100000000E-03 0. -1.
    9900012    2    1    2    0    0  0.14757515568E+02  0.29102337930E+02  0.24257684214E+02  0.50528861025E+02  0.30000003573E+02 0.  0.
         12    1    1    2    0    0 -0.14757515568E+02 -0.29102337930E+02 -0.24257684214E+02  0.40659138975E+02  0.00000000000E+00 0. -1.
         11    1    3    3    0    0 -0.40054762097E+01  0.97264512789E+00 -0.97775095951E+00  0.42362572409E+01  0.51100000000E-03 0. -1.
        -11    1    3    3    0    0  0.12325013165E+02  0.27662522447E+02  0.14063938364E+02  0.33390349807E+02  0.51100000000E-03 0.  1.
         12    1    3    3    0    0  0.64379786119E+01  0.46717035583E+00  0.11171496809E+02  0.12902253978E+02  0.00000000000E+00 0. -1.
</event>
<event>
 7    1  0.6726285E-013  0.5052889E+02  0.7816164E-02  0.1300439E+00
        -11   -1    0    0    0    0  0.00000000000E+00  0.00000000000E+00  0.45593999997E+02  0.45594000000E+02  0.51100000000E-03 0.  1.
         11   -1    0    0    0    0 -0.00000000000E+00 -0.00000000000E+00 -0.45593999997E+02  0.45594000000E+02  0.51100000000E-03 0. -1.
    9900012    2    1    2    0    0  0.26635981046E+01  0.39056693395E+02  0.10983753567E+02  0.50528894055E+02  0.30000103971E+02 0.  0.
         12    1    1    2    0    0 -0.26635981046E+01 -0.39056693395E+02 -0.10983753567E+02  0.40659105945E+02  0.00000000000E+00 0. -1.
         11    1    3    3    0    0 -0.48813868061E+01  0.27192013995E+01  0.10624927732E+00  0.55886744915E+01  0.51100000000E-03 0. -1.
        -11    1    3    3    0    0  0.29294687002E+01 -0.28206645568E+01  0.11410874815E+00  0.40682866756E+01  0.51100000000E-03 0.  1.
         12    1    3    3    0    0  0.46155162106E+01  0.39158156552E+02  0.10763395541E+02  0.40871932888E+02  0.00000000000E+00 0. -1.
</event>
<event>
 7    1  0.6726285E-013  0.5052886E+02  0.7816164E-02  0.1300439E+00
        -11   -1    0    0    0    0  0.00000000000E+00  0.00000000000E+00  0.45593999997E+02  0.45594000000E+02  0.51100000000E-03 0. -1.
         11   -1    0    0    0    0 -0.00000000000E+00 -0.00000000000E+00 -0.45593999997E+02  0.45594000000E+02  0.51100000000E-03 0.  1.
    9900012    2    1    2    0    0 -0.17904459518E+02  0.36238223741E+02 -0.44030486845E+01  0.50528863656E+02  0.30000011568E+02 0.  0.
         12    1    1    2    0    0  0.17904459518E+02 -0.36238223741E+02  0.44030486845E+01  0.40659136344E+02  0.00000000000E+00 0. -1.
         11    1    3    3    0    0 -0.74434040155E+01  0.10832333303E+02 -0.21142418471E+01  0.13312164624E+02  0.51100000000E-03 0. -1.
        -11    1    3    3    0    0 -0.10386000814E+02  0.29082540157E+02  0.27221124889E+01  0.31001178229E+02  0.51100000000E-03 0.  1.
         12    1    3    3    0    0 -0.75054688474E-01 -0.36766497191E+01 -0.50109193262E+01  0.62155208034E+01  0.00000000000E+00 0. -1.
</event>
<event>
 7    1  0.6726285E-013  0.5052886E+02  0.7816164E-02  0.1300439E+00
        -11   -1    0    0    0    0  0.00000000000E+00  0.00000000000E+00  0.45593999997E+02  0.45594000000E+02  0.51100000000E-03 0.  1.
         11   -1    0    0    0    0 -0.00000000000E+00 -0.00000000000E+00 -0.45593999997E+02  0.45594000000E+02  0.51100000000E-03 0. -1.
    9900012    2    1    2    0    0 -0.11584673605E+02 -0.24476976275E+02  0.30328842064E+02  0.50528859686E+02  0.29999999503E+02 0.  0.
         12    1    1    2    0    0  0.11584673605E+02  0.24476976275E+02 -0.30328842064E+02  0.40659140314E+02  0.00000000000E+00 0. -1.
         11    1    3    3    0    0 -0.14441905711E+02 -0.60793525746E+01  0.18656122780E+02  0.24363458001E+02  0.51100000000E-03 0. -1.
        -11    1    3    3    0    0 -0.43768431751E+01 -0.64371488116E+01  0.90609544285E+01  0.11945481841E+02  0.51100000000E-03 0.  1.
         12    1    3    3    0    0  0.72340752810E+01 -0.11960474888E+02  0.26117648551E+01  0.14219919845E+02  0.00000000000E+00 0. -1.
</event>
<event>
 7    1  0.6726285E-013  0.5052886E+02  0.7816164E-02  0.1300439E+00
        -11   -1    0    0    0    0  0.00000000000E+00  0.00000000000E+00  0.45593999997E+02  0.45594000000E+02  0.51100000000E-03 0.  1.
         11   -1    0    0    0    0 -0.00000000000E+00 -0.00000000000E+00 -0.45593999997E+02  0.45594000000E+02  0.51100000000E-03 0. -1.
    9900012    2    1    2    0    0 -0.38341543363E+02 -0.10037539020E+02  0.90741333584E+01  0.50528855479E+02  0.29999986713E+02 0.  0.
         12    1    1    2    0    0  0.38341543363E+02  0.10037539020E+02 -0.90741333584E+01  0.40659144521E+02  0.00000000000E+00 0. -1.
         11    1    3    3    0    0 -0.86395286151E+01  0.24030166028E+00 -0.65814206303E+01  0.10863438560E+02  0.51100000000E-03 0. -1.
        -11    1    3    3    0    0  0.98992895500E+00  0.25500119883E+01 -0.33667434828E+00  0.27560606587E+01  0.51100000000E-03 0.  1.
        -12    1    3    3    0    0 -0.30691943703E+02 -0.12827852668E+02  0.15992228337E+02  0.36909356260E+02  0.00000000000E+00 0.  1.
</event>
<event>
 7    1  0.6726285E-013  0.5052886E+02  0.7816164E-02  0.1300439E+00
        -11   -1    0    0    0    0  0.00000000000E+00  0.00000000000E+00  0.45593999997E+02  0.45594000000E+02  0.51100000000E-03 0.  1.
         11   -1    0    0    0    0 -0.00000000000E+00 -0.00000000000E+00 -0.45593999997E+02  0.45594000000E+02  0.51100000000E-03 0. -1.
    9900012    2    1    2    0    0 -0.21968623563E+02 -0.32995837047E+02 -0.90454415511E+01  0.50528859619E+02  0.29999999299E+02 0.  0.
         12    1    1    2    0    0  0.21968623563E+02  0.32995837047E+02  0.90454415511E+01  0.40659140381E+02  0.00000000000E+00 0. -1.
         11    1    3    3    0    0 -0.15613759825E+02 -0.97076318568E+01  0.25527993158E+01  0.18561907142E+02  0.51100000000E-03 0. -1.
        -11    1    3    3    0    0 -0.10765612342E+02 -0.11417380556E+02 -0.11231788682E+02  0.19297877218E+02  0.51100000000E-03 0.  1.
        -12    1    3    3    0    0  0.44107486043E+01 -0.11870824634E+02 -0.36645218538E+00  0.12669075260E+02  0.00000000000E+00 0.  1.
</event>
<event>
 7    1  0.6726285E-013  0.5052887E+02  0.7816164E-02  0.1300439E+00
        -11   -1    0    0    0    0  0.00000000000E+00  0.00000000000E+00  0.45593999997E+02  0.45594000000E+02  0.51100000000E-03 0. -1.
         11   -1    0    0    0    0 -0.00000000000E+00 -0.00000000000E+00 -0.45593999997E+02  0.45594000000E+02  0.51100000000E-03 0.  1.
    9900012    2    1    2    0    0 -0.16719425159E+02 -0.15098257441E+02 -0.33847727682E+02  0.50528865422E+02  0.30000016937E+02 0.  0.
         12    1    1    2    0    0  0.16719425159E+02  0.15098257441E+02  0.33847727682E+02  0.40659134578E+02  0.00000000000E+00 0. -1.
         11    1    3    3    0    0 -0.41902489286E+01 -0.92948572018E+00  0.28383772294E+01  0.51457278732E+01  0.51100000000E-03 0. -1.
        -11    1    3    3    0    0 -0.77385353855E+01  0.39589435787E+00 -0.28870081805E+01  0.82690071200E+01  0.51100000000E-03 0.  1.
         12    1    3    3    0    0 -0.47906408453E+01 -0.14564666078E+02 -0.33799096731E+02  0.37114130429E+02  0.00000000000E+00 0. -1.
</event>
<event>
 7    1  0.6726285E-013  0.5052886E+02  0.7816164E-02  0.1300439E+00
        -11   -1    0    0    0    0  0.00000000000E+00  0.00000000000E+00  0.45593999997E+02  0.45594000000E+02  0.51100000000E-03 0. -1.
         11   -1    0    0    0    0 -0.00000000000E+00 -0.00000000000E+00 -0.45593999997E+02  0.45594000000E+02  0.51100000000E-03 0.  1.
    9900012    2    1    2    0    0  0.19469214049E+02 -0.33603136441E+02 -0.12039299641E+02  0.50528858221E+02  0.29999995048E+02 0.  0.
         12    1    1    2    0    0 -0.19469214049E+02  0.33603136441E+02  0.12039299641E+02  0.40659141779E+02  0.00000000000E+00 0. -1.
         11    1    3    3    0    0  0.42910020963E+01 -0.87295512315E+01  0.43280139305E+01  0.10646570741E+02  0.51100000000E-03 0.  1.
        -11    1    3    3    0    0 -0.15242441490E+01 -0.12435453493E+02  0.12691717630E+01  0.12592641543E+02  0.51100000000E-03 0. -1.
         12    1    3    3    0    0  0.16702456102E+02 -0.12438131717E+02 -0.17636485335E+02  0.27289645938E+02  0.00000000000E+00 0. -1.
</event>
<event>
 7    1  0.1081404E-012  0.5052888E+02  0.7816164E-02  0.1300439E+00
        -11   -1    0    0    0    0  0.00000000000E+00  0.00000000000E+00  0.45593999997E+02  0.45594000000E+02  0.51100000000E-03 0.  1.
         11   -1    0    0    0    0 -0.00000000000E+00 -0.00000000000E+00 -0.45593999997E+02  0.45594000000E+02  0.51100000000E-03 0. -1.
    9900012    2    1    2    0    0 -0.18172794348E+02  0.36361087865E+02 -0.88587213922E+00  0.50528881287E+02  0.30000065158E+02 0.  0.
         12    1    1    2    0    0  0.18172794348E+02 -0.36361087865E+02  0.88587213922E+00  0.40659118713E+02  0.00000000000E+00 0. -1.
         11    1    3    3    0    0 -0.10102365028E+02  0.17659806271E+02  0.24475442489E+01  0.20491876678E+02  0.51100000000E-03 0. -1.
        -11    1    3    3    0    0 -0.15335548369E+02  0.15345170844E+02 -0.37814182124E+01  0.22021635634E+02  0.51100000000E-03 0.  1.
         12    1    3    3    0    0  0.72651190493E+01  0.33561107493E+01  0.44800182429E+00  0.80153689745E+01  0.00000000000E+00 0. -1.
</event>
<event>
 7    1  0.6726285E-013  0.5052887E+02  0.7816164E-02  0.1300439E+00
        -11   -1    0    0    0    0  0.00000000000E+00  0.00000000000E+00  0.45593999997E+02  0.45594000000E+02  0.51100000000E-03 0.  1.
         11   -1    0    0    0    0 -0.00000000000E+00 -0.00000000000E+00 -0.45593999997E+02  0.45594000000E+02  0.51100000000E-03 0. -1.
    9900012    2    1    2    0    0  0.28920829773E+02 -0.34574143114E+01  0.28368944125E+02  0.50528866964E+02  0.30000021624E+02 0.  0.
         12    1    1    2    0    0 -0.28920829773E+02  0.34574143114E+01 -0.28368944125E+02  0.40659133036E+02  0.00000000000E+00 0. -1.
         11    1    3    3    0    0  0.81518078762E+01 -0.96462154472E+01  0.35915016869E+01  0.13130130568E+02  0.51100000000E-03 0. -1.
        -11    1    3    3    0    0  0.77869308655E+01 -0.47130079873E+01  0.25655380693E+01  0.94567818225E+01  0.51100000000E-03 0.  1.
        -12    1    3    3    0    0  0.12982091031E+02  0.10901809123E+02  0.22211904369E+02  0.27941954574E+02  0.00000000000E+00 0.  1.
</event>
<event>
 7    1  0.6726285E-013  0.5052888E+02  0.7816164E-02  0.1300439E+00
        -11   -1    0    0    0    0  0.00000000000E+00  0.00000000000E+00  0.45593999997E+02  0.45594000000E+02  0.51100000000E-03 0.  1.
         11   -1    0    0    0    0 -0.00000000000E+00 -0.00000000000E+00 -0.45593999997E+02  0.45594000000E+02  0.51100000000E-03 0. -1.
    9900012    2    1    2    0    0  0.11942291018E+01  0.11449904148E+01  0.40625445697E+02  0.50528880183E+02  0.30000061805E+02 0.  0.
         12    1    1    2    0    0 -0.11942291018E+01 -0.11449904148E+01 -0.40625445697E+02  0.40659119817E+02  0.00000000000E+00 0. -1.
         11    1    3    3    0    0  0.10014197022E+02  0.37032089367E+00  0.44055032220E+01  0.10946677051E+02  0.51100000000E-03 0. -1.
        -11    1    3    3    0    0  0.79396974826E+00 -0.42497609760E+01  0.16700638156E+02  0.17251149857E+02  0.51100000000E-03 0.  1.
        -12    1    3    3    0    0 -0.96139376681E+01  0.50244304971E+01  0.19519304319E+02  0.22331053276E+02  0.00000000000E+00 0.  1.
</event>
<event>
 7    1  0.6726285E-013  0.5052886E+02  0.7816164E-02  0.1300439E+00
        -11   -1    0    0    0    0  0.00000000000E+00  0.00000000000E+00  0.45593999997E+02  0.45594000000E+02  0.51100000000E-03 0.  1.
         11   -1    0    0    0    0 -0.00000000000E+00 -0.00000000000E+00 -0.45593999997E+02  0.45594000000E+02  0.51100000000E-03 0. -1.
    9900012    2    1    2    0    0 -0.24464872108E+02  0.32196228931E+02  0.42471924003E+01  0.50528858741E+02  0.29999996630E+02 0.  0.
         12    1    1    2    0    0  0.24464872108E+02 -0.32196228931E+02 -0.42471924003E+01  0.40659141259E+02  0.00000000000E+00 0. -1.
         11    1    3    3    0    0 -0.38835191664E+01  0.17583810190E+02 -0.30351547638E+01  0.18261551594E+02  0.51100000000E-03 0. -1.
        -11    1    3    3    0    0 -0.53174031771E+01  0.12926293162E+02 -0.23012984909E+01  0.14165444097E+02  0.51100000000E-03 0.  1.
        -12    1    3    3    0    0 -0.15263949764E+02  0.16861255791E+01  0.95836456550E+01  0.18101863051E+02  0.00000000000E+00 0.  1.
</event>
<event>
 7    1  0.6726285E-013  0.5052887E+02  0.7816164E-02  0.1300439E+00
        -11   -1    0    0    0    0  0.00000000000E+00  0.00000000000E+00  0.45593999997E+02  0.45594000000E+02  0.51100000000E-03 0. -1.
         11   -1    0    0    0    0 -0.00000000000E+00 -0.00000000000E+00 -0.45593999997E+02  0.45594000000E+02  0.51100000000E-03 0.  1.
    9900012    2    1    2    0    0  0.31151956188E+02  0.11437239411E+02 -0.23492772216E+02  0.50528866142E+02  0.30000019126E+02 0.  0.
         12    1    1    2    0    0 -0.31151956188E+02 -0.11437239411E+02  0.23492772216E+02  0.40659133858E+02  0.00000000000E+00 0. -1.
         11    1    3    3    0    0  0.11151277160E+02  0.65215695015E+01 -0.18234448510E+01  0.13046332912E+02  0.51100000000E-03 0. -1.
        -11    1    3    3    0    0  0.24814566084E+02  0.19510447105E+01 -0.18379399854E+02  0.30941422149E+02  0.51100000000E-03 0.  1.
        -12    1    3    3    0    0 -0.48138870554E+01  0.29646251990E+01 -0.32899275111E+01  0.65411110815E+01  0.00000000000E+00 0.  1.
</event>
<event>
 7    1  0.6726285E-013  0.5052890E+02  0.7816164E-02  0.1300439E+00
        -11   -1    0    0    0    0  0.00000000000E+00  0.00000000000E+00  0.45593999997E+02  0.45594000000E+02  0.51100000000E-03 0.  1.
         11   -1    0    0    0    0 -0.00000000000E+00 -0.00000000000E+00 -0.45593999997E+02  0.45594000000E+02  0.51100000000E-03 0. -1.
    9900012    2    1    2    0    0  0.16297500814E+02  0.33249303440E+02  0.16793970488E+02  0.50528903149E+02  0.30000131610E+02 0.  0.
         12    1    1    2    0    0 -0.16297500814E+02 -0.33249303440E+02 -0.16793970488E+02  0.40659096851E+02  0.00000000000E+00 0. -1.
         11    1    3    3    0    0  0.11618387381E+02  0.81355986958E+01  0.19817032054E+01  0.14321383988E+02  0.51100000000E-03 0. -1.
        -11    1    3    3    0    0  0.85955295134E+01  0.19505473110E+02  0.16564956463E+01  0.21379676961E+02  0.51100000000E-03 0.  1.
        -12    1    3    3    0    0 -0.39164160796E+01  0.56082316338E+01  0.13155771636E+02  0.14827842200E+02  0.00000000000E+00 0.  1.
</event>
<event>
 7    1  0.6726285E-013  0.5052886E+02  0.7816164E-02  0.1300439E+00
        -11   -1    0    0    0    0  0.00000000000E+00  0.00000000000E+00  0.45593999997E+02  0.45594000000E+02  0.51100000000E-03 0.  1.
         11   -1    0    0    0    0 -0.00000000000E+00 -0.00000000000E+00 -0.45593999997E+02  0.45594000000E+02  0.51100000000E-03 0. -1.
    9900012    2    1    2    0    0  0.49627229459E+01 -0.39962318354E+02 -0.56169348736E+01  0.50528862471E+02  0.30000007967E+02 0.  0.
         12    1    1    2    0    0 -0.49627229459E+01  0.39962318354E+02  0.56169348736E+01  0.40659137529E+02  0.00000000000E+00 0. -1.
         11    1    3    3    0    0  0.44298758182E+01 -0.17849480660E+02  0.48081555627E+01  0.19009106233E+02  0.51100000000E-03 0. -1.
        -11    1    3    3    0    0  0.29525076834E+01 -0.17898779545E+02  0.19303593452E+01  0.18243078092E+02  0.51100000000E-03 0.  1.
         12    1    3    3    0    0 -0.24196605557E+01 -0.42140581484E+01 -0.12355449781E+02  0.13276678146E+02  0.00000000000E+00 0. -1.
</event>
<event>
 7    1  0.6726285E-013  0.5052892E+02  0.7816164E-02  0.1300439E+00
        -11   -1    0    0    0    0  0.00000000000E+00  0.00000000000E+00  0.45593999997E+02  0.45594000000E+02  0.51100000000E-03 0. -1.
         11   -1    0    0    0    0 -0.00000000000E+00 -0.00000000000E+00 -0.45593999997E+02  0.45594000000E+02  0.51100000000E-03 0.  1.
    9900012    2    1    2    0    0  0.52863795701E+00  0.27006077483E+02 -0.30390017567E+02  0.50528919257E+02  0.30000180574E+02 0.  0.
         12    1    1    2    0    0 -0.52863795701E+00 -0.27006077483E+02  0.30390017567E+02  0.40659080743E+02  0.00000000000E+00 0. -1.
         11    1    3    3    0    0  0.50827332528E+01  0.10493062730E+02 -0.93706852597E+00  0.11696864557E+02  0.51100000000E-03 0. -1.
        -11    1    3    3    0    0  0.20028489206E+01  0.17370341371E+02 -0.26105443906E+02  0.31420285883E+02  0.51100000000E-03 0.  1.
         12    1    3    3    0    0 -0.65569442164E+01 -0.85732661775E+00 -0.33475051348E+01  0.74117688182E+01  0.00000000000E+00 0. -1.
</event>
<event>
 7    1  0.6726285E-013  0.5052886E+02  0.7816164E-02  0.1300439E+00
        -11   -1    0    0    0    0  0.00000000000E+00  0.00000000000E+00  0.45593999997E+02  0.45594000000E+02  0.51100000000E-03 0. -1.
         11   -1    0    0    0    0 -0.00000000000E+00 -0.00000000000E+00 -0.45593999997E+02  0.45594000000E+02  0.51100000000E-03 0.  1.
    9900012    2    1    2    0    0 -0.35108040039E+02  0.14361270501E+02  0.14640531710E+02  0.50528859151E+02  0.29999997876E+02 0.  0.
         12    1    1    2    0    0  0.35108040039E+02 -0.14361270501E+02 -0.14640531710E+02  0.40659140849E+02  0.00000000000E+00 0. -1.
         11    1    3    3    0    0 -0.20063338189E+02  0.72917457604E+01  0.84670138868E+01  0.22965134878E+02  0.51100000000E-03 0. -1.
        -11    1    3    3    0    0 -0.13483869343E+02  0.11297046863E+02 -0.25211454215E+01  0.17770598605E+02  0.51100000000E-03 0.  1.
         12    1    3    3    0    0 -0.15608325068E+01 -0.42275221225E+01  0.86946632451E+01  0.97931256684E+01  0.00000000000E+00 0. -1.
</event>
<event>
 7    1  0.6726285E-013  0.5052884E+02  0.7816164E-02  0.1300439E+00
        -11   -1    0    0    0    0  0.00000000000E+00  0.00000000000E+00  0.45593999997E+02  0.45594000000E+02  0.51100000000E-03 0.  1.
         11   -1    0    0    0    0 -0.00000000000E+00 -0.00000000000E+00 -0.45593999997E+02  0.45594000000E+02  0.51100000000E-03 0. -1.
    9900012    2    1    2    0    0 -0.28731374819E+01 -0.35892626144E+02  0.18884702948E+02  0.50528836999E+02  0.29999930542E+02 0.  0.
         12    1    1    2    0    0  0.28731374819E+01  0.35892626144E+02 -0.18884702948E+02  0.40659163001E+02  0.00000000000E+00 0. -1.
         11    1    3    3    0    0 -0.61011718811E+01  0.22012244121E+00  0.72950204217E+01  0.95126271569E+01  0.51100000000E-03 0. -1.
        -11    1    3    3    0    0 -0.54383387389E+01 -0.21189959244E+02  0.43638012357E+01  0.22307681693E+02  0.51100000000E-03 0.  1.
        -12    1    3    3    0    0  0.86663731382E+01 -0.14922789341E+02  0.72258812910E+01  0.18708528149E+02  0.00000000000E+00 0.  1.
</event>
<event>
 7    1  0.6726285E-013  0.5052886E+02  0.7816164E-02  0.1300439E+00
        -11   -1    0    0    0    0  0.00000000000E+00  0.00000000000E+00  0.45593999997E+02  0.45594000000E+02  0.51100000000E-03 0.  1.
         11   -1    0    0    0    0 -0.00000000000E+00 -0.00000000000E+00 -0.45593999997E+02  0.45594000000E+02  0.51100000000E-03 0. -1.
    9900012    2    1    2    0    0 -0.19221348474E+01 -0.13434950145E+02  0.38327180661E+02  0.50528864923E+02  0.30000015420E+02 0.  0.
         12    1    1    2    0    0  0.19221348474E+01  0.13434950145E+02 -0.38327180661E+02  0.40659135077E+02  0.00000000000E+00 0. -1.
         11    1    3    3    0    0  0.16395535957E+01 -0.32234780048E+01 -0.57808028825E+00  0.36623931413E+01  0.51100000000E-03 0. -1.
        -11    1    3    3    0    0 -0.47667412880E+01 -0.34457532430E+01 -0.13451479698E+01  0.60336109619E+01  0.51100000000E-03 0.  1.
         12    1    3    3    0    0  0.12050528449E+01 -0.67657188972E+01  0.40250408919E+02  0.40832860820E+02  0.00000000000E+00 0. -1.
</event>
<event>
 7    1  0.6726285E-013  0.5052885E+02  0.7816164E-02  0.1300439E+00
        -11   -1    0    0    0    0  0.00000000000E+00  0.00000000000E+00  0.45593999997E+02  0.45594000000E+02  0.51100000000E-03 0.  1.
         11   -1    0    0    0    0 -0.00000000000E+00 -0.00000000000E+00 -0.45593999997E+02  0.45594000000E+02  0.51100000000E-03 0. -1.
    9900012    2    1    2    0    0  0.33919889373E+02 -0.35756655269E+01  0.22131920338E+02  0.50528853712E+02  0.29999981342E+02 0.  0.
         12    1    1    2    0    0 -0.33919889373E+02  0.35756655269E+01 -0.22131920338E+02  0.40659146288E+02  0.00000000000E+00 0. -1.
         11    1    3    3    0    0 -0.18654664835E+01  0.63455177619E+00  0.81204960551E+01  0.83561401137E+01  0.51100000000E-03 0. -1.
        -11    1    3    3    0    0  0.18606512596E+02  0.54703017907E+01  0.10787460982E+02  0.22192247010E+02  0.51100000000E-03 0.  1.
        -12    1    3    3    0    0  0.17178843261E+02 -0.96805190937E+01  0.32239633017E+01  0.19980466588E+02  0.00000000000E+00 0.  1.
</event>
<event>
 7    1  0.6726285E-013  0.5052886E+02  0.7816164E-02  0.1300439E+00
        -11   -1    0    0    0    0  0.00000000000E+00  0.00000000000E+00  0.45593999997E+02  0.45594000000E+02  0.51100000000E-03 0.  1.
         11   -1    0    0    0    0 -0.00000000000E+00 -0.00000000000E+00 -0.45593999997E+02  0.45594000000E+02  0.51100000000E-03 0. -1.
    9900012    2    1    2    0    0  0.21444228628E+02  0.29703010850E+02  0.17636372371E+02  0.50528862952E+02  0.30000009430E+02 0.  0.
         12    1    1    2    0    0 -0.21444228628E+02 -0.29703010850E+02 -0.17636372371E+02  0.40659137048E+02  0.00000000000E+00 0. -1.
         11    1    3    3    0    0  0.17245989921E+02  0.17113076235E+02  0.13461013596E+02  0.27775536608E+02  0.51100000000E-03 0. -1.
        -11    1    3    3    0    0  0.68831108123E+01  0.57544424856E+01  0.99599119299E+01  0.13404874811E+02  0.51100000000E-03 0.  1.
         12    1    3    3    0    0 -0.26848721049E+01  0.68354921298E+01 -0.57845531548E+01  0.93484515336E+01  0.00000000000E+00 0. -1.
</event>
<event>
 7    1  0.7801132E-013  0.5052886E+02  0.7816164E-02  0.1300439E+00
        -11   -1    0    0    0    0  0.00000000000E+00  0.00000000000E+00  0.45593999997E+02  0.45594000000E+02  0.51100000000E-03 0. -1.
         11   -1    0    0    0    0 -0.00000000000E+00 -0.00000000000E+00 -0.45593999997E+02  0.45594000000E+02  0.51100000000E-03 0.  1.
    9900012    2    1    2    0    0  0.53872288245E+01  0.39482046856E+02 -0.80815500422E+01  0.50528859460E+02  0.29999998814E+02 0.  0.
         12    1    1    2    0    0 -0.53872288245E+01 -0.39482046856E+02  0.80815500422E+01  0.40659140540E+02  0.00000000000E+00 0. -1.
         11    1    3    3    0    0  0.29996772676E+01 -0.27471662399E+01  0.16083452938E+00  0.40707313920E+01  0.51100000000E-03 0. -1.
        -11    1    3    3    0    0  0.92920709208E+01  0.30227607368E+02 -0.34728686676E+01  0.31813702178E+02  0.51100000000E-03 0.  1.
         12    1    3    3    0    0 -0.69045193639E+01  0.12001605728E+02 -0.47695159039E+01  0.14644425890E+02  0.00000000000E+00 0. -1.
</event>
<event>
 7    1  0.6726285E-013  0.5052886E+02  0.7816164E-02  0.1300439E+00
        -11   -1    0    0    0    0  0.00000000000E+00  0.00000000000E+00  0.45593999997E+02  0.45594000000E+02  0.51100000000E-03 0.  1.
         11   -1    0    0    0    0 -0.00000000000E+00 -0.00000000000E+00 -0.45593999997E+02  0.45594000000E+02  0.51100000000E-03 0. -1.
    9900012    2    1    2    0    0 -0.29146487179E+01  0.19746192651E+02  0.35422569211E+02  0.50528859443E+02  0.29999998762E+02 0.  0.
         12    1    1    2    0    0  0.29146487179E+01 -0.19746192651E+02 -0.35422569211E+02  0.40659140557E+02  0.00000000000E+00 0. -1.
         11    1    3    3    0    0  0.45180226558E+01  0.97391299364E+01  0.23236225984E+02  0.25596589204E+02  0.51100000000E-03 0. -1.
        -11    1    3    3    0    0  0.37072029234E+01  0.92018681060E+01  0.88003342870E+01  0.13261357924E+02  0.51100000000E-03 0.  1.
         12    1    3    3    0    0 -0.11139874297E+02  0.80519460839E+00  0.33860089397E+01  0.11670912315E+02  0.00000000000E+00 0. -1.
</event>
<event>
 7    1  0.7732506E-013  0.5052885E+02  0.7816164E-02  0.1300439E+00
        -11   -1    0    0    0    0  0.00000000000E+00  0.00000000000E+00  0.45593999997E+02  0.45594000000E+02  0.51100000000E-03 0. -1.
         11   -1    0    0    0    0 -0.00000000000E+00 -0.00000000000E+00 -0.45593999997E+02  0.45594000000E+02  0.51100000000E-03 0.  1.
    9900012    2    1    2    0    0  0.34238500467E+01  0.27804998092E+02 -0.29467372722E+02  0.50528846994E+02  0.29999960923E+02 0.  0.
         12    1    1    2    0    0 -0.34238500467E+01 -0.27804998092E+02  0.29467372722E+02  0.40659153006E+02  0.00000000000E+00 0. -1.
         11    1    3    3    0    0 -0.37697577071E+01  0.66107054732E+01 -0.13453330386E+02  0.15456539029E+02  0.51100000000E-03 0. -1.
        -11    1    3    3    0    0  0.37784687217E+00  0.15218380412E+02 -0.20029682851E+02  0.25158101398E+02  0.51100000000E-03 0.  1.
         12    1    3    3    0    0  0.68157608816E+01  0.59759122068E+01  0.40156405144E+01  0.99142065663E+01  0.00000000000E+00 0. -1.
</event>
<event>
 7    1  0.7150060E-013  0.5052887E+02  0.7816164E-02  0.1300439E+00
        -11   -1    0    0    0    0  0.00000000000E+00  0.00000000000E+00  0.45593999997E+02  0.45594000000E+02  0.51100000000E-03 0. -1.
         11   -1    0    0    0    0 -0.00000000000E+00 -0.00000000000E+00 -0.45593999997E+02  0.45594000000E+02  0.51100000000E-03 0.  1.
    9900012    2    1    2    0    0 -0.31318727777E+01 -0.88579431734E+00 -0.40528650032E+02  0.50528871479E+02  0.30000035347E+02 0.  0.
         12    1    1    2    0    0  0.31318727777E+01  0.88579431734E+00  0.40528650032E+02  0.40659128521E+02  0.00000000000E+00 0. -1.
         11    1    3    3    0    0 -0.30268817947E+01  0.27867769457E+01 -0.21503560655E+02  0.21893635153E+02  0.51100000000E-03 0. -1.
        -11    1    3    3    0    0  0.97071559064E+00  0.76416693930E+01 -0.14467072317E+02  0.16390045196E+02  0.51100000000E-03 0.  1.
         12    1    3    3    0    0 -0.10757065737E+01 -0.11314240656E+02 -0.45580170612E+01  0.12245191129E+02  0.00000000000E+00 0. -1.
</event>
<event>
 7    1  0.6726285E-013  0.5052886E+02  0.7816164E-02  0.1300439E+00
        -11   -1    0    0    0    0  0.00000000000E+00  0.00000000000E+00  0.45593999997E+02  0.45594000000E+02  0.51100000000E-03 0.  1.
         11   -1    0    0    0    0 -0.00000000000E+00 -0.00000000000E+00 -0.45593999997E+02  0.45594000000E+02  0.51100000000E-03 0. -1.
    9900012    2    1    2    0    0 -0.40879980126E+01 -0.10653806868E+02  0.39025000035E+02  0.50528856425E+02  0.29999989590E+02 0.  0.
         12    1    1    2    0    0  0.40879980126E+01  0.10653806868E+02 -0.39025000035E+02  0.40659143575E+02  0.00000000000E+00 0. -1.
         11    1    3    3    0    0  0.10486983061E+01 -0.10238301248E+02  0.19723752205E+01  0.10479162411E+02  0.51100000000E-03 0. -1.
        -11    1    3    3    0    0 -0.18121733906E+01 -0.62375028720E+01  0.28236430914E+02  0.28973892481E+02  0.51100000000E-03 0.  1.
        -12    1    3    3    0    0 -0.33245229281E+01  0.58219972520E+01  0.88161939001E+01  0.11075801532E+02  0.00000000000E+00 0.  1.
</event>
<event>
 7    1  0.6726285E-013  0.5052885E+02  0.7816164E-02  0.1300439E+00
        -11   -1    0    0    0    0  0.00000000000E+00  0.00000000000E+00  0.45593999997E+02  0.45594000000E+02  0.51100000000E-03 0. -1.
         11   -1    0    0    0    0 -0.00000000000E+00 -0.00000000000E+00 -0.45593999997E+02  0.45594000000E+02  0.51100000000E-03 0.  1.
    9900012    2    1    2    0    0  0.34880492647E+02  0.16344597441E+02 -0.13014296847E+02  0.50528849059E+02  0.29999967201E+02 0.  0.
         12    1    1    2    0    0 -0.34880492647E+02 -0.16344597441E+02  0.13014296847E+02  0.40659150941E+02  0.00000000000E+00 0. -1.
         11    1    3    3    0    0  0.26512387117E+02  0.29275050695E+01  0.53648861322E+00  0.26678920084E+02  0.51100000000E-03 0.  1.
        -11    1    3    3    0    0  0.32582375323E+01 -0.11849211302E+01 -0.52552515985E+01  0.62958573305E+01  0.51100000000E-03 0. -1.
         12    1    3    3    0    0  0.51098679975E+01  0.14602013501E+02 -0.82955338622E+01  0.17554071645E+02  0.00000000000E+00 0. -1.
</event>
<event>
 7    1  0.6726285E-013  0.5052886E+02  0.7816164E-02  0.1300439E+00
        -11   -1    0    0    0    0  0.00000000000E+00  0.00000000000E+00  0.45593999997E+02  0.45594000000E+02  0.51100000000E-03 0.  1.
         11   -1    0    0    0    0 -0.00000000000E+00 -0.00000000000E+00 -0.45593999997E+02  0.45594000000E+02  0.51100000000E-03 0. -1.
    9900012    2    1    2    0    0 -0.16406456617E+02  0.21119204087E+01  0.37142071071E+02  0.50528862405E+02  0.30000007766E+02 0.  0.
         12    1    1    2    0    0  0.16406456617E+02 -0.21119204087E+01 -0.37142071071E+02  0.40659137595E+02  0.00000000000E+00 0. -1.
         11    1    3    3    0    0 -0.37110751582E+01  0.49936939928E+01  0.20302014555E+02  0.21233955208E+02  0.51100000000E-03 0. -1.
        -11    1    3    3    0    0 -0.14570565321E+02 -0.39890336864E+01  0.20240744661E+02  0.25256712142E+02  0.51100000000E-03 0.  1.
         12    1    3    3    0    0  0.18751838625E+01  0.11072601023E+01 -0.34006881443E+01  0.40381950556E+01  0.00000000000E+00 0. -1.
</event>
<event>
 7    1  0.6726285E-013  0.5052887E+02  0.7816164E-02  0.1300439E+00
        -11   -1    0    0    0    0  0.00000000000E+00  0.00000000000E+00  0.45593999997E+02  0.45594000000E+02  0.51100000000E-03 0.  1.
         11   -1    0    0    0    0 -0.00000000000E+00 -0.00000000000E+00 -0.45593999997E+02  0.45594000000E+02  0.51100000000E-03 0. -1.
    9900012    2    1    2    0    0  0.41662826737E+01  0.11411655824E+02  0.38801819245E+02  0.50528868471E+02  0.30000026206E+02 0.  0.
         12    1    1    2    0    0 -0.41662826737E+01 -0.11411655824E+02 -0.38801819245E+02  0.40659131529E+02  0.00000000000E+00 0. -1.
         11    1    3    3    0    0 -0.26242160881E+01  0.58781011176E+01  0.75087372561E+01  0.98903851426E+01  0.51100000000E-03 0.  1.
        -11    1    3    3    0    0  0.40085237775E+01 -0.42069870741E+01  0.29845035613E+02  0.30405479015E+02  0.51100000000E-03 0. -1.
         12    1    3    3    0    0  0.27819749842E+01  0.97405417801E+01  0.14480463754E+01  0.10233004314E+02  0.00000000000E+00 0. -1.
</event>
<event>
 7    1  0.6726285E-013  0.5052885E+02  0.7816164E-02  0.1300439E+00
        -11   -1    0    0    0    0  0.00000000000E+00  0.00000000000E+00  0.45593999997E+02  0.45594000000E+02  0.51100000000E-03 0.  1.
         11   -1    0    0    0    0 -0.00000000000E+00 -0.00000000000E+00 -0.45593999997E+02  0.45594000000E+02  0.51100000000E-03 0. -1.
    9900012    2    1    2    0    0 -0.28170301383E+02  0.10424563740E+01  0.29300401270E+02  0.50528854536E+02  0.29999983848E+02 0.  0.
         12    1    1    2    0    0  0.28170301383E+02 -0.10424563740E+01 -0.29300401270E+02  0.40659145464E+02  0.00000000000E+00 0. -1.
         11    1    3    3    0    0 -0.73513266471E+00 -0.54998048418E+00  0.30286364412E+01  0.31647334046E+01  0.51100000000E-03 0. -1.
        -11    1    3    3    0    0 -0.83585086727E-01  0.35735421819E+01  0.18526385398E+02  0.18868072143E+02  0.51100000000E-03 0.  1.
         12    1    3    3    0    0 -0.27351583631E+02 -0.19811053237E+01  0.77453794300E+01  0.28496048989E+02  0.00000000000E+00 0. -1.
</event>
<event>
 7    1  0.6726285E-013  0.5052887E+02  0.7816164E-02  0.1300439E+00
        -11   -1    0    0    0    0  0.00000000000E+00  0.00000000000E+00  0.45593999997E+02  0.45594000000E+02  0.51100000000E-03 0. -1.
         11   -1    0    0    0    0 -0.00000000000E+00 -0.00000000000E+00 -0.45593999997E+02  0.45594000000E+02  0.51100000000E-03 0.  1.
    9900012    2    1    2    0    0  0.10667320786E+02  0.32417633184E+02 -0.22101361324E+02  0.50528870073E+02  0.30000031074E+02 0.  0.
         12    1    1    2    0    0 -0.10667320786E+02 -0.32417633184E+02  0.22101361324E+02  0.40659129927E+02  0.00000000000E+00 0. -1.
         11    1    3    3    0    0 -0.34538657722E+01  0.23322187393E+01 -0.10115038399E+01  0.42885397631E+01  0.51100000000E-03 0. -1.
        -11    1    3    3    0    0  0.41327519138E+01  0.27210291130E+02 -0.22758622318E+02  0.35713225447E+02  0.51100000000E-03 0.  1.
        -12    1    3    3    0    0  0.99884346446E+01  0.28751233149E+01  0.16687648335E+01  0.10527104863E+02  0.00000000000E+00 0.  1.
</event>
<event>
 7    1  0.6726285E-013  0.5052886E+02  0.7816164E-02  0.1300439E+00
        -11   -1    0    0    0    0  0.00000000000E+00  0.00000000000E+00  0.45593999997E+02  0.45594000000E+02  0.51100000000E-03 0.  1.
         11   -1    0    0    0    0 -0.00000000000E+00 -0.00000000000E+00 -0.45593999997E+02  0.45594000000E+02  0.51100000000E-03 0. -1.
    9900012    2    1    2    0    0 -0.36256502257E+02 -0.18185589414E+01  0.18311878780E+02  0.50528855678E+02  0.29999987319E+02 0.  0.
         12    1    1    2    0    0  0.36256502257E+02  0.18185589414E+01 -0.18311878780E+02  0.40659144322E+02  0.00000000000E+00 0. -1.
         11    1    3    3    0    0 -0.58882670251E+00  0.18679372316E+01  0.55641621676E+01  0.58987971040E+01  0.51100000000E-03 0. -1.
        -11    1    3    3    0    0 -0.10787871035E+02  0.36009174674E+01 -0.57871900701E+01  0.12760734197E+02  0.51100000000E-03 0.  1.
        -12    1    3    3    0    0 -0.24879804519E+02 -0.72874136403E+01  0.18534906683E+02  0.31869324377E+02  0.00000000000E+00 0.  1.
</event>
<event>
 7    1  0.6726285E-013  0.5052886E+02  0.7816164E-02  0.1300439E+00
        -11   -1    0    0    0    0  0.00000000000E+00  0.00000000000E+00  0.45593999997E+02  0.45594000000E+02  0.51100000000E-03 0.  1.
         11   -1    0    0    0    0 -0.00000000000E+00 -0.00000000000E+00 -0.45593999997E+02  0.45594000000E+02  0.51100000000E-03 0. -1.
    9900012    2    1    2    0    0 -0.15488079437E+02 -0.24640540780E+02  0.28392408276E+02  0.50528859548E+02  0.29999999083E+02 0.  0.
         12    1    1    2    0    0  0.15488079437E+02  0.24640540780E+02 -0.28392408276E+02  0.40659140452E+02  0.00000000000E+00 0. -1.
         11    1    3    3    0    0 -0.35210674716E+01  0.17723252362E+01  0.97166857648E+01  0.10485849293E+02  0.51100000000E-03 0. -1.
        -11    1    3    3    0    0 -0.49696638020E+01 -0.45742479242E+00  0.11011543809E+02  0.12089701943E+02  0.51100000000E-03 0.  1.
         12    1    3    3    0    0 -0.69973481632E+01 -0.25955441223E+02  0.76641787025E+01  0.27953308312E+02  0.00000000000E+00 0. -1.
</event>
<event>
 7    1  0.6726285E-013  0.5052887E+02  0.7816164E-02  0.1300439E+00
        -11   -1    0    0    0    0  0.00000000000E+00  0.00000000000E+00  0.45593999997E+02  0.45594000000E+02  0.51100000000E-03 0.  1.
         11   -1    0    0    0    0 -0.00000000000E+00 -0.00000000000E+00 -0.45593999997E+02  0.45594000000E+02  0.51100000000E-03 0. -1.
    9900012    2    1    2    0    0 -0.75238605151E+01 -0.22436735917E+02  0.33062805570E+02  0.50528871777E+02  0.30000036254E+02 0.  0.
         12    1    1    2    0    0  0.75238605151E+01  0.22436735917E+02 -0.33062805570E+02  0.40659128223E+02  0.00000000000E+00 0. -1.
         11    1    3    3    0    0 -0.63992657040E+01  0.15783342738E+00  0.50049173612E+00  0.64207480234E+01  0.51100000000E-03 0. -1.
        -11    1    3    3    0    0  0.30706934229E-01 -0.81889564370E+01 -0.31460948810E+00  0.81950552063E+01  0.51100000000E-03 0.  1.
         12    1    3    3    0    0 -0.11553017453E+01 -0.14405612908E+02  0.32876923322E+02  0.35913068547E+02  0.00000000000E+00 0. -1.
</event>
<event>
 7    1  0.6726285E-013  0.5052886E+02  0.7816164E-02  0.1300439E+00
        -11   -1    0    0    0    0  0.00000000000E+00  0.00000000000E+00  0.45593999997E+02  0.45594000000E+02  0.51100000000E-03 0. -1.
         11   -1    0    0    0    0 -0.00000000000E+00 -0.00000000000E+00 -0.45593999997E+02  0.45594000000E+02  0.51100000000E-03 0.  1.
    9900012    2    1    2    0    0 -0.20319607111E+02 -0.29575617091E+02  0.19119689046E+02  0.50528855043E+02  0.29999985388E+02 0.  0.
         12    1    1    2    0    0  0.20319607111E+02  0.29575617091E+02 -0.19119689046E+02  0.40659144957E+02  0.00000000000E+00 0. -1.
         11    1    3    3    0    0  0.26906991671E+01 -0.17424885443E+02  0.42543135850E+01  0.18137411035E+02  0.51100000000E-03 0. -1.
        -11    1    3    3    0    0 -0.37997874511E+01  0.24856764201E+01  0.14603369024E+01  0.47696494702E+01  0.51100000000E-03 0.  1.
        -12    1    3    3    0    0 -0.19210518827E+02 -0.14636408067E+02  0.13405038559E+02  0.27621794538E+02  0.00000000000E+00 0.  1.
</event>
<event>
 7    1  0.6726285E-013  0.5052886E+02  0.7816164E-02  0.1300439E+00
        -11   -1    0    0    0    0  0.00000000000E+00  0.00000000000E+00  0.45593999997E+02  0.45594000000E+02  0.51100000000E-03 0.  1.
         11   -1    0    0    0    0 -0.00000000000E+00 -0.00000000000E+00 -0.45593999997E+02  0.45594000000E+02  0.51100000000E-03 0. -1.
    9900012    2    1    2    0    0 -0.12738318265E+02  0.30969430449E+02  0.23060682812E+02  0.50528862450E+02  0.30000007903E+02 0.  0.
         12    1    1    2    0    0  0.12738318265E+02 -0.30969430449E+02 -0.23060682812E+02  0.40659137550E+02  0.00000000000E+00 0. -1.
         11    1    3    3    0    0 -0.48592175970E+01  0.90484377920E+00 -0.20403608992E+01  0.53473180923E+01  0.51100000000E-03 0. -1.
        -11    1    3    3    0    0 -0.71401987905E+01  0.14809204578E+02  0.77585184289E+00  0.16458946665E+02  0.51100000000E-03 0.  1.
        -12    1    3    3    0    0 -0.73890187709E+00  0.15255382092E+02  0.24325191869E+02  0.28722597692E+02  0.00000000000E+00 0.  1.
</event>
<event>
 7    1  0.6726285E-013  0.5052886E+02  0.7816164E-02  0.1300439E+00
        -11   -1    0    0    0    0  0.00000000000E+00  0.00000000000E+00  0.45593999997E+02  0.45594000000E+02  0.51100000000E-03 0. -1.
         11   -1    0    0    0    0 -0.00000000000E+00 -0.00000000000E+00 -0.45593999997E+02  0.45594000000E+02  0.51100000000E-03 0.  1.
    9900012    2    1    2    0    0  0.29910200126E+01  0.36406584660E+02 -0.17854407531E+02  0.50528862335E+02  0.30000007555E+02 0.  0.
         12    1    1    2    0    0 -0.29910200126E+01 -0.36406584660E+02  0.17854407531E+02  0.40659137665E+02  0.00000000000E+00 0. -1.
         11    1    3    3    0    0  0.90898913673E+01  0.15207067905E+02 -0.14547117031E+02  0.22923779215E+02  0.51100000000E-03 0. -1.
        -11    1    3    3    0    0 -0.30617183664E+01  0.21335209174E-01 -0.52966620462E+01  0.61179411275E+01  0.51100000000E-03 0.  1.
        -12    1    3    3    0    0 -0.30371529882E+01  0.21178181546E+02  0.19893715460E+01  0.21487141993E+02  0.00000000000E+00 0.  1.
</event>
<event>
 7    1  0.6726285E-013  0.5052887E+02  0.7816164E-02  0.1300439E+00
        -11   -1    0    0    0    0  0.00000000000E+00  0.00000000000E+00  0.45593999997E+02  0.45594000000E+02  0.51100000000E-03 0. -1.
         11   -1    0    0    0    0 -0.00000000000E+00 -0.00000000000E+00 -0.45593999997E+02  0.45594000000E+02  0.51100000000E-03 0.  1.
    9900012    2    1    2    0    0  0.33855082387E+02 -0.12321580998E+02 -0.18846145636E+02  0.50528866130E+02  0.30000019088E+02 0.  0.
         12    1    1    2    0    0 -0.33855082387E+02  0.12321580998E+02  0.18846145636E+02  0.40659133870E+02  0.00000000000E+00 0. -1.
         11    1    3    3    0    0 -0.22227302978E+01 -0.54028163994E+01  0.67080480706E+00  0.58805556177E+01  0.51100000000E-03 0. -1.
        -11    1    3    3    0    0  0.53256812148E+01  0.37564876705E+01 -0.75310538776E+01  0.99594604668E+01  0.51100000000E-03 0.  1.
        -12    1    3    3    0    0  0.30752131470E+02 -0.10675252270E+02 -0.11985896565E+02  0.34688850045E+02  0.00000000000E+00 0.  1.
</event>
<event>
 7    1  0.6726285E-013  0.5052886E+02  0.7816164E-02  0.1300439E+00
        -11   -1    0    0    0    0  0.00000000000E+00  0.00000000000E+00  0.45593999997E+02  0.45594000000E+02  0.51100000000E-03 0. -1.
         11   -1    0    0    0    0 -0.00000000000E+00 -0.00000000000E+00 -0.45593999997E+02  0.45594000000E+02  0.51100000000E-03 0.  1.
    9900012    2    1    2    0    0 -0.38404399625E+02 -0.71667572626E+01 -0.11265222792E+02  0.50528861239E+02  0.30000004223E+02 0.  0.
         12    1    1    2    0    0  0.38404399625E+02  0.71667572626E+01  0.11265222792E+02  0.40659138761E+02  0.00000000000E+00 0. -1.
         11    1    3    3    0    0 -0.20099508408E+02 -0.45980242240E+01  0.77009939814E+01  0.22009938064E+02  0.51100000000E-03 0. -1.
        -11    1    3    3    0    0 -0.68713695563E+01 -0.12153085973E+01 -0.81673661682E+00  0.70256496872E+01  0.51100000000E-03 0.  1.
        -12    1    3    3    0    0 -0.11433521660E+02 -0.13534244413E+01 -0.18149480157E+02  0.21493273488E+02  0.00000000000E+00 0.  1.
</event>
<event>
 7    1  0.6726285E-013  0.5052886E+02  0.7816164E-02  0.1300439E+00
        -11   -1    0    0    0    0  0.00000000000E+00  0.00000000000E+00  0.45593999997E+02  0.45594000000E+02  0.51100000000E-03 0.  1.
         11   -1    0    0    0    0 -0.00000000000E+00 -0.00000000000E+00 -0.45593999997E+02  0.45594000000E+02  0.51100000000E-03 0. -1.
    9900012    2    1    2    0    0  0.17174987174E+02  0.21233845768E+02  0.30121575234E+02  0.50528859760E+02  0.29999999726E+02 0.  0.
         12    1    1    2    0    0 -0.17174987174E+02 -0.21233845768E+02 -0.30121575234E+02  0.40659140240E+02  0.00000000000E+00 0. -1.
         11    1    3    3    0    0  0.47458805458E+01  0.14394927430E+02  0.22552421443E+02  0.27172578661E+02  0.51100000000E-03 0. -1.
        -11    1    3    3    0    0  0.14480523629E+02  0.10015055030E+02  0.83647492859E+01  0.19492458098E+02  0.51100000000E-03 0.  1.
         12    1    3    3    0    0 -0.20514170009E+01 -0.31761366914E+01 -0.79559549529E+00  0.38638230014E+01  0.00000000000E+00 0. -1.
</event>
<event>
 7    1  0.6726285E-013  0.5052886E+02  0.7816164E-02  0.1300439E+00
        -11   -1    0    0    0    0  0.00000000000E+00  0.00000000000E+00  0.45593999997E+02  0.45594000000E+02  0.51100000000E-03 0. -1.
         11   -1    0    0    0    0 -0.00000000000E+00 -0.00000000000E+00 -0.45593999997E+02  0.45594000000E+02  0.51100000000E-03 0.  1.
    9900012    2    1    2    0    0  0.13184881406E+02 -0.38306585095E+02 -0.34540409812E+01  0.50528856398E+02  0.29999989508E+02 0.  0.
         12    1    1    2    0    0 -0.13184881406E+02  0.38306585095E+02  0.34540409812E+01  0.40659143602E+02  0.00000000000E+00 0. -1.
         11    1    3    3    0    0  0.73792069806E+01 -0.11972964470E+02  0.22885405952E+01  0.14249280409E+02  0.51100000000E-03 0. -1.
        -11    1    3    3    0    0  0.11409657142E+02 -0.25462906242E+02  0.41882066994E+00  0.27905470457E+02  0.51100000000E-03 0.  1.
         12    1    3    3    0    0 -0.56039827169E+01 -0.87071438343E+00 -0.61614022464E+01  0.83741055325E+01  0.00000000000E+00 0. -1.
</event>
<event>
 7    1  0.6726285E-013  0.5052886E+02  0.7816164E-02  0.1300439E+00
        -11   -1    0    0    0    0  0.00000000000E+00  0.00000000000E+00  0.45593999997E+02  0.45594000000E+02  0.51100000000E-03 0.  1.
         11   -1    0    0    0    0 -0.00000000000E+00 -0.00000000000E+00 -0.45593999997E+02  0.45594000000E+02  0.51100000000E-03 0. -1.
    9900012    2    1    2    0    0 -0.24227787617E+02 -0.74454737295E+01  0.31792216845E+02  0.50528858054E+02  0.29999994541E+02 0.  0.
         12    1    1    2    0    0  0.24227787617E+02  0.74454737295E+01 -0.31792216845E+02  0.40659141946E+02  0.00000000000E+00 0. -1.
         11    1    3    3    0    0 -0.46072837769E+00 -0.50956956439E+01  0.41951039365E+01  0.66164402841E+01  0.51100000000E-03 0.  1.
        -11    1    3    3    0    0 -0.12426297298E+01  0.28778544056E+00 -0.44632311722E+01  0.46419157535E+01  0.51100000000E-03 0. -1.
        -12    1    3    3    0    0 -0.22524429509E+02 -0.26375635262E+01  0.32060344080E+02  0.39270502017E+02  0.00000000000E+00 0.  1.
</event>
<event>
 7    1  0.6726285E-013  0.5052886E+02  0.7816164E-02  0.1300439E+00
        -11   -1    0    0    0    0  0.00000000000E+00  0.00000000000E+00  0.45593999997E+02  0.45594000000E+02  0.51100000000E-03 0. -1.
         11   -1    0    0    0    0 -0.00000000000E+00 -0.00000000000E+00 -0.45593999997E+02  0.45594000000E+02  0.51100000000E-03 0.  1.
    9900012    2    1    2    0    0 -0.29258273554E+02 -0.14708410534E+02  0.24099409385E+02  0.50528862718E+02  0.30000008719E+02 0.  0.
         12    1    1    2    0    0  0.29258273554E+02  0.14708410534E+02 -0.24099409385E+02  0.40659137282E+02  0.00000000000E+00 0. -1.
         11    1    3    3    0    0 -0.92313759174E+01 -0.27466658344E+01  0.10048758036E+02  0.13919052154E+02  0.51100000000E-03 0. -1.
        -11    1    3    3    0    0 -0.12993579645E+02 -0.16458446467E+02  0.17755455685E+02  0.27476713394E+02  0.51100000000E-03 0.  1.
        -12    1    3    3    0    0 -0.70333179915E+01  0.44967017675E+01 -0.37048043360E+01  0.91330971704E+01  0.00000000000E+00 0.  1.
</event>
<event>
 7    1  0.6726285E-013  0.5052886E+02  0.7816164E-02  0.1300439E+00
        -11   -1    0    0    0    0  0.00000000000E+00  0.00000000000E+00  0.45593999997E+02  0.45594000000E+02  0.51100000000E-03 0. -1.
         11   -1    0    0    0    0 -0.00000000000E+00 -0.00000000000E+00 -0.45593999997E+02  0.45594000000E+02  0.51100000000E-03 0.  1.
    9900012    2    1    2    0    0 -0.29984098478E+02  0.25571453476E+02 -0.10011006810E+02  0.50528860170E+02  0.30000000973E+02 0.  0.
         12    1    1    2    0    0  0.29984098478E+02 -0.25571453476E+02  0.10011006810E+02  0.40659139830E+02  0.00000000000E+00 0. -1.
         11    1    3    3    0    0 -0.79082900255E+01 -0.61879918919E+01 -0.17580424589E+01  0.10194263501E+02  0.51100000000E-03 0. -1.
        -11    1    3    3    0    0 -0.47459177306E+01  0.35994635317E+01 -0.35565499121E+01  0.69375010169E+01  0.51100000000E-03 0.  1.
         12    1    3    3    0    0 -0.17329890721E+02  0.28159981836E+02 -0.46964144390E+01  0.33397095652E+02  0.00000000000E+00 0. -1.
</event>
<event>
 7    1  0.6726285E-013  0.5052887E+02  0.7816164E-02  0.1300439E+00
        -11   -1    0    0    0    0  0.00000000000E+00  0.00000000000E+00  0.45593999997E+02  0.45594000000E+02  0.51100000000E-03 0.  1.
         11   -1    0    0    0    0 -0.00000000000E+00 -0.00000000000E+00 -0.45593999997E+02  0.45594000000E+02  0.51100000000E-03 0. -1.
    9900012    2    1    2    0    0 -0.58942886603E-02 -0.21269184861E+02  0.34652368277E+02  0.50528869579E+02  0.30000029573E+02 0.  0.
         12    1    1    2    0    0  0.58942886603E-02  0.21269184861E+02 -0.34652368277E+02  0.40659130421E+02  0.00000000000E+00 0. -1.
         11    1    3    3    0    0  0.23939542933E+01 -0.74628069329E+00 -0.21863303603E+00  0.25170921114E+01  0.51100000000E-03 0. -1.
        -11    1    3    3    0    0  0.69418192817E+01 -0.84763513286E+01  0.11639159698E+01  0.11017807742E+02  0.51100000000E-03 0.  1.
        -12    1    3    3    0    0 -0.93416678637E+01 -0.12046552839E+02  0.33707085343E+02  0.36993969726E+02  0.00000000000E+00 0.  1.
</event>
<event>
 7    1  0.6726285E-013  0.5052887E+02  0.7816164E-02  0.1300439E+00
        -11   -1    0    0    0    0  0.00000000000E+00  0.00000000000E+00  0.45593999997E+02  0.45594000000E+02  0.51100000000E-03 0.  1.
         11   -1    0    0    0    0 -0.00000000000E+00 -0.00000000000E+00 -0.45593999997E+02  0.45594000000E+02  0.51100000000E-03 0. -1.
    9900012    2    1    2    0    0  0.30407856013E+02  0.12737534452E+02  0.23796682722E+02  0.50528873106E+02  0.30000040292E+02 0.  0.
         12    1    1    2    0    0 -0.30407856013E+02 -0.12737534452E+02 -0.23796682722E+02  0.40659126894E+02  0.00000000000E+00 0. -1.
         11    1    3    3    0    0  0.22548654101E+00  0.29525839021E+01 -0.51253381217E+01  0.59192640591E+01  0.51100000000E-03 0.  1.
        -11    1    3    3    0    0  0.34587916268E+01 -0.26735302211E+01  0.26102287335E+01  0.50915908774E+01  0.51100000000E-03 0. -1.
        -12    1    3    3    0    0  0.26723577845E+02  0.12458480771E+02  0.26311792110E+02  0.39518018169E+02  0.00000000000E+00 0.  1.
</event>
<event>
 7    1  0.6726285E-013  0.5052884E+02  0.7816164E-02  0.1300439E+00
        -11   -1    0    0    0    0  0.00000000000E+00  0.00000000000E+00  0.45593999997E+02  0.45594000000E+02  0.51100000000E-03 0. -1.
         11   -1    0    0    0    0 -0.00000000000E+00 -0.00000000000E+00 -0.45593999997E+02  0.45594000000E+02  0.51100000000E-03 0.  1.
    9900012    2    1    2    0    0 -0.20428257118E+02 -0.24393325921E+02 -0.25314414812E+02  0.50528835773E+02  0.29999926816E+02 0.  0.
         12    1    1    2    0    0  0.20428257118E+02  0.24393325921E+02  0.25314414812E+02  0.40659164227E+02  0.00000000000E+00 0. -1.
         11    1    3    3    0    0  0.93035266452E-01 -0.14514024592E+02 -0.10158102805E+02  0.17715886043E+02  0.51100000000E-03 0. -1.
        -11    1    3    3    0    0 -0.91877732723E+01 -0.14025266626E+02 -0.65978218340E+01  0.18018172350E+02  0.51100000000E-03 0.  1.
        -12    1    3    3    0    0 -0.11333519113E+02  0.41459652961E+01 -0.85584901723E+01  0.14794777381E+02  0.00000000000E+00 0.  1.
</event>
<event>
 7    1  0.6726285E-013  0.5052888E+02  0.7816164E-02  0.1300439E+00
        -11   -1    0    0    0    0  0.00000000000E+00  0.00000000000E+00  0.45593999997E+02  0.45594000000E+02  0.51100000000E-03 0. -1.
         11   -1    0    0    0    0 -0.00000000000E+00 -0.00000000000E+00 -0.45593999997E+02  0.45594000000E+02  0.51100000000E-03 0.  1.
    9900012    2    1    2    0    0 -0.12986787669E+02  0.23025382674E+01 -0.38460438909E+02  0.50528884202E+02  0.30000074019E+02 0.  0.
         12    1    1    2    0    0  0.12986787669E+02 -0.23025382674E+01  0.38460438909E+02  0.40659115798E+02  0.00000000000E+00 0. -1.
         11    1    3    3    0    0 -0.15100049404E+01  0.34178807240E+01 -0.24101853489E+01  0.44464612042E+01  0.51100000000E-03 0. -1.
        -11    1    3    3    0    0 -0.16982398556E+02  0.74277218928E+01 -0.23720119138E+02  0.30103437767E+02  0.51100000000E-03 0.  1.
         12    1    3    3    0    0  0.55056158270E+01 -0.85430643495E+01 -0.12330134422E+02  0.15978985230E+02  0.00000000000E+00 0. -1.
</event>
<event>
 7    1  0.6726285E-013  0.5052886E+02  0.7816164E-02  0.1300439E+00
        -11   -1    0    0    0    0  0.00000000000E+00  0.00000000000E+00  0.45593999997E+02  0.45594000000E+02  0.51100000000E-03 0.  1.
         11   -1    0    0    0    0 -0.00000000000E+00 -0.00000000000E+00 -0.45593999997E+02  0.45594000000E+02  0.51100000000E-03 0. -1.
    9900012    2    1    2    0    0 -0.57903782120E+01  0.22421661896E+02  0.33420150567E+02  0.50528857536E+02  0.29999992965E+02 0.  0.
         12    1    1    2    0    0  0.57903782120E+01 -0.22421661896E+02 -0.33420150567E+02  0.40659142464E+02  0.00000000000E+00 0. -1.
         11    1    3    3    0    0 -0.21871750017E+01  0.10133923366E+02  0.88927700613E+01  0.13658751659E+02  0.51100000000E-03 0.  1.
        -11    1    3    3    0    0 -0.10034770534E+02  0.15203481262E+02  0.10153141014E+02  0.20854945094E+02  0.51100000000E-03 0. -1.
         12    1    3    3    0    0  0.64315673236E+01 -0.29157427318E+01  0.14374239492E+02  0.16015160782E+02  0.00000000000E+00 0. -1.
</event>
<event>
 7    1  0.6730376E-013  0.5052886E+02  0.7816164E-02  0.1300439E+00
        -11   -1    0    0    0    0  0.00000000000E+00  0.00000000000E+00  0.45593999997E+02  0.45594000000E+02  0.51100000000E-03 0.  1.
         11   -1    0    0    0    0 -0.00000000000E+00 -0.00000000000E+00 -0.45593999997E+02  0.45594000000E+02  0.51100000000E-03 0. -1.
    9900012    2    1    2    0    0  0.17081023329E+02 -0.34265318161E+02  0.13685464539E+02  0.50528864172E+02  0.30000013137E+02 0.  0.
         12    1    1    2    0    0 -0.17081023329E+02  0.34265318161E+02 -0.13685464539E+02  0.40659135828E+02  0.00000000000E+00 0. -1.
         11    1    3    3    0    0  0.29546583493E+01 -0.12189916975E+02  0.15585238125E+02  0.20005592455E+02  0.51100000000E-03 0. -1.
        -11    1    3    3    0    0  0.14116781708E+02 -0.10055557432E+02  0.29141653977E+01  0.17575270163E+02  0.51100000000E-03 0.  1.
         12    1    3    3    0    0  0.95832713856E-02 -0.12019843754E+02 -0.48139389832E+01  0.12948001554E+02  0.00000000000E+00 0. -1.
</event>
<event>
 7    1  0.6726285E-013  0.5052887E+02  0.7816164E-02  0.1300439E+00
        -11   -1    0    0    0    0  0.00000000000E+00  0.00000000000E+00  0.45593999997E+02  0.45594000000E+02  0.51100000000E-03 0.  1.
         11   -1    0    0    0    0 -0.00000000000E+00 -0.00000000000E+00 -0.45593999997E+02  0.45594000000E+02  0.51100000000E-03 0. -1.
    9900012    2    1    2    0    0 -0.49779708045E+01 -0.21754718337E+02  0.33987011878E+02  0.50528868926E+02  0.30000027588E+02 0.  0.
         12    1    1    2    0    0  0.49779708045E+01  0.21754718337E+02 -0.33987011878E+02  0.40659131074E+02  0.00000000000E+00 0. -1.
         11    1    3    3    0    0  0.66846938746E+01 -0.85848152535E+01  0.35746886025E+01  0.11452623455E+02  0.51100000000E-03 0. -1.
        -11    1    3    3    0    0  0.12394244629E+01 -0.22319899619E+01 -0.14980822759E+01  0.29601018489E+01  0.51100000000E-03 0.  1.
        -12    1    3    3    0    0 -0.12902089142E+02 -0.10937913122E+02  0.31910405552E+02  0.36116143622E+02  0.00000000000E+00 0.  1.
</event>
<event>
 7    1  0.6726285E-013  0.5052887E+02  0.7816164E-02  0.1300439E+00
        -11   -1    0    0    0    0  0.00000000000E+00  0.00000000000E+00  0.45593999997E+02  0.45594000000E+02  0.51100000000E-03 0.  1.
         11   -1    0    0    0    0 -0.00000000000E+00 -0.00000000000E+00 -0.45593999997E+02  0.45594000000E+02  0.51100000000E-03 0. -1.
    9900012    2    1    2    0    0  0.26283319291E+02 -0.24544648780E+02  0.18971348749E+02  0.50528871504E+02  0.30000035423E+02 0.  0.
         12    1    1    2    0    0 -0.26283319291E+02  0.24544648780E+02 -0.18971348749E+02  0.40659128496E+02  0.00000000000E+00 0. -1.
         11    1    3    3    0    0  0.24990119739E+01  0.51233907788E+01  0.28093000546E+01  0.63550264339E+01  0.51100000000E-03 0. -1.
        -11    1    3    3    0    0  0.74749571188E+01 -0.10986952273E+02 -0.19963780021E+01  0.13437768772E+02  0.51100000000E-03 0.  1.
        -12    1    3    3    0    0  0.16309350199E+02 -0.18681087286E+02  0.18158426697E+02  0.30736076298E+02  0.00000000000E+00 0.  1.
</event>
<event>
 7    1  0.6726285E-013  0.5052887E+02  0.7816164E-02  0.1300439E+00
        -11   -1    0    0    0    0  0.00000000000E+00  0.00000000000E+00  0.45593999997E+02  0.45594000000E+02  0.51100000000E-03 0.  1.
         11   -1    0    0    0    0 -0.00000000000E+00 -0.00000000000E+00 -0.45593999997E+02  0.45594000000E+02  0.51100000000E-03 0. -1.
    9900012    2    1    2    0    0 -0.26491242476E+02 -0.19573038155E+02  0.23838521674E+02  0.50528869831E+02  0.30000030338E+02 0.  0.
         12    1    1    2    0    0  0.26491242476E+02  0.19573038155E+02 -0.23838521674E+02  0.40659130169E+02  0.00000000000E+00 0. -1.
         11    1    3    3    0    0 -0.10190296294E+02 -0.28418560439E+01  0.26692176806E+01  0.10910683187E+02  0.51100000000E-03 0.  1.
        -11    1    3    3    0    0 -0.20464579020E+02 -0.75529703855E+01  0.84580844672E+01  0.23396272123E+02  0.51100000000E-03 0. -1.
         12    1    3    3    0    0  0.41636328380E+01 -0.91782117256E+01  0.12711219526E+02  0.16221914521E+02  0.00000000000E+00 0. -1.
</event>
<event>
 7    1  0.6726285E-013  0.5052886E+02  0.7816164E-02  0.1300439E+00
        -11   -1    0    0    0    0  0.00000000000E+00  0.00000000000E+00  0.45593999997E+02  0.45594000000E+02  0.51100000000E-03 0.  1.
         11   -1    0    0    0    0 -0.00000000000E+00 -0.00000000000E+00 -0.45593999997E+02  0.45594000000E+02  0.51100000000E-03 0. -1.
    9900012    2    1    2    0    0  0.91544427549E+01 -0.17742115845E+02  0.35420033720E+02  0.50528864673E+02  0.30000014661E+02 0.  0.
         12    1    1    2    0    0 -0.91544427549E+01  0.17742115845E+02 -0.35420033720E+02  0.40659135327E+02  0.00000000000E+00 0. -1.
         11    1    3    3    0    0  0.50336354256E+01  0.36310391741E+01  0.16206030676E+01  0.64146929502E+01  0.51100000000E-03 0.  1.
        -11    1    3    3    0    0  0.29857104024E+01 -0.13720811956E+02  0.33554570291E+02  0.36374226246E+02  0.51100000000E-03 0. -1.
         12    1    3    3    0    0  0.11350969268E+01 -0.76523430631E+01  0.24486036109E+00  0.77399454768E+01  0.00000000000E+00 0. -1.
</event>
<event>
 7    1  0.6726285E-013  0.5052886E+02  0.7816164E-02  0.1300439E+00
        -11   -1    0    0    0    0  0.00000000000E+00  0.00000000000E+00  0.45593999997E+02  0.45594000000E+02  0.51100000000E-03 0. -1.
         11   -1    0    0    0    0 -0.00000000000E+00 -0.00000000000E+00 -0.45593999997E+02  0.45594000000E+02  0.51100000000E-03 0.  1.
    9900012    2    1    2    0    0 -0.28306753346E+01  0.37744084256E+02 -0.14850486282E+02  0.50528861273E+02  0.30000004326E+02 0.  0.
         12    1    1    2    0    0  0.28306753346E+01 -0.37744084256E+02  0.14850486282E+02  0.40659138727E+02  0.00000000000E+00 0. -1.
         11    1    3    3    0    0 -0.88658816181E+01  0.13760620725E+02  0.20723131660E+01  0.16500091567E+02  0.51100000000E-03 0. -1.
        -11    1    3    3    0    0  0.38668413884E+01  0.25239476471E+02 -0.11398397320E+02  0.27962601749E+02  0.51100000000E-03 0.  1.
         12    1    3    3    0    0  0.21683648951E+01 -0.12560129393E+01 -0.55244021274E+01  0.60661679574E+01  0.00000000000E+00 0. -1.
</event>
<event>
 7    1  0.6726285E-013  0.5052886E+02  0.7816164E-02  0.1300439E+00
        -11   -1    0    0    0    0  0.00000000000E+00  0.00000000000E+00  0.45593999997E+02  0.45594000000E+02  0.51100000000E-03 0.  1.
         11   -1    0    0    0    0 -0.00000000000E+00 -0.00000000000E+00 -0.45593999997E+02  0.45594000000E+02  0.51100000000E-03 0. -1.
    9900012    2    1    2    0    0  0.13508048446E+02 -0.20709454493E+02  0.32277187596E+02  0.50528859363E+02  0.29999998520E+02 0.  0.
         12    1    1    2    0    0 -0.13508048446E+02  0.20709454493E+02 -0.32277187596E+02  0.40659140637E+02  0.00000000000E+00 0. -1.
         11    1    3    3    0    0  0.65135722454E+01 -0.13905233051E+02  0.12694258332E+02  0.19923009925E+02  0.51100000000E-03 0.  1.
        -11    1    3    3    0    0  0.56466964973E+01 -0.10528642569E+02  0.14378258541E+01  0.12033488236E+02  0.51100000000E-03 0. -1.
        -12    1    3    3    0    0  0.13477797035E+01  0.37244211277E+01  0.18145103410E+02  0.18572361202E+02  0.00000000000E+00 0.  1.
</event>
<event>
 7    1  0.6726285E-013  0.5052886E+02  0.7816164E-02  0.1300439E+00
        -11   -1    0    0    0    0  0.00000000000E+00  0.00000000000E+00  0.45593999997E+02  0.45594000000E+02  0.51100000000E-03 0.  1.
         11   -1    0    0    0    0 -0.00000000000E+00 -0.00000000000E+00 -0.45593999997E+02  0.45594000000E+02  0.51100000000E-03 0. -1.
    9900012    2    1    2    0    0  0.80052083490E+01  0.29085373023E+02  0.27260293833E+02  0.50528857062E+02  0.29999991526E+02 0.  0.
         12    1    1    2    0    0 -0.80052083490E+01 -0.29085373023E+02 -0.27260293833E+02  0.40659142938E+02  0.00000000000E+00 0. -1.
         11    1    3    3    0    0  0.58447164858E+01  0.14485201189E+02  0.21927342929E+01  0.15773073519E+02  0.51100000000E-03 0. -1.
        -11    1    3    3    0    0 -0.14965235175E+01  0.18571292051E+02  0.18527811108E+02  0.26275697056E+02  0.51100000000E-03 0.  1.
        -12    1    3    3    0    0  0.36570153807E+01 -0.39711202174E+01  0.65397484314E+01  0.84800864867E+01  0.00000000000E+00 0.  1.
</event>
<event>
 7    1  0.6726285E-013  0.5052885E+02  0.7816164E-02  0.1300439E+00
        -11   -1    0    0    0    0  0.00000000000E+00  0.00000000000E+00  0.45593999997E+02  0.45594000000E+02  0.51100000000E-03 0. -1.
         11   -1    0    0    0    0 -0.00000000000E+00 -0.00000000000E+00 -0.45593999997E+02  0.45594000000E+02  0.51100000000E-03 0.  1.
    9900012    2    1    2    0    0 -0.29183317340E+02 -0.25325923723E+02 -0.12652970825E+02  0.50528854730E+02  0.29999984436E+02 0.  0.
         12    1    1    2    0    0  0.29183317340E+02  0.25325923723E+02  0.12652970825E+02  0.40659145270E+02  0.00000000000E+00 0. -1.
         11    1    3    3    0    0  0.36260420886E+01  0.10081497444E+01  0.21042993454E+00  0.37694599286E+01  0.51100000000E-03 0. -1.
        -11    1    3    3    0    0 -0.40487624189E+01  0.15027233780E+01 -0.37262182641E+01  0.57039773394E+01  0.51100000000E-03 0.  1.
         12    1    3    3    0    0 -0.28760597010E+02 -0.27836796846E+02 -0.91371824953E+01  0.41055417462E+02  0.00000000000E+00 0. -1.
</event>
<event>
 7    1  0.6726285E-013  0.5052887E+02  0.7816164E-02  0.1300439E+00
        -11   -1    0    0    0    0  0.00000000000E+00  0.00000000000E+00  0.45593999997E+02  0.45594000000E+02  0.51100000000E-03 0. -1.
         11   -1    0    0    0    0 -0.00000000000E+00 -0.00000000000E+00 -0.45593999997E+02  0.45594000000E+02  0.51100000000E-03 0.  1.
    9900012    2    1    2    0    0  0.20076852453E+02  0.34627409803E+02  0.71433329354E+01  0.50528871634E+02  0.30000035818E+02 0.  0.
         12    1    1    2    0    0 -0.20076852453E+02 -0.34627409803E+02 -0.71433329354E+01  0.40659128366E+02  0.00000000000E+00 0. -1.
         11    1    3    3    0    0  0.34433084132E+01 -0.45644255590E+01  0.26332068338E+01  0.62947702105E+01  0.51100000000E-03 0. -1.
        -11    1    3    3    0    0  0.65036023266E+01  0.11964746736E+02  0.65513771079E+01  0.15112000197E+02  0.51100000000E-03 0.  1.
        -12    1    3    3    0    0  0.10129941713E+02  0.27227088626E+02 -0.20412510063E+01  0.29122101226E+02  0.00000000000E+00 0.  1.
</event>
<event>
 7    1  0.6726285E-013  0.5052886E+02  0.7816164E-02  0.1300439E+00
        -11   -1    0    0    0    0  0.00000000000E+00  0.00000000000E+00  0.45593999997E+02  0.45594000000E+02  0.51100000000E-03 0.  1.
         11   -1    0    0    0    0 -0.00000000000E+00 -0.00000000000E+00 -0.45593999997E+02  0.45594000000E+02  0.51100000000E-03 0. -1.
    9900012    2    1    2    0    0 -0.31657445140E+02 -0.22013236728E+02 -0.12899188849E+02  0.50528862073E+02  0.30000006757E+02 0.  0.
         12    1    1    2    0    0  0.31657445140E+02  0.22013236728E+02  0.12899188849E+02  0.40659137927E+02  0.00000000000E+00 0. -1.
         11    1    3    3    0    0 -0.15513961787E+02 -0.12202990586E+02 -0.43133853265E+00  0.19742898540E+02  0.51100000000E-03 0. -1.
        -11    1    3    3    0    0 -0.11913545874E+02  0.47543225825E+01 -0.41122546111E+01  0.13470218883E+02  0.51100000000E-03 0.  1.
         12    1    3    3    0    0 -0.42299374791E+01 -0.14564568725E+02 -0.83555957055E+01  0.17315744651E+02  0.00000000000E+00 0. -1.
</event>
<event>
 7    1  0.6726285E-013  0.5052888E+02  0.7816164E-02  0.1300439E+00
        -11   -1    0    0    0    0  0.00000000000E+00  0.00000000000E+00  0.45593999997E+02  0.45594000000E+02  0.51100000000E-03 0.  1.
         11   -1    0    0    0    0 -0.00000000000E+00 -0.00000000000E+00 -0.45593999997E+02  0.45594000000E+02  0.51100000000E-03 0. -1.
    9900012    2    1    2    0    0  0.31697087322E+01  0.19616798689E+01  0.40487885587E+02  0.50528878998E+02  0.30000058201E+02 0.  0.
         12    1    1    2    0    0 -0.31697087322E+01 -0.19616798689E+01 -0.40487885587E+02  0.40659121002E+02  0.00000000000E+00 0. -1.
         11    1    3    3    0    0 -0.38943075629E+01  0.12880247844E+01  0.98916855561E+01  0.10708411770E+02  0.51100000000E-03 0. -1.
        -11    1    3    3    0    0 -0.10838333929E+01 -0.76913471616E+01  0.26226137387E+02  0.27352180872E+02  0.51100000000E-03 0.  1.
        -12    1    3    3    0    0  0.81478496880E+01  0.83650022461E+01  0.43700626446E+01  0.12468286355E+02  0.00000000000E+00 0.  1.
</event>
<event>
 7    1  0.6726285E-013  0.5052888E+02  0.7816164E-02  0.1300439E+00
        -11   -1    0    0    0    0  0.00000000000E+00  0.00000000000E+00  0.45593999997E+02  0.45594000000E+02  0.51100000000E-03 0. -1.
         11   -1    0    0    0    0 -0.00000000000E+00 -0.00000000000E+00 -0.45593999997E+02  0.45594000000E+02  0.51100000000E-03 0.  1.
    9900012    2    1    2    0    0 -0.93299413984E+01 -0.54513670543E+01 -0.39196921933E+02  0.50528881732E+02  0.30000066513E+02 0.  0.
         12    1    1    2    0    0  0.93299413984E+01  0.54513670543E+01  0.39196921933E+02  0.40659118268E+02  0.00000000000E+00 0. -1.
         11    1    3    3    0    0 -0.69749669362E+01  0.10398656255E+02 -0.83094561826E+01  0.15027617176E+02  0.51100000000E-03 0. -1.
        -11    1    3    3    0    0 -0.61055177595E+00  0.65993405367E+00 -0.15205285074E+01  0.17664352887E+01  0.51100000000E-03 0.  1.
        -12    1    3    3    0    0 -0.17444226863E+01 -0.16509957363E+02 -0.29366937243E+02  0.33734829267E+02  0.00000000000E+00 0.  1.
</event>
<event>
 7    1  0.6726285E-013  0.5052886E+02  0.7816164E-02  0.1300439E+00
        -11   -1    0    0    0    0  0.00000000000E+00  0.00000000000E+00  0.45593999997E+02  0.45594000000E+02  0.51100000000E-03 0.  1.
         11   -1    0    0    0    0 -0.00000000000E+00 -0.00000000000E+00 -0.45593999997E+02  0.45594000000E+02  0.51100000000E-03 0. -1.
    9900012    2    1    2    0    0  0.98103289851E+01 -0.10151034905E+02  0.38129769138E+02  0.50528863770E+02  0.30000011916E+02 0.  0.
         12    1    1    2    0    0 -0.98103289851E+01  0.10151034905E+02 -0.38129769138E+02  0.40659136230E+02  0.00000000000E+00 0. -1.
         11    1    3    3    0    0  0.41593657495E+01 -0.70882892320E+01  0.64044038577E+01  0.10419239737E+02  0.51100000000E-03 0.  1.
        -11    1    3    3    0    0 -0.66839008226E+01 -0.19265378627E+01  0.25132410494E+02  0.26077272401E+02  0.51100000000E-03 0. -1.
         12    1    3    3    0    0  0.12334864058E+02 -0.11362078101E+01  0.65929547859E+01  0.14032351632E+02  0.00000000000E+00 0. -1.
</event>
<event>
 7    1  0.6726285E-013  0.5052888E+02  0.7816164E-02  0.1300439E+00
        -11   -1    0    0    0    0  0.00000000000E+00  0.00000000000E+00  0.45593999997E+02  0.45594000000E+02  0.51100000000E-03 0.  1.
         11   -1    0    0    0    0 -0.00000000000E+00 -0.00000000000E+00 -0.45593999997E+02  0.45594000000E+02  0.51100000000E-03 0. -1.
    9900012    2    1    2    0    0 -0.38445782203E+02 -0.79974617893E+01  0.10541665266E+02  0.50528877151E+02  0.30000052588E+02 0.  0.
         12    1    1    2    0    0  0.38445782203E+02  0.79974617893E+01 -0.10541665266E+02  0.40659122849E+02  0.00000000000E+00 0. -1.
         11    1    3    3    0    0  0.11179684343E+01  0.31988541432E+01  0.41563294073E+01  0.53626108988E+01  0.51100000000E-03 0. -1.
        -11    1    3    3    0    0 -0.65991476738E+01  0.24992032595E+01 -0.38406709914E+01  0.80340227084E+01  0.51100000000E-03 0.  1.
        -12    1    3    3    0    0 -0.32964602964E+02 -0.13695519192E+02  0.10226006850E+02  0.37132243544E+02  0.00000000000E+00 0.  1.
</event>
<event>
 7    1  0.6726285E-013  0.5052886E+02  0.7816164E-02  0.1300439E+00
        -11   -1    0    0    0    0  0.00000000000E+00  0.00000000000E+00  0.45593999997E+02  0.45594000000E+02  0.51100000000E-03 0. -1.
         11   -1    0    0    0    0 -0.00000000000E+00 -0.00000000000E+00 -0.45593999997E+02  0.45594000000E+02  0.51100000000E-03 0.  1.
    9900012    2    1    2    0    0  0.29724425428E+02 -0.56700496759E+01 -0.27156489582E+02  0.50528857649E+02  0.29999993310E+02 0.  0.
         12    1    1    2    0    0 -0.29724425428E+02  0.56700496759E+01  0.27156489582E+02  0.40659142351E+02  0.00000000000E+00 0. -1.
         11    1    3    3    0    0  0.83139020775E+01 -0.55159469397E+01 -0.91115465630E+01  0.13511732658E+02  0.51100000000E-03 0. -1.
        -11    1    3    3    0    0  0.17605622418E+02 -0.98064006266E+01 -0.58057534658E+01  0.20972129304E+02  0.51100000000E-03 0.  1.
         12    1    3    3    0    0  0.38049009317E+01  0.96522978904E+01 -0.12239189553E+02  0.16044995686E+02  0.00000000000E+00 0. -1.
</event>
<event>
 7    1  0.6726285E-013  0.5052885E+02  0.7816164E-02  0.1300439E+00
        -11   -1    0    0    0    0  0.00000000000E+00  0.00000000000E+00  0.45593999997E+02  0.45594000000E+02  0.51100000000E-03 0. -1.
         11   -1    0    0    0    0 -0.00000000000E+00 -0.00000000000E+00 -0.45593999997E+02  0.45594000000E+02  0.51100000000E-03 0.  1.
    9900012    2    1    2    0    0  0.10255359399E+02 -0.35160278817E+02 -0.17656403391E+02  0.50528853629E+02  0.29999981090E+02 0.  0.
         12    1    1    2    0    0 -0.10255359399E+02  0.35160278817E+02  0.17656403391E+02  0.40659146371E+02  0.00000000000E+00 0. -1.
         11    1    3    3    0    0  0.55832491188E+01 -0.16836030752E+02 -0.12834266079E+02  0.21893902992E+02  0.51100000000E-03 0. -1.
        -11    1    3    3    0    0  0.41864886811E+01 -0.10187693096E+02 -0.13033962610E+02  0.17064582024E+02  0.51100000000E-03 0.  1.
         12    1    3    3    0    0  0.48562159907E+00 -0.81365549697E+01  0.82118252973E+01  0.11570368612E+02  0.00000000000E+00 0. -1.
</event>
<event>
 7    1  0.6726285E-013  0.5052889E+02  0.7816164E-02  0.1300439E+00
        -11   -1    0    0    0    0  0.00000000000E+00  0.00000000000E+00  0.45593999997E+02  0.45594000000E+02  0.51100000000E-03 0.  1.
         11   -1    0    0    0    0 -0.00000000000E+00 -0.00000000000E+00 -0.45593999997E+02  0.45594000000E+02  0.51100000000E-03 0. -1.
    9900012    2    1    2    0    0 -0.20975736929E+01 -0.80819028230E+01  0.39792537483E+02  0.50528892681E+02  0.30000099794E+02 0.  0.
         12    1    1    2    0    0  0.20975736929E+01  0.80819028230E+01 -0.39792537483E+02  0.40659107319E+02  0.00000000000E+00 0. -1.
         11    1    3    3    0    0  0.48568677815E+01 -0.91615320611E+01  0.47926269771E+01  0.11423314228E+02  0.51100000000E-03 0. -1.
        -11    1    3    3    0    0  0.42676051186E+01  0.14121361924E+01  0.19224350709E+02  0.19742903599E+02  0.51100000000E-03 0.  1.
        -12    1    3    3    0    0 -0.11222046593E+02 -0.33250695432E+00  0.15775559797E+02  0.19362674854E+02  0.00000000000E+00 0.  1.
</event>
<event>
 7    1  0.6726285E-013  0.5052887E+02  0.7816164E-02  0.1300439E+00
        -11   -1    0    0    0    0  0.00000000000E+00  0.00000000000E+00  0.45593999997E+02  0.45594000000E+02  0.51100000000E-03 0.  1.
         11   -1    0    0    0    0 -0.00000000000E+00 -0.00000000000E+00 -0.45593999997E+02  0.45594000000E+02  0.51100000000E-03 0. -1.
    9900012    2    1    2    0    0 -0.83448347642E+01 -0.13609534853E+02  0.37393977416E+02  0.50528865071E+02  0.30000015870E+02 0.  0.
         12    1    1    2    0    0  0.83448347642E+01  0.13609534853E+02 -0.37393977416E+02  0.40659134929E+02  0.00000000000E+00 0. -1.
         11    1    3    3    0    0 -0.80860609816E+01 -0.19006432264E+02  0.36809182156E+02  0.42208349185E+02  0.51100000000E-03 0.  1.
        -11    1    3    3    0    0  0.38681792962E+00  0.41873088784E+01  0.32557608933E+01  0.53181917049E+01  0.51100000000E-03 0. -1.
        -12    1    3    3    0    0 -0.64559171230E+00  0.12095885325E+01 -0.26709656335E+01  0.30023241817E+01  0.00000000000E+00 0.  1.
</event>
<event>
 7    1  0.6726285E-013  0.5052886E+02  0.7816164E-02  0.1300439E+00
        -11   -1    0    0    0    0  0.00000000000E+00  0.00000000000E+00  0.45593999997E+02  0.45594000000E+02  0.51100000000E-03 0. -1.
         11   -1    0    0    0    0 -0.00000000000E+00 -0.00000000000E+00 -0.45593999997E+02  0.45594000000E+02  0.51100000000E-03 0.  1.
    9900012    2    1    2    0    0  0.38799786083E+02  0.10094886603E+02 -0.67701991389E+01  0.50528859183E+02  0.29999997973E+02 0.  0.
         12    1    1    2    0    0 -0.38799786083E+02 -0.10094886603E+02  0.67701991389E+01  0.40659140817E+02  0.00000000000E+00 0. -1.
         11    1    3    3    0    0  0.13750925442E+00  0.20005015782E+01  0.35526407922E+01  0.40794818567E+01  0.51100000000E-03 0. -1.
        -11    1    3    3    0    0  0.31034067308E+02 -0.21366110684E+01 -0.12459520184E+02  0.33509969919E+02  0.51100000000E-03 0.  1.
         12    1    3    3    0    0  0.76282095205E+01  0.10230996093E+02  0.21366802530E+01  0.12939407407E+02  0.00000000000E+00 0. -1.
</event>
<event>
 7    1  0.6726285E-013  0.5052886E+02  0.7816164E-02  0.1300439E+00
        -11   -1    0    0    0    0  0.00000000000E+00  0.00000000000E+00  0.45593999997E+02  0.45594000000E+02  0.51100000000E-03 0.  1.
         11   -1    0    0    0    0 -0.00000000000E+00 -0.00000000000E+00 -0.45593999997E+02  0.45594000000E+02  0.51100000000E-03 0. -1.
    9900012    2    1    2    0    0 -0.16079506447E+02  0.36853922261E+02  0.60335319513E+01  0.50528860542E+02  0.30000002105E+02 0.  0.
         12    1    1    2    0    0  0.16079506447E+02 -0.36853922261E+02 -0.60335319513E+01  0.40659139458E+02  0.00000000000E+00 0. -1.
         11    1    3    3    0    0 -0.27534247874E+00  0.25655834934E+02  0.72107586355E+01  0.26651317416E+02  0.51100000000E-03 0. -1.
        -11    1    3    3    0    0 -0.26377499643E+01  0.71570066939E+01 -0.55436507620E+01  0.94293442891E+01  0.51100000000E-03 0.  1.
        -12    1    3    3    0    0 -0.13166414004E+02  0.40410806331E+01  0.43664240778E+01  0.14448198837E+02  0.00000000000E+00 0.  1.
</event>
<event>
 7    1  0.6726285E-013  0.5052892E+02  0.7816164E-02  0.1300439E+00
        -11   -1    0    0    0    0  0.00000000000E+00  0.00000000000E+00  0.45593999997E+02  0.45594000000E+02  0.51100000000E-03 0.  1.
         11   -1    0    0    0    0 -0.00000000000E+00 -0.00000000000E+00 -0.45593999997E+02  0.45594000000E+02  0.51100000000E-03 0. -1.
    9900012    2    1    2    0    0  0.12188843847E+02 -0.38543611308E+02 -0.43569370101E+01  0.50528919992E+02  0.30000182808E+02 0.  0.
         12    1    1    2    0    0 -0.12188843847E+02  0.38543611308E+02  0.43569370101E+01  0.40659080008E+02  0.00000000000E+00 0. -1.
         11    1    3    3    0    0 -0.48971666851E+01  0.77397646384E+00  0.14805068881E+01  0.51742808211E+01  0.51100000000E-03 0. -1.
        -11    1    3    3    0    0 -0.22524603904E+01 -0.48953660100E+01  0.30445416912E+00  0.53973029176E+01  0.51100000000E-03 0.  1.
         12    1    3    3    0    0  0.19338470923E+02 -0.34422221761E+02 -0.61418980673E+01  0.39957336254E+02  0.00000000000E+00 0. -1.
</event>
<event>
 7    1  0.6726285E-013  0.5052885E+02  0.7816164E-02  0.1300439E+00
        -11   -1    0    0    0    0  0.00000000000E+00  0.00000000000E+00  0.45593999997E+02  0.45594000000E+02  0.51100000000E-03 0.  1.
         11   -1    0    0    0    0 -0.00000000000E+00 -0.00000000000E+00 -0.45593999997E+02  0.45594000000E+02  0.51100000000E-03 0. -1.
    9900012    2    1    2    0    0 -0.25414776675E+02  0.23100795827E+02  0.21762556445E+02  0.50528849685E+02  0.29999969104E+02 0.  0.
         12    1    1    2    0    0  0.25414776675E+02 -0.23100795827E+02 -0.21762556445E+02  0.40659150315E+02  0.00000000000E+00 0. -1.
         11    1    3    3    0    0 -0.61970643443E+01  0.53482243805E+01 -0.18515117729E+01  0.83925685352E+01  0.51100000000E-03 0. -1.
        -11    1    3    3    0    0  0.52635136229E+01  0.50555576911E+01  0.43488089826E+01  0.84956093986E+01  0.51100000000E-03 0.  1.
        -12    1    3    3    0    0 -0.24481225954E+02  0.12697013756E+02  0.19265259235E+02  0.33640671752E+02  0.00000000000E+00 0.  1.
</event>
<event>
 7    1  0.6726285E-013  0.5052886E+02  0.7816164E-02  0.1300439E+00
        -11   -1    0    0    0    0  0.00000000000E+00  0.00000000000E+00  0.45593999997E+02  0.45594000000E+02  0.51100000000E-03 0. -1.
         11   -1    0    0    0    0 -0.00000000000E+00 -0.00000000000E+00 -0.45593999997E+02  0.45594000000E+02  0.51100000000E-03 0.  1.
    9900012    2    1    2    0    0  0.19799123271E+02  0.23933412353E+02 -0.26236460502E+02  0.50528863649E+02  0.30000011546E+02 0.  0.
         12    1    1    2    0    0 -0.19799123271E+02 -0.23933412353E+02  0.26236460502E+02  0.40659136351E+02  0.00000000000E+00 0. -1.
         11    1    3    3    0    0 -0.23280825553E+01 -0.15644859087E+01 -0.42626112170E+01  0.51026894077E+01  0.51100000000E-03 0. -1.
        -11    1    3    3    0    0 -0.32715730853E+01  0.13045009208E+01 -0.58319564577E+01  0.68129750837E+01  0.51100000000E-03 0.  1.
        -12    1    3    3    0    0  0.25398778912E+02  0.24193397341E+02 -0.16141892827E+02  0.38613199157E+02  0.00000000000E+00 0.  1.
</event>
<event>
 7    1  0.6726285E-013  0.5052887E+02  0.7816164E-02  0.1300439E+00
        -11   -1    0    0    0    0  0.00000000000E+00  0.00000000000E+00  0.45593999997E+02  0.45594000000E+02  0.51100000000E-03 0. -1.
         11   -1    0    0    0    0 -0.00000000000E+00 -0.00000000000E+00 -0.45593999997E+02  0.45594000000E+02  0.51100000000E-03 0.  1.
    9900012    2    1    2    0    0  0.20083277403E+02 -0.32061571963E+02 -0.14895730498E+02  0.50528865540E+02  0.30000017294E+02 0.  0.
         12    1    1    2    0    0 -0.20083277403E+02  0.32061571963E+02  0.14895730498E+02  0.40659134460E+02  0.00000000000E+00 0. -1.
         11    1    3    3    0    0 -0.33369683018E+01 -0.11876107447E+02 -0.98411400022E+01  0.15780536187E+02  0.51100000000E-03 0. -1.
        -11    1    3    3    0    0  0.22787839163E+01 -0.11138268041E+02 -0.12094936557E+01  0.11433142449E+02  0.51100000000E-03 0.  1.
        -12    1    3    3    0    0  0.21141461789E+02 -0.90471964742E+01 -0.38450968399E+01  0.23315186903E+02  0.00000000000E+00 0.  1.
</event>
<event>
 7    1  0.9169613E-013  0.5052886E+02  0.7816164E-02  0.1300439E+00
        -11   -1    0    0    0    0  0.00000000000E+00  0.00000000000E+00  0.45593999997E+02  0.45594000000E+02  0.51100000000E-03 0.  1.
         11   -1    0    0    0    0 -0.00000000000E+00 -0.00000000000E+00 -0.45593999997E+02  0.45594000000E+02  0.51100000000E-03 0. -1.
    9900012    2    1    2    0    0  0.17351823933E+02  0.15327090453E+02  0.33423947946E+02  0.50528858447E+02  0.29999995734E+02 0.  0.
         12    1    1    2    0    0 -0.17351823933E+02 -0.15327090453E+02 -0.33423947946E+02  0.40659141553E+02  0.00000000000E+00 0. -1.
         11    1    3    3    0    0  0.15797341912E+01  0.78465204585E+01  0.43948318190E+00  0.80160207803E+01  0.51100000000E-03 0. -1.
        -11    1    3    3    0    0  0.35845809566E+01  0.11387839202E+02  0.24215089253E+02  0.26998197165E+02  0.51100000000E-03 0.  1.
         12    1    3    3    0    0  0.12187508785E+02 -0.39072692078E+01  0.87693755109E+01  0.15514640502E+02  0.00000000000E+00 0. -1.
</event>
<event>
 7    1  0.6726285E-013  0.5052886E+02  0.7816164E-02  0.1300439E+00
        -11   -1    0    0    0    0  0.00000000000E+00  0.00000000000E+00  0.45593999997E+02  0.45594000000E+02  0.51100000000E-03 0.  1.
         11   -1    0    0    0    0 -0.00000000000E+00 -0.00000000000E+00 -0.45593999997E+02  0.45594000000E+02  0.51100000000E-03 0. -1.
    9900012    2    1    2    0    0 -0.36310237350E+02 -0.18249398651E+02 -0.13007640789E+01  0.50528857428E+02  0.29999992638E+02 0.  0.
         12    1    1    2    0    0  0.36310237350E+02  0.18249398651E+02  0.13007640789E+01  0.40659142572E+02  0.00000000000E+00 0. -1.
         11    1    3    3    0    0 -0.21214545657E+02 -0.14777266036E+02 -0.78265135223E+01  0.27012568429E+02  0.51100000000E-03 0. -1.
        -11    1    3    3    0    0 -0.18197871858E+02 -0.32508244305E+01  0.79161221525E+01  0.20109584527E+02  0.51100000000E-03 0.  1.
         12    1    3    3    0    0  0.31021801655E+01 -0.22130818382E+00 -0.13903727092E+01  0.34067044724E+01  0.00000000000E+00 0. -1.
</event>
<event>
 7    1  0.6726285E-013  0.5052886E+02  0.7816164E-02  0.1300439E+00
        -11   -1    0    0    0    0  0.00000000000E+00  0.00000000000E+00  0.45593999997E+02  0.45594000000E+02  0.51100000000E-03 0.  1.
         11   -1    0    0    0    0 -0.00000000000E+00 -0.00000000000E+00 -0.45593999997E+02  0.45594000000E+02  0.51100000000E-03 0. -1.
    9900012    2    1    2    0    0 -0.11255676363E+02 -0.14879294521E+02  0.36125917680E+02  0.50528861002E+02  0.30000003502E+02 0.  0.
         12    1    1    2    0    0  0.11255676363E+02  0.14879294521E+02 -0.36125917680E+02  0.40659138998E+02  0.00000000000E+00 0. -1.
         11    1    3    3    0    0 -0.78091909258E+01 -0.47031894434E+01  0.19413961092E+01  0.93205403797E+01  0.51100000000E-03 0. -1.
        -11    1    3    3    0    0  0.46038168153E+01 -0.11709164895E+02  0.11338523604E+02  0.16936994704E+02  0.51100000000E-03 0.  1.
        -12    1    3    3    0    0 -0.80503022523E+01  0.15330598176E+01  0.22845997966E+02  0.24271325918E+02  0.00000000000E+00 0.  1.
</event>
<event>
 7    1  0.6726285E-013  0.5052887E+02  0.7816164E-02  0.1300439E+00
        -11   -1    0    0    0    0  0.00000000000E+00  0.00000000000E+00  0.45593999997E+02  0.45594000000E+02  0.51100000000E-03 0.  1.
         11   -1    0    0    0    0 -0.00000000000E+00 -0.00000000000E+00 -0.45593999997E+02  0.45594000000E+02  0.51100000000E-03 0. -1.
    9900012    2    1    2    0    0 -0.38912997914E+02  0.39824170781E+01  0.11094302274E+02  0.50528873160E+02  0.30000040457E+02 0.  0.
         12    1    1    2    0    0  0.38912997914E+02 -0.39824170781E+01 -0.11094302274E+02  0.40659126840E+02  0.00000000000E+00 0. -1.
         11    1    3    3    0    0 -0.37134662419E+01 -0.24831344396E+01  0.23270752210E+01  0.50369700734E+01  0.51100000000E-03 0. -1.
        -11    1    3    3    0    0 -0.30022152018E+02  0.76173445580E+01  0.17275785400E+02  0.35465565149E+02  0.51100000000E-03 0.  1.
         12    1    3    3    0    0 -0.51773796539E+01 -0.11517930404E+01 -0.85085583469E+01  0.10026337937E+02  0.00000000000E+00 0. -1.
</event>
<event>
 7    1  0.6726285E-013  0.5052884E+02  0.7816164E-02  0.1300439E+00
        -11   -1    0    0    0    0  0.00000000000E+00  0.00000000000E+00  0.45593999997E+02  0.45594000000E+02  0.51100000000E-03 0.  1.
         11   -1    0    0    0    0 -0.00000000000E+00 -0.00000000000E+00 -0.45593999997E+02  0.45594000000E+02  0.51100000000E-03 0. -1.
    9900012    2    1    2    0    0 -0.15757703170E+02 -0.22453558801E+02  0.30011655628E+02  0.50528843767E+02  0.29999951115E+02 0.  0.
         12    1    1    2    0    0  0.15757703170E+02  0.22453558801E+02 -0.30011655628E+02  0.40659156233E+02  0.00000000000E+00 0. -1.
         11    1    3    3    0    0 -0.31052614739E+01 -0.30703316191E+01 -0.55783343981E+01  0.70843065992E+01  0.51100000000E-03 0. -1.
        -11    1    3    3    0    0 -0.73539872178E+01 -0.66629596882E+01  0.85622112993E+01  0.13106777728E+02  0.51100000000E-03 0.  1.
        -12    1    3    3    0    0 -0.52984544781E+01 -0.12720267494E+02  0.27027778727E+02  0.30337759441E+02  0.00000000000E+00 0.  1.
</event>
<event>
 7    1  0.6726285E-013  0.5052886E+02  0.7816164E-02  0.1300439E+00
        -11   -1    0    0    0    0  0.00000000000E+00  0.00000000000E+00  0.45593999997E+02  0.45594000000E+02  0.51100000000E-03 0. -1.
         11   -1    0    0    0    0 -0.00000000000E+00 -0.00000000000E+00 -0.45593999997E+02  0.45594000000E+02  0.51100000000E-03 0.  1.
    9900012    2    1    2    0    0 -0.38554755470E+02 -0.24410115674E+01  0.12678232945E+02  0.50528864526E+02  0.30000014214E+02 0.  0.
         12    1    1    2    0    0  0.38554755470E+02  0.24410115674E+01 -0.12678232945E+02  0.40659135474E+02  0.00000000000E+00 0. -1.
         11    1    3    3    0    0  0.27062280796E+00 -0.35179612688E+01 -0.23076508335E+00  0.35358932362E+01  0.51100000000E-03 0. -1.
        -11    1    3    3    0    0 -0.21233120237E+02 -0.10925512640E+02  0.63450755770E+01  0.24707735748E+02  0.51100000000E-03 0.  1.
         12    1    3    3    0    0 -0.17592258041E+02  0.12002462341E+02  0.65639224515E+01  0.22285235542E+02  0.00000000000E+00 0. -1.
</event>
<event>
 7    1  0.6726285E-013  0.5052885E+02  0.7816164E-02  0.1300439E+00
        -11   -1    0    0    0    0  0.00000000000E+00  0.00000000000E+00  0.45593999997E+02  0.45594000000E+02  0.51100000000E-03 0.  1.
         11   -1    0    0    0    0 -0.00000000000E+00 -0.00000000000E+00 -0.45593999997E+02  0.45594000000E+02  0.51100000000E-03 0. -1.
    9900012    2    1    2    0    0 -0.85935121111E+01  0.13313859868E+02  0.37444080971E+02  0.50528849557E+02  0.29999968713E+02 0.  0.
         12    1    1    2    0    0  0.85935121111E+01 -0.13313859868E+02 -0.37444080971E+02  0.40659150443E+02  0.00000000000E+00 0. -1.
         11    1    3    3    0    0 -0.60491810324E+01  0.24876679356E+01  0.13181166349E+02  0.14714762298E+02  0.51100000000E-03 0. -1.
        -11    1    3    3    0    0  0.10177584497E+01 -0.79883296350E+00  0.23602189053E+02  0.23637624557E+02  0.51100000000E-03 0.  1.
        -12    1    3    3    0    0 -0.35620895283E+01  0.11625024896E+02  0.66072556967E+00  0.12176462702E+02  0.00000000000E+00 0.  1.
</event>
<event>
 7    1  0.6726285E-013  0.5052886E+02  0.7816164E-02  0.1300439E+00
        -11   -1    0    0    0    0  0.00000000000E+00  0.00000000000E+00  0.45593999997E+02  0.45594000000E+02  0.51100000000E-03 0. -1.
         11   -1    0    0    0    0 -0.00000000000E+00 -0.00000000000E+00 -0.45593999997E+02  0.45594000000E+02  0.51100000000E-03 0.  1.
    9900012    2    1    2    0    0 -0.22519028073E+02 -0.18062504009E+02 -0.28632232951E+02  0.50528862771E+02  0.30000008880E+02 0.  0.
         12    1    1    2    0    0  0.22519028073E+02  0.18062504009E+02  0.28632232951E+02  0.40659137229E+02  0.00000000000E+00 0. -1.
         11    1    3    3    0    0 -0.74874396934E+01 -0.11467495494E+02 -0.17877004276E+02  0.22520046364E+02  0.51100000000E-03 0. -1.
        -11    1    3    3    0    0 -0.11033153947E+02 -0.13514730538E+02 -0.96599389725E+01  0.19942237807E+02  0.51100000000E-03 0.  1.
         12    1    3    3    0    0 -0.39984344322E+01  0.69197220233E+01 -0.10952897027E+01  0.80665786007E+01  0.00000000000E+00 0. -1.
</event>
<event>
 7    1  0.6726285E-013  0.5052886E+02  0.7816164E-02  0.1300439E+00
        -11   -1    0    0    0    0  0.00000000000E+00  0.00000000000E+00  0.45593999997E+02  0.45594000000E+02  0.51100000000E-03 0.  1.
         11   -1    0    0    0    0 -0.00000000000E+00 -0.00000000000E+00 -0.45593999997E+02  0.45594000000E+02  0.51100000000E-03 0. -1.
    9900012    2    1    2    0    0  0.18493754221E+02  0.24157733587E+02  0.26973152314E+02  0.50528856096E+02  0.29999988589E+02 0.  0.
         12    1    1    2    0    0 -0.18493754221E+02 -0.24157733587E+02 -0.26973152314E+02  0.40659143904E+02  0.00000000000E+00 0. -1.
         11    1    3    3    0    0  0.97549108335E+01  0.11957871162E+02  0.38715267196E+01  0.15910301302E+02  0.51100000000E-03 0. -1.
        -11    1    3    3    0    0  0.88604999111E+00  0.12436072038E+02  0.27001153679E+01  0.12756629476E+02  0.51100000000E-03 0.  1.
        -12    1    3    3    0    0  0.78527933965E+01 -0.23620961323E+00  0.20401510227E+02  0.21861925319E+02  0.00000000000E+00 0.  1.
</event>
<event>
 7    1  0.6726285E-013  0.5052886E+02  0.7816164E-02  0.1300439E+00
        -11   -1    0    0    0    0  0.00000000000E+00  0.00000000000E+00  0.45593999997E+02  0.45594000000E+02  0.51100000000E-03 0.  1.
         11   -1    0    0    0    0 -0.00000000000E+00 -0.00000000000E+00 -0.45593999997E+02  0.45594000000E+02  0.51100000000E-03 0. -1.
    9900012    2    1    2    0    0 -0.14920025260E+01 -0.39593080586E+02  0.91284081809E+01  0.50528856653E+02  0.29999990282E+02 0.  0.
         12    1    1    2    0    0  0.14920025260E+01  0.39593080586E+02 -0.91284081809E+01  0.40659143347E+02  0.00000000000E+00 0. -1.
         11    1    3    3    0    0 -0.75379370046E+01 -0.14514857983E+02  0.14001735207E+02  0.21530215642E+02  0.51100000000E-03 0. -1.
        -11    1    3    3    0    0 -0.17338116712E+01 -0.85135718314E+01  0.28374725876E+01  0.91399266510E+01  0.51100000000E-03 0.  1.
         12    1    3    3    0    0  0.77797461499E+01 -0.16564650771E+02 -0.77107996133E+01  0.19858714359E+02  0.00000000000E+00 0. -1.
</event>
<event>
 7    1  0.6726285E-013  0.5052887E+02  0.7816164E-02  0.1300439E+00
        -11   -1    0    0    0    0  0.00000000000E+00  0.00000000000E+00  0.45593999997E+02  0.45594000000E+02  0.51100000000E-03 0.  1.
         11   -1    0    0    0    0 -0.00000000000E+00 -0.00000000000E+00 -0.45593999997E+02  0.45594000000E+02  0.51100000000E-03 0. -1.
    9900012    2    1    2    0    0 -0.23739486363E+02  0.25064575065E+02  0.21479500498E+02  0.50528867230E+02  0.30000022433E+02 0.  0.
         12    1    1    2    0    0  0.23739486363E+02 -0.25064575065E+02 -0.21479500498E+02  0.40659132770E+02  0.00000000000E+00 0. -1.
         11    1    3    3    0    0 -0.70104117216E+01  0.63922320513E+01  0.20074988797E+01  0.96972447178E+01  0.51100000000E-03 0. -1.
        -11    1    3    3    0    0 -0.13545130991E+02  0.24361974218E+02  0.10600440520E+02  0.29821899686E+02  0.51100000000E-03 0.  1.
         12    1    3    3    0    0 -0.31839436500E+01 -0.56896312045E+01  0.88715610976E+01  0.11009722827E+02  0.00000000000E+00 0. -1.
</event>
<event>
 7    1  0.6726285E-013  0.5052885E+02  0.7816164E-02  0.1300439E+00
        -11   -1    0    0    0    0  0.00000000000E+00  0.00000000000E+00  0.45593999997E+02  0.45594000000E+02  0.51100000000E-03 0. -1.
         11   -1    0    0    0    0 -0.00000000000E+00 -0.00000000000E+00 -0.45593999997E+02  0.45594000000E+02  0.51100000000E-03 0.  1.
    9900012    2    1    2    0    0  0.32593307128E+02  0.21160862051E+02  0.11960809026E+02  0.50528847219E+02  0.29999961608E+02 0.  0.
         12    1    1    2    0    0 -0.32593307128E+02 -0.21160862051E+02 -0.11960809026E+02  0.40659152781E+02  0.00000000000E+00 0. -1.
         11    1    3    3    0    0 -0.17660798509E+00  0.89524691918E+00  0.40727759390E+01  0.41737467026E+01  0.51100000000E-03 0. -1.
        -11    1    3    3    0    0  0.14690236401E+02 -0.41697669795E+01  0.31337285601E+01  0.15588786262E+02  0.51100000000E-03 0.  1.
         12    1    3    3    0    0  0.18079678712E+02  0.24435382112E+02  0.47543045265E+01  0.30766314255E+02  0.00000000000E+00 0. -1.
</event>
<event>
 7    1  0.6726285E-013  0.5052886E+02  0.7816164E-02  0.1300439E+00
        -11   -1    0    0    0    0  0.00000000000E+00  0.00000000000E+00  0.45593999997E+02  0.45594000000E+02  0.51100000000E-03 0.  1.
         11   -1    0    0    0    0 -0.00000000000E+00 -0.00000000000E+00 -0.45593999997E+02  0.45594000000E+02  0.51100000000E-03 0. -1.
    9900012    2    1    2    0    0  0.34088094080E+02 -0.10783312122E+02  0.19362020535E+02  0.50528858131E+02  0.29999994774E+02 0.  0.
         12    1    1    2    0    0 -0.34088094080E+02  0.10783312122E+02 -0.19362020535E+02  0.40659141869E+02  0.00000000000E+00 0. -1.
         11    1    3    3    0    0  0.12111746481E+02  0.48162996551E+01 -0.33288157795E+01  0.13452589340E+02  0.51100000000E-03 0. -1.
        -11    1    3    3    0    0  0.56757891093E+01 -0.23638510079E+01 -0.16878711263E-01  0.61483866789E+01  0.51100000000E-03 0.  1.
        -12    1    3    3    0    0  0.16300558490E+02 -0.13235760770E+02  0.22707715026E+02  0.30927882112E+02  0.00000000000E+00 0.  1.
</event>
<event>
 7    1  0.6726285E-013  0.5052886E+02  0.7816164E-02  0.1300439E+00
        -11   -1    0    0    0    0  0.00000000000E+00  0.00000000000E+00  0.45593999997E+02  0.45594000000E+02  0.51100000000E-03 0.  1.
         11   -1    0    0    0    0 -0.00000000000E+00 -0.00000000000E+00 -0.45593999997E+02  0.45594000000E+02  0.51100000000E-03 0. -1.
    9900012    2    1    2    0    0  0.13071983068E+02 -0.37877751859E+02 -0.68967013032E+01  0.50528864297E+02  0.30000013518E+02 0.  0.
         12    1    1    2    0    0 -0.13071983068E+02  0.37877751859E+02  0.68967013032E+01  0.40659135703E+02  0.00000000000E+00 0. -1.
         11    1    3    3    0    0  0.23830157165E+01  0.20560041634E+01  0.24945628891E+01  0.40160629096E+01  0.51100000000E-03 0. -1.
        -11    1    3    3    0    0 -0.34485684035E+01 -0.18662309312E+01  0.19099822223E+01  0.43615907961E+01  0.51100000000E-03 0.  1.
        -12    1    3    3    0    0  0.14137535755E+02 -0.38067525091E+02 -0.11301246415E+02  0.42151210591E+02  0.00000000000E+00 0.  1.
</event>
<event>
 7    1  0.6726285E-013  0.5052887E+02  0.7816164E-02  0.1300439E+00
        -11   -1    0    0    0    0  0.00000000000E+00  0.00000000000E+00  0.45593999997E+02  0.45594000000E+02  0.51100000000E-03 0. -1.
         11   -1    0    0    0    0 -0.00000000000E+00 -0.00000000000E+00 -0.45593999997E+02  0.45594000000E+02  0.51100000000E-03 0.  1.
    9900012    2    1    2    0    0 -0.26109838315E+02  0.30757428135E+02 -0.50419941504E+01  0.50528871291E+02  0.30000034778E+02 0.  0.
         12    1    1    2    0    0  0.26109838315E+02 -0.30757428135E+02  0.50419941504E+01  0.40659128709E+02  0.00000000000E+00 0. -1.
         11    1    3    3    0    0  0.79881162701E+00 -0.17764446676E-01  0.10350169489E+01  0.13075457685E+01  0.51100000000E-03 0. -1.
        -11    1    3    3    0    0  0.46161411028E+01  0.27899062620E+00 -0.23886582602E+01  0.52050247834E+01  0.51100000000E-03 0.  1.
        -12    1    3    3    0    0 -0.31524791045E+02  0.30496201956E+02 -0.36883528391E+01  0.44016300740E+02  0.00000000000E+00 0.  1.
</event>
<event>
 7    1  0.6726285E-013  0.5052888E+02  0.7816164E-02  0.1300439E+00
        -11   -1    0    0    0    0  0.00000000000E+00  0.00000000000E+00  0.45593999997E+02  0.45594000000E+02  0.51100000000E-03 0.  1.
         11   -1    0    0    0    0 -0.00000000000E+00 -0.00000000000E+00 -0.45593999997E+02  0.45594000000E+02  0.51100000000E-03 0. -1.
    9900012    2    1    2    0    0 -0.25098916097E+02  0.16822534571E+02  0.27206820191E+02  0.50528876503E+02  0.30000050618E+02 0.  0.
         12    1    1    2    0    0  0.25098916097E+02 -0.16822534571E+02 -0.27206820191E+02  0.40659123497E+02  0.00000000000E+00 0. -1.
         11    1    3    3    0    0 -0.97981788292E+00  0.70902420874E+01  0.66390993151E+01  0.97626439000E+01  0.51100000000E-03 0. -1.
        -11    1    3    3    0    0  0.38737440108E+01  0.20978349921E+00 -0.11873985687E+01  0.40570700511E+01  0.51100000000E-03 0.  1.
        -12    1    3    3    0    0 -0.27992842225E+02  0.95225089849E+01  0.21755119444E+02  0.36709162552E+02  0.00000000000E+00 0.  1.
</event>
<event>
 7    1  0.6726285E-013  0.5052887E+02  0.7816164E-02  0.1300439E+00
        -11   -1    0    0    0    0  0.00000000000E+00  0.00000000000E+00  0.45593999997E+02  0.45594000000E+02  0.51100000000E-03 0.  1.
         11   -1    0    0    0    0 -0.00000000000E+00 -0.00000000000E+00 -0.45593999997E+02  0.45594000000E+02  0.51100000000E-03 0. -1.
    9900012    2    1    2    0    0  0.94290546107E-01 -0.30446395276E+02  0.26947599657E+02  0.50528868144E+02  0.30000025210E+02 0.  0.
         12    1    1    2    0    0 -0.94290546107E-01  0.30446395276E+02 -0.26947599657E+02  0.40659131856E+02  0.00000000000E+00 0. -1.
         11    1    3    3    0    0  0.81696151419E+00 -0.90949170497E+00 -0.59128670639E+01  0.60379299808E+01  0.51100000000E-03 0. -1.
        -11    1    3    3    0    0  0.37336809164E+00 -0.12996209525E+01  0.34458470635E+01  0.37016591683E+01  0.51100000000E-03 0.  1.
         12    1    3    3    0    0 -0.10960390597E+01 -0.28237282618E+02  0.29414619658E+02  0.40789278995E+02  0.00000000000E+00 0. -1.
</event>
<event>
 7    1  0.6726285E-013  0.5052885E+02  0.7816164E-02  0.1300439E+00
        -11   -1    0    0    0    0  0.00000000000E+00  0.00000000000E+00  0.45593999997E+02  0.45594000000E+02  0.51100000000E-03 0.  1.
         11   -1    0    0    0    0 -0.00000000000E+00 -0.00000000000E+00 -0.45593999997E+02  0.45594000000E+02  0.51100000000E-03 0. -1.
    9900012    2    1    2    0    0  0.19128555302E+02 -0.24794580394E+02  0.25932480695E+02  0.50528850970E+02  0.29999973008E+02 0.  0.
         12    1    1    2    0    0 -0.19128555302E+02  0.24794580394E+02 -0.25932480695E+02  0.40659149030E+02  0.00000000000E+00 0. -1.
         11    1    3    3    0    0 -0.53184669730E+01 -0.21593187208E+01 -0.66695082730E+00  0.57787171542E+01  0.51100000000E-03 0. -1.
        -11    1    3    3    0    0  0.18127109504E+01 -0.41892798083E+01 -0.88626440966E+00  0.46498872209E+01  0.51100000000E-03 0.  1.
        -12    1    3    3    0    0  0.22634311325E+02 -0.18445981865E+02  0.27485695932E+02  0.40100246595E+02  0.00000000000E+00 0.  1.
</event>
<event>
 7    1  0.6726285E-013  0.5052887E+02  0.7816164E-02  0.1300439E+00
        -11   -1    0    0    0    0  0.00000000000E+00  0.00000000000E+00  0.45593999997E+02  0.45594000000E+02  0.51100000000E-03 0. -1.
         11   -1    0    0    0    0 -0.00000000000E+00 -0.00000000000E+00 -0.45593999997E+02  0.45594000000E+02  0.51100000000E-03 0.  1.
    9900012    2    1    2    0    0 -0.23940748884E+02  0.22376123149E+02 -0.24068952483E+02  0.50528870423E+02  0.30000032137E+02 0.  0.
         12    1    1    2    0    0  0.23940748884E+02 -0.22376123149E+02  0.24068952483E+02  0.40659129577E+02  0.00000000000E+00 0. -1.
         11    1    3    3    0    0  0.44004612698E+00 -0.25449235869E+01 -0.16631928495E+01  0.30718866145E+01  0.51100000000E-03 0. -1.
        -11    1    3    3    0    0 -0.62007707546E+01  0.36884790005E+01 -0.17696429273E+02  0.19110678810E+02  0.51100000000E-03 0.  1.
         12    1    3    3    0    0 -0.18180024257E+02  0.21232567736E+02 -0.47093303610E+01  0.28346304999E+02  0.00000000000E+00 0. -1.
</event>
<event>
 7    1  0.6726285E-013  0.5052886E+02  0.7816164E-02  0.1300439E+00
        -11   -1    0    0    0    0  0.00000000000E+00  0.00000000000E+00  0.45593999997E+02  0.45594000000E+02  0.51100000000E-03 0. -1.
         11   -1    0    0    0    0 -0.00000000000E+00 -0.00000000000E+00 -0.45593999997E+02  0.45594000000E+02  0.51100000000E-03 0.  1.
    9900012    2    1    2    0    0 -0.36907638990E+02  0.15348344414E+02  0.74444886246E+01  0.50528857080E+02  0.29999991581E+02 0.  0.
         12    1    1    2    0    0  0.36907638990E+02 -0.15348344414E+02 -0.74444886246E+01  0.40659142920E+02  0.00000000000E+00 0. -1.
         11    1    3    3    0    0 -0.74715706591E+01  0.69089971436E+01  0.11590851748E+02  0.15424216484E+02  0.51100000000E-03 0. -1.
        -11    1    3    3    0    0 -0.43393706668E+01 -0.43660510189E+01 -0.31436424038E+01  0.69119481412E+01  0.51100000000E-03 0.  1.
        -12    1    3    3    0    0 -0.25096697664E+02  0.12805398290E+02 -0.10027207199E+01  0.28192692455E+02  0.00000000000E+00 0.  1.
</event>
<event>
 7    1  0.6726285E-013  0.5052887E+02  0.7816164E-02  0.1300439E+00
        -11   -1    0    0    0    0  0.00000000000E+00  0.00000000000E+00  0.45593999997E+02  0.45594000000E+02  0.51100000000E-03 0.  1.
         11   -1    0    0    0    0 -0.00000000000E+00 -0.00000000000E+00 -0.45593999997E+02  0.45594000000E+02  0.51100000000E-03 0. -1.
    9900012    2    1    2    0    0 -0.29248779116E+02  0.25912305817E+02  0.11235055155E+02  0.50528866502E+02  0.30000020219E+02 0.  0.
         12    1    1    2    0    0  0.29248779116E+02 -0.25912305817E+02 -0.11235055155E+02  0.40659133498E+02  0.00000000000E+00 0. -1.
         11    1    3    3    0    0  0.20049548848E+00  0.27684744744E+01  0.61905139833E+01  0.67843284852E+01  0.51100000000E-03 0. -1.
        -11    1    3    3    0    0 -0.12744179971E+01 -0.38609205131E+01  0.21788153720E+01  0.46128174824E+01  0.51100000000E-03 0.  1.
        -12    1    3    3    0    0 -0.28174856607E+02  0.27004751856E+02  0.28657257993E+01  0.39131720534E+02  0.00000000000E+00 0.  1.
</event>
<event>
 7    1  0.6726285E-013  0.5052886E+02  0.7816164E-02  0.1300439E+00
        -11   -1    0    0    0    0  0.00000000000E+00  0.00000000000E+00  0.45593999997E+02  0.45594000000E+02  0.51100000000E-03 0. -1.
         11   -1    0    0    0    0 -0.00000000000E+00 -0.00000000000E+00 -0.45593999997E+02  0.45594000000E+02  0.51100000000E-03 0.  1.
    9900012    2    1    2    0    0 -0.36827493636E+01  0.39204666704E+02 -0.10129017484E+02  0.50528861674E+02  0.30000005545E+02 0.  0.
         12    1    1    2    0    0  0.36827493636E+01 -0.39204666704E+02  0.10129017484E+02  0.40659138326E+02  0.00000000000E+00 0. -1.
         11    1    3    3    0    0  0.37430734258E+01  0.17177504894E+01  0.19813428349E+01  0.45702281240E+01  0.51100000000E-03 0. -1.
        -11    1    3    3    0    0  0.43789579940E+01  0.61471678845E+00 -0.48585770296E+01  0.65695449505E+01  0.51100000000E-03 0.  1.
        -12    1    3    3    0    0 -0.11804780783E+02  0.36872199426E+02 -0.72517832894E+01  0.39389088600E+02  0.00000000000E+00 0.  1.
</event>
<event>
 7    1  0.6726285E-013  0.5052886E+02  0.7816164E-02  0.1300439E+00
        -11   -1    0    0    0    0  0.00000000000E+00  0.00000000000E+00  0.45593999997E+02  0.45594000000E+02  0.51100000000E-03 0. -1.
         11   -1    0    0    0    0 -0.00000000000E+00 -0.00000000000E+00 -0.45593999997E+02  0.45594000000E+02  0.51100000000E-03 0.  1.
    9900012    2    1    2    0    0 -0.51817885470E+01 -0.18706839183E+02 -0.35726302811E+02  0.50528862315E+02  0.30000007492E+02 0.  0.
         12    1    1    2    0    0  0.51817885470E+01  0.18706839183E+02  0.35726302811E+02  0.40659137685E+02  0.00000000000E+00 0. -1.
         11    1    3    3    0    0 -0.18527331669E+01 -0.12735106671E+01  0.11323255689E+01  0.25172626128E+01  0.51100000000E-03 0. -1.
        -11    1    3    3    0    0  0.68129480948E+01 -0.14480910071E+02 -0.93268853714E+01  0.18523061551E+02  0.51100000000E-03 0.  1.
        -12    1    3    3    0    0 -0.10142003475E+02 -0.29524184444E+01 -0.27531743009E+02  0.29488538151E+02  0.00000000000E+00 0.  1.
</event>
<event>
 7    1  0.6726285E-013  0.5052888E+02  0.7816164E-02  0.1300439E+00
        -11   -1    0    0    0    0  0.00000000000E+00  0.00000000000E+00  0.45593999997E+02  0.45594000000E+02  0.51100000000E-03 0. -1.
         11   -1    0    0    0    0 -0.00000000000E+00 -0.00000000000E+00 -0.45593999997E+02  0.45594000000E+02  0.51100000000E-03 0.  1.
    9900012    2    1    2    0    0  0.29184941844E+02 -0.23855567788E+02  0.15241898481E+02  0.50528875388E+02  0.30000047228E+02 0.  0.
         12    1    1    2    0    0 -0.29184941844E+02  0.23855567788E+02 -0.15241898481E+02  0.40659124612E+02  0.00000000000E+00 0. -1.
         11    1    3    3    0    0 -0.98131172189E+00 -0.32847925534E+01 -0.48824443722E+01  0.59658275305E+01  0.51100000000E-03 0. -1.
        -11    1    3    3    0    0  0.79930835020E+01  0.16931203660E+01  0.25430979688E+01  0.85570665525E+01  0.51100000000E-03 0.  1.
         12    1    3    3    0    0  0.22173170064E+02 -0.22263895601E+02  0.17581244885E+02  0.36005981305E+02  0.00000000000E+00 0. -1.
</event>
<event>
 7    1  0.6726285E-013  0.5052886E+02  0.7816164E-02  0.1300439E+00
        -11   -1    0    0    0    0  0.00000000000E+00  0.00000000000E+00  0.45593999997E+02  0.45594000000E+02  0.51100000000E-03 0.  1.
         11   -1    0    0    0    0 -0.00000000000E+00 -0.00000000000E+00 -0.45593999997E+02  0.45594000000E+02  0.51100000000E-03 0. -1.
    9900012    2    1    2    0    0  0.29098286324E+02 -0.24478742298E+02  0.14396066553E+02  0.50528858055E+02  0.29999994544E+02 0.  0.
         12    1    1    2    0    0 -0.29098286324E+02  0.24478742298E+02 -0.14396066553E+02  0.40659141945E+02  0.00000000000E+00 0. -1.
         11    1    3    3    0    0  0.19855228338E+02 -0.16141674254E+02  0.15028424276E+02  0.29675533298E+02  0.51100000000E-03 0. -1.
        -11    1    3    3    0    0  0.97144660603E+01 -0.10922174204E+02  0.43240458515E+01  0.15243428517E+02  0.51100000000E-03 0.  1.
         12    1    3    3    0    0 -0.47140807416E+00  0.25851061597E+01 -0.49564035740E+01  0.56098962395E+01  0.00000000000E+00 0. -1.
</event>
<event>
 7    1  0.6726285E-013  0.5052886E+02  0.7816164E-02  0.1300439E+00
        -11   -1    0    0    0    0  0.00000000000E+00  0.00000000000E+00  0.45593999997E+02  0.45594000000E+02  0.51100000000E-03 0. -1.
         11   -1    0    0    0    0 -0.00000000000E+00 -0.00000000000E+00 -0.45593999997E+02  0.45594000000E+02  0.51100000000E-03 0.  1.
    9900012    2    1    2    0    0  0.75468349607E+01 -0.28945631177E+02 -0.27538363178E+02  0.50528859223E+02  0.29999998095E+02 0.  0.
         12    1    1    2    0    0 -0.75468349607E+01  0.28945631177E+02  0.27538363178E+02  0.40659140777E+02  0.00000000000E+00 0. -1.
         11    1    3    3    0    0  0.53552397690E+01 -0.33450219267E+01  0.41216502275E+01  0.75402762239E+01  0.51100000000E-03 0. -1.
        -11    1    3    3    0    0  0.47870130665E+01 -0.18024077369E+01 -0.62828568213E+01  0.81017564667E+01  0.51100000000E-03 0.  1.
        -12    1    3    3    0    0 -0.25954178748E+01 -0.23798201514E+02 -0.25377156584E+02  0.34886826533E+02  0.00000000000E+00 0.  1.
</event>
<event>
 7    1  0.6726285E-013  0.5052884E+02  0.7816164E-02  0.1300439E+00
        -11   -1    0    0    0    0  0.00000000000E+00  0.00000000000E+00  0.45593999997E+02  0.45594000000E+02  0.51100000000E-03 0.  1.
         11   -1    0    0    0    0 -0.00000000000E+00 -0.00000000000E+00 -0.45593999997E+02  0.45594000000E+02  0.51100000000E-03 0. -1.
    9900012    2    1    2    0    0 -0.29712532229E+02 -0.10411398522E+02 -0.25728100331E+02  0.50528844361E+02  0.29999952919E+02 0.  0.
         12    1    1    2    0    0  0.29712532229E+02  0.10411398522E+02  0.25728100331E+02  0.40659155639E+02  0.00000000000E+00 0. -1.
         11    1    3    3    0    0 -0.71366748428E+01 -0.47342867422E+01 -0.41031065683E+01  0.94963720726E+01  0.51100000000E-03 0. -1.
        -11    1    3    3    0    0 -0.26577653667E+02 -0.49856767795E+01 -0.10189557528E+02  0.28897330850E+02  0.51100000000E-03 0.  1.
         12    1    3    3    0    0  0.40017962806E+01 -0.69143500021E+00 -0.11435436235E+02  0.12135141438E+02  0.00000000000E+00 0. -1.
</event>
<event>
 7    1  0.6726285E-013  0.5052886E+02  0.7816164E-02  0.1300439E+00
        -11   -1    0    0    0    0  0.00000000000E+00  0.00000000000E+00  0.45593999997E+02  0.45594000000E+02  0.51100000000E-03 0.  1.
         11   -1    0    0    0    0 -0.00000000000E+00 -0.00000000000E+00 -0.45593999997E+02  0.45594000000E+02  0.51100000000E-03 0. -1.
    9900012    2    1    2    0    0 -0.21354133459E+02  0.17099157504E+02  0.30079655250E+02  0.50528857571E+02  0.29999993072E+02 0.  0.
         12    1    1    2    0    0  0.21354133459E+02 -0.17099157504E+02 -0.30079655250E+02  0.40659142429E+02  0.00000000000E+00 0. -1.
         11    1    3    3    0    0 -0.14189580632E+02  0.13764397146E+02  0.23216576563E+02  0.30492823006E+02  0.51100000000E-03 0. -1.
        -11    1    3    3    0    0 -0.49108446071E+01  0.29550957129E+00  0.12394007653E+02  0.13334734592E+02  0.51100000000E-03 0.  1.
         12    1    3    3    0    0 -0.22537082202E+01  0.30392507859E+01 -0.55309289672E+01  0.67012999725E+01  0.00000000000E+00 0. -1.
</event>
<event>
 7    1  0.9691177E-013  0.5052886E+02  0.7816164E-02  0.1300439E+00
        -11   -1    0    0    0    0  0.00000000000E+00  0.00000000000E+00  0.45593999997E+02  0.45594000000E+02  0.51100000000E-03 0. -1.
         11   -1    0    0    0    0 -0.00000000000E+00 -0.00000000000E+00 -0.45593999997E+02  0.45594000000E+02  0.51100000000E-03 0.  1.
    9900012    2    1    2    0    0  0.23604661558E+02 -0.17261837988E+02 -0.28249146762E+02  0.50528863379E+02  0.30000010726E+02 0.  0.
         12    1    1    2    0    0 -0.23604661558E+02  0.17261837988E+02  0.28249146762E+02  0.40659136621E+02  0.00000000000E+00 0. -1.
         11    1    3    3    0    0  0.33753005539E+01 -0.10321232534E+02 -0.46046901793E+01  0.11795069595E+02  0.51100000000E-03 0. -1.
        -11    1    3    3    0    0  0.22150801364E+02 -0.35154331070E+01 -0.10037990051E+02  0.24571884656E+02  0.51100000000E-03 0.  1.
         12    1    3    3    0    0 -0.19214403602E+01 -0.34251723478E+01 -0.13606466531E+02  0.14161909128E+02  0.00000000000E+00 0. -1.
</event>
<event>
 7    1  0.6726285E-013  0.5052886E+02  0.7816164E-02  0.1300439E+00
        -11   -1    0    0    0    0  0.00000000000E+00  0.00000000000E+00  0.45593999997E+02  0.45594000000E+02  0.51100000000E-03 0.  1.
         11   -1    0    0    0    0 -0.00000000000E+00 -0.00000000000E+00 -0.45593999997E+02  0.45594000000E+02  0.51100000000E-03 0. -1.
    9900012    2    1    2    0    0 -0.91462690435E+01 -0.37004760719E+02  0.14147763383E+02  0.50528858813E+02  0.29999996848E+02 0.  0.
         12    1    1    2    0    0  0.91462690435E+01  0.37004760719E+02 -0.14147763383E+02  0.40659141187E+02  0.00000000000E+00 0. -1.
         11    1    3    3    0    0  0.96302375569E+00 -0.71344348628E+01 -0.78635358265E+01  0.10661274385E+02  0.51100000000E-03 0. -1.
        -11    1    3    3    0    0  0.18104751867E+01 -0.16349585012E+01  0.27184656844E+01  0.36525286639E+01  0.51100000000E-03 0.  1.
        -12    1    3    3    0    0 -0.11919767986E+02 -0.28235367355E+02  0.19292833525E+02  0.36215055764E+02  0.00000000000E+00 0.  1.
</event>
<event>
 7    1  0.6726285E-013  0.5052886E+02  0.7816164E-02  0.1300439E+00
        -11   -1    0    0    0    0  0.00000000000E+00  0.00000000000E+00  0.45593999997E+02  0.45594000000E+02  0.51100000000E-03 0.  1.
         11   -1    0    0    0    0 -0.00000000000E+00 -0.00000000000E+00 -0.45593999997E+02  0.45594000000E+02  0.51100000000E-03 0. -1.
    9900012    2    1    2    0    0  0.29259684977E+02 -0.26357123306E+02  0.10116246983E+02  0.50528861213E+02  0.30000004143E+02 0.  0.
         12    1    1    2    0    0 -0.29259684977E+02  0.26357123306E+02 -0.10116246983E+02  0.40659138787E+02  0.00000000000E+00 0. -1.
         11    1    3    3    0    0  0.94232785970E+01 -0.88863103542E+01  0.47041194196E+01  0.13780182546E+02  0.51100000000E-03 0. -1.
        -11    1    3    3    0    0  0.19230095644E+01 -0.16683954883E+02  0.80516839268E+01  0.18624766593E+02  0.51100000000E-03 0.  1.
         12    1    3    3    0    0  0.17913396815E+02 -0.78685806884E+00 -0.26395563634E+01  0.18123912074E+02  0.00000000000E+00 0. -1.
</event>
<event>
 7    1  0.6726285E-013  0.5052888E+02  0.7816164E-02  0.1300439E+00
        -11   -1    0    0    0    0  0.00000000000E+00  0.00000000000E+00  0.45593999997E+02  0.45594000000E+02  0.51100000000E-03 0.  1.
         11   -1    0    0    0    0 -0.00000000000E+00 -0.00000000000E+00 -0.45593999997E+02  0.45594000000E+02  0.51100000000E-03 0. -1.
    9900012    2    1    2    0    0 -0.15102617723E+02 -0.25518646551E+02  0.27818590133E+02  0.50528876290E+02  0.30000049971E+02 0.  0.
         12    1    1    2    0    0  0.15102617723E+02  0.25518646551E+02 -0.27818590133E+02  0.40659123710E+02  0.00000000000E+00 0. -1.
         11    1    3    3    0    0 -0.41951245566E+01 -0.10857285952E+02  0.20874619640E+02  0.23900407395E+02  0.51100000000E-03 0. -1.
        -11    1    3    3    0    0 -0.51117003924E+01  0.34160598324E+00  0.90581720991E+01  0.10406568002E+02  0.51100000000E-03 0.  1.
         12    1    3    3    0    0 -0.57957927735E+01 -0.15002966582E+02 -0.21142016053E+01  0.16221900893E+02  0.00000000000E+00 0. -1.
</event>
<event>
 7    1  0.6726285E-013  0.5052886E+02  0.7816164E-02  0.1300439E+00
        -11   -1    0    0    0    0  0.00000000000E+00  0.00000000000E+00  0.45593999997E+02  0.45594000000E+02  0.51100000000E-03 0.  1.
         11   -1    0    0    0    0 -0.00000000000E+00 -0.00000000000E+00 -0.45593999997E+02  0.45594000000E+02  0.51100000000E-03 0. -1.
    9900012    2    1    2    0    0 -0.24791369898E+02 -0.29241930801E+02  0.13544863308E+02  0.50528857604E+02  0.29999993172E+02 0.  0.
         12    1    1    2    0    0  0.24791369898E+02  0.29241930801E+02 -0.13544863308E+02  0.40659142396E+02  0.00000000000E+00 0. -1.
         11    1    3    3    0    0  0.16645661543E+01 -0.48859931815E+00 -0.53474904110E+01  0.56218470037E+01  0.51100000000E-03 0. -1.
        -11    1    3    3    0    0 -0.15152597192E+01 -0.51718452862E+01 -0.61978373902E+00  0.54247698408E+01  0.51100000000E-03 0.  1.
        -12    1    3    3    0    0 -0.24940676333E+02 -0.23581486196E+02  0.19512137458E+02  0.39482240759E+02  0.00000000000E+00 0.  1.
</event>
<event>
 7    1  0.6726285E-013  0.5052885E+02  0.7816164E-02  0.1300439E+00
        -11   -1    0    0    0    0  0.00000000000E+00  0.00000000000E+00  0.45593999997E+02  0.45594000000E+02  0.51100000000E-03 0. -1.
         11   -1    0    0    0    0 -0.00000000000E+00 -0.00000000000E+00 -0.45593999997E+02  0.45594000000E+02  0.51100000000E-03 0.  1.
    9900012    2    1    2    0    0 -0.76701887928E+01  0.29213179567E+02  0.27219940248E+02  0.50528846004E+02  0.29999957915E+02 0.  0.
         12    1    1    2    0    0  0.76701887928E+01 -0.29213179567E+02 -0.27219940248E+02  0.40659153996E+02  0.00000000000E+00 0. -1.
         11    1    3    3    0    0 -0.76543862466E+01  0.12115228254E+02  0.36580424488E+01  0.14790187940E+02  0.51100000000E-03 0. -1.
        -11    1    3    3    0    0  0.12466368236E-01  0.17004477994E+02  0.57851419192E+01  0.17961633961E+02  0.51100000000E-03 0.  1.
         12    1    3    3    0    0 -0.28268914446E-01  0.93473319312E-01  0.17776755880E+02  0.17777024104E+02  0.00000000000E+00 0. -1.
</event>
<event>
 7    1  0.6726285E-013  0.5052886E+02  0.7816164E-02  0.1300439E+00
        -11   -1    0    0    0    0  0.00000000000E+00  0.00000000000E+00  0.45593999997E+02  0.45594000000E+02  0.51100000000E-03 0. -1.
         11   -1    0    0    0    0 -0.00000000000E+00 -0.00000000000E+00 -0.45593999997E+02  0.45594000000E+02  0.51100000000E-03 0.  1.
    9900012    2    1    2    0    0  0.13161726875E+02 -0.34950853296E+02 -0.16073962416E+02  0.50528862427E+02  0.30000007832E+02 0.  0.
         12    1    1    2    0    0 -0.13161726875E+02  0.34950853296E+02  0.16073962416E+02  0.40659137573E+02  0.00000000000E+00 0. -1.
         11    1    3    3    0    0  0.57982537442E+01  0.12561676821E+01  0.32425894102E+01  0.67610716659E+01  0.51100000000E-03 0. -1.
        -11    1    3    3    0    0 -0.14467857107E+01 -0.31689079114E+01  0.14385443006E+01  0.37688958873E+01  0.51100000000E-03 0.  1.
         12    1    3    3    0    0  0.88102588415E+01 -0.33038113067E+02 -0.20755096126E+02  0.39998894873E+02  0.00000000000E+00 0. -1.
</event>
<event>
 7    1  0.6726285E-013  0.5052887E+02  0.7816164E-02  0.1300439E+00
        -11   -1    0    0    0    0  0.00000000000E+00  0.00000000000E+00  0.45593999997E+02  0.45594000000E+02  0.51100000000E-03 0.  1.
         11   -1    0    0    0    0 -0.00000000000E+00 -0.00000000000E+00 -0.45593999997E+02  0.45594000000E+02  0.51100000000E-03 0. -1.
    9900012    2    1    2    0    0 -0.76734190277E+01 -0.71659456379E+01  0.39280185924E+02  0.50528866430E+02  0.30000020000E+02 0.  0.
         12    1    1    2    0    0  0.76734190277E+01  0.71659456379E+01 -0.39280185924E+02  0.40659133570E+02  0.00000000000E+00 0. -1.
         11    1    3    3    0    0 -0.81501057946E+01 -0.14242256640E+02  0.15507108313E+02  0.22577344998E+02  0.51100000000E-03 0. -1.
        -11    1    3    3    0    0  0.18434515758E+01 -0.30714619122E+01  0.25803140631E+01  0.44147721250E+01  0.51100000000E-03 0.  1.
         12    1    3    3    0    0 -0.13667648090E+01  0.10147772914E+02  0.21192763548E+02  0.23536749307E+02  0.00000000000E+00 0. -1.
</event>
<event>
 7    1  0.6726285E-013  0.5052884E+02  0.7816164E-02  0.1300439E+00
        -11   -1    0    0    0    0  0.00000000000E+00  0.00000000000E+00  0.45593999997E+02  0.45594000000E+02  0.51100000000E-03 0.  1.
         11   -1    0    0    0    0 -0.00000000000E+00 -0.00000000000E+00 -0.45593999997E+02  0.45594000000E+02  0.51100000000E-03 0. -1.
    9900012    2    1    2    0    0 -0.18457921072E+02 -0.34130452797E+02  0.12148452552E+02  0.50528836730E+02  0.29999929724E+02 0.  0.
         12    1    1    2    0    0  0.18457921072E+02  0.34130452797E+02 -0.12148452552E+02  0.40659163270E+02  0.00000000000E+00 0. -1.
         11    1    3    3    0    0 -0.40370740275E+01 -0.80738034085E+01  0.11412796657E+02  0.14551157891E+02  0.51100000000E-03 0. -1.
        -11    1    3    3    0    0  0.14213374087E+01 -0.13177826888E+02  0.65008611172E+01  0.14762673099E+02  0.51100000000E-03 0.  1.
         12    1    3    3    0    0 -0.15842184453E+02 -0.12878822501E+02 -0.57652052226E+01  0.21215005739E+02  0.00000000000E+00 0. -1.
</event>
<event>
 7    1  0.6726285E-013  0.5052885E+02  0.7816164E-02  0.1300439E+00
        -11   -1    0    0    0    0  0.00000000000E+00  0.00000000000E+00  0.45593999997E+02  0.45594000000E+02  0.51100000000E-03 0. -1.
         11   -1    0    0    0    0 -0.00000000000E+00 -0.00000000000E+00 -0.45593999997E+02  0.45594000000E+02  0.51100000000E-03 0.  1.
    9900012    2    1    2    0    0  0.26307798637E+02 -0.17782052104E+02 -0.25394183805E+02  0.50528853215E+02  0.29999979831E+02 0.  0.
         12    1    1    2    0    0 -0.26307798637E+02  0.17782052104E+02  0.25394183805E+02  0.40659146785E+02  0.00000000000E+00 0. -1.
         11    1    3    3    0    0  0.12661521194E+01 -0.60636446608E+00  0.37859421676E+01  0.40378431635E+01  0.51100000000E-03 0.  1.
        -11    1    3    3    0    0  0.14529528381E+02 -0.48542118567E+01 -0.28553414626E+01  0.15582796375E+02  0.51100000000E-03 0. -1.
        -12    1    3    3    0    0  0.10512118137E+02 -0.12321475782E+02 -0.26324784510E+02  0.30908213676E+02  0.00000000000E+00 0.  1.
</event>
<event>
 7    1  0.6726285E-013  0.5052885E+02  0.7816164E-02  0.1300439E+00
        -11   -1    0    0    0    0  0.00000000000E+00  0.00000000000E+00  0.45593999997E+02  0.45594000000E+02  0.51100000000E-03 0.  1.
         11   -1    0    0    0    0 -0.00000000000E+00 -0.00000000000E+00 -0.45593999997E+02  0.45594000000E+02  0.51100000000E-03 0. -1.
    9900012    2    1    2    0    0 -0.31800184521E+02  0.22202767725E+02 -0.12204570602E+02  0.50528853750E+02  0.29999981459E+02 0.  0.
         12    1    1    2    0    0  0.31800184521E+02 -0.22202767725E+02  0.12204570602E+02  0.40659146250E+02  0.00000000000E+00 0. -1.
         11    1    3    3    0    0 -0.47948112269E+01  0.44119725464E+01 -0.43799845563E+01  0.78511133877E+01  0.51100000000E-03 0. -1.
        -11    1    3    3    0    0 -0.42566868492E+01  0.18361256125E+02 -0.81125079593E+00  0.18865662923E+02  0.51100000000E-03 0.  1.
        -12    1    3    3    0    0 -0.22748686445E+02 -0.57046094668E+00 -0.70133352494E+01  0.23812077439E+02  0.00000000000E+00 0.  1.
</event>
<event>
 7    1  0.6726285E-013  0.5052886E+02  0.7816164E-02  0.1300439E+00
        -11   -1    0    0    0    0  0.00000000000E+00  0.00000000000E+00  0.45593999997E+02  0.45594000000E+02  0.51100000000E-03 0.  1.
         11   -1    0    0    0    0 -0.00000000000E+00 -0.00000000000E+00 -0.45593999997E+02  0.45594000000E+02  0.51100000000E-03 0. -1.
    9900012    2    1    2    0    0 -0.96988596206E+01  0.98895649342E+01  0.38226881921E+02  0.50528857437E+02  0.29999992665E+02 0.  0.
         12    1    1    2    0    0  0.96988596206E+01 -0.98895649342E+01 -0.38226881921E+02  0.40659142563E+02  0.00000000000E+00 0. -1.
         11    1    3    3    0    0  0.13342130783E-01  0.11467726441E+02  0.86097875507E+01  0.14340061704E+02  0.51100000000E-03 0. -1.
        -11    1    3    3    0    0  0.15643028754E+01 -0.76311909559E+01  0.88038504766E+01  0.11755420127E+02  0.51100000000E-03 0.  1.
        -12    1    3    3    0    0 -0.11276504627E+02  0.60530294493E+01  0.20813243894E+02  0.24433375606E+02  0.00000000000E+00 0.  1.
</event>
<event>
 7    1  0.6726285E-013  0.5052888E+02  0.7816164E-02  0.1300439E+00
        -11   -1    0    0    0    0  0.00000000000E+00  0.00000000000E+00  0.45593999997E+02  0.45594000000E+02  0.51100000000E-03 0.  1.
         11   -1    0    0    0    0 -0.00000000000E+00 -0.00000000000E+00 -0.45593999997E+02  0.45594000000E+02  0.51100000000E-03 0. -1.
    9900012    2    1    2    0    0 -0.29314471508E+02  0.27088185956E+02 -0.77496036349E+01  0.50528875382E+02  0.30000047212E+02 0.  0.
         12    1    1    2    0    0  0.29314471508E+02 -0.27088185956E+02  0.77496036349E+01  0.40659124618E+02  0.00000000000E+00 0. -1.
         11    1    3    3    0    0 -0.19057213450E+02  0.14082541230E+02 -0.16350803824E+02  0.28789653314E+02  0.51100000000E-03 0. -1.
        -11    1    3    3    0    0  0.73610437986E-01 -0.67682038511E+00 -0.16351769963E+01  0.17712448731E+01  0.51100000000E-03 0.  1.
        -12    1    3    3    0    0 -0.10330868496E+02  0.13682465111E+02  0.10236377186E+02  0.19967977195E+02  0.00000000000E+00 0.  1.
</event>
<event>
 7    1  0.6726285E-013  0.5052886E+02  0.7816164E-02  0.1300439E+00
        -11   -1    0    0    0    0  0.00000000000E+00  0.00000000000E+00  0.45593999997E+02  0.45594000000E+02  0.51100000000E-03 0.  1.
         11   -1    0    0    0    0 -0.00000000000E+00 -0.00000000000E+00 -0.45593999997E+02  0.45594000000E+02  0.51100000000E-03 0. -1.
    9900012    2    1    2    0    0 -0.17153706302E+02 -0.14066371852E+02  0.34074226501E+02  0.50528863651E+02  0.30000011554E+02 0.  0.
         12    1    1    2    0    0  0.17153706302E+02  0.14066371852E+02 -0.34074226501E+02  0.40659136349E+02  0.00000000000E+00 0. -1.
         11    1    3    3    0    0 -0.91933662586E+01 -0.63617528256E+01 -0.21274790045E+01  0.11380511823E+02  0.51100000000E-03 0. -1.
        -11    1    3    3    0    0 -0.51767626297E+01 -0.28338166606E+01  0.59484970664E+01  0.83793797981E+01  0.51100000000E-03 0.  1.
        -12    1    3    3    0    0 -0.27835774142E+01 -0.48708023656E+01  0.30253208439E+02  0.30768972030E+02  0.00000000000E+00 0.  1.
</event>
<event>
 7    1  0.6726285E-013  0.5052886E+02  0.7816164E-02  0.1300439E+00
        -11   -1    0    0    0    0  0.00000000000E+00  0.00000000000E+00  0.45593999997E+02  0.45594000000E+02  0.51100000000E-03 0.  1.
         11   -1    0    0    0    0 -0.00000000000E+00 -0.00000000000E+00 -0.45593999997E+02  0.45594000000E+02  0.51100000000E-03 0. -1.
    9900012    2    1    2    0    0 -0.13587064554E+02  0.38268615540E+02  0.20175616249E+01  0.50528858181E+02  0.29999994927E+02 0.  0.
         12    1    1    2    0    0  0.13587064554E+02 -0.38268615540E+02 -0.20175616249E+01  0.40659141819E+02  0.00000000000E+00 0. -1.
         11    1    3    3    0    0 -0.22920510385E+01  0.26115645047E+02  0.90684451115E+01  0.27740171434E+02  0.51100000000E-03 0. -1.
        -11    1    3    3    0    0 -0.99869162469E+01  0.13694023150E+02 -0.16584404633E+01  0.17029832389E+02  0.51100000000E-03 0.  1.
         12    1    3    3    0    0 -0.13080972681E+01 -0.15410526575E+01 -0.53924430233E+01  0.57588543579E+01  0.00000000000E+00 0. -1.
</event>
<event>
 7    1  0.6726285E-013  0.5052886E+02  0.7816164E-02  0.1300439E+00
        -11   -1    0    0    0    0  0.00000000000E+00  0.00000000000E+00  0.45593999997E+02  0.45594000000E+02  0.51100000000E-03 0. -1.
         11   -1    0    0    0    0 -0.00000000000E+00 -0.00000000000E+00 -0.45593999997E+02  0.45594000000E+02  0.51100000000E-03 0.  1.
    9900012    2    1    2    0    0 -0.31291344701E+02 -0.25400101585E+02 -0.53714511607E+01  0.50528857101E+02  0.29999991645E+02 0.  0.
         12    1    1    2    0    0  0.31291344701E+02  0.25400101585E+02  0.53714511607E+01  0.40659142899E+02  0.00000000000E+00 0. -1.
         11    1    3    3    0    0 -0.13923851927E+02 -0.58565805241E+01  0.16763961637E+01  0.15198141080E+02  0.51100000000E-03 0. -1.
        -11    1    3    3    0    0 -0.18376499985E+02 -0.13457849675E+02 -0.13440346159E+02  0.26447161940E+02  0.51100000000E-03 0.  1.
        -12    1    3    3    0    0  0.10090072114E+01 -0.60856713855E+01  0.63924988343E+01  0.88835540811E+01  0.00000000000E+00 0.  1.
</event>
<event>
 7    1  0.6726285E-013  0.5052886E+02  0.7816164E-02  0.1300439E+00
        -11   -1    0    0    0    0  0.00000000000E+00  0.00000000000E+00  0.45593999997E+02  0.45594000000E+02  0.51100000000E-03 0.  1.
         11   -1    0    0    0    0 -0.00000000000E+00 -0.00000000000E+00 -0.45593999997E+02  0.45594000000E+02  0.51100000000E-03 0. -1.
    9900012    2    1    2    0    0  0.19599908500E+02  0.35101895031E+02 -0.60717623809E+01  0.50528859006E+02  0.29999997435E+02 0.  0.
         12    1    1    2    0    0 -0.19599908500E+02 -0.35101895031E+02  0.60717623809E+01  0.40659140994E+02  0.00000000000E+00 0. -1.
         11    1    3    3    0    0  0.21713647425E+01  0.13278500358E+02  0.81245343648E+01  0.15717552466E+02  0.51100000000E-03 0. -1.
        -11    1    3    3    0    0  0.51540626287E+01  0.13454291000E+02 -0.21282265791E+00  0.14409288728E+02  0.51100000000E-03 0.  1.
        -12    1    3    3    0    0  0.12274481129E+02  0.83691036722E+01 -0.13983474088E+02  0.20402017813E+02  0.00000000000E+00 0.  1.
</event>
<event>
 7    1  0.6726285E-013  0.5052888E+02  0.7816164E-02  0.1300439E+00
        -11   -1    0    0    0    0  0.00000000000E+00  0.00000000000E+00  0.45593999997E+02  0.45594000000E+02  0.51100000000E-03 0.  1.
         11   -1    0    0    0    0 -0.00000000000E+00 -0.00000000000E+00 -0.45593999997E+02  0.45594000000E+02  0.51100000000E-03 0. -1.
    9900012    2    1    2    0    0  0.17880753933E+02  0.35500834716E+02 -0.85518050359E+01  0.50528880529E+02  0.30000062857E+02 0.  0.
         12    1    1    2    0    0 -0.17880753933E+02 -0.35500834716E+02  0.85518050359E+01  0.40659119471E+02  0.00000000000E+00 0. -1.
         11    1    3    3    0    0  0.32618772824E+01 -0.22882976152E+01  0.59693559774E+00  0.40289554168E+01  0.51100000000E-03 0. -1.
        -11    1    3    3    0    0  0.61015544440E+01  0.18024177932E+02 -0.14961959021E+02  0.24206614277E+02  0.51100000000E-03 0.  1.
         12    1    3    3    0    0  0.85173222068E+01  0.19764954400E+02  0.58132183877E+01  0.22293310836E+02  0.00000000000E+00 0. -1.
</event>
<event>
 7    1  0.6726285E-013  0.5052886E+02  0.7816164E-02  0.1300439E+00
        -11   -1    0    0    0    0  0.00000000000E+00  0.00000000000E+00  0.45593999997E+02  0.45594000000E+02  0.51100000000E-03 0. -1.
         11   -1    0    0    0    0 -0.00000000000E+00 -0.00000000000E+00 -0.45593999997E+02  0.45594000000E+02  0.51100000000E-03 0.  1.
    9900012    2    1    2    0    0 -0.28985354278E+02  0.27665196761E+02 -0.69030117089E+01  0.50528862711E+02  0.30000008697E+02 0.  0.
         12    1    1    2    0    0  0.28985354278E+02 -0.27665196761E+02  0.69030117089E+01  0.40659137289E+02  0.00000000000E+00 0. -1.
         11    1    3    3    0    0  0.21047733927E+01  0.59343951681E+01  0.35098605996E+01  0.72087612483E+01  0.51100000000E-03 0. -1.
        -11    1    3    3    0    0 -0.11796024075E+02  0.19003017274E+02 -0.76534418624E+01  0.23639712818E+02  0.51100000000E-03 0.  1.
        -12    1    3    3    0    0 -0.19294103595E+02  0.27277843180E+01 -0.27594304460E+01  0.19680388645E+02  0.00000000000E+00 0.  1.
</event>
<event>
 7    1  0.6726285E-013  0.5052885E+02  0.7816164E-02  0.1300439E+00
        -11   -1    0    0    0    0  0.00000000000E+00  0.00000000000E+00  0.45593999997E+02  0.45594000000E+02  0.51100000000E-03 0.  1.
         11   -1    0    0    0    0 -0.00000000000E+00 -0.00000000000E+00 -0.45593999997E+02  0.45594000000E+02  0.51100000000E-03 0. -1.
    9900012    2    1    2    0    0 -0.27962912258E+02  0.12725273647E+02  0.26632870112E+02  0.50528845781E+02  0.29999957236E+02 0.  0.
         12    1    1    2    0    0  0.27962912258E+02 -0.12725273647E+02 -0.26632870112E+02  0.40659154219E+02  0.00000000000E+00 0. -1.
         11    1    3    3    0    0  0.20716420184E+01  0.10339452058E+01  0.10388953451E+02  0.10643829076E+02  0.51100000000E-03 0. -1.
        -11    1    3    3    0    0 -0.75977013674E+00  0.42955510099E+01  0.71058495404E+01  0.83379917901E+01  0.51100000000E-03 0.  1.
         12    1    3    3    0    0 -0.29274784140E+02  0.73957774315E+01  0.91380671212E+01  0.31547024915E+02  0.00000000000E+00 0. -1.
</event>
<event>
 7    1  0.6726285E-013  0.5052887E+02  0.7816164E-02  0.1300439E+00
        -11   -1    0    0    0    0  0.00000000000E+00  0.00000000000E+00  0.45593999997E+02  0.45594000000E+02  0.51100000000E-03 0. -1.
         11   -1    0    0    0    0 -0.00000000000E+00 -0.00000000000E+00 -0.45593999997E+02  0.45594000000E+02  0.51100000000E-03 0.  1.
    9900012    2    1    2    0    0  0.13337878594E+02  0.17079016792E+02 -0.34403090615E+02  0.50528874778E+02  0.30000045374E+02 0.  0.
         12    1    1    2    0    0 -0.13337878594E+02 -0.17079016792E+02  0.34403090615E+02  0.40659125222E+02  0.00000000000E+00 0. -1.
         11    1    3    3    0    0  0.13330746809E+02  0.13562369033E+02 -0.18893382301E+02  0.26806837921E+02  0.51100000000E-03 0. -1.
        -11    1    3    3    0    0 -0.80498019840E+01  0.53756257487E+01 -0.82296733012E+01  0.12705281857E+02  0.51100000000E-03 0.  1.
         12    1    3    3    0    0  0.80569337692E+01 -0.18589779896E+01 -0.72800350126E+01  0.11016754999E+02  0.00000000000E+00 0. -1.
</event>
<event>
 7    1  0.6726285E-013  0.5052883E+02  0.7816164E-02  0.1300439E+00
        -11   -1    0    0    0    0  0.00000000000E+00  0.00000000000E+00  0.45593999997E+02  0.45594000000E+02  0.51100000000E-03 0.  1.
         11   -1    0    0    0    0 -0.00000000000E+00 -0.00000000000E+00 -0.45593999997E+02  0.45594000000E+02  0.51100000000E-03 0. -1.
    9900012    2    1    2    0    0 -0.75356736192E+01 -0.34173463419E+02 -0.20701589652E+02  0.50528833837E+02  0.29999920931E+02 0.  0.
         12    1    1    2    0    0  0.75356736192E+01  0.34173463419E+02  0.20701589652E+02  0.40659166163E+02  0.00000000000E+00 0. -1.
         11    1    3    3    0    0  0.37160011194E+01 -0.50718823241E+01  0.28212831991E+01  0.68914652854E+01  0.51100000000E-03 0. -1.
        -11    1    3    3    0    0  0.53298263044E+01 -0.54234702602E+01 -0.70341620032E+01  0.10358596114E+02  0.51100000000E-03 0.  1.
        -12    1    3    3    0    0 -0.16581501043E+02 -0.23678110835E+02 -0.16488710848E+02  0.33278772438E+02  0.00000000000E+00 0.  1.
</event>
<event>
 7    1  0.6726285E-013  0.5052886E+02  0.7816164E-02  0.1300439E+00
        -11   -1    0    0    0    0  0.00000000000E+00  0.00000000000E+00  0.45593999997E+02  0.45594000000E+02  0.51100000000E-03 0.  1.
         11   -1    0    0    0    0 -0.00000000000E+00 -0.00000000000E+00 -0.45593999997E+02  0.45594000000E+02  0.51100000000E-03 0. -1.
    9900012    2    1    2    0    0  0.92642843043E+01 -0.15336753010E+02  0.36498251886E+02  0.50528863914E+02  0.30000012352E+02 0.  0.
         12    1    1    2    0    0 -0.92642843043E+01  0.15336753010E+02 -0.36498251886E+02  0.40659136086E+02  0.00000000000E+00 0. -1.
         11    1    3    3    0    0 -0.28672903173E+01 -0.32045827827E+01  0.46670135325E+01  0.63460003269E+01  0.51100000000E-03 0. -1.
        -11    1    3    3    0    0 -0.49935015910E+00 -0.15424261207E+02  0.89486549295E+01  0.17839159444E+02  0.51100000000E-03 0.  1.
         12    1    3    3    0    0  0.12630924781E+02  0.32920909796E+01  0.22882583424E+02  0.26343704143E+02  0.00000000000E+00 0. -1.
</event>
<event>
 7    1  0.7340071E-013  0.5052886E+02  0.7816164E-02  0.1300439E+00
        -11   -1    0    0    0    0  0.00000000000E+00  0.00000000000E+00  0.45593999997E+02  0.45594000000E+02  0.51100000000E-03 0. -1.
         11   -1    0    0    0    0 -0.00000000000E+00 -0.00000000000E+00 -0.45593999997E+02  0.45594000000E+02  0.51100000000E-03 0.  1.
    9900012    2    1    2    0    0 -0.11168876992E+02 -0.20697065410E+02 -0.33167050611E+02  0.50528861100E+02  0.30000003799E+02 0.  0.
         12    1    1    2    0    0  0.11168876992E+02  0.20697065410E+02  0.33167050611E+02  0.40659138900E+02  0.00000000000E+00 0. -1.
         11    1    3    3    0    0  0.68429432503E+01 -0.46462598965E+01 -0.10464963683E+02  0.13339005529E+02  0.51100000000E-03 0. -1.
        -11    1    3    3    0    0 -0.16499380401E+02 -0.52758402325E+01 -0.18965141421E+02  0.25685416741E+02  0.51100000000E-03 0.  1.
         12    1    3    3    0    0 -0.15124398419E+01 -0.10774965281E+02 -0.37369455075E+01  0.11504438831E+02  0.00000000000E+00 0. -1.
</event>
<event>
 7    1  0.6726285E-013  0.5052886E+02  0.7816164E-02  0.1300439E+00
        -11   -1    0    0    0    0  0.00000000000E+00  0.00000000000E+00  0.45593999997E+02  0.45594000000E+02  0.51100000000E-03 0. -1.
         11   -1    0    0    0    0 -0.00000000000E+00 -0.00000000000E+00 -0.45593999997E+02  0.45594000000E+02  0.51100000000E-03 0.  1.
    9900012    2    1    2    0    0  0.14003496706E+02 -0.37932855450E+02 -0.42622008126E+01  0.50528858367E+02  0.29999995492E+02 0.  0.
         12    1    1    2    0    0 -0.14003496706E+02  0.37932855450E+02  0.42622008126E+01  0.40659141633E+02  0.00000000000E+00 0. -1.
         11    1    3    3    0    0 -0.13178658033E+01 -0.15129715492E+02 -0.61951830376E+01  0.16401992387E+02  0.51100000000E-03 0.  1.
        -11    1    3    3    0    0  0.15580127636E+01 -0.91705214006E+01  0.95311354932E+01  0.13317973216E+02  0.51100000000E-03 0. -1.
         12    1    3    3    0    0  0.13763349746E+02 -0.13632618557E+02 -0.75981532682E+01  0.20808892763E+02  0.00000000000E+00 0. -1.
</event>
<event>
 7    1  0.6726285E-013  0.5052886E+02  0.7816164E-02  0.1300439E+00
        -11   -1    0    0    0    0  0.00000000000E+00  0.00000000000E+00  0.45593999997E+02  0.45594000000E+02  0.51100000000E-03 0. -1.
         11   -1    0    0    0    0 -0.00000000000E+00 -0.00000000000E+00 -0.45593999997E+02  0.45594000000E+02  0.51100000000E-03 0.  1.
    9900012    2    1    2    0    0  0.20959649825E+02  0.60134798951E+01 -0.34317590976E+02  0.50528856974E+02  0.29999991257E+02 0.  0.
         12    1    1    2    0    0 -0.20959649825E+02 -0.60134798951E+01  0.34317590976E+02  0.40659143026E+02  0.00000000000E+00 0. -1.
         11    1    3    3    0    0  0.55469915716E+01 -0.22666545578E+01 -0.13583240101E+02  0.14846253746E+02  0.51100000000E-03 0. -1.
        -11    1    3    3    0    0  0.20873843942E+02  0.90210378148E+01 -0.19676171760E+02  0.30070720304E+02  0.51100000000E-03 0.  1.
         12    1    3    3    0    0 -0.54611856886E+01 -0.74090336195E+00 -0.10581791147E+01  0.56118829243E+01  0.00000000000E+00 0. -1.
</event>
<event>
 7    1  0.6726285E-013  0.5052885E+02  0.7816164E-02  0.1300439E+00
        -11   -1    0    0    0    0  0.00000000000E+00  0.00000000000E+00  0.45593999997E+02  0.45594000000E+02  0.51100000000E-03 0.  1.
         11   -1    0    0    0    0 -0.00000000000E+00 -0.00000000000E+00 -0.45593999997E+02  0.45594000000E+02  0.51100000000E-03 0. -1.
    9900012    2    1    2    0    0  0.18189461521E+02  0.16680839582E+02  0.32311904353E+02  0.50528854873E+02  0.29999984871E+02 0.  0.
         12    1    1    2    0    0 -0.18189461521E+02 -0.16680839582E+02 -0.32311904353E+02  0.40659145127E+02  0.00000000000E+00 0. -1.
         11    1    3    3    0    0  0.22854050040E+02  0.80268640173E+01  0.12541860261E+02  0.27277030781E+02  0.51100000000E-03 0. -1.
        -11    1    3    3    0    0 -0.52822912867E+00  0.13807962868E+01 -0.29910018331E+00  0.15083386817E+01  0.51100000000E-03 0.  1.
        -12    1    3    3    0    0 -0.41363593905E+01  0.72731792783E+01  0.20069144275E+02  0.21743485410E+02  0.00000000000E+00 0.  1.
</event>
<event>
 7    1  0.6726285E-013  0.5052886E+02  0.7816164E-02  0.1300439E+00
        -11   -1    0    0    0    0  0.00000000000E+00  0.00000000000E+00  0.45593999997E+02  0.45594000000E+02  0.51100000000E-03 0.  1.
         11   -1    0    0    0    0 -0.00000000000E+00 -0.00000000000E+00 -0.45593999997E+02  0.45594000000E+02  0.51100000000E-03 0. -1.
    9900012    2    1    2    0    0 -0.17018281613E+02 -0.13987034975E+02  0.34174650766E+02  0.50528858207E+02  0.29999995005E+02 0.  0.
         12    1    1    2    0    0  0.17018281613E+02  0.13987034975E+02 -0.34174650766E+02  0.40659141793E+02  0.00000000000E+00 0. -1.
         11    1    3    3    0    0 -0.43670788000E+01 -0.15430459146E+02  0.12935364807E+02  0.20603254831E+02  0.51100000000E-03 0. -1.
        -11    1    3    3    0    0  0.28046176193E+01 -0.34685154883E+01  0.72288347998E+01  0.84942646831E+01  0.51100000000E-03 0.  1.
        -12    1    3    3    0    0 -0.15455820432E+02  0.49119396600E+01  0.14010451159E+02  0.21431338692E+02  0.00000000000E+00 0.  1.
</event>
<event>
 7    1  0.6726285E-013  0.5052885E+02  0.7816164E-02  0.1300439E+00
        -11   -1    0    0    0    0  0.00000000000E+00  0.00000000000E+00  0.45593999997E+02  0.45594000000E+02  0.51100000000E-03 0.  1.
         11   -1    0    0    0    0 -0.00000000000E+00 -0.00000000000E+00 -0.45593999997E+02  0.45594000000E+02  0.51100000000E-03 0. -1.
    9900012    2    1    2    0    0  0.12743009787E+02  0.32351843802E+02  0.21074638583E+02  0.50528849896E+02  0.29999969743E+02 0.  0.
         12    1    1    2    0    0 -0.12743009787E+02 -0.32351843802E+02 -0.21074638583E+02  0.40659150104E+02  0.00000000000E+00 0. -1.
         11    1    3    3    0    0 -0.23263528514E+01  0.92900331317E+01  0.27079479572E+01  0.99523673353E+01  0.51100000000E-03 0. -1.
        -11    1    3    3    0    0  0.35381851875E+01  0.23670106523E+02  0.16001326490E+02  0.28789497164E+02  0.51100000000E-03 0.  1.
        -12    1    3    3    0    0  0.11531177451E+02 -0.60829585275E+00  0.23653641355E+01  0.11786985397E+02  0.00000000000E+00 0.  1.
</event>
<event>
 7    1  0.6726285E-013  0.5052886E+02  0.7816164E-02  0.1300439E+00
        -11   -1    0    0    0    0  0.00000000000E+00  0.00000000000E+00  0.45593999997E+02  0.45594000000E+02  0.51100000000E-03 0. -1.
         11   -1    0    0    0    0 -0.00000000000E+00 -0.00000000000E+00 -0.45593999997E+02  0.45594000000E+02  0.51100000000E-03 0.  1.
    9900012    2    1    2    0    0 -0.30326809507E+02  0.26901488193E+02  0.31241144870E+01  0.50528861628E+02  0.30000005405E+02 0.  0.
         12    1    1    2    0    0  0.30326809507E+02 -0.26901488193E+02 -0.31241144870E+01  0.40659138372E+02  0.00000000000E+00 0. -1.
         11    1    3    3    0    0 -0.12681793086E+02 -0.20967271565E+01  0.51608802773E+01  0.13851311351E+02  0.51100000000E-03 0. -1.
        -11    1    3    3    0    0 -0.12020059701E+02  0.70174941914E+01 -0.29414574241E+00  0.13921694650E+02  0.51100000000E-03 0.  1.
        -12    1    3    3    0    0 -0.56249567197E+01  0.21980721158E+02 -0.17426200479E+01  0.22755855627E+02  0.00000000000E+00 0.  1.
</event>
<event>
 7    1  0.6726285E-013  0.5052885E+02  0.7816164E-02  0.1300439E+00
        -11   -1    0    0    0    0  0.00000000000E+00  0.00000000000E+00  0.45593999997E+02  0.45594000000E+02  0.51100000000E-03 0.  1.
         11   -1    0    0    0    0 -0.00000000000E+00 -0.00000000000E+00 -0.45593999997E+02  0.45594000000E+02  0.51100000000E-03 0. -1.
    9900012    2    1    2    0    0 -0.19198025256E+02  0.91314294540E+01  0.34658607932E+02  0.50528852427E+02  0.29999977436E+02 0.  0.
         12    1    1    2    0    0  0.19198025256E+02 -0.91314294540E+01 -0.34658607932E+02  0.40659147573E+02  0.00000000000E+00 0. -1.
         11    1    3    3    0    0 -0.48925053387E+00 -0.25742232131E+01 -0.24304550901E+01  0.35739478790E+01  0.51100000000E-03 0. -1.
        -11    1    3    3    0    0  0.37531943089E+01  0.10902404890E+01  0.59604741827E+01  0.71275763474E+01  0.51100000000E-03 0.  1.
        -12    1    3    3    0    0 -0.22461969031E+02  0.10615412178E+02  0.31128588839E+02  0.39827328200E+02  0.00000000000E+00 0.  1.
</event>
<event>
 7    1  0.6726285E-013  0.5052886E+02  0.7816164E-02  0.1300439E+00
        -11   -1    0    0    0    0  0.00000000000E+00  0.00000000000E+00  0.45593999997E+02  0.45594000000E+02  0.51100000000E-03 0.  1.
         11   -1    0    0    0    0 -0.00000000000E+00 -0.00000000000E+00 -0.45593999997E+02  0.45594000000E+02  0.51100000000E-03 0. -1.
    9900012    2    1    2    0    0  0.23904886954E+02 -0.32732262050E+02 -0.32126068730E+01  0.50528862748E+02  0.30000008808E+02 0.  0.
         12    1    1    2    0    0 -0.23904886954E+02  0.32732262050E+02  0.32126068730E+01  0.40659137252E+02  0.00000000000E+00 0. -1.
         11    1    3    3    0    0 -0.34774405431E+01 -0.18610869460E+02 -0.46626166259E+01  0.19498642231E+02  0.51100000000E-03 0. -1.
        -11    1    3    3    0    0  0.23603312911E+01 -0.23954397311E+01  0.13139777840E+00  0.33654956465E+01  0.51100000000E-03 0.  1.
         12    1    3    3    0    0  0.25021996206E+02 -0.11725952858E+02  0.13186119745E+01  0.27664724870E+02  0.00000000000E+00 0. -1.
</event>
<event>
 7    1  0.6726285E-013  0.5052886E+02  0.7816164E-02  0.1300439E+00
        -11   -1    0    0    0    0  0.00000000000E+00  0.00000000000E+00  0.45593999997E+02  0.45594000000E+02  0.51100000000E-03 0.  1.
         11   -1    0    0    0    0 -0.00000000000E+00 -0.00000000000E+00 -0.45593999997E+02  0.45594000000E+02  0.51100000000E-03 0. -1.
    9900012    2    1    2    0    0 -0.19321830256E+02 -0.16701541227E+02  0.31636859033E+02  0.50528862611E+02  0.30000008391E+02 0.  0.
         12    1    1    2    0    0  0.19321830256E+02  0.16701541227E+02 -0.31636859033E+02  0.40659137389E+02  0.00000000000E+00 0. -1.
         11    1    3    3    0    0 -0.12370552791E+02  0.49585989777E+01  0.15413687118E+02  0.20376457764E+02  0.51100000000E-03 0. -1.
        -11    1    3    3    0    0 -0.17296350097E+01 -0.27417033536E+00  0.52908214375E+01  0.55731138858E+01  0.51100000000E-03 0.  1.
        -12    1    3    3    0    0 -0.52216424553E+01 -0.21385969869E+02  0.10932350477E+02  0.24579290960E+02  0.00000000000E+00 0.  1.
</event>
<event>
 7    1  0.6726285E-013  0.5052886E+02  0.7816164E-02  0.1300439E+00
        -11   -1    0    0    0    0  0.00000000000E+00  0.00000000000E+00  0.45593999997E+02  0.45594000000E+02  0.51100000000E-03 0.  1.
         11   -1    0    0    0    0 -0.00000000000E+00 -0.00000000000E+00 -0.45593999997E+02  0.45594000000E+02  0.51100000000E-03 0. -1.
    9900012    2    1    2    0    0  0.14969529091E+02 -0.27076648720E+01  0.37706063884E+02  0.50528861987E+02  0.30000006497E+02 0.  0.
         12    1    1    2    0    0 -0.14969529091E+02  0.27076648720E+01 -0.37706063884E+02  0.40659138013E+02  0.00000000000E+00 0. -1.
         11    1    3    3    0    0  0.33444844115E+01  0.41087416830E+01  0.22148521842E+01  0.57422038152E+01  0.51100000000E-03 0. -1.
        -11    1    3    3    0    0  0.14128330977E+02  0.46570087232E+01  0.24723969554E+02  0.28854326144E+02  0.51100000000E-03 0.  1.
        -12    1    3    3    0    0 -0.25032862968E+01 -0.11473415278E+02  0.10767242146E+02  0.15932332028E+02  0.00000000000E+00 0.  1.
</event>
<event>
 7    1  0.6726285E-013  0.5052886E+02  0.7816164E-02  0.1300439E+00
        -11   -1    0    0    0    0  0.00000000000E+00  0.00000000000E+00  0.45593999997E+02  0.45594000000E+02  0.51100000000E-03 0.  1.
         11   -1    0    0    0    0 -0.00000000000E+00 -0.00000000000E+00 -0.45593999997E+02  0.45594000000E+02  0.51100000000E-03 0. -1.
    9900012    2    1    2    0    0  0.30462589546E+02 -0.15231688166E+02  0.22207924742E+02  0.50528860713E+02  0.30000002623E+02 0.  0.
         12    1    1    2    0    0 -0.30462589546E+02  0.15231688166E+02 -0.22207924742E+02  0.40659139287E+02  0.00000000000E+00 0. -1.
         11    1    3    3    0    0  0.12104069099E+02 -0.79916759042E+01 -0.46542259343E+01  0.15232767044E+02  0.51100000000E-03 0. -1.
        -11    1    3    3    0    0  0.34012965965E+01  0.23437220061E+01  0.99307432619E+01  0.10755534081E+02  0.51100000000E-03 0.  1.
        -12    1    3    3    0    0  0.14957223851E+02 -0.95837342682E+01  0.16931407414E+02  0.24540559588E+02  0.00000000000E+00 0.  1.
</event>
<event>
 7    1  0.6726285E-013  0.5052886E+02  0.7816164E-02  0.1300439E+00
        -11   -1    0    0    0    0  0.00000000000E+00  0.00000000000E+00  0.45593999997E+02  0.45594000000E+02  0.51100000000E-03 0. -1.
         11   -1    0    0    0    0 -0.00000000000E+00 -0.00000000000E+00 -0.45593999997E+02  0.45594000000E+02  0.51100000000E-03 0.  1.
    9900012    2    1    2    0    0  0.36248577161E+02 -0.13676046858E+02 -0.12335804312E+02  0.50528859922E+02  0.30000000218E+02 0.  0.
         12    1    1    2    0    0 -0.36248577161E+02  0.13676046858E+02  0.12335804312E+02  0.40659140078E+02  0.00000000000E+00 0. -1.
         11    1    3    3    0    0  0.50921843251E+01  0.57419064170E+01 -0.25278450219E+01  0.80802123251E+01  0.51100000000E-03 0. -1.
        -11    1    3    3    0    0  0.37948520698E+01 -0.12518774277E+02 -0.29865721906E+01  0.13417906891E+02  0.51100000000E-03 0.  1.
        -12    1    3    3    0    0  0.27361540766E+02 -0.68991789977E+01 -0.68213870996E+01  0.29030740705E+02  0.00000000000E+00 0.  1.
</event>
<event>
 7    1  0.6726285E-013  0.5052888E+02  0.7816164E-02  0.1300439E+00
        -11   -1    0    0    0    0  0.00000000000E+00  0.00000000000E+00  0.45593999997E+02  0.45594000000E+02  0.51100000000E-03 0.  1.
         11   -1    0    0    0    0 -0.00000000000E+00 -0.00000000000E+00 -0.45593999997E+02  0.45594000000E+02  0.51100000000E-03 0. -1.
    9900012    2    1    2    0    0 -0.17323213013E+02 -0.29329455192E+02  0.22200308654E+02  0.50528876113E+02  0.30000049434E+02 0.  0.
         12    1    1    2    0    0  0.17323213013E+02  0.29329455192E+02 -0.22200308654E+02  0.40659123887E+02  0.00000000000E+00 0. -1.
         11    1    3    3    0    0  0.44116372741E+01 -0.78505670354E+00 -0.19362296296E+00  0.44851251464E+01  0.51100000000E-03 0. -1.
        -11    1    3    3    0    0  0.23622844287E+01  0.20714560751E+00  0.34744444058E-01  0.23716037743E+01  0.51100000000E-03 0.  1.
        -12    1    3    3    0    0 -0.24097134716E+02 -0.28751544096E+02  0.22359187173E+02  0.43672147192E+02  0.00000000000E+00 0.  1.
</event>
<event>
 7    1  0.6726285E-013  0.5052887E+02  0.7816164E-02  0.1300439E+00
        -11   -1    0    0    0    0  0.00000000000E+00  0.00000000000E+00  0.45593999997E+02  0.45594000000E+02  0.51100000000E-03 0.  1.
         11   -1    0    0    0    0 -0.00000000000E+00 -0.00000000000E+00 -0.45593999997E+02  0.45594000000E+02  0.51100000000E-03 0. -1.
    9900012    2    1    2    0    0  0.15334944799E+02  0.20472213680E+02  0.31605270957E+02  0.50528865513E+02  0.30000017214E+02 0.  0.
         12    1    1    2    0    0 -0.15334944799E+02 -0.20472213680E+02 -0.31605270957E+02  0.40659134487E+02  0.00000000000E+00 0. -1.
         11    1    3    3    0    0  0.54626188857E+01  0.24579256730E+01 -0.19887135017E+01  0.63116230367E+01  0.51100000000E-03 0. -1.
        -11    1    3    3    0    0 -0.54151885533E+01  0.15775854760E+01  0.11035600561E+02  0.12393446776E+02  0.51100000000E-03 0.  1.
        -12    1    3    3    0    0  0.15287514466E+02  0.16436702531E+02  0.22558383899E+02  0.31823795700E+02  0.00000000000E+00 0.  1.
</event>
<event>
 7    1  0.6726285E-013  0.5052886E+02  0.7816164E-02  0.1300439E+00
        -11   -1    0    0    0    0  0.00000000000E+00  0.00000000000E+00  0.45593999997E+02  0.45594000000E+02  0.51100000000E-03 0. -1.
         11   -1    0    0    0    0 -0.00000000000E+00 -0.00000000000E+00 -0.45593999997E+02  0.45594000000E+02  0.51100000000E-03 0.  1.
    9900012    2    1    2    0    0 -0.21287005115E+02  0.22968596235E+02 -0.25932072152E+02  0.50528863685E+02  0.30000011657E+02 0.  0.
         12    1    1    2    0    0  0.21287005115E+02 -0.22968596235E+02  0.25932072152E+02  0.40659136315E+02  0.00000000000E+00 0. -1.
         11    1    3    3    0    0 -0.11405583582E+02 -0.93991601657E-01 -0.22975129991E+01  0.11635064998E+02  0.51100000000E-03 0. -1.
        -11    1    3    3    0    0 -0.95465659469E+01  0.21501943996E+01 -0.95853961166E+01  0.13698177846E+02  0.51100000000E-03 0.  1.
        -12    1    3    3    0    0 -0.33485558611E+00  0.20912393437E+02 -0.14049163036E+02  0.25195620841E+02  0.00000000000E+00 0.  1.
</event>
<event>
 7    1  0.6726285E-013  0.5052886E+02  0.7816164E-02  0.1300439E+00
        -11   -1    0    0    0    0  0.00000000000E+00  0.00000000000E+00  0.45593999997E+02  0.45594000000E+02  0.51100000000E-03 0.  1.
         11   -1    0    0    0    0 -0.00000000000E+00 -0.00000000000E+00 -0.45593999997E+02  0.45594000000E+02  0.51100000000E-03 0. -1.
    9900012    2    1    2    0    0 -0.38404975936E+02  0.70081953556E+01  0.11362611763E+02  0.50528856810E+02  0.29999990761E+02 0.  0.
         12    1    1    2    0    0  0.38404975936E+02 -0.70081953556E+01 -0.11362611763E+02  0.40659143190E+02  0.00000000000E+00 0. -1.
         11    1    3    3    0    0 -0.11829203328E+02 -0.33880709498E+01 -0.58414503472E+01  0.13620999176E+02  0.51100000000E-03 0. -1.
        -11    1    3    3    0    0 -0.15527573418E+02 -0.11692271683E+01  0.13215491132E+02  0.20423560771E+02  0.51100000000E-03 0.  1.
        -12    1    3    3    0    0 -0.11048199190E+02  0.11565493474E+02  0.39885709783E+01  0.16484296864E+02  0.00000000000E+00 0.  1.
</event>
<event>
 7    1  0.6726285E-013  0.5052887E+02  0.7816164E-02  0.1300439E+00
        -11   -1    0    0    0    0  0.00000000000E+00  0.00000000000E+00  0.45593999997E+02  0.45594000000E+02  0.51100000000E-03 0. -1.
         11   -1    0    0    0    0 -0.00000000000E+00 -0.00000000000E+00 -0.45593999997E+02  0.45594000000E+02  0.51100000000E-03 0.  1.
    9900012    2    1    2    0    0  0.27888241116E+02  0.10705698944E+02 -0.27582588713E+02  0.50528865940E+02  0.30000018511E+02 0.  0.
         12    1    1    2    0    0 -0.27888241116E+02 -0.10705698944E+02  0.27582588713E+02  0.40659134060E+02  0.00000000000E+00 0. -1.
         11    1    3    3    0    0  0.94347664978E+01  0.24170748297E+01 -0.75516621791E+01  0.12324149931E+02  0.51100000000E-03 0. -1.
        -11    1    3    3    0    0  0.23842190317E+02  0.16212904987E+01 -0.13680181080E+02  0.27535903411E+02  0.51100000000E-03 0.  1.
         12    1    3    3    0    0 -0.53887156992E+01  0.66673336160E+01 -0.63507454535E+01  0.10668812598E+02  0.00000000000E+00 0. -1.
</event>
<event>
 7    1  0.6726285E-013  0.5052886E+02  0.7816164E-02  0.1300439E+00
        -11   -1    0    0    0    0  0.00000000000E+00  0.00000000000E+00  0.45593999997E+02  0.45594000000E+02  0.51100000000E-03 0.  1.
         11   -1    0    0    0    0 -0.00000000000E+00 -0.00000000000E+00 -0.45593999997E+02  0.45594000000E+02  0.51100000000E-03 0. -1.
    9900012    2    1    2    0    0  0.24655747609E+02  0.32191339079E+02 -0.29962299067E+01  0.50528860861E+02  0.30000003073E+02 0.  0.
         12    1    1    2    0    0 -0.24655747609E+02 -0.32191339079E+02  0.29962299067E+01  0.40659139139E+02  0.00000000000E+00 0. -1.
         11    1    3    3    0    0  0.30784262110E+01 -0.39149831068E+01 -0.22454772134E+01  0.54631464231E+01  0.51100000000E-03 0. -1.
        -11    1    3    3    0    0 -0.25128583066E-01  0.13229808741E+01 -0.37831898463E+01  0.40079215952E+01  0.51100000000E-03 0.  1.
        -12    1    3    3    0    0  0.21602449981E+02  0.34783341312E+02  0.30324371530E+01  0.41057792843E+02  0.00000000000E+00 0.  1.
</event>
<event>
 7    1  0.6726285E-013  0.5052886E+02  0.7816164E-02  0.1300439E+00
        -11   -1    0    0    0    0  0.00000000000E+00  0.00000000000E+00  0.45593999997E+02  0.45594000000E+02  0.51100000000E-03 0. -1.
         11   -1    0    0    0    0 -0.00000000000E+00 -0.00000000000E+00 -0.45593999997E+02  0.45594000000E+02  0.51100000000E-03 0.  1.
    9900012    2    1    2    0    0 -0.27862734958E+02  0.18647054524E+02 -0.23002624204E+02  0.50528863733E+02  0.30000011802E+02 0.  0.
         12    1    1    2    0    0  0.27862734958E+02 -0.18647054524E+02  0.23002624204E+02  0.40659136267E+02  0.00000000000E+00 0. -1.
         11    1    3    3    0    0 -0.47461664765E+01 -0.27559770612E+01  0.14756221882E+01  0.56832180046E+01  0.51100000000E-03 0. -1.
        -11    1    3    3    0    0 -0.80553502099E+00 -0.38067218606E+01 -0.20986639188E+01  0.44209058460E+01  0.51100000000E-03 0.  1.
        -12    1    3    3    0    0 -0.22311033460E+02  0.25209753445E+02 -0.22379582474E+02  0.40424739882E+02  0.00000000000E+00 0.  1.
</event>
<event>
 7    1  0.6726285E-013  0.5052886E+02  0.7816164E-02  0.1300439E+00
        -11   -1    0    0    0    0  0.00000000000E+00  0.00000000000E+00  0.45593999997E+02  0.45594000000E+02  0.51100000000E-03 0.  1.
         11   -1    0    0    0    0 -0.00000000000E+00 -0.00000000000E+00 -0.45593999997E+02  0.45594000000E+02  0.51100000000E-03 0. -1.
    9900012    2    1    2    0    0  0.17287380329E+02  0.35144315513E+02  0.10917377264E+02  0.50528861325E+02  0.30000004482E+02 0.  0.
         12    1    1    2    0    0 -0.17287380329E+02 -0.35144315513E+02 -0.10917377264E+02  0.40659138675E+02  0.00000000000E+00 0. -1.
         11    1    3    3    0    0  0.26407253053E+01  0.92450885301E+01 -0.79805741731E+01  0.12495385407E+02  0.51100000000E-03 0. -1.
        -11    1    3    3    0    0  0.54015511346E+00 -0.15358441811E+01 -0.35902459131E+00  0.16671783989E+01  0.51100000000E-03 0.  1.
        -12    1    3    3    0    0  0.14106499910E+02  0.27435071164E+02  0.19256976028E+02  0.36366297519E+02  0.00000000000E+00 0.  1.
</event>
<event>
 7    1  0.6726285E-013  0.5052886E+02  0.7816164E-02  0.1300439E+00
        -11   -1    0    0    0    0  0.00000000000E+00  0.00000000000E+00  0.45593999997E+02  0.45594000000E+02  0.51100000000E-03 0. -1.
         11   -1    0    0    0    0 -0.00000000000E+00 -0.00000000000E+00 -0.45593999997E+02  0.45594000000E+02  0.51100000000E-03 0.  1.
    9900012    2    1    2    0    0 -0.20115182886E+02 -0.34221524719E+02  0.87995571002E+01  0.50528861522E+02  0.30000005082E+02 0.  0.
         12    1    1    2    0    0  0.20115182886E+02  0.34221524719E+02 -0.87995571002E+01  0.40659138478E+02  0.00000000000E+00 0. -1.
         11    1    3    3    0    0  0.14801283383E+01  0.16854704245E+00 -0.64521298438E+00  0.16234186335E+01  0.51100000000E-03 0. -1.
        -11    1    3    3    0    0 -0.43226310727E+01 -0.11365988987E+02  0.15289030953E+02  0.19535232601E+02  0.51100000000E-03 0.  1.
         12    1    3    3    0    0 -0.17272680152E+02 -0.23024082774E+02 -0.58442608680E+01  0.29370210287E+02  0.00000000000E+00 0. -1.
</event>
<event>
 7    1  0.6726285E-013  0.5052889E+02  0.7816164E-02  0.1300439E+00
        -11   -1    0    0    0    0  0.00000000000E+00  0.00000000000E+00  0.45593999997E+02  0.45594000000E+02  0.51100000000E-03 0.  1.
         11   -1    0    0    0    0 -0.00000000000E+00 -0.00000000000E+00 -0.45593999997E+02  0.45594000000E+02  0.51100000000E-03 0. -1.
    9900012    2    1    2    0    0 -0.33060112214E+02 -0.33873258722E+01  0.23424737213E+02  0.50528888971E+02  0.30000088516E+02 0.  0.
         12    1    1    2    0    0  0.33060112214E+02  0.33873258722E+01 -0.23424737213E+02  0.40659111029E+02  0.00000000000E+00 0. -1.
         11    1    3    3    0    0 -0.25902548094E+01 -0.17222769423E+01 -0.33018137598E+01  0.45362575113E+01  0.51100000000E-03 0. -1.
        -11    1    3    3    0    0  0.65900845666E+00 -0.56232963277E+01  0.18748468267E+01  0.59641264758E+01  0.51100000000E-03 0.  1.
        -12    1    3    3    0    0 -0.31128865861E+02  0.39582473978E+01  0.24851704146E+02  0.40028504984E+02  0.00000000000E+00 0.  1.
</event>
<event>
 7    1  0.6726285E-013  0.5052878E+02  0.7816164E-02  0.1300439E+00
        -11   -1    0    0    0    0  0.00000000000E+00  0.00000000000E+00  0.45593999997E+02  0.45594000000E+02  0.51100000000E-03 0. -1.
         11   -1    0    0    0    0 -0.00000000000E+00 -0.00000000000E+00 -0.45593999997E+02  0.45594000000E+02  0.51100000000E-03 0.  1.
    9900012    2    1    2    0    0 -0.37529436964E+02 -0.14800228471E+02 -0.50661985736E+01  0.50528784936E+02  0.29999772291E+02 0.  0.
         12    1    1    2    0    0  0.37529436964E+02  0.14800228471E+02  0.50661985736E+01  0.40659215064E+02  0.00000000000E+00 0. -1.
         11    1    3    3    0    0 -0.12638240774E+02 -0.58474919823E+01  0.55543772168E+01  0.14992311325E+02  0.51100000000E-03 0. -1.
        -11    1    3    3    0    0 -0.16613323290E+02 -0.30370455999E+01  0.43461697627E+01  0.17438903307E+02  0.51100000000E-03 0.  1.
         12    1    3    3    0    0 -0.82778729006E+01 -0.59156908891E+01 -0.14966745553E+02  0.18097570304E+02  0.00000000000E+00 0. -1.
</event>
<event>
 7    1  0.6726285E-013  0.5052883E+02  0.7816164E-02  0.1300439E+00
        -11   -1    0    0    0    0  0.00000000000E+00  0.00000000000E+00  0.45593999997E+02  0.45594000000E+02  0.51100000000E-03 0. -1.
         11   -1    0    0    0    0 -0.00000000000E+00 -0.00000000000E+00 -0.45593999997E+02  0.45594000000E+02  0.51100000000E-03 0.  1.
    9900012    2    1    2    0    0 -0.20659908241E+02  0.13894895887E+01 -0.34991512850E+02  0.50528825619E+02  0.29999895951E+02 0.  0.
         12    1    1    2    0    0  0.20659908241E+02 -0.13894895887E+01  0.34991512850E+02  0.40659174381E+02  0.00000000000E+00 0. -1.
         11    1    3    3    0    0 -0.59817981567E+01 -0.10248694029E+02 -0.23819403330E+02  0.26611681904E+02  0.51100000000E-03 0. -1.
        -11    1    3    3    0    0 -0.54296621290E+01  0.66944265134E+00 -0.71762121338E+01  0.90237134900E+01  0.51100000000E-03 0.  1.
         12    1    3    3    0    0 -0.92484479549E+01  0.10968740966E+02 -0.39958973855E+01  0.14893430225E+02  0.00000000000E+00 0. -1.
</event>
<event>
 7    1  0.6726285E-013  0.5052896E+02  0.7816164E-02  0.1300438E+00
        -11   -1    0    0    0    0  0.00000000000E+00  0.00000000000E+00  0.45593999997E+02  0.45594000000E+02  0.51100000000E-03 0. -1.
         11   -1    0    0    0    0 -0.00000000000E+00 -0.00000000000E+00 -0.45593999997E+02  0.45594000000E+02  0.51100000000E-03 0.  1.
    9900012    2    1    2    0    0  0.23389998337E+02  0.21638358403E+01 -0.33187092525E+02  0.50528962653E+02  0.30000312478E+02 0.  0.
         12    1    1    2    0    0 -0.23389998337E+02 -0.21638358403E+01  0.33187092525E+02  0.40659037347E+02  0.00000000000E+00 0. -1.
         11    1    3    3    0    0  0.81382639293E+01  0.49034616691E+01 -0.93780661492E+01  0.13350033748E+02  0.51100000000E-03 0. -1.
        -11    1    3    3    0    0  0.17451246556E+02  0.29735034320E+01 -0.25299663715E+02  0.30878159164E+02  0.51100000000E-03 0.  1.
         12    1    3    3    0    0 -0.21995121485E+01 -0.57131292609E+01  0.14906373395E+01  0.63007697403E+01  0.00000000000E+00 0. -1.
</event>
<event>
 7    1  0.6726285E-013  0.5052887E+02  0.7816164E-02  0.1300439E+00
        -11   -1    0    0    0    0  0.00000000000E+00  0.00000000000E+00  0.45593999997E+02  0.45594000000E+02  0.51100000000E-03 0. -1.
         11   -1    0    0    0    0 -0.00000000000E+00 -0.00000000000E+00 -0.45593999997E+02  0.45594000000E+02  0.51100000000E-03 0.  1.
    9900012    2    1    2    0    0 -0.96619896655E+01 -0.18112062376E+02 -0.35096496908E+02  0.50528868885E+02  0.30000027462E+02 0.  0.
         12    1    1    2    0    0  0.96619896655E+01  0.18112062376E+02  0.35096496908E+02  0.40659131115E+02  0.00000000000E+00 0. -1.
         11    1    3    3    0    0  0.85508681096E+01 -0.79000248125E+01 -0.75681819888E+01  0.13885428202E+02  0.51100000000E-03 0. -1.
        -11    1    3    3    0    0 -0.88832452699E+01 -0.11420969902E+02 -0.19461824785E+02  0.24251045839E+02  0.51100000000E-03 0.  1.
        -12    1    3    3    0    0 -0.93296125052E+01  0.12089323390E+01 -0.80664901343E+01  0.12392394845E+02  0.00000000000E+00 0.  1.
</event>
<event>
 7    1  0.6726285E-013  0.5052886E+02  0.7816164E-02  0.1300439E+00
        -11   -1    0    0    0    0  0.00000000000E+00  0.00000000000E+00  0.45593999997E+02  0.45594000000E+02  0.51100000000E-03 0. -1.
         11   -1    0    0    0    0 -0.00000000000E+00 -0.00000000000E+00 -0.45593999997E+02  0.45594000000E+02  0.51100000000E-03 0.  1.
    9900012    2    1    2    0    0 -0.35467845452E+02  0.10718754331E+02  0.16742328080E+02  0.50528864434E+02  0.30000013933E+02 0.  0.
         12    1    1    2    0    0  0.35467845452E+02 -0.10718754331E+02 -0.16742328080E+02  0.40659135566E+02  0.00000000000E+00 0. -1.
         11    1    3    3    0    0 -0.19119714132E+02  0.26755713818E+01  0.21057483160E+02  0.28568159689E+02  0.51100000000E-03 0. -1.
        -11    1    3    3    0    0 -0.52208468628E+00  0.33907833311E+01  0.23615953133E+01  0.41649869991E+01  0.51100000000E-03 0.  1.
        -12    1    3    3    0    0 -0.15826046635E+02  0.46523996182E+01 -0.66767503937E+01  0.17795717746E+02  0.00000000000E+00 0.  1.
</event>
<event>
 7    1  0.6726285E-013  0.5052884E+02  0.7816164E-02  0.1300439E+00
        -11   -1    0    0    0    0  0.00000000000E+00  0.00000000000E+00  0.45593999997E+02  0.45594000000E+02  0.51100000000E-03 0.  1.
         11   -1    0    0    0    0 -0.00000000000E+00 -0.00000000000E+00 -0.45593999997E+02  0.45594000000E+02  0.51100000000E-03 0. -1.
    9900012    2    1    2    0    0 -0.15809852096E+01  0.59254113107E+01  0.40193990875E+02  0.50528844624E+02  0.29999953720E+02 0.  0.
         12    1    1    2    0    0  0.15809852096E+01 -0.59254113107E+01 -0.40193990875E+02  0.40659155376E+02  0.00000000000E+00 0. -1.
         11    1    3    3    0    0 -0.13990209480E+01  0.94197298253E+00 -0.16875443903E+01  0.23858707097E+01  0.51100000000E-03 0. -1.
        -11    1    3    3    0    0 -0.15652554980E+01  0.76019902024E+01  0.43885918394E+02  0.44566962129E+02  0.51100000000E-03 0.  1.
         12    1    3    3    0    0  0.13832912365E+01 -0.26185518742E+01 -0.20043831292E+01  0.35760117857E+01  0.00000000000E+00 0. -1.
</event>
<event>
 7    1  0.6726285E-013  0.5052886E+02  0.7816164E-02  0.1300439E+00
        -11   -1    0    0    0    0  0.00000000000E+00  0.00000000000E+00  0.45593999997E+02  0.45594000000E+02  0.51100000000E-03 0.  1.
         11   -1    0    0    0    0 -0.00000000000E+00 -0.00000000000E+00 -0.45593999997E+02  0.45594000000E+02  0.51100000000E-03 0. -1.
    9900012    2    1    2    0    0  0.31339575690E+02  0.48871573316E+01  0.25438396477E+02  0.50528864169E+02  0.30000013129E+02 0.  0.
         12    1    1    2    0    0 -0.31339575690E+02 -0.48871573316E+01 -0.25438396477E+02  0.40659135831E+02  0.00000000000E+00 0. -1.
         11    1    3    3    0    0  0.11472917758E+02  0.55795488641E+01  0.10423182578E+02  0.16474281251E+02  0.51100000000E-03 0. -1.
        -11    1    3    3    0    0  0.10206154690E+02  0.10741791870E+02  0.36504166788E+01  0.15260315473E+02  0.51100000000E-03 0.  1.
         12    1    3    3    0    0  0.96605032419E+01 -0.11434183403E+02  0.11364797220E+02  0.18794267446E+02  0.00000000000E+00 0. -1.
</event>
<event>
 7    1  0.6726285E-013  0.5052886E+02  0.7816164E-02  0.1300439E+00
        -11   -1    0    0    0    0  0.00000000000E+00  0.00000000000E+00  0.45593999997E+02  0.45594000000E+02  0.51100000000E-03 0.  1.
         11   -1    0    0    0    0 -0.00000000000E+00 -0.00000000000E+00 -0.45593999997E+02  0.45594000000E+02  0.51100000000E-03 0. -1.
    9900012    2    1    2    0    0  0.62308526292E+01 -0.40089176157E+02  0.26832876829E+01  0.50528860779E+02  0.30000002824E+02 0.  0.
         12    1    1    2    0    0 -0.62308526292E+01  0.40089176157E+02 -0.26832876829E+01  0.40659139221E+02  0.00000000000E+00 0. -1.
         11    1    3    3    0    0 -0.94492511538E+00 -0.15788696594E+02 -0.75927953061E+01  0.17544981175E+02  0.51100000000E-03 0. -1.
        -11    1    3    3    0    0 -0.58761614642E+01 -0.74117546220E+01  0.40415628686E+00  0.94671390977E+01  0.51100000000E-03 0.  1.
        -12    1    3    3    0    0  0.13051939209E+02 -0.16888724940E+02  0.98719267022E+01  0.23516740506E+02  0.00000000000E+00 0.  1.
</event>
<event>
 7    1  0.6726285E-013  0.5052885E+02  0.7816164E-02  0.1300439E+00
        -11   -1    0    0    0    0  0.00000000000E+00  0.00000000000E+00  0.45593999997E+02  0.45594000000E+02  0.51100000000E-03 0. -1.
         11   -1    0    0    0    0 -0.00000000000E+00 -0.00000000000E+00 -0.45593999997E+02  0.45594000000E+02  0.51100000000E-03 0.  1.
    9900012    2    1    2    0    0 -0.27426674800E+02  0.14038808513E+02 -0.26530281773E+02  0.50528849911E+02  0.29999969789E+02 0.  0.
         12    1    1    2    0    0  0.27426674800E+02 -0.14038808513E+02  0.26530281773E+02  0.40659150089E+02  0.00000000000E+00 0. -1.
         11    1    3    3    0    0  0.54669183432E+01  0.39681380906E+01 -0.41602377907E+01  0.79335297827E+01  0.51100000000E-03 0. -1.
        -11    1    3    3    0    0 -0.17146546946E+02 -0.71404677214E+00 -0.10447592441E+02  0.20091444026E+02  0.51100000000E-03 0.  1.
        -12    1    3    3    0    0 -0.15747046197E+02  0.10784717195E+02 -0.11922451541E+02  0.22503876103E+02  0.00000000000E+00 0.  1.
</event>
<event>
 7    1  0.6726285E-013  0.5052886E+02  0.7816164E-02  0.1300439E+00
        -11   -1    0    0    0    0  0.00000000000E+00  0.00000000000E+00  0.45593999997E+02  0.45594000000E+02  0.51100000000E-03 0.  1.
         11   -1    0    0    0    0 -0.00000000000E+00 -0.00000000000E+00 -0.45593999997E+02  0.45594000000E+02  0.51100000000E-03 0. -1.
    9900012    2    1    2    0    0  0.24616732374E+01  0.38645658302E+02  0.12394300119E+02  0.50528863067E+02  0.30000009777E+02 0.  0.
         12    1    1    2    0    0 -0.24616732374E+01 -0.38645658302E+02 -0.12394300119E+02  0.40659136933E+02  0.00000000000E+00 0. -1.
         11    1    3    3    0    0 -0.60790144404E+01  0.28230469739E+01 -0.10343315969E+01  0.67818767976E+01  0.51100000000E-03 0. -1.
        -11    1    3    3    0    0 -0.50501403978E+01  0.12646213010E+02 -0.20406225399E+00  0.13618820184E+02  0.51100000000E-03 0.  1.
        -12    1    3    3    0    0  0.13590828076E+02  0.23176398318E+02  0.13632693970E+02  0.30128166085E+02  0.00000000000E+00 0.  1.
</event>
<event>
 7    1  0.6726285E-013  0.5052886E+02  0.7816164E-02  0.1300439E+00
        -11   -1    0    0    0    0  0.00000000000E+00  0.00000000000E+00  0.45593999997E+02  0.45594000000E+02  0.51100000000E-03 0.  1.
         11   -1    0    0    0    0 -0.00000000000E+00 -0.00000000000E+00 -0.45593999997E+02  0.45594000000E+02  0.51100000000E-03 0. -1.
    9900012    2    1    2    0    0 -0.34547775001E+01  0.29650355706E+02 -0.27605922487E+02  0.50528855427E+02  0.29999986554E+02 0.  0.
         12    1    1    2    0    0  0.34547775001E+01 -0.29650355706E+02  0.27605922487E+02  0.40659144573E+02  0.00000000000E+00 0. -1.
         11    1    3    3    0    0 -0.93822470244E+01  0.17637912718E+01 -0.74559593467E+01  0.12113168410E+02  0.51100000000E-03 0. -1.
        -11    1    3    3    0    0 -0.15127266256E+01  0.20689458195E+00 -0.64857278794E+01  0.66630183549E+01  0.51100000000E-03 0.  1.
        -12    1    3    3    0    0  0.74401961498E+01  0.27679669853E+02 -0.13664235261E+02  0.31752668662E+02  0.00000000000E+00 0.  1.
</event>
<event>
 7    1  0.6726285E-013  0.5052886E+02  0.7816164E-02  0.1300439E+00
        -11   -1    0    0    0    0  0.00000000000E+00  0.00000000000E+00  0.45593999997E+02  0.45594000000E+02  0.51100000000E-03 0.  1.
         11   -1    0    0    0    0 -0.00000000000E+00 -0.00000000000E+00 -0.45593999997E+02  0.45594000000E+02  0.51100000000E-03 0. -1.
    9900012    2    1    2    0    0  0.20980056426E+02  0.15993858778E+02  0.30938638727E+02  0.50528860160E+02  0.30000000943E+02 0.  0.
         12    1    1    2    0    0 -0.20980056426E+02 -0.15993858778E+02 -0.30938638727E+02  0.40659139840E+02  0.00000000000E+00 0. -1.
         11    1    3    3    0    0  0.26567284533E+01  0.20000638806E+01  0.28452998047E+01  0.43765503357E+01  0.51100000000E-03 0. -1.
        -11    1    3    3    0    0  0.24981288150E+02  0.99298359277E+01  0.27296533507E+02  0.38311449215E+02  0.51100000000E-03 0.  1.
         12    1    3    3    0    0 -0.66579601772E+01  0.40639589701E+01  0.79680541503E+00  0.78408606097E+01  0.00000000000E+00 0. -1.
</event>
<event>
 7    1  0.6726285E-013  0.5052886E+02  0.7816164E-02  0.1300439E+00
        -11   -1    0    0    0    0  0.00000000000E+00  0.00000000000E+00  0.45593999997E+02  0.45594000000E+02  0.51100000000E-03 0. -1.
         11   -1    0    0    0    0 -0.00000000000E+00 -0.00000000000E+00 -0.45593999997E+02  0.45594000000E+02  0.51100000000E-03 0.  1.
    9900012    2    1    2    0    0  0.15927934009E+02 -0.37391081946E+02 -0.11721594991E+01  0.50528855287E+02  0.29999986131E+02 0.  0.
         12    1    1    2    0    0 -0.15927934009E+02  0.37391081946E+02  0.11721594991E+01  0.40659144713E+02  0.00000000000E+00 0. -1.
         11    1    3    3    0    0 -0.40818308059E+01 -0.12158366207E+02  0.21567148348E+01  0.13005330856E+02  0.51100000000E-03 0. -1.
        -11    1    3    3    0    0  0.34421347028E+01 -0.19038777619E+02  0.78670094461E+00  0.19363425399E+02  0.51100000000E-03 0.  1.
        -12    1    3    3    0    0  0.16567630113E+02 -0.61939381203E+01 -0.41155752785E+01  0.18160099032E+02  0.00000000000E+00 0.  1.
</event>
<event>
 7    1  0.6726285E-013  0.5052885E+02  0.7816164E-02  0.1300439E+00
        -11   -1    0    0    0    0  0.00000000000E+00  0.00000000000E+00  0.45593999997E+02  0.45594000000E+02  0.51100000000E-03 0.  1.
         11   -1    0    0    0    0 -0.00000000000E+00 -0.00000000000E+00 -0.45593999997E+02  0.45594000000E+02  0.51100000000E-03 0. -1.
    9900012    2    1    2    0    0 -0.62155107002E+01  0.27497768558E+02  0.29298580543E+02  0.50528847638E+02  0.29999962880E+02 0.  0.
         12    1    1    2    0    0  0.62155107002E+01 -0.27497768558E+02 -0.29298580543E+02  0.40659152362E+02  0.00000000000E+00 0. -1.
         11    1    3    3    0    0 -0.16106285222E+01  0.67003961173E-01  0.50416561498E+01  0.52931002977E+01  0.51100000000E-03 0. -1.
        -11    1    3    3    0    0  0.41463811349E+00  0.18144019895E+02  0.28557818257E+02  0.33836760580E+02  0.51100000000E-03 0.  1.
        -12    1    3    3    0    0 -0.50195202915E+01  0.92867447027E+01 -0.43008938634E+01  0.11398986760E+02  0.00000000000E+00 0.  1.
</event>
<event>
 7    1  0.6726285E-013  0.5052885E+02  0.7816164E-02  0.1300439E+00
        -11   -1    0    0    0    0  0.00000000000E+00  0.00000000000E+00  0.45593999997E+02  0.45594000000E+02  0.51100000000E-03 0.  1.
         11   -1    0    0    0    0 -0.00000000000E+00 -0.00000000000E+00 -0.45593999997E+02  0.45594000000E+02  0.51100000000E-03 0. -1.
    9900012    2    1    2    0    0 -0.10940855226E+01 -0.37483415618E+02  0.15715046096E+02  0.50528854124E+02  0.29999982596E+02 0.  0.
         12    1    1    2    0    0  0.10940855226E+01  0.37483415618E+02 -0.15715046096E+02  0.40659145876E+02  0.00000000000E+00 0. -1.
         11    1    3    3    0    0  0.32041265983E+01 -0.16888526664E+02  0.37217867507E+01  0.17588077126E+02  0.51100000000E-03 0. -1.
        -11    1    3    3    0    0 -0.28958397384E+01 -0.18940364875E+02 -0.15517729012E+01  0.19223197153E+02  0.51100000000E-03 0.  1.
        -12    1    3    3    0    0 -0.14023723825E+01 -0.16545240798E+01  0.13545032247E+02  0.13717579845E+02  0.00000000000E+00 0.  1.
</event>
<event>
 7    1  0.6726285E-013  0.5052886E+02  0.7816164E-02  0.1300439E+00
        -11   -1    0    0    0    0  0.00000000000E+00  0.00000000000E+00  0.45593999997E+02  0.45594000000E+02  0.51100000000E-03 0.  1.
         11   -1    0    0    0    0 -0.00000000000E+00 -0.00000000000E+00 -0.45593999997E+02  0.45594000000E+02  0.51100000000E-03 0. -1.
    9900012    2    1    2    0    0 -0.39639325458E+02  0.90037101697E+01  0.90690408002E+00  0.50528863332E+02  0.30000010583E+02 0.  0.
         12    1    1    2    0    0  0.39639325458E+02 -0.90037101697E+01 -0.90690408002E+00  0.40659136668E+02  0.00000000000E+00 0. -1.
         11    1    3    3    0    0  0.31624785532E+01  0.47001796993E+00  0.47071913988E+01  0.56903285158E+01  0.51100000000E-03 0. -1.
        -11    1    3    3    0    0  0.42277633125E+00  0.59212805186E+00 -0.10947516152E+00  0.73575847136E+00  0.51100000000E-03 0.  1.
        -12    1    3    3    0    0 -0.43224580343E+02  0.79415641479E+01 -0.36908121573E+01  0.44102776345E+02  0.00000000000E+00 0.  1.
</event>
<event>
 7    1  0.6726285E-013  0.5052884E+02  0.7816164E-02  0.1300439E+00
        -11   -1    0    0    0    0  0.00000000000E+00  0.00000000000E+00  0.45593999997E+02  0.45594000000E+02  0.51100000000E-03 0.  1.
         11   -1    0    0    0    0 -0.00000000000E+00 -0.00000000000E+00 -0.45593999997E+02  0.45594000000E+02  0.51100000000E-03 0. -1.
    9900012    2    1    2    0    0 -0.30116159909E+01 -0.80690636241E+01  0.39736473262E+02  0.50528844500E+02  0.29999953343E+02 0.  0.
         12    1    1    2    0    0  0.30116159909E+01  0.80690636241E+01 -0.39736473262E+02  0.40659155500E+02  0.00000000000E+00 0. -1.
         11    1    3    3    0    0 -0.79331495876E+01 -0.36487134590E+01  0.19092892367E+02  0.20994916325E+02  0.51100000000E-03 0. -1.
        -11    1    3    3    0    0 -0.44162691956E+01  0.14631999238E+01  0.17427951017E+02  0.18038233410E+02  0.51100000000E-03 0.  1.
        -12    1    3    3    0    0  0.93378027923E+01 -0.58835500889E+01  0.32156298779E+01  0.11495694766E+02  0.00000000000E+00 0.  1.
</event>
<event>
 7    1  0.6726285E-013  0.5052887E+02  0.7816164E-02  0.1300439E+00
        -11   -1    0    0    0    0  0.00000000000E+00  0.00000000000E+00  0.45593999997E+02  0.45594000000E+02  0.51100000000E-03 0. -1.
         11   -1    0    0    0    0 -0.00000000000E+00 -0.00000000000E+00 -0.45593999997E+02  0.45594000000E+02  0.51100000000E-03 0.  1.
    9900012    2    1    2    0    0  0.10660110275E+02  0.31010850820E+02 -0.24038593185E+02  0.50528870866E+02  0.30000033484E+02 0.  0.
         12    1    1    2    0    0 -0.10660110275E+02 -0.31010850820E+02  0.24038593185E+02  0.40659129134E+02  0.00000000000E+00 0. -1.
         11    1    3    3    0    0 -0.37170934498E+01  0.22371695589E+01 -0.28134087477E+00  0.43475124265E+01  0.51100000000E-03 0. -1.
        -11    1    3    3    0    0  0.35567989531E+01  0.13757423275E+02  0.21191714120E+01  0.14366920397E+02  0.51100000000E-03 0.  1.
        -12    1    3    3    0    0  0.10820404772E+02  0.15016257986E+02 -0.25876423722E+02  0.31814438042E+02  0.00000000000E+00 0.  1.
</event>
<event>
 7    1  0.6726285E-013  0.5052886E+02  0.7816164E-02  0.1300439E+00
        -11   -1    0    0    0    0  0.00000000000E+00  0.00000000000E+00  0.45593999997E+02  0.45594000000E+02  0.51100000000E-03 0.  1.
         11   -1    0    0    0    0 -0.00000000000E+00 -0.00000000000E+00 -0.45593999997E+02  0.45594000000E+02  0.51100000000E-03 0. -1.
    9900012    2    1    2    0    0 -0.13495501888E+02 -0.31990830319E+02  0.21157122344E+02  0.50528860541E+02  0.30000002099E+02 0.  0.
         12    1    1    2    0    0  0.13495501888E+02  0.31990830319E+02 -0.21157122344E+02  0.40659139459E+02  0.00000000000E+00 0. -1.
         11    1    3    3    0    0  0.97799970566E+00 -0.27466036100E+00  0.10742153447E+02  0.10790077974E+02  0.51100000000E-03 0. -1.
        -11    1    3    3    0    0  0.31149559049E-01 -0.83048928319E+01 -0.33437640469E+01  0.89528193050E+01  0.51100000000E-03 0.  1.
        -12    1    3    3    0    0 -0.14504651153E+02 -0.23411277126E+02  0.13758732944E+02  0.30785963262E+02  0.00000000000E+00 0.  1.
</event>
<event>
 7    1  0.6726285E-013  0.5052887E+02  0.7816164E-02  0.1300439E+00
        -11   -1    0    0    0    0  0.00000000000E+00  0.00000000000E+00  0.45593999997E+02  0.45594000000E+02  0.51100000000E-03 0.  1.
         11   -1    0    0    0    0 -0.00000000000E+00 -0.00000000000E+00 -0.45593999997E+02  0.45594000000E+02  0.51100000000E-03 0. -1.
    9900012    2    1    2    0    0  0.23154492694E+02  0.45515190630E+01  0.33110693811E+02  0.50528869386E+02  0.30000028984E+02 0.  0.
         12    1    1    2    0    0 -0.23154492694E+02 -0.45515190630E+01 -0.33110693811E+02  0.40659130614E+02  0.00000000000E+00 0. -1.
         11    1    3    3    0    0  0.56232613742E+01 -0.65691097121E+01  0.23204032924E+01  0.89531303236E+01  0.51100000000E-03 0. -1.
        -11    1    3    3    0    0  0.25265445120E+01 -0.41536237707E+01  0.12513132187E+02  0.13424399241E+02  0.51100000000E-03 0.  1.
        -12    1    3    3    0    0  0.15004686808E+02  0.15274252546E+02  0.18277158331E+02  0.28151339821E+02  0.00000000000E+00 0.  1.
</event>
<event>
 7    1  0.7149187E-013  0.5052885E+02  0.7816164E-02  0.1300439E+00
        -11   -1    0    0    0    0  0.00000000000E+00  0.00000000000E+00  0.45593999997E+02  0.45594000000E+02  0.51100000000E-03 0.  1.
         11   -1    0    0    0    0 -0.00000000000E+00 -0.00000000000E+00 -0.45593999997E+02  0.45594000000E+02  0.51100000000E-03 0. -1.
    9900012    2    1    2    0    0  0.11618905660E+02 -0.25538792714E+02  0.29426821070E+02  0.50528847275E+02  0.29999961777E+02 0.  0.
         12    1    1    2    0    0 -0.11618905660E+02  0.25538792714E+02 -0.29426821070E+02  0.40659152725E+02  0.00000000000E+00 0. -1.
         11    1    3    3    0    0 -0.21305171608E+01 -0.65227276779E+01  0.16114805697E+02  0.17514909153E+02  0.51100000000E-03 0. -1.
        -11    1    3    3    0    0  0.49182057709E+01 -0.14887800338E+02  0.16496069135E+02  0.22758638889E+02  0.51100000000E-03 0.  1.
         12    1    3    3    0    0  0.88312170497E+01 -0.41282646980E+01 -0.31840537618E+01  0.10255299233E+02  0.00000000000E+00 0. -1.
</event>
<event>
 7    1  0.6726285E-013  0.5052886E+02  0.7816164E-02  0.1300439E+00
        -11   -1    0    0    0    0  0.00000000000E+00  0.00000000000E+00  0.45593999997E+02  0.45594000000E+02  0.51100000000E-03 0.  1.
         11   -1    0    0    0    0 -0.00000000000E+00 -0.00000000000E+00 -0.45593999997E+02  0.45594000000E+02  0.51100000000E-03 0. -1.
    9900012    2    1    2    0    0 -0.24972017550E+02  0.31050805679E+02  0.80877187689E+01  0.50528863404E+02  0.30000010802E+02 0.  0.
         12    1    1    2    0    0  0.24972017550E+02 -0.31050805679E+02 -0.80877187689E+01  0.40659136596E+02  0.00000000000E+00 0. -1.
         11    1    3    3    0    0 -0.32234182888E+01  0.20408867598E+01  0.13253447835E+02  0.13791646892E+02  0.51100000000E-03 0.  1.
        -11    1    3    3    0    0 -0.85992779886E+01  0.11201477797E+02 -0.34305179110E+01  0.14532348061E+02  0.51100000000E-03 0. -1.
        -12    1    3    3    0    0 -0.13149321273E+02  0.17808441122E+02 -0.17352111550E+01  0.22204868450E+02  0.00000000000E+00 0.  1.
</event>
<event>
 7    1  0.6726285E-013  0.5052886E+02  0.7816164E-02  0.1300439E+00
        -11   -1    0    0    0    0  0.00000000000E+00  0.00000000000E+00  0.45593999997E+02  0.45594000000E+02  0.51100000000E-03 0.  1.
         11   -1    0    0    0    0 -0.00000000000E+00 -0.00000000000E+00 -0.45593999997E+02  0.45594000000E+02  0.51100000000E-03 0. -1.
    9900012    2    1    2    0    0  0.21996972447E+02  0.22474237971E+02  0.25772225222E+02  0.50528858813E+02  0.29999996847E+02 0.  0.
         12    1    1    2    0    0 -0.21996972447E+02 -0.22474237971E+02 -0.25772225222E+02  0.40659141187E+02  0.00000000000E+00 0. -1.
         11    1    3    3    0    0 -0.26029008383E+01  0.34959491001E+01  0.67939779641E+01  0.80718578854E+01  0.51100000000E-03 0.  1.
        -11    1    3    3    0    0  0.11076629051E+02 -0.32464468683E+01  0.88271668372E+01  0.14531001446E+02  0.51100000000E-03 0. -1.
        -12    1    3    3    0    0  0.13523244234E+02  0.22224735739E+02  0.10151080421E+02  0.27925999481E+02  0.00000000000E+00 0.  1.
</event>
<event>
 7    1  0.6726285E-013  0.5052886E+02  0.7816164E-02  0.1300439E+00
        -11   -1    0    0    0    0  0.00000000000E+00  0.00000000000E+00  0.45593999997E+02  0.45594000000E+02  0.51100000000E-03 0.  1.
         11   -1    0    0    0    0 -0.00000000000E+00 -0.00000000000E+00 -0.45593999997E+02  0.45594000000E+02  0.51100000000E-03 0. -1.
    9900012    2    1    2    0    0  0.21290888101E+02 -0.12867828442E+02  0.32160265179E+02  0.50528861035E+02  0.30000003603E+02 0.  0.
         12    1    1    2    0    0 -0.21290888101E+02  0.12867828442E+02 -0.32160265179E+02  0.40659138965E+02  0.00000000000E+00 0. -1.
         11    1    3    3    0    0  0.15515363594E+02 -0.10778694522E+02  0.21303119809E+02  0.28473315172E+02  0.51100000000E-03 0. -1.
        -11    1    3    3    0    0 -0.18258373085E+01 -0.41258232910E+01  0.13114340979E+02  0.13868743248E+02  0.51100000000E-03 0.  1.
        -12    1    3    3    0    0  0.76013618155E+01  0.20366893710E+01 -0.22571956085E+01  0.81868026151E+01  0.00000000000E+00 0.  1.
</event>
<event>
 7    1  0.6726285E-013  0.5052886E+02  0.7816164E-02  0.1300439E+00
        -11   -1    0    0    0    0  0.00000000000E+00  0.00000000000E+00  0.45593999997E+02  0.45594000000E+02  0.51100000000E-03 0.  1.
         11   -1    0    0    0    0 -0.00000000000E+00 -0.00000000000E+00 -0.45593999997E+02  0.45594000000E+02  0.51100000000E-03 0. -1.
    9900012    2    1    2    0    0  0.26128089441E+02 -0.22595464944E+02  0.21446070714E+02  0.50528855359E+02  0.29999986349E+02 0.  0.
         12    1    1    2    0    0 -0.26128089441E+02  0.22595464944E+02 -0.21446070714E+02  0.40659144641E+02  0.00000000000E+00 0. -1.
         11    1    3    3    0    0  0.24647708524E+02 -0.12170894984E+02  0.19472052402E+02  0.33686808177E+02  0.51100000000E-03 0. -1.
        -11    1    3    3    0    0  0.50891523288E+00  0.20726581880E+01  0.36171894346E+01  0.41998769441E+01  0.51100000000E-03 0.  1.
         12    1    3    3    0    0  0.97146568455E+00 -0.12497228148E+02 -0.16431711227E+01  0.12642170237E+02  0.00000000000E+00 0. -1.
</event>
<event>
 7    1  0.6726285E-013  0.5052886E+02  0.7816164E-02  0.1300439E+00
        -11   -1    0    0    0    0  0.00000000000E+00  0.00000000000E+00  0.45593999997E+02  0.45594000000E+02  0.51100000000E-03 0.  1.
         11   -1    0    0    0    0 -0.00000000000E+00 -0.00000000000E+00 -0.45593999997E+02  0.45594000000E+02  0.51100000000E-03 0. -1.
    9900012    2    1    2    0    0 -0.32756933772E+02  0.23844687013E+02  0.34029218052E+01  0.50528859752E+02  0.29999999703E+02 0.  0.
         12    1    1    2    0    0  0.32756933772E+02 -0.23844687013E+02 -0.34029218052E+01  0.40659140248E+02  0.00000000000E+00 0. -1.
         11    1    3    3    0    0 -0.20682350281E+02  0.15959781284E+02 -0.22059195280E+01  0.26217175916E+02  0.51100000000E-03 0. -1.
        -11    1    3    3    0    0 -0.14209562051E+02  0.56646784448E+00 -0.95347106564E+00  0.14252776812E+02  0.51100000000E-03 0.  1.
         12    1    3    3    0    0  0.21349785601E+01  0.73184378841E+01  0.65623123989E+01  0.10058907025E+02  0.00000000000E+00 0. -1.
</event>
<event>
 7    1  0.6726285E-013  0.5052886E+02  0.7816164E-02  0.1300439E+00
        -11   -1    0    0    0    0  0.00000000000E+00  0.00000000000E+00  0.45593999997E+02  0.45594000000E+02  0.51100000000E-03 0. -1.
         11   -1    0    0    0    0 -0.00000000000E+00 -0.00000000000E+00 -0.45593999997E+02  0.45594000000E+02  0.51100000000E-03 0.  1.
    9900012    2    1    2    0    0 -0.25237026702E+02  0.19472985829E+02 -0.25240064516E+02  0.50528861413E+02  0.30000004752E+02 0.  0.
         12    1    1    2    0    0  0.25237026702E+02 -0.19472985829E+02  0.25240064516E+02  0.40659138587E+02  0.00000000000E+00 0. -1.
         11    1    3    3    0    0 -0.26696840743E+01  0.12749873699E+02 -0.12843890875E+01  0.13089543460E+02  0.51100000000E-03 0. -1.
        -11    1    3    3    0    0 -0.25930635234E+01 -0.73563377273E+00 -0.13361933670E+02  0.13631082391E+02  0.51100000000E-03 0.  1.
        -12    1    3    3    0    0 -0.19974279104E+02  0.74587459024E+01 -0.10593741758E+02  0.23808235562E+02  0.00000000000E+00 0.  1.
</event>
<event>
 7    1  0.6726285E-013  0.5052887E+02  0.7816164E-02  0.1300439E+00
        -11   -1    0    0    0    0  0.00000000000E+00  0.00000000000E+00  0.45593999997E+02  0.45594000000E+02  0.51100000000E-03 0.  1.
         11   -1    0    0    0    0 -0.00000000000E+00 -0.00000000000E+00 -0.45593999997E+02  0.45594000000E+02  0.51100000000E-03 0. -1.
    9900012    2    1    2    0    0 -0.23737915199E+02 -0.19837808624E+02  0.26384424334E+02  0.50528866752E+02  0.30000020980E+02 0.  0.
         12    1    1    2    0    0  0.23737915199E+02  0.19837808624E+02 -0.26384424334E+02  0.40659133248E+02  0.00000000000E+00 0. -1.
         11    1    3    3    0    0 -0.89515791331E+01 -0.51856166367E+01  0.23571462840E+00  0.10347799308E+02  0.51100000000E-03 0. -1.
        -11    1    3    3    0    0 -0.13425999203E+02  0.14057306683E+01  0.71770542524E+01  0.15288676899E+02  0.51100000000E-03 0.  1.
        -12    1    3    3    0    0 -0.13603368626E+01 -0.16057922656E+02  0.18971655453E+02  0.24892390545E+02  0.00000000000E+00 0.  1.
</event>
<event>
 7    1  0.6726285E-013  0.5052886E+02  0.7816164E-02  0.1300439E+00
        -11   -1    0    0    0    0  0.00000000000E+00  0.00000000000E+00  0.45593999997E+02  0.45594000000E+02  0.51100000000E-03 0.  1.
         11   -1    0    0    0    0 -0.00000000000E+00 -0.00000000000E+00 -0.45593999997E+02  0.45594000000E+02  0.51100000000E-03 0. -1.
    9900012    2    1    2    0    0  0.23716892890E+02 -0.90808228610E+01  0.31752377290E+02  0.50528858152E+02  0.29999994840E+02 0.  0.
         12    1    1    2    0    0 -0.23716892890E+02  0.90808228610E+01 -0.31752377290E+02  0.40659141848E+02  0.00000000000E+00 0. -1.
         11    1    3    3    0    0 -0.49271251509E+01 -0.37336146645E+01  0.43148528383E+01  0.75388590644E+01  0.51100000000E-03 0. -1.
        -11    1    3    3    0    0  0.14587181777E+02 -0.10245792101E+02  0.11671962953E+02  0.21307201773E+02  0.51100000000E-03 0.  1.
        -12    1    3    3    0    0  0.14056836263E+02  0.48985839042E+01  0.15765561499E+02  0.21682797315E+02  0.00000000000E+00 0.  1.
</event>
<event>
 7    1  0.6726285E-013  0.5052886E+02  0.7816164E-02  0.1300439E+00
        -11   -1    0    0    0    0  0.00000000000E+00  0.00000000000E+00  0.45593999997E+02  0.45594000000E+02  0.51100000000E-03 0.  1.
         11   -1    0    0    0    0 -0.00000000000E+00 -0.00000000000E+00 -0.45593999997E+02  0.45594000000E+02  0.51100000000E-03 0. -1.
    9900012    2    1    2    0    0 -0.36057952640E+02 -0.18785612443E+02 -0.30138720426E+00  0.50528855670E+02  0.29999987293E+02 0.  0.
         12    1    1    2    0    0  0.36057952640E+02  0.18785612443E+02  0.30138720426E+00  0.40659144330E+02  0.00000000000E+00 0. -1.
         11    1    3    3    0    0 -0.82801416734E+01 -0.30130620693E+01  0.74259408029E+01  0.11523189065E+02  0.51100000000E-03 0. -1.
        -11    1    3    3    0    0 -0.24119305133E+02 -0.12864210926E+02  0.28088604549E+01  0.27479419575E+02  0.51100000000E-03 0.  1.
         12    1    3    3    0    0 -0.36585058333E+01 -0.29083394478E+01 -0.10536188462E+02  0.11526247029E+02  0.00000000000E+00 0. -1.
</event>
<event>
 7    1  0.6726285E-013  0.5052886E+02  0.7816164E-02  0.1300439E+00
        -11   -1    0    0    0    0  0.00000000000E+00  0.00000000000E+00  0.45593999997E+02  0.45594000000E+02  0.51100000000E-03 0.  1.
         11   -1    0    0    0    0 -0.00000000000E+00 -0.00000000000E+00 -0.45593999997E+02  0.45594000000E+02  0.51100000000E-03 0. -1.
    9900012    2    1    2    0    0  0.28861409256E+02 -0.21514309402E+02  0.18902887477E+02  0.50528860704E+02  0.30000002596E+02 0.  0.
         12    1    1    2    0    0 -0.28861409256E+02  0.21514309402E+02 -0.18902887477E+02  0.40659139296E+02  0.00000000000E+00 0. -1.
         11    1    3    3    0    0  0.15219124813E+02 -0.21933832343E+02  0.17450746869E+01  0.26753692217E+02  0.51100000000E-03 0. -1.
        -11    1    3    3    0    0 -0.86420838771E+00 -0.43518405357E+00  0.41848856055E+01  0.42952891742E+01  0.51100000000E-03 0.  1.
        -12    1    3    3    0    0  0.14506492831E+02  0.85470699454E+00  0.12972927185E+02  0.19479879313E+02  0.00000000000E+00 0.  1.
</event>
<event>
 7    1  0.6726285E-013  0.5052886E+02  0.7816164E-02  0.1300439E+00
        -11   -1    0    0    0    0  0.00000000000E+00  0.00000000000E+00  0.45593999997E+02  0.45594000000E+02  0.51100000000E-03 0.  1.
         11   -1    0    0    0    0 -0.00000000000E+00 -0.00000000000E+00 -0.45593999997E+02  0.45594000000E+02  0.51100000000E-03 0. -1.
    9900012    2    1    2    0    0  0.23740153766E+02 -0.19999010357E+02  0.26260438204E+02  0.50528856739E+02  0.29999990543E+02 0.  0.
         12    1    1    2    0    0 -0.23740153766E+02  0.19999010357E+02 -0.26260438204E+02  0.40659143261E+02  0.00000000000E+00 0. -1.
         11    1    3    3    0    0 -0.67976152112E+00 -0.13519036830E+01 -0.89144997442E+00  0.17562467400E+01  0.51100000000E-03 0. -1.
        -11    1    3    3    0    0  0.95392710133E+01 -0.20511726442E+02  0.70534254643E+01  0.23695557055E+02  0.51100000000E-03 0.  1.
        -12    1    3    3    0    0  0.14880644273E+02  0.18646197683E+01  0.20098462714E+02  0.25077052944E+02  0.00000000000E+00 0.  1.
</event>
<event>
 7    1  0.6726285E-013  0.5052886E+02  0.7816164E-02  0.1300439E+00
        -11   -1    0    0    0    0  0.00000000000E+00  0.00000000000E+00  0.45593999997E+02  0.45594000000E+02  0.51100000000E-03 0.  1.
         11   -1    0    0    0    0 -0.00000000000E+00 -0.00000000000E+00 -0.45593999997E+02  0.45594000000E+02  0.51100000000E-03 0. -1.
    9900012    2    1    2    0    0  0.12772677888E+02 -0.11842035754E+02  0.36739490861E+02  0.50528864496E+02  0.30000014121E+02 0.  0.
         12    1    1    2    0    0 -0.12772677888E+02  0.11842035754E+02 -0.36739490861E+02  0.40659135504E+02  0.00000000000E+00 0. -1.
         11    1    3    3    0    0 -0.41526680615E+01  0.44167556526E+00  0.15868256308E+01  0.44674092243E+01  0.51100000000E-03 0. -1.
        -11    1    3    3    0    0 -0.25575732425E+01 -0.92422591070E+01  0.15464415834E+02  0.18196392270E+02  0.51100000000E-03 0.  1.
        -12    1    3    3    0    0  0.19482919192E+02 -0.30414522127E+01  0.19688249396E+02  0.27865063002E+02  0.00000000000E+00 0.  1.
</event>
<event>
 7    1  0.6726285E-013  0.5052885E+02  0.7816164E-02  0.1300439E+00
        -11   -1    0    0    0    0  0.00000000000E+00  0.00000000000E+00  0.45593999997E+02  0.45594000000E+02  0.51100000000E-03 0. -1.
         11   -1    0    0    0    0 -0.00000000000E+00 -0.00000000000E+00 -0.45593999997E+02  0.45594000000E+02  0.51100000000E-03 0.  1.
    9900012    2    1    2    0    0  0.75919402946E+01  0.33124213644E+02  0.22322981671E+02  0.50528848537E+02  0.29999965613E+02 0.  0.
         12    1    1    2    0    0 -0.75919402946E+01 -0.33124213644E+02 -0.22322981671E+02  0.40659151463E+02  0.00000000000E+00 0. -1.
         11    1    3    3    0    0  0.28422816751E+01  0.57858595490E+01  0.59126577867E+01  0.87472428916E+01  0.51100000000E-03 0. -1.
        -11    1    3    3    0    0 -0.49029337248E+01  0.23592543569E+02  0.19476131690E+02  0.30983327405E+02  0.51100000000E-03 0.  1.
        -12    1    3    3    0    0  0.96525923443E+01  0.37458105261E+01 -0.30658078056E+01  0.10798278241E+02  0.00000000000E+00 0.  1.
</event>
<event>
 7    1  0.6726285E-013  0.5052886E+02  0.7816164E-02  0.1300439E+00
        -11   -1    0    0    0    0  0.00000000000E+00  0.00000000000E+00  0.45593999997E+02  0.45594000000E+02  0.51100000000E-03 0. -1.
         11   -1    0    0    0    0 -0.00000000000E+00 -0.00000000000E+00 -0.45593999997E+02  0.45594000000E+02  0.51100000000E-03 0.  1.
    9900012    2    1    2    0    0 -0.10143875631E+02  0.38915016256E+02  0.59907519930E+01  0.50528858193E+02  0.29999994963E+02 0.  0.
         12    1    1    2    0    0  0.10143875631E+02 -0.38915016256E+02 -0.59907519930E+01  0.40659141807E+02  0.00000000000E+00 0. -1.
         11    1    3    3    0    0 -0.13114494605E+02  0.12327298519E+02  0.72753355595E+01  0.19413468657E+02  0.51100000000E-03 0.  1.
        -11    1    3    3    0    0  0.60916362328E+01  0.87198903912E+01  0.52164545895E+01  0.11847190349E+02  0.51100000000E-03 0. -1.
        -12    1    3    3    0    0 -0.31210172587E+01  0.17867827346E+02 -0.65010381560E+01  0.19268199186E+02  0.00000000000E+00 0.  1.
</event>
<event>
 7    1  0.6726285E-013  0.5052887E+02  0.7816164E-02  0.1300439E+00
        -11   -1    0    0    0    0  0.00000000000E+00  0.00000000000E+00  0.45593999997E+02  0.45594000000E+02  0.51100000000E-03 0. -1.
         11   -1    0    0    0    0 -0.00000000000E+00 -0.00000000000E+00 -0.45593999997E+02  0.45594000000E+02  0.51100000000E-03 0.  1.
    9900012    2    1    2    0    0 -0.48136485389E+01 -0.34669140019E+02 -0.20689242673E+02  0.50528865180E+02  0.30000016202E+02 0.  0.
         12    1    1    2    0    0  0.48136485389E+01  0.34669140019E+02  0.20689242673E+02  0.40659134820E+02  0.00000000000E+00 0. -1.
         11    1    3    3    0    0 -0.67723561857E+01 -0.90785524886E+01 -0.83298425868E+01  0.14059559075E+02  0.51100000000E-03 0. -1.
        -11    1    3    3    0    0 -0.16135524378E+01 -0.22391893862E+01 -0.12545507270E+02  0.12845515697E+02  0.51100000000E-03 0.  1.
        -12    1    3    3    0    0  0.35722600847E+01 -0.23351398144E+02  0.18610718403E+00  0.23623790409E+02  0.00000000000E+00 0.  1.
</event>
<event>
 7    1  0.6726285E-013  0.5052886E+02  0.7816164E-02  0.1300439E+00
        -11   -1    0    0    0    0  0.00000000000E+00  0.00000000000E+00  0.45593999997E+02  0.45594000000E+02  0.51100000000E-03 0. -1.
         11   -1    0    0    0    0 -0.00000000000E+00 -0.00000000000E+00 -0.45593999997E+02  0.45594000000E+02  0.51100000000E-03 0.  1.
    9900012    2    1    2    0    0  0.31206700593E+02  0.20798256761E+02 -0.15707950110E+02  0.50528863969E+02  0.30000012519E+02 0.  0.
         12    1    1    2    0    0 -0.31206700593E+02 -0.20798256761E+02  0.15707950110E+02  0.40659136031E+02  0.00000000000E+00 0. -1.
         11    1    3    3    0    0  0.10138044490E+02  0.20329113150E+01 -0.57963141216E+01  0.11853688546E+02  0.51100000000E-03 0. -1.
        -11    1    3    3    0    0  0.15584108078E+02  0.47474922965E+00 -0.11704837075E+02  0.19495974524E+02  0.51100000000E-03 0.  1.
         12    1    3    3    0    0  0.54845480244E+01  0.18290596216E+02  0.17932010864E+01  0.19179200898E+02  0.00000000000E+00 0. -1.
</event>
<event>
 7    1  0.7251215E-013  0.5052886E+02  0.7816164E-02  0.1300439E+00
        -11   -1    0    0    0    0  0.00000000000E+00  0.00000000000E+00  0.45593999997E+02  0.45594000000E+02  0.51100000000E-03 0. -1.
         11   -1    0    0    0    0 -0.00000000000E+00 -0.00000000000E+00 -0.45593999997E+02  0.45594000000E+02  0.51100000000E-03 0.  1.
    9900012    2    1    2    0    0 -0.12263131633E+02 -0.29309724939E+02 -0.25371671052E+02  0.50528855082E+02  0.29999985507E+02 0.  0.
         12    1    1    2    0    0  0.12263131633E+02  0.29309724939E+02  0.25371671052E+02  0.40659144918E+02  0.00000000000E+00 0. -1.
         11    1    3    3    0    0 -0.66750487406E+01 -0.10809834659E+02 -0.10451826429E+02  0.16451427811E+02  0.51100000000E-03 0. -1.
        -11    1    3    3    0    0 -0.41653522413E+01 -0.10485292135E+02 -0.21053015586E+02  0.23885580922E+02  0.51100000000E-03 0.  1.
         12    1    3    3    0    0 -0.14227306515E+01 -0.80145981449E+01  0.61331709635E+01  0.10191846349E+02  0.00000000000E+00 0. -1.
</event>
<event>
 7    1  0.6726285E-013  0.5052886E+02  0.7816164E-02  0.1300439E+00
        -11   -1    0    0    0    0  0.00000000000E+00  0.00000000000E+00  0.45593999997E+02  0.45594000000E+02  0.51100000000E-03 0. -1.
         11   -1    0    0    0    0 -0.00000000000E+00 -0.00000000000E+00 -0.45593999997E+02  0.45594000000E+02  0.51100000000E-03 0.  1.
    9900012    2    1    2    0    0  0.20532758045E+01  0.35840826815E+02 -0.19088873039E+02  0.50528857336E+02  0.29999992357E+02 0.  0.
         12    1    1    2    0    0 -0.20532758045E+01 -0.35840826815E+02  0.19088873039E+02  0.40659142664E+02  0.00000000000E+00 0. -1.
         11    1    3    3    0    0  0.96799658423E+01  0.19720640791E+02  0.51391225361E+00  0.21974292206E+02  0.51100000000E-03 0. -1.
        -11    1    3    3    0    0 -0.44702946691E+00 -0.15854106942E+01 -0.13278122349E+01  0.21157618027E+01  0.51100000000E-03 0.  1.
        -12    1    3    3    0    0 -0.71796605709E+01  0.17705596718E+02 -0.18274973058E+02  0.26438803327E+02  0.00000000000E+00 0.  1.
</event>
<event>
 7    1  0.6726285E-013  0.5052886E+02  0.7816164E-02  0.1300439E+00
        -11   -1    0    0    0    0  0.00000000000E+00  0.00000000000E+00  0.45593999997E+02  0.45594000000E+02  0.51100000000E-03 0. -1.
         11   -1    0    0    0    0 -0.00000000000E+00 -0.00000000000E+00 -0.45593999997E+02  0.45594000000E+02  0.51100000000E-03 0.  1.
    9900012    2    1    2    0    0 -0.31349400779E+02  0.12473321861E+02 -0.22689134237E+02  0.50528862037E+02  0.30000006648E+02 0.  0.
         12    1    1    2    0    0  0.31349400779E+02 -0.12473321861E+02  0.22689134237E+02  0.40659137963E+02  0.00000000000E+00 0. -1.
         11    1    3    3    0    0 -0.46048939727E+01  0.93230840888E+01  0.17193454607E+01  0.10539501625E+02  0.51100000000E-03 0. -1.
        -11    1    3    3    0    0 -0.76329886853E+01  0.40394694719E+01  0.41812909684E+00  0.86460778442E+01  0.51100000000E-03 0.  1.
        -12    1    3    3    0    0 -0.19111518121E+02 -0.88923170010E+00 -0.24826608794E+02  0.31343282568E+02  0.00000000000E+00 0.  1.
</event>
<event>
 7    1  0.6726285E-013  0.5052886E+02  0.7816164E-02  0.1300439E+00
        -11   -1    0    0    0    0  0.00000000000E+00  0.00000000000E+00  0.45593999997E+02  0.45594000000E+02  0.51100000000E-03 0. -1.
         11   -1    0    0    0    0 -0.00000000000E+00 -0.00000000000E+00 -0.45593999997E+02  0.45594000000E+02  0.51100000000E-03 0.  1.
    9900012    2    1    2    0    0 -0.40639193416E+02 -0.61121476584E+00  0.11171916012E+01  0.50528859059E+02  0.29999997595E+02 0.  0.
         12    1    1    2    0    0  0.40639193416E+02  0.61121476584E+00 -0.11171916012E+01  0.40659140941E+02  0.00000000000E+00 0. -1.
         11    1    3    3    0    0 -0.14338707399E+02  0.67830800197E+01  0.52251911722E+01  0.16700638535E+02  0.51100000000E-03 0. -1.
        -11    1    3    3    0    0 -0.17054995036E+02  0.52884363188E+01 -0.15114602829E+01  0.17919958896E+02  0.51100000000E-03 0.  1.
        -12    1    3    3    0    0 -0.92454909814E+01 -0.12682731104E+02 -0.25965392881E+01  0.15908261628E+02  0.00000000000E+00 0.  1.
</event>
<event>
 7    1  0.6726285E-013  0.5052886E+02  0.7816164E-02  0.1300439E+00
        -11   -1    0    0    0    0  0.00000000000E+00  0.00000000000E+00  0.45593999997E+02  0.45594000000E+02  0.51100000000E-03 0.  1.
         11   -1    0    0    0    0 -0.00000000000E+00 -0.00000000000E+00 -0.45593999997E+02  0.45594000000E+02  0.51100000000E-03 0. -1.
    9900012    2    1    2    0    0 -0.22172520440E+01 -0.38473805242E+02  0.12962093352E+02  0.50528858833E+02  0.29999996908E+02 0.  0.
         12    1    1    2    0    0  0.22172520440E+01  0.38473805242E+02 -0.12962093352E+02  0.40659141167E+02  0.00000000000E+00 0. -1.
         11    1    3    3    0    0  0.41365420002E+01 -0.38241741991E+01  0.59115450084E+01  0.81658834593E+01  0.51100000000E-03 0. -1.
        -11    1    3    3    0    0  0.64406931413E+01 -0.12805090064E+02  0.90775612798E+01  0.16966289481E+02  0.51100000000E-03 0.  1.
         12    1    3    3    0    0 -0.12794487185E+02 -0.21844540978E+02 -0.20270129364E+01  0.25396685893E+02  0.00000000000E+00 0. -1.
</event>
<event>
 7    1  0.6726285E-013  0.5052886E+02  0.7816164E-02  0.1300439E+00
        -11   -1    0    0    0    0  0.00000000000E+00  0.00000000000E+00  0.45593999997E+02  0.45594000000E+02  0.51100000000E-03 0.  1.
         11   -1    0    0    0    0 -0.00000000000E+00 -0.00000000000E+00 -0.45593999997E+02  0.45594000000E+02  0.51100000000E-03 0. -1.
    9900012    2    1    2    0    0  0.15365913213E+02  0.18546963016E+02  0.32757661247E+02  0.50528862080E+02  0.30000006779E+02 0.  0.
         12    1    1    2    0    0 -0.15365913213E+02 -0.18546963016E+02 -0.32757661247E+02  0.40659137920E+02  0.00000000000E+00 0. -1.
         11    1    3    3    0    0  0.79072743086E+01  0.78926634069E+01  0.62767129294E+01  0.12814688763E+02  0.51100000000E-03 0. -1.
        -11    1    3    3    0    0  0.71265639522E+01  0.42737887336E+00 -0.20302641613E+01  0.74224348628E+01  0.51100000000E-03 0.  1.
        -12    1    3    3    0    0  0.33207495217E+00  0.10226920736E+02  0.28511212479E+02  0.30291738454E+02  0.00000000000E+00 0.  1.
</event>
<event>
 7    1  0.6726285E-013  0.5052886E+02  0.7816164E-02  0.1300439E+00
        -11   -1    0    0    0    0  0.00000000000E+00  0.00000000000E+00  0.45593999997E+02  0.45594000000E+02  0.51100000000E-03 0.  1.
         11   -1    0    0    0    0 -0.00000000000E+00 -0.00000000000E+00 -0.45593999997E+02  0.45594000000E+02  0.51100000000E-03 0. -1.
    9900012    2    1    2    0    0 -0.19677810901E+02 -0.28528873737E+02 -0.21261533853E+02  0.50528859572E+02  0.29999999155E+02 0.  0.
         12    1    1    2    0    0  0.19677810901E+02  0.28528873737E+02  0.21261533853E+02  0.40659140428E+02  0.00000000000E+00 0. -1.
         11    1    3    3    0    0 -0.15143697006E+02 -0.95163531395E+01 -0.86348266404E+01  0.19860835014E+02  0.51100000000E-03 0.  1.
        -11    1    3    3    0    0  0.51164940667E+01 -0.16868901122E+02 -0.54471607858E+01  0.18450200473E+02  0.51100000000E-03 0. -1.
         12    1    3    3    0    0 -0.96506079619E+01 -0.21436194759E+01 -0.71795464269E+01  0.12217824086E+02  0.00000000000E+00 0. -1.
</event>
<event>
 7    1  0.6726285E-013  0.5052886E+02  0.7816164E-02  0.1300439E+00
        -11   -1    0    0    0    0  0.00000000000E+00  0.00000000000E+00  0.45593999997E+02  0.45594000000E+02  0.51100000000E-03 0. -1.
         11   -1    0    0    0    0 -0.00000000000E+00 -0.00000000000E+00 -0.45593999997E+02  0.45594000000E+02  0.51100000000E-03 0.  1.
    9900012    2    1    2    0    0 -0.21019300091E+02  0.34568069183E+02 -0.40501173269E+01  0.50528857932E+02  0.29999994170E+02 0.  0.
         12    1    1    2    0    0  0.21019300091E+02 -0.34568069183E+02  0.40501173269E+01  0.40659142068E+02  0.00000000000E+00 0. -1.
         11    1    3    3    0    0 -0.47363573621E+00  0.51356381273E+01 -0.96314195672E+01  0.10925353675E+02  0.51100000000E-03 0. -1.
        -11    1    3    3    0    0 -0.22498613332E+01  0.84784037671E+01 -0.46942332588E+01  0.99489211780E+01  0.51100000000E-03 0.  1.
        -12    1    3    3    0    0 -0.18295803021E+02  0.20954027288E+02  0.10275535499E+02  0.29654583079E+02  0.00000000000E+00 0.  1.
</event>
<event>
 7    1  0.7193050E-013  0.5052886E+02  0.7816164E-02  0.1300439E+00
        -11   -1    0    0    0    0  0.00000000000E+00  0.00000000000E+00  0.45593999997E+02  0.45594000000E+02  0.51100000000E-03 0.  1.
         11   -1    0    0    0    0 -0.00000000000E+00 -0.00000000000E+00 -0.45593999997E+02  0.45594000000E+02  0.51100000000E-03 0. -1.
    9900012    2    1    2    0    0 -0.31626469450E+01 -0.29391912448E+02  0.27915565499E+02  0.50528860189E+02  0.30000001032E+02 0.  0.
         12    1    1    2    0    0  0.31626469450E+01  0.29391912448E+02 -0.27915565499E+02  0.40659139811E+02  0.00000000000E+00 0. -1.
         11    1    3    3    0    0  0.20993895787E+01 -0.16363966842E+02  0.33877498263E+01  0.16842318621E+02  0.51100000000E-03 0. -1.
        -11    1    3    3    0    0 -0.82994408038E+01 -0.16496256149E+02  0.19153645842E+02  0.26605813912E+02  0.51100000000E-03 0.  1.
         12    1    3    3    0    0  0.30374042801E+01  0.34683105428E+01  0.53741698299E+01  0.70807276563E+01  0.00000000000E+00 0. -1.
</event>
<event>
 7    1  0.6726285E-013  0.5052887E+02  0.7816164E-02  0.1300439E+00
        -11   -1    0    0    0    0  0.00000000000E+00  0.00000000000E+00  0.45593999997E+02  0.45594000000E+02  0.51100000000E-03 0.  1.
         11   -1    0    0    0    0 -0.00000000000E+00 -0.00000000000E+00 -0.45593999997E+02  0.45594000000E+02  0.51100000000E-03 0. -1.
    9900012    2    1    2    0    0  0.32329940184E+01  0.21134726266E+02  0.34583754296E+02  0.50528868604E+02  0.30000026609E+02 0.  0.
         12    1    1    2    0    0 -0.32329940184E+01 -0.21134726266E+02 -0.34583754296E+02  0.40659131396E+02  0.00000000000E+00 0. -1.
         11    1    3    3    0    0 -0.47254918978E+01  0.30765137022E+01 -0.15957665718E+01  0.58601775953E+01  0.51100000000E-03 0. -1.
        -11    1    3    3    0    0 -0.19627630443E+01 -0.19137571780E+01  0.81471401720E+00  0.28598364456E+01  0.51100000000E-03 0.  1.
        -12    1    3    3    0    0  0.99212489605E+01  0.19971969741E+02  0.35364806851E+02  0.41808854563E+02  0.00000000000E+00 0.  1.
</event>
<event>
 7    1  0.6726285E-013  0.5052886E+02  0.7816164E-02  0.1300439E+00
        -11   -1    0    0    0    0  0.00000000000E+00  0.00000000000E+00  0.45593999997E+02  0.45594000000E+02  0.51100000000E-03 0. -1.
         11   -1    0    0    0    0 -0.00000000000E+00 -0.00000000000E+00 -0.45593999997E+02  0.45594000000E+02  0.51100000000E-03 0.  1.
    9900012    2    1    2    0    0 -0.13236549862E+02  0.26727059716E+02 -0.27633740444E+02  0.50528861000E+02  0.30000003495E+02 0.  0.
         12    1    1    2    0    0  0.13236549862E+02 -0.26727059716E+02  0.27633740444E+02  0.40659139000E+02  0.00000000000E+00 0. -1.
         11    1    3    3    0    0  0.30154748330E+01  0.12261093652E+02 -0.10282394631E+02  0.16283585159E+02  0.51100000000E-03 0. -1.
        -11    1    3    3    0    0  0.22684358521E+01  0.10191754736E+02 -0.49928417163E+01  0.11573510033E+02  0.51100000000E-03 0.  1.
        -12    1    3    3    0    0 -0.18520460547E+02  0.42742113276E+01 -0.12358504096E+02  0.22671765808E+02  0.00000000000E+00 0.  1.
</event>
<event>
 7    1  0.6726285E-013  0.5052889E+02  0.7816164E-02  0.1300439E+00
        -11   -1    0    0    0    0  0.00000000000E+00  0.00000000000E+00  0.45593999997E+02  0.45594000000E+02  0.51100000000E-03 0.  1.
         11   -1    0    0    0    0 -0.00000000000E+00 -0.00000000000E+00 -0.45593999997E+02  0.45594000000E+02  0.51100000000E-03 0. -1.
    9900012    2    1    2    0    0  0.12947625603E+02  0.12438555074E+02  0.36480198003E+02  0.50528886539E+02  0.30000081123E+02 0.  0.
         12    1    1    2    0    0 -0.12947625603E+02 -0.12438555074E+02 -0.36480198003E+02  0.40659113461E+02  0.00000000000E+00 0. -1.
         11    1    3    3    0    0 -0.51630799708E+01  0.38044607451E+01  0.16641042196E+02  0.17834113434E+02  0.51100000000E-03 0. -1.
        -11    1    3    3    0    0  0.66259469130E+01  0.11727744690E+02  0.14059267037E+02  0.19470648625E+02  0.51100000000E-03 0.  1.
         12    1    3    3    0    0  0.11484758661E+02 -0.30936503610E+01  0.57798887708E+01  0.13224124480E+02  0.00000000000E+00 0. -1.
</event>
<event>
 7    1  0.6726285E-013  0.5052884E+02  0.7816164E-02  0.1300439E+00
        -11   -1    0    0    0    0  0.00000000000E+00  0.00000000000E+00  0.45593999997E+02  0.45594000000E+02  0.51100000000E-03 0.  1.
         11   -1    0    0    0    0 -0.00000000000E+00 -0.00000000000E+00 -0.45593999997E+02  0.45594000000E+02  0.51100000000E-03 0. -1.
    9900012    2    1    2    0    0  0.30982228996E+02 -0.19786836497E+02  0.17370954895E+02  0.50528837612E+02  0.29999932405E+02 0.  0.
         12    1    1    2    0    0 -0.30982228996E+02  0.19786836497E+02 -0.17370954895E+02  0.40659162388E+02  0.00000000000E+00 0. -1.
         11    1    3    3    0    0  0.16182744976E+02 -0.93796727245E+01  0.67340051590E+01  0.19879796808E+02  0.51100000000E-03 0. -1.
        -11    1    3    3    0    0  0.13259408200E+02 -0.17210352503E+02  0.73249069350E+01  0.22927328692E+02  0.51100000000E-03 0.  1.
         12    1    3    3    0    0  0.15400758204E+01  0.68031887299E+01  0.33120428009E+01  0.77217121121E+01  0.00000000000E+00 0. -1.
</event>
<event>
 7    1  0.6726285E-013  0.5052887E+02  0.7816164E-02  0.1300439E+00
        -11   -1    0    0    0    0  0.00000000000E+00  0.00000000000E+00  0.45593999997E+02  0.45594000000E+02  0.51100000000E-03 0. -1.
         11   -1    0    0    0    0 -0.00000000000E+00 -0.00000000000E+00 -0.45593999997E+02  0.45594000000E+02  0.51100000000E-03 0.  1.
    9900012    2    1    2    0    0 -0.21956105403E+02 -0.21798440182E+02 -0.26380336309E+02  0.50528871842E+02  0.30000036450E+02 0.  0.
         12    1    1    2    0    0  0.21956105403E+02  0.21798440182E+02  0.26380336309E+02  0.40659128158E+02  0.00000000000E+00 0. -1.
         11    1    3    3    0    0 -0.68135492263E+01  0.74416482566E+00 -0.20948000116E+01  0.71670371631E+01  0.51100000000E-03 0. -1.
        -11    1    3    3    0    0 -0.17722299749E+02 -0.10025944353E+02 -0.63304773071E+01  0.21323095736E+02  0.51100000000E-03 0.  1.
        -12    1    3    3    0    0  0.25797435731E+01 -0.12516660655E+02 -0.17955058990E+02  0.22038738942E+02  0.00000000000E+00 0.  1.
</event>
<event>
 7    1  0.6726285E-013  0.5052885E+02  0.7816164E-02  0.1300439E+00
        -11   -1    0    0    0    0  0.00000000000E+00  0.00000000000E+00  0.45593999997E+02  0.45594000000E+02  0.51100000000E-03 0.  1.
         11   -1    0    0    0    0 -0.00000000000E+00 -0.00000000000E+00 -0.45593999997E+02  0.45594000000E+02  0.51100000000E-03 0. -1.
    9900012    2    1    2    0    0 -0.64266034253E+01 -0.21619075727E+02  0.33830174945E+02  0.50528850923E+02  0.29999972866E+02 0.  0.
         12    1    1    2    0    0  0.64266034253E+01  0.21619075727E+02 -0.33830174945E+02  0.40659149077E+02  0.00000000000E+00 0. -1.
         11    1    3    3    0    0  0.92241393667E+00 -0.16977354166E+02  0.36579088499E+02  0.40337465434E+02  0.51100000000E-03 0. -1.
        -11    1    3    3    0    0 -0.15083627296E+01 -0.21623507139E+01  0.10020667934E+01  0.28204710340E+01  0.51100000000E-03 0.  1.
         12    1    3    3    0    0 -0.58406546324E+01 -0.24793708462E+01 -0.37509803481E+01  0.73709144548E+01  0.00000000000E+00 0. -1.
</event>
<event>
 7    1  0.6726285E-013  0.5052882E+02  0.7816164E-02  0.1300439E+00
        -11   -1    0    0    0    0  0.00000000000E+00  0.00000000000E+00  0.45593999997E+02  0.45594000000E+02  0.51100000000E-03 0.  1.
         11   -1    0    0    0    0 -0.00000000000E+00 -0.00000000000E+00 -0.45593999997E+02  0.45594000000E+02  0.51100000000E-03 0. -1.
    9900012    2    1    2    0    0  0.18312399425E+02  0.11152288646E+02  0.34546367121E+02  0.50528819044E+02  0.29999875967E+02 0.  0.
         12    1    1    2    0    0 -0.18312399425E+02 -0.11152288646E+02 -0.34546367121E+02  0.40659180956E+02  0.00000000000E+00 0. -1.
         11    1    3    3    0    0  0.14010177486E+02 -0.25205102013E+01  0.15126801649E+02  0.20771571276E+02  0.51100000000E-03 0. -1.
        -11    1    3    3    0    0  0.11055237103E+02  0.72048234649E+01  0.11471112994E+02  0.17484684216E+02  0.51100000000E-03 0.  1.
         12    1    3    3    0    0 -0.67530151642E+01  0.64679753825E+01  0.79484524774E+01  0.12272563552E+02  0.00000000000E+00 0. -1.
</event>
<event>
 7    1  0.6726285E-013  0.5052886E+02  0.7816164E-02  0.1300439E+00
        -11   -1    0    0    0    0  0.00000000000E+00  0.00000000000E+00  0.45593999997E+02  0.45594000000E+02  0.51100000000E-03 0.  1.
         11   -1    0    0    0    0 -0.00000000000E+00 -0.00000000000E+00 -0.45593999997E+02  0.45594000000E+02  0.51100000000E-03 0. -1.
    9900012    2    1    2    0    0  0.13333034408E+02 -0.16432356173E+02  0.34718489315E+02  0.50528860361E+02  0.30000001552E+02 0.  0.
         12    1    1    2    0    0 -0.13333034408E+02  0.16432356173E+02 -0.34718489315E+02  0.40659139639E+02  0.00000000000E+00 0. -1.
         11    1    3    3    0    0  0.14637424141E+02 -0.10954998173E+02  0.24538776417E+02  0.30600943103E+02  0.51100000000E-03 0. -1.
        -11    1    3    3    0    0  0.32541562800E+01 -0.33413333858E+01  0.13239339393E+02  0.14036885328E+02  0.51100000000E-03 0.  1.
         12    1    3    3    0    0 -0.45585460138E+01 -0.21360246148E+01 -0.30596264950E+01  0.58910319303E+01  0.00000000000E+00 0. -1.
</event>
<event>
 7    1  0.6726285E-013  0.5052883E+02  0.7816164E-02  0.1300439E+00
        -11   -1    0    0    0    0  0.00000000000E+00  0.00000000000E+00  0.45593999997E+02  0.45594000000E+02  0.51100000000E-03 0. -1.
         11   -1    0    0    0    0 -0.00000000000E+00 -0.00000000000E+00 -0.45593999997E+02  0.45594000000E+02  0.51100000000E-03 0.  1.
    9900012    2    1    2    0    0 -0.34445311365E+02 -0.20552466653E+02 -0.66546491983E+01  0.50528834778E+02  0.29999923792E+02 0.  0.
         12    1    1    2    0    0  0.34445311365E+02  0.20552466653E+02  0.66546491983E+01  0.40659165222E+02  0.00000000000E+00 0. -1.
         11    1    3    3    0    0  0.17568303392E+01 -0.52184526011E+01 -0.41470515045E+01  0.68932384866E+01  0.51100000000E-03 0. -1.
        -11    1    3    3    0    0 -0.28930125955E+02 -0.17427934478E+02 -0.74646461395E+01  0.34589102767E+02  0.51100000000E-03 0.  1.
         12    1    3    3    0    0 -0.72720157493E+01  0.20939204261E+01  0.49570484457E+01  0.90464935252E+01  0.00000000000E+00 0. -1.
</event>
<event>
 7    1  0.6726285E-013  0.5052885E+02  0.7816164E-02  0.1300439E+00
        -11   -1    0    0    0    0  0.00000000000E+00  0.00000000000E+00  0.45593999997E+02  0.45594000000E+02  0.51100000000E-03 0. -1.
         11   -1    0    0    0    0 -0.00000000000E+00 -0.00000000000E+00 -0.45593999997E+02  0.45594000000E+02  0.51100000000E-03 0.  1.
    9900012    2    1    2    0    0 -0.11987749160E+02  0.38648377655E+02 -0.39702617070E+01  0.50528853387E+02  0.29999980355E+02 0.  0.
         12    1    1    2    0    0  0.11987749160E+02 -0.38648377655E+02  0.39702617070E+01  0.40659146613E+02  0.00000000000E+00 0. -1.
         11    1    3    3    0    0 -0.25566223115E+01 -0.15526928440E+01  0.24102818925E+01  0.38414361603E+01  0.51100000000E-03 0. -1.
        -11    1    3    3    0    0 -0.15587934450E+02  0.22535568981E+02 -0.20034239605E+01  0.27474520515E+02  0.51100000000E-03 0.  1.
        -12    1    3    3    0    0  0.61568076015E+01  0.17665501518E+02 -0.43771196390E+01  0.19212896712E+02  0.00000000000E+00 0.  1.
</event>
<event>
 7    1  0.6726285E-013  0.5052887E+02  0.7816164E-02  0.1300439E+00
        -11   -1    0    0    0    0  0.00000000000E+00  0.00000000000E+00  0.45593999997E+02  0.45594000000E+02  0.51100000000E-03 0.  1.
         11   -1    0    0    0    0 -0.00000000000E+00 -0.00000000000E+00 -0.45593999997E+02  0.45594000000E+02  0.51100000000E-03 0. -1.
    9900012    2    1    2    0    0  0.31259635739E+02  0.86607627577E+01  0.24515129117E+02  0.50528865802E+02  0.30000018093E+02 0.  0.
         12    1    1    2    0    0 -0.31259635739E+02 -0.86607627577E+01 -0.24515129117E+02  0.40659134198E+02  0.00000000000E+00 0. -1.
         11    1    3    3    0    0 -0.26147874581E+01  0.15715453133E+01  0.30041181065E+01  0.42815410756E+01  0.51100000000E-03 0. -1.
        -11    1    3    3    0    0  0.32395023608E+01 -0.64144351598E+01  0.59452781393E+01  0.93266117309E+01  0.51100000000E-03 0.  1.
         12    1    3    3    0    0  0.30634920837E+02  0.13503652604E+02  0.15565732871E+02  0.36920712996E+02  0.00000000000E+00 0. -1.
</event>
<event>
 7    1  0.6726285E-013  0.5052888E+02  0.7816164E-02  0.1300439E+00
        -11   -1    0    0    0    0  0.00000000000E+00  0.00000000000E+00  0.45593999997E+02  0.45594000000E+02  0.51100000000E-03 0. -1.
         11   -1    0    0    0    0 -0.00000000000E+00 -0.00000000000E+00 -0.45593999997E+02  0.45594000000E+02  0.51100000000E-03 0.  1.
    9900012    2    1    2    0    0 -0.23509381746E+01  0.40504475314E+02  0.26504591287E+01  0.50528876001E+02  0.30000049093E+02 0.  0.
         12    1    1    2    0    0  0.23509381746E+01 -0.40504475314E+02 -0.26504591287E+01  0.40659123999E+02  0.00000000000E+00 0. -1.
         11    1    3    3    0    0 -0.98201577243E+00  0.13406518206E+02  0.14068345264E+01  0.13515852508E+02  0.51100000000E-03 0. -1.
        -11    1    3    3    0    0  0.34547068765E+01  0.28836076306E+02  0.64024721955E+01  0.29739635957E+02  0.51100000000E-03 0.  1.
         12    1    3    3    0    0 -0.48236292787E+01 -0.17381191983E+01 -0.51588475933E+01  0.72733875365E+01  0.00000000000E+00 0. -1.
</event>
<event>
 7    1  0.6726285E-013  0.5052886E+02  0.7816164E-02  0.1300439E+00
        -11   -1    0    0    0    0  0.00000000000E+00  0.00000000000E+00  0.45593999997E+02  0.45594000000E+02  0.51100000000E-03 0.  1.
         11   -1    0    0    0    0 -0.00000000000E+00 -0.00000000000E+00 -0.45593999997E+02  0.45594000000E+02  0.51100000000E-03 0. -1.
    9900012    2    1    2    0    0  0.94703962107E+00  0.40280623286E+02  0.54534837945E+01  0.50528856110E+02  0.29999988632E+02 0.  0.
         12    1    1    2    0    0 -0.94703962107E+00 -0.40280623286E+02 -0.54534837945E+01  0.40659143890E+02  0.00000000000E+00 0. -1.
         11    1    3    3    0    0 -0.18160521809E+01 -0.12047791148E+01 -0.85156458213E+00  0.23398078420E+01  0.51100000000E-03 0.  1.
        -11    1    3    3    0    0 -0.46697938197E+01  0.27136599144E+01 -0.47499904424E+01  0.71925888186E+01  0.51100000000E-03 0. -1.
        -12    1    3    3    0    0  0.74328856217E+01  0.38771742486E+02  0.11055038819E+02  0.40996459449E+02  0.00000000000E+00 0.  1.
</event>
<event>
 7    1  0.6726285E-013  0.5052883E+02  0.7816164E-02  0.1300439E+00
        -11   -1    0    0    0    0  0.00000000000E+00  0.00000000000E+00  0.45593999997E+02  0.45594000000E+02  0.51100000000E-03 0.  1.
         11   -1    0    0    0    0 -0.00000000000E+00 -0.00000000000E+00 -0.45593999997E+02  0.45594000000E+02  0.51100000000E-03 0. -1.
    9900012    2    1    2    0    0 -0.15615986394E+02  0.18815959028E+02  0.32484898871E+02  0.50528831294E+02  0.29999913202E+02 0.  0.
         12    1    1    2    0    0  0.15615986394E+02 -0.18815959028E+02 -0.32484898871E+02  0.40659168706E+02  0.00000000000E+00 0. -1.
         11    1    3    3    0    0 -0.39425707285E+01  0.40076914060E+01 -0.18982158675E+01  0.59336900910E+01  0.51100000000E-03 0. -1.
        -11    1    3    3    0    0 -0.80395045716E+01  0.11860641284E+01  0.79165763422E+00  0.81649925869E+01  0.51100000000E-03 0.  1.
        -12    1    3    3    0    0 -0.36339110938E+01  0.13622203493E+02  0.33591457104E+02  0.36430148617E+02  0.00000000000E+00 0.  1.
</event>
<event>
 7    1  0.6726285E-013  0.5052887E+02  0.7816164E-02  0.1300439E+00
        -11   -1    0    0    0    0  0.00000000000E+00  0.00000000000E+00  0.45593999997E+02  0.45594000000E+02  0.51100000000E-03 0.  1.
         11   -1    0    0    0    0 -0.00000000000E+00 -0.00000000000E+00 -0.45593999997E+02  0.45594000000E+02  0.51100000000E-03 0. -1.
    9900012    2    1    2    0    0 -0.13570159280E+02 -0.28446671057E+02  0.25686624526E+02  0.50528868226E+02  0.30000025459E+02 0.  0.
         12    1    1    2    0    0  0.13570159280E+02  0.28446671057E+02 -0.25686624526E+02  0.40659131774E+02  0.00000000000E+00 0. -1.
         11    1    3    3    0    0 -0.71707847108E+01 -0.25055612018E+02  0.42956156944E+01  0.26413181584E+02  0.51100000000E-03 0. -1.
        -11    1    3    3    0    0  0.47733577898E+00 -0.41306066592E+01  0.92783818392E+01  0.10167503658E+02  0.51100000000E-03 0.  1.
        -12    1    3    3    0    0 -0.68767103478E+01  0.73954761984E+00  0.12112626992E+02  0.13948182983E+02  0.00000000000E+00 0.  1.
</event>
<event>
 7    1  0.6726285E-013  0.5052886E+02  0.7816164E-02  0.1300439E+00
        -11   -1    0    0    0    0  0.00000000000E+00  0.00000000000E+00  0.45593999997E+02  0.45594000000E+02  0.51100000000E-03 0.  1.
         11   -1    0    0    0    0 -0.00000000000E+00 -0.00000000000E+00 -0.45593999997E+02  0.45594000000E+02  0.51100000000E-03 0. -1.
    9900012    2    1    2    0    0 -0.14930180801E+01  0.98391398855E+00  0.40619799872E+02  0.50528864110E+02  0.30000012948E+02 0.  0.
         12    1    1    2    0    0  0.14930180801E+01 -0.98391398855E+00 -0.40619799872E+02  0.40659135890E+02  0.00000000000E+00 0. -1.
         11    1    3    3    0    0 -0.75631790687E+01  0.23916267866E+01  0.85905349805E+00  0.79786922165E+01  0.51100000000E-03 0. -1.
        -11    1    3    3    0    0  0.63546250567E+00  0.44522216379E+01  0.43792753351E+01  0.62772719259E+01  0.51100000000E-03 0.  1.
         12    1    3    3    0    0  0.54346984830E+01 -0.58599344359E+01  0.35381471039E+02  0.36272899967E+02  0.00000000000E+00 0. -1.
</event>
<event>
 7    1  0.6726285E-013  0.5052887E+02  0.7816164E-02  0.1300439E+00
        -11   -1    0    0    0    0  0.00000000000E+00  0.00000000000E+00  0.45593999997E+02  0.45594000000E+02  0.51100000000E-03 0. -1.
         11   -1    0    0    0    0 -0.00000000000E+00 -0.00000000000E+00 -0.45593999997E+02  0.45594000000E+02  0.51100000000E-03 0.  1.
    9900012    2    1    2    0    0 -0.24482939734E+02  0.32458094014E+02  0.47166456916E+00  0.50528872212E+02  0.30000037574E+02 0.  0.
         12    1    1    2    0    0  0.24482939734E+02 -0.32458094014E+02 -0.47166456916E+00  0.40659127788E+02  0.00000000000E+00 0. -1.
         11    1    3    3    0    0 -0.16829780600E+02  0.24066650244E+02  0.10925880755E+02  0.31334007716E+02  0.51100000000E-03 0. -1.
        -11    1    3    3    0    0 -0.10175036152E+01  0.70457736206E+01 -0.47389985651E+00  0.71346212832E+01  0.51100000000E-03 0.  1.
         12    1    3    3    0    0 -0.66356555186E+01  0.13456701503E+01 -0.99803163294E+01  0.12060243213E+02  0.00000000000E+00 0. -1.
</event>
<event>
 7    1  0.6726285E-013  0.5052886E+02  0.7816164E-02  0.1300439E+00
        -11   -1    0    0    0    0  0.00000000000E+00  0.00000000000E+00  0.45593999997E+02  0.45594000000E+02  0.51100000000E-03 0. -1.
         11   -1    0    0    0    0 -0.00000000000E+00 -0.00000000000E+00 -0.45593999997E+02  0.45594000000E+02  0.51100000000E-03 0.  1.
    9900012    2    1    2    0    0  0.28414070918E+02  0.25298554856E+02 -0.14345358407E+02  0.50528860661E+02  0.30000002466E+02 0.  0.
         12    1    1    2    0    0 -0.28414070918E+02 -0.25298554856E+02  0.14345358407E+02  0.40659139339E+02  0.00000000000E+00 0. -1.
         11    1    3    3    0    0 -0.25059047733E+01  0.17360787467E+01  0.87464102928E+00  0.31715178289E+01  0.51100000000E-03 0. -1.
        -11    1    3    3    0    0  0.33639344257E+01  0.37493436631E+01  0.56067025434E+01  0.75371577134E+01  0.51100000000E-03 0.  1.
        -12    1    3    3    0    0  0.27556041266E+02  0.19813132446E+02 -0.20826701980E+02  0.39820185119E+02  0.00000000000E+00 0.  1.
</event>
<event>
 7    1  0.6726285E-013  0.5052885E+02  0.7816164E-02  0.1300439E+00
        -11   -1    0    0    0    0  0.00000000000E+00  0.00000000000E+00  0.45593999997E+02  0.45594000000E+02  0.51100000000E-03 0.  1.
         11   -1    0    0    0    0 -0.00000000000E+00 -0.00000000000E+00 -0.45593999997E+02  0.45594000000E+02  0.51100000000E-03 0. -1.
    9900012    2    1    2    0    0 -0.16162868006E+02 -0.36602627543E+02  0.72232584387E+01  0.50528854563E+02  0.29999983928E+02 0.  0.
         12    1    1    2    0    0  0.16162868006E+02  0.36602627543E+02 -0.72232584387E+01  0.40659145437E+02  0.00000000000E+00 0. -1.
         11    1    3    3    0    0  0.17580574505E+01  0.32060175994E+01  0.42453790545E-01  0.36566538574E+01  0.51100000000E-03 0. -1.
        -11    1    3    3    0    0 -0.82067066984E+00 -0.18623367390E+02  0.61403668115E+01  0.19626701662E+02  0.51100000000E-03 0.  1.
        -12    1    3    3    0    0 -0.17100254787E+02 -0.21185277753E+02  0.10404378366E+01  0.27245499043E+02  0.00000000000E+00 0.  1.
</event>
<event>
 7    1  0.8806954E-013  0.5052887E+02  0.7816164E-02  0.1300439E+00
        -11   -1    0    0    0    0  0.00000000000E+00  0.00000000000E+00  0.45593999997E+02  0.45594000000E+02  0.51100000000E-03 0. -1.
         11   -1    0    0    0    0 -0.00000000000E+00 -0.00000000000E+00 -0.45593999997E+02  0.45594000000E+02  0.51100000000E-03 0.  1.
    9900012    2    1    2    0    0  0.30848853498E+02 -0.88122124354E+01 -0.24977150517E+02  0.50528869437E+02  0.30000029141E+02 0.  0.
         12    1    1    2    0    0 -0.30848853498E+02  0.88122124354E+01  0.24977150517E+02  0.40659130563E+02  0.00000000000E+00 0. -1.
         11    1    3    3    0    0  0.15044997057E+02  0.27733248602E+01 -0.44557253958E+01  0.15934138078E+02  0.51100000000E-03 0. -1.
        -11    1    3    3    0    0  0.16922025342E+02 -0.78034686443E+00 -0.11506274949E+02  0.20478238361E+02  0.51100000000E-03 0.  1.
         12    1    3    3    0    0 -0.11181689006E+01 -0.10805190431E+02 -0.90151501722E+01  0.14116492998E+02  0.00000000000E+00 0. -1.
</event>
<event>
 7    1  0.6726285E-013  0.5052886E+02  0.7816164E-02  0.1300439E+00
        -11   -1    0    0    0    0  0.00000000000E+00  0.00000000000E+00  0.45593999997E+02  0.45594000000E+02  0.51100000000E-03 0.  1.
         11   -1    0    0    0    0 -0.00000000000E+00 -0.00000000000E+00 -0.45593999997E+02  0.45594000000E+02  0.51100000000E-03 0. -1.
    9900012    2    1    2    0    0 -0.32039706705E+02  0.23187257179E+02  0.94326174064E+01  0.50528856227E+02  0.29999988988E+02 0.  0.
         12    1    1    2    0    0  0.32039706705E+02 -0.23187257179E+02 -0.94326174064E+01  0.40659143773E+02  0.00000000000E+00 0. -1.
         11    1    3    3    0    0 -0.16489428349E+02  0.98884349893E+01 -0.69432774890E+01  0.20442394585E+02  0.51100000000E-03 0. -1.
        -11    1    3    3    0    0  0.19960761825E+01  0.58135977641E+01  0.44616667578E+01  0.75953083945E+01  0.51100000000E-03 0.  1.
        -12    1    3    3    0    0 -0.17546354538E+02  0.74852244252E+01  0.11914228138E+02  0.22491153247E+02  0.00000000000E+00 0.  1.
</event>
<event>
 7    1  0.6726285E-013  0.5052887E+02  0.7816164E-02  0.1300439E+00
        -11   -1    0    0    0    0  0.00000000000E+00  0.00000000000E+00  0.45593999997E+02  0.45594000000E+02  0.51100000000E-03 0. -1.
         11   -1    0    0    0    0 -0.00000000000E+00 -0.00000000000E+00 -0.45593999997E+02  0.45594000000E+02  0.51100000000E-03 0.  1.
    9900012    2    1    2    0    0 -0.12404133361E+02 -0.93553413892E+01 -0.37573661211E+02  0.50528868753E+02  0.30000027062E+02 0.  0.
         12    1    1    2    0    0  0.12404133361E+02  0.93553413892E+01  0.37573661211E+02  0.40659131247E+02  0.00000000000E+00 0. -1.
         11    1    3    3    0    0 -0.98348417073E+00  0.24248329236E+01  0.15960523937E+01  0.30650349633E+01  0.51100000000E-03 0. -1.
        -11    1    3    3    0    0  0.53551487059E+01 -0.78862378654E+01 -0.15384651584E+02  0.18098559887E+02  0.51100000000E-03 0.  1.
        -12    1    3    3    0    0 -0.16775797897E+02 -0.38939364473E+01 -0.23785062020E+02  0.29365273903E+02  0.00000000000E+00 0.  1.
</event>
<event>
 7    1  0.6726285E-013  0.5052887E+02  0.7816164E-02  0.1300439E+00
        -11   -1    0    0    0    0  0.00000000000E+00  0.00000000000E+00  0.45593999997E+02  0.45594000000E+02  0.51100000000E-03 0. -1.
         11   -1    0    0    0    0 -0.00000000000E+00 -0.00000000000E+00 -0.45593999997E+02  0.45594000000E+02  0.51100000000E-03 0.  1.
    9900012    2    1    2    0    0  0.29668086890E+02  0.26408347349E+02 -0.86930154416E+01  0.50528871789E+02  0.30000036290E+02 0.  0.
         12    1    1    2    0    0 -0.29668086890E+02 -0.26408347349E+02  0.86930154416E+01  0.40659128211E+02  0.00000000000E+00 0. -1.
         11    1    3    3    0    0  0.11216763299E+02  0.13498064140E+02 -0.65387182483E-01  0.17550435612E+02  0.51100000000E-03 0. -1.
        -11    1    3    3    0    0  0.52629721107E+01  0.17165394416E+02 -0.54182594794E+01  0.18753857655E+02  0.51100000000E-03 0.  1.
        -12    1    3    3    0    0  0.13188351480E+02 -0.42551112073E+01 -0.32093687797E+01  0.14224578521E+02  0.00000000000E+00 0.  1.
</event>
<event>
 7    1  0.6726285E-013  0.5052886E+02  0.7816164E-02  0.1300439E+00
        -11   -1    0    0    0    0  0.00000000000E+00  0.00000000000E+00  0.45593999997E+02  0.45594000000E+02  0.51100000000E-03 0. -1.
         11   -1    0    0    0    0 -0.00000000000E+00 -0.00000000000E+00 -0.45593999997E+02  0.45594000000E+02  0.51100000000E-03 0.  1.
    9900012    2    1    2    0    0  0.22723238760E+02 -0.15757473107E+02 -0.29808090871E+02  0.50528858102E+02  0.29999994688E+02 0.  0.
         12    1    1    2    0    0 -0.22723238760E+02  0.15757473107E+02  0.29808090871E+02  0.40659141898E+02  0.00000000000E+00 0. -1.
         11    1    3    3    0    0  0.35828422285E+01 -0.69629783517E+01 -0.13933598982E+02  0.15983272719E+02  0.51100000000E-03 0. -1.
        -11    1    3    3    0    0  0.16823531768E+02 -0.15636541098E+02 -0.93049193744E+01  0.24781326911E+02  0.51100000000E-03 0.  1.
         12    1    3    3    0    0  0.23168647635E+01  0.68420463425E+01 -0.65695725153E+01  0.97642584726E+01  0.00000000000E+00 0. -1.
</event>
<event>
 7    1  0.6726285E-013  0.5052885E+02  0.7816164E-02  0.1300439E+00
        -11   -1    0    0    0    0  0.00000000000E+00  0.00000000000E+00  0.45593999997E+02  0.45594000000E+02  0.51100000000E-03 0.  1.
         11   -1    0    0    0    0 -0.00000000000E+00 -0.00000000000E+00 -0.45593999997E+02  0.45594000000E+02  0.51100000000E-03 0. -1.
    9900012    2    1    2    0    0 -0.39799239143E+02  0.13170351728E+01  0.82129228918E+01  0.50528854406E+02  0.29999983452E+02 0.  0.
         12    1    1    2    0    0  0.39799239143E+02 -0.13170351728E+01 -0.82129228918E+01  0.40659145594E+02  0.00000000000E+00 0. -1.
         11    1    3    3    0    0 -0.28317446792E+02  0.69683440053E+01  0.18112416539E+01  0.29218422400E+02  0.51100000000E-03 0. -1.
        -11    1    3    3    0    0 -0.12796599600E+01  0.52220510707E+01  0.22883270952E+01  0.58432686190E+01  0.51100000000E-03 0.  1.
        -12    1    3    3    0    0 -0.10202132392E+02 -0.10873359903E+02  0.41133541426E+01  0.15467163386E+02  0.00000000000E+00 0.  1.
</event>
<event>
 7    1  0.6726285E-013  0.5052886E+02  0.7816164E-02  0.1300439E+00
        -11   -1    0    0    0    0  0.00000000000E+00  0.00000000000E+00  0.45593999997E+02  0.45594000000E+02  0.51100000000E-03 0. -1.
         11   -1    0    0    0    0 -0.00000000000E+00 -0.00000000000E+00 -0.45593999997E+02  0.45594000000E+02  0.51100000000E-03 0.  1.
    9900012    2    1    2    0    0 -0.37026855239E+02  0.97874952658E+00 -0.16769595424E+02  0.50528864616E+02  0.30000014485E+02 0.  0.
         12    1    1    2    0    0  0.37026855239E+02 -0.97874952658E+00  0.16769595424E+02  0.40659135384E+02  0.00000000000E+00 0. -1.
         11    1    3    3    0    0 -0.13857881563E+02 -0.56994487254E+01 -0.11428191003E+02  0.18844844045E+02  0.51100000000E-03 0. -1.
        -11    1    3    3    0    0 -0.18472348929E+02  0.24874190842E+01 -0.12276148404E+02  0.22318574071E+02  0.51100000000E-03 0.  1.
         12    1    3    3    0    0 -0.46966247466E+01  0.41907791678E+01  0.69347439828E+01  0.93654465004E+01  0.00000000000E+00 0. -1.
</event>
<event>
 7    1  0.6726285E-013  0.5052886E+02  0.7816164E-02  0.1300439E+00
        -11   -1    0    0    0    0  0.00000000000E+00  0.00000000000E+00  0.45593999997E+02  0.45594000000E+02  0.51100000000E-03 0. -1.
         11   -1    0    0    0    0 -0.00000000000E+00 -0.00000000000E+00 -0.45593999997E+02  0.45594000000E+02  0.51100000000E-03 0.  1.
    9900012    2    1    2    0    0  0.23547604365E+01  0.32478344813E+02  0.24347026947E+02  0.50528862039E+02  0.30000006655E+02 0.  0.
         12    1    1    2    0    0 -0.23547604365E+01 -0.32478344813E+02 -0.24347026947E+02  0.40659137961E+02  0.00000000000E+00 0. -1.
         11    1    3    3    0    0 -0.73550264904E+01  0.95833589092E+01  0.35008030179E+01  0.12577472110E+02  0.51100000000E-03 0. -1.
        -11    1    3    3    0    0  0.16940136608E+01  0.13001542769E+02 -0.47204184893E+00  0.13119932180E+02  0.51100000000E-03 0.  1.
         12    1    3    3    0    0  0.80157732661E+01  0.98934431352E+01  0.21318265778E+02  0.24831457749E+02  0.00000000000E+00 0. -1.
</event>
<event>
 7    1  0.6726285E-013  0.5052886E+02  0.7816164E-02  0.1300439E+00
        -11   -1    0    0    0    0  0.00000000000E+00  0.00000000000E+00  0.45593999997E+02  0.45594000000E+02  0.51100000000E-03 0.  1.
         11   -1    0    0    0    0 -0.00000000000E+00 -0.00000000000E+00 -0.45593999997E+02  0.45594000000E+02  0.51100000000E-03 0. -1.
    9900012    2    1    2    0    0 -0.73771480931E+01 -0.34347749890E+02  0.20468892414E+02  0.50528858430E+02  0.29999995685E+02 0.  0.
         12    1    1    2    0    0  0.73771480931E+01  0.34347749890E+02 -0.20468892414E+02  0.40659141570E+02  0.00000000000E+00 0. -1.
         11    1    3    3    0    0  0.76403704689E+00 -0.10114057787E+02 -0.43683410094E+01  0.11043564685E+02  0.51100000000E-03 0. -1.
        -11    1    3    3    0    0 -0.30916807058E+01 -0.32779682863E+01 -0.21115889955E+01  0.49761806659E+01  0.51100000000E-03 0.  1.
        -12    1    3    3    0    0 -0.50495044342E+01 -0.20955723817E+02  0.26948822419E+02  0.34509113079E+02  0.00000000000E+00 0.  1.
</event>
<event>
 7    1  0.6726285E-013  0.5052887E+02  0.7816164E-02  0.1300439E+00
        -11   -1    0    0    0    0  0.00000000000E+00  0.00000000000E+00  0.45593999997E+02  0.45594000000E+02  0.51100000000E-03 0.  1.
         11   -1    0    0    0    0 -0.00000000000E+00 -0.00000000000E+00 -0.45593999997E+02  0.45594000000E+02  0.51100000000E-03 0. -1.
    9900012    2    1    2    0    0 -0.76092695206E+01 -0.79583142442E+01  0.39139862489E+02  0.50528873301E+02  0.30000040885E+02 0.  0.
         12    1    1    2    0    0  0.76092695206E+01  0.79583142442E+01 -0.39139862489E+02  0.40659126699E+02  0.00000000000E+00 0. -1.
         11    1    3    3    0    0 -0.41406651235E+01 -0.97045832623E+00 -0.15719517319E+01  0.45340853032E+01  0.51100000000E-03 0. -1.
        -11    1    3    3    0    0  0.47925995360E+01  0.49332523013E+01  0.12162856477E+02  0.13972868944E+02  0.51100000000E-03 0.  1.
        -12    1    3    3    0    0 -0.82612039330E+01 -0.11921108219E+02  0.28548957744E+02  0.32021919054E+02  0.00000000000E+00 0.  1.
</event>
<event>
 7    1  0.6726285E-013  0.5052886E+02  0.7816164E-02  0.1300439E+00
        -11   -1    0    0    0    0  0.00000000000E+00  0.00000000000E+00  0.45593999997E+02  0.45594000000E+02  0.51100000000E-03 0.  1.
         11   -1    0    0    0    0 -0.00000000000E+00 -0.00000000000E+00 -0.45593999997E+02  0.45594000000E+02  0.51100000000E-03 0. -1.
    9900012    2    1    2    0    0 -0.33898664386E+02 -0.16047010297E+02  0.15701576342E+02  0.50528862205E+02  0.30000007159E+02 0.  0.
         12    1    1    2    0    0  0.33898664386E+02  0.16047010297E+02 -0.15701576342E+02  0.40659137795E+02  0.00000000000E+00 0. -1.
         11    1    3    3    0    0 -0.28062742880E+00 -0.30457633262E+01  0.33184116626E+01  0.45130125433E+01  0.51100000000E-03 0.  1.
        -11    1    3    3    0    0 -0.14664397218E+02 -0.35440527447E+01  0.18591614725E+02  0.23942702312E+02  0.51100000000E-03 0. -1.
         12    1    3    3    0    0 -0.18953639739E+02 -0.94571942257E+01 -0.62084500458E+01  0.22073147350E+02  0.00000000000E+00 0. -1.
</event>
<event>
 7    1  0.6726285E-013  0.5052885E+02  0.7816164E-02  0.1300439E+00
        -11   -1    0    0    0    0  0.00000000000E+00  0.00000000000E+00  0.45593999997E+02  0.45594000000E+02  0.51100000000E-03 0.  1.
         11   -1    0    0    0    0 -0.00000000000E+00 -0.00000000000E+00 -0.45593999997E+02  0.45594000000E+02  0.51100000000E-03 0. -1.
    9900012    2    1    2    0    0 -0.12558853258E+02 -0.28883207624E+02  0.25713849110E+02  0.50528849568E+02  0.29999968748E+02 0.  0.
         12    1    1    2    0    0  0.12558853258E+02  0.28883207624E+02 -0.25713849110E+02  0.40659150432E+02  0.00000000000E+00 0. -1.
         11    1    3    3    0    0 -0.10186301169E+01  0.12332214328E+01 -0.22607035924E+01  0.27693362763E+01  0.51100000000E-03 0. -1.
        -11    1    3    3    0    0 -0.25754273340E+01 -0.56931230794E+00 -0.30199063873E+01  0.40095856776E+01  0.51100000000E-03 0.  1.
        -12    1    3    3    0    0 -0.89647958073E+01 -0.29547116749E+02  0.30994459089E+02  0.43749927614E+02  0.00000000000E+00 0.  1.
</event>
<event>
 7    1  0.6726285E-013  0.5052885E+02  0.7816164E-02  0.1300439E+00
        -11   -1    0    0    0    0  0.00000000000E+00  0.00000000000E+00  0.45593999997E+02  0.45594000000E+02  0.51100000000E-03 0. -1.
         11   -1    0    0    0    0 -0.00000000000E+00 -0.00000000000E+00 -0.45593999997E+02  0.45594000000E+02  0.51100000000E-03 0.  1.
    9900012    2    1    2    0    0 -0.23148037195E+02  0.26275741937E+02 -0.20662041651E+02  0.50528853360E+02  0.29999980272E+02 0.  0.
         12    1    1    2    0    0  0.23148037195E+02 -0.26275741937E+02  0.20662041651E+02  0.40659146640E+02  0.00000000000E+00 0. -1.
         11    1    3    3    0    0 -0.45752602598E+01 -0.74537243049E-01 -0.22218341467E+00  0.45812583398E+01  0.51100000000E-03 0. -1.
        -11    1    3    3    0    0 -0.16509115709E+02  0.40896775233E+01 -0.23101945256E+01  0.17164304902E+02  0.51100000000E-03 0.  1.
        -12    1    3    3    0    0 -0.20636612261E+01  0.22260601657E+02 -0.18129663710E+02  0.28783290118E+02  0.00000000000E+00 0.  1.
</event>
<event>
 7    1  0.6726285E-013  0.5052886E+02  0.7816164E-02  0.1300439E+00
        -11   -1    0    0    0    0  0.00000000000E+00  0.00000000000E+00  0.45593999997E+02  0.45594000000E+02  0.51100000000E-03 0.  1.
         11   -1    0    0    0    0 -0.00000000000E+00 -0.00000000000E+00 -0.45593999997E+02  0.45594000000E+02  0.51100000000E-03 0. -1.
    9900012    2    1    2    0    0 -0.16711065647E+02  0.10797412193E+02  0.35458739187E+02  0.50528855766E+02  0.29999987585E+02 0.  0.
         12    1    1    2    0    0  0.16711065647E+02 -0.10797412193E+02 -0.35458739187E+02  0.40659144234E+02  0.00000000000E+00 0. -1.
         11    1    3    3    0    0  0.41740259631E+01 -0.17470334665E+01  0.38226046551E+01  0.59234217547E+01  0.51100000000E-03 0. -1.
        -11    1    3    3    0    0 -0.18648768637E+01 -0.51142855980E+01  0.64473080510E+01  0.84380960093E+01  0.51100000000E-03 0.  1.
        -12    1    3    3    0    0 -0.19020214746E+02  0.17658731257E+02  0.25188826481E+02  0.36167338002E+02  0.00000000000E+00 0.  1.
</event>
<event>
 7    1  0.6726285E-013  0.5052886E+02  0.7816164E-02  0.1300439E+00
        -11   -1    0    0    0    0  0.00000000000E+00  0.00000000000E+00  0.45593999997E+02  0.45594000000E+02  0.51100000000E-03 0.  1.
         11   -1    0    0    0    0 -0.00000000000E+00 -0.00000000000E+00 -0.45593999997E+02  0.45594000000E+02  0.51100000000E-03 0. -1.
    9900012    2    1    2    0    0 -0.26008416590E+02  0.10738004559E+02  0.29350015784E+02  0.50528857093E+02  0.29999991619E+02 0.  0.
         12    1    1    2    0    0  0.26008416590E+02 -0.10738004559E+02 -0.29350015784E+02  0.40659142907E+02  0.00000000000E+00 0. -1.
         11    1    3    3    0    0  0.15427053319E+01  0.65247938004E+01  0.10178232206E+02  0.12188079627E+02  0.51100000000E-03 0. -1.
        -11    1    3    3    0    0 -0.18230375478E+02  0.11276614634E+02  0.11182983824E+02  0.24177836031E+02  0.51100000000E-03 0.  1.
         12    1    3    3    0    0 -0.93207464444E+01 -0.70634038759E+01  0.79887997536E+01  0.14162941435E+02  0.00000000000E+00 0. -1.
</event>
<event>
 7    1  0.6726285E-013  0.5052886E+02  0.7816164E-02  0.1300439E+00
        -11   -1    0    0    0    0  0.00000000000E+00  0.00000000000E+00  0.45593999997E+02  0.45594000000E+02  0.51100000000E-03 0. -1.
         11   -1    0    0    0    0 -0.00000000000E+00 -0.00000000000E+00 -0.45593999997E+02  0.45594000000E+02  0.51100000000E-03 0.  1.
    9900012    2    1    2    0    0 -0.31155354168E+02 -0.16864573927E+02 -0.19952338638E+02  0.50528858787E+02  0.29999996767E+02 0.  0.
         12    1    1    2    0    0  0.31155354168E+02  0.16864573927E+02  0.19952338638E+02  0.40659141213E+02  0.00000000000E+00 0. -1.
         11    1    3    3    0    0 -0.68547899675E+01 -0.10719113926E+02 -0.45599896020E+01  0.13515955545E+02  0.51100000000E-03 0. -1.
        -11    1    3    3    0    0 -0.21278441430E+02 -0.13656193944E+02 -0.13644608866E+02  0.28730455167E+02  0.51100000000E-03 0.  1.
        -12    1    3    3    0    0 -0.30221227704E+01  0.75107339430E+01 -0.17477401694E+01  0.82824480742E+01  0.00000000000E+00 0.  1.
</event>
<event>
 7    1  0.6726285E-013  0.5052886E+02  0.7816164E-02  0.1300439E+00
        -11   -1    0    0    0    0  0.00000000000E+00  0.00000000000E+00  0.45593999997E+02  0.45594000000E+02  0.51100000000E-03 0.  1.
         11   -1    0    0    0    0 -0.00000000000E+00 -0.00000000000E+00 -0.45593999997E+02  0.45594000000E+02  0.51100000000E-03 0. -1.
    9900012    2    1    2    0    0 -0.24732122187E+02 -0.12468719500E+02  0.29766073276E+02  0.50528856476E+02  0.29999989745E+02 0.  0.
         12    1    1    2    0    0  0.24732122187E+02  0.12468719500E+02 -0.29766073276E+02  0.40659143524E+02  0.00000000000E+00 0. -1.
         11    1    3    3    0    0 -0.35318895341E+01  0.84161035117E+00  0.51821734686E+01  0.63275171896E+01  0.51100000000E-03 0.  1.
        -11    1    3    3    0    0 -0.25675799034E+02 -0.46146801277E+01  0.13342716273E+02  0.29301365267E+02  0.51100000000E-03 0. -1.
         12    1    3    3    0    0  0.44755663809E+01 -0.86956497233E+01  0.11241183534E+02  0.14899974020E+02  0.00000000000E+00 0. -1.
</event>
<event>
 7    1  0.6726285E-013  0.5052886E+02  0.7816164E-02  0.1300439E+00
        -11   -1    0    0    0    0  0.00000000000E+00  0.00000000000E+00  0.45593999997E+02  0.45594000000E+02  0.51100000000E-03 0. -1.
         11   -1    0    0    0    0 -0.00000000000E+00 -0.00000000000E+00 -0.45593999997E+02  0.45594000000E+02  0.51100000000E-03 0.  1.
    9900012    2    1    2    0    0 -0.21188301103E+02  0.25190501597E+02 -0.23867548475E+02  0.50528863947E+02  0.30000012454E+02 0.  0.
         12    1    1    2    0    0  0.21188301103E+02 -0.25190501597E+02  0.23867548475E+02  0.40659136053E+02  0.00000000000E+00 0. -1.
         11    1    3    3    0    0 -0.13580461819E+01  0.36889146478E+01 -0.75018838311E+01  0.84693944286E+01  0.51100000000E-03 0. -1.
        -11    1    3    3    0    0 -0.75645516691E+01  0.20643534921E+01 -0.17365748245E+02  0.19053955224E+02  0.51100000000E-03 0.  1.
         12    1    3    3    0    0 -0.12265703252E+02  0.19437233457E+02  0.10000836014E+01  0.23005514295E+02  0.00000000000E+00 0. -1.
</event>
<event>
 7    1  0.6726285E-013  0.5052886E+02  0.7816164E-02  0.1300439E+00
        -11   -1    0    0    0    0  0.00000000000E+00  0.00000000000E+00  0.45593999997E+02  0.45594000000E+02  0.51100000000E-03 0.  1.
         11   -1    0    0    0    0 -0.00000000000E+00 -0.00000000000E+00 -0.45593999997E+02  0.45594000000E+02  0.51100000000E-03 0. -1.
    9900012    2    1    2    0    0 -0.30727977124E+02 -0.33483080576E+01  0.26414885294E+02  0.50528856993E+02  0.29999991315E+02 0.  0.
         12    1    1    2    0    0  0.30727977124E+02  0.33483080576E+01 -0.26414885294E+02  0.40659143007E+02  0.00000000000E+00 0. -1.
         11    1    3    3    0    0 -0.11722648978E+01 -0.35042100154E+01  0.89158681486E+00  0.38011340587E+01  0.51100000000E-03 0. -1.
        -11    1    3    3    0    0 -0.14984390251E+01  0.53621867842E+01 -0.30473806611E+01  0.63470383468E+01  0.51100000000E-03 0.  1.
        -12    1    3    3    0    0 -0.28057273201E+02 -0.52062848265E+01  0.28570679140E+02  0.40380684587E+02  0.00000000000E+00 0.  1.
</event>
<event>
 7    1  0.6726285E-013  0.5052885E+02  0.7816164E-02  0.1300439E+00
        -11   -1    0    0    0    0  0.00000000000E+00  0.00000000000E+00  0.45593999997E+02  0.45594000000E+02  0.51100000000E-03 0.  1.
         11   -1    0    0    0    0 -0.00000000000E+00 -0.00000000000E+00 -0.45593999997E+02  0.45594000000E+02  0.51100000000E-03 0. -1.
    9900012    2    1    2    0    0 -0.10775245317E+02  0.35689413466E+02  0.16227325833E+02  0.50528852826E+02  0.29999978651E+02 0.  0.
         12    1    1    2    0    0  0.10775245317E+02 -0.35689413466E+02 -0.16227325833E+02  0.40659147174E+02  0.00000000000E+00 0. -1.
         11    1    3    3    0    0 -0.24556121691E+01  0.16502945144E+02  0.21230824402E+02  0.27002317208E+02  0.51100000000E-03 0.  1.
        -11    1    3    3    0    0  0.96191249935E+00 -0.16207208543E+00  0.83813190088E+00  0.12860825641E+01  0.51100000000E-03 0. -1.
        -12    1    3    3    0    0 -0.92815456476E+01  0.19348540407E+02 -0.58416304699E+01  0.22240453054E+02  0.00000000000E+00 0.  1.
</event>
<event>
 7    1  0.6726285E-013  0.5052885E+02  0.7816164E-02  0.1300439E+00
        -11   -1    0    0    0    0  0.00000000000E+00  0.00000000000E+00  0.45593999997E+02  0.45594000000E+02  0.51100000000E-03 0.  1.
         11   -1    0    0    0    0 -0.00000000000E+00 -0.00000000000E+00 -0.45593999997E+02  0.45594000000E+02  0.51100000000E-03 0. -1.
    9900012    2    1    2    0    0  0.85904017981E+01  0.10739928747E+02  0.38262586749E+02  0.50528848296E+02  0.29999964882E+02 0.  0.
         12    1    1    2    0    0 -0.85904017981E+01 -0.10739928747E+02 -0.38262586749E+02  0.40659151704E+02  0.00000000000E+00 0. -1.
         11    1    3    3    0    0  0.60158004546E+00  0.22357624658E+01  0.28630616407E+01  0.36820720490E+01  0.51100000000E-03 0. -1.
        -11    1    3    3    0    0 -0.28340008996E+01  0.16070298107E+02  0.25774831709E+02  0.30506195965E+02  0.51100000000E-03 0.  1.
         12    1    3    3    0    0  0.10822822652E+02 -0.75661318251E+01  0.96246933988E+01  0.16340580283E+02  0.00000000000E+00 0. -1.
</event>
<event>
 7    1  0.6726285E-013  0.5052885E+02  0.7816164E-02  0.1300439E+00
        -11   -1    0    0    0    0  0.00000000000E+00  0.00000000000E+00  0.45593999997E+02  0.45594000000E+02  0.51100000000E-03 0.  1.
         11   -1    0    0    0    0 -0.00000000000E+00 -0.00000000000E+00 -0.45593999997E+02  0.45594000000E+02  0.51100000000E-03 0. -1.
    9900012    2    1    2    0    0  0.28258876714E+02 -0.28932377382E+02  0.41856755320E+01  0.50528850307E+02  0.29999970992E+02 0.  0.
         12    1    1    2    0    0 -0.28258876714E+02  0.28932377382E+02 -0.41856755320E+01  0.40659149693E+02  0.00000000000E+00 0. -1.
         11    1    3    3    0    0  0.28676236622E+01  0.55046374817E+01 -0.72520368737E+00  0.62490175165E+01  0.51100000000E-03 0. -1.
        -11    1    3    3    0    0  0.10504163322E+02 -0.10665514174E+02 -0.27136896595E+01  0.15213637025E+02  0.51100000000E-03 0.  1.
        -12    1    3    3    0    0  0.14887089730E+02 -0.23771500690E+02  0.76245688789E+01  0.29066195765E+02  0.00000000000E+00 0.  1.
</event>
<event>
 7    1  0.8133055E-013  0.5052885E+02  0.7816164E-02  0.1300439E+00
        -11   -1    0    0    0    0  0.00000000000E+00  0.00000000000E+00  0.45593999997E+02  0.45594000000E+02  0.51100000000E-03 0.  1.
         11   -1    0    0    0    0 -0.00000000000E+00 -0.00000000000E+00 -0.45593999997E+02  0.45594000000E+02  0.51100000000E-03 0. -1.
    9900012    2    1    2    0    0 -0.90342821449E+01 -0.36501301343E+02  0.15466204442E+02  0.50528846867E+02  0.29999960538E+02 0.  0.
         12    1    1    2    0    0  0.90342821449E+01  0.36501301343E+02 -0.15466204442E+02  0.40659153133E+02  0.00000000000E+00 0. -1.
         11    1    3    3    0    0 -0.11724845589E+02 -0.15624836439E+02  0.46889073695E+01  0.20089633406E+02  0.51100000000E-03 0. -1.
        -11    1    3    3    0    0 -0.54185276039E+01 -0.18827436919E+02  0.10115921143E+02  0.22049142458E+02  0.51100000000E-03 0.  1.
         12    1    3    3    0    0  0.81090910478E+01 -0.20490279859E+01  0.66137592955E+00  0.83900710026E+01  0.00000000000E+00 0. -1.
</event>
<event>
 7    1  0.6726285E-013  0.5052886E+02  0.7816164E-02  0.1300439E+00
        -11   -1    0    0    0    0  0.00000000000E+00  0.00000000000E+00  0.45593999997E+02  0.45594000000E+02  0.51100000000E-03 0.  1.
         11   -1    0    0    0    0 -0.00000000000E+00 -0.00000000000E+00 -0.45593999997E+02  0.45594000000E+02  0.51100000000E-03 0. -1.
    9900012    2    1    2    0    0 -0.38957077777E+02  0.98018898169E+01 -0.62797174624E+01  0.50528858293E+02  0.29999995268E+02 0.  0.
         12    1    1    2    0    0  0.38957077777E+02 -0.98018898169E+01  0.62797174624E+01  0.40659141707E+02  0.00000000000E+00 0. -1.
         11    1    3    3    0    0 -0.91761826651E+01 -0.80864960386E+00 -0.86492017838E+01  0.12635859062E+02  0.51100000000E-03 0. -1.
        -11    1    3    3    0    0 -0.62284534214E+01  0.81083183126E+01 -0.70332385062E+01  0.12409871153E+02  0.51100000000E-03 0.  1.
        -12    1    3    3    0    0 -0.23552441691E+02  0.25022211081E+01  0.94027228276E+01  0.25483128078E+02  0.00000000000E+00 0.  1.
</event>
<event>
 7    1  0.6726285E-013  0.5052885E+02  0.7816164E-02  0.1300439E+00
        -11   -1    0    0    0    0  0.00000000000E+00  0.00000000000E+00  0.45593999997E+02  0.45594000000E+02  0.51100000000E-03 0. -1.
         11   -1    0    0    0    0 -0.00000000000E+00 -0.00000000000E+00 -0.45593999997E+02  0.45594000000E+02  0.51100000000E-03 0.  1.
    9900012    2    1    2    0    0  0.14618578265E+02  0.36308832918E+02 -0.11006005069E+02  0.50528851879E+02  0.29999975771E+02 0.  0.
         12    1    1    2    0    0 -0.14618578265E+02 -0.36308832918E+02  0.11006005069E+02  0.40659148121E+02  0.00000000000E+00 0. -1.
         11    1    3    3    0    0  0.15306387493E+02  0.23559903391E+02 -0.70107728147E+01  0.28956959122E+02  0.51100000000E-03 0. -1.
        -11    1    3    3    0    0  0.79901638851E+01  0.43023071252E+01 -0.13261003345E+01  0.91712108180E+01  0.51100000000E-03 0.  1.
        -12    1    3    3    0    0 -0.86779731128E+01  0.84466224023E+01 -0.26691319194E+01  0.12400681939E+02  0.00000000000E+00 0.  1.
</event>
<event>
 7    1  0.6726285E-013  0.5052886E+02  0.7816164E-02  0.1300439E+00
        -11   -1    0    0    0    0  0.00000000000E+00  0.00000000000E+00  0.45593999997E+02  0.45594000000E+02  0.51100000000E-03 0.  1.
         11   -1    0    0    0    0 -0.00000000000E+00 -0.00000000000E+00 -0.45593999997E+02  0.45594000000E+02  0.51100000000E-03 0. -1.
    9900012    2    1    2    0    0 -0.99061955657E+01 -0.25599872519E+02  0.29994660760E+02  0.50528857637E+02  0.29999993272E+02 0.  0.
         12    1    1    2    0    0  0.99061955657E+01  0.25599872519E+02 -0.29994660760E+02  0.40659142363E+02  0.00000000000E+00 0. -1.
         11    1    3    3    0    0 -0.84098557192E+01 -0.20134939694E+02  0.24327682351E+02  0.32679926538E+02  0.51100000000E-03 0. -1.
        -11    1    3    3    0    0 -0.51645063490E+01 -0.38377921565E+01  0.10032960084E+02  0.11918937150E+02  0.51100000000E-03 0.  1.
         12    1    3    3    0    0  0.36681665026E+01 -0.16271406689E+01 -0.43659816750E+01  0.59299939488E+01  0.00000000000E+00 0. -1.
</event>
<event>
 7    1  0.6726285E-013  0.5052886E+02  0.7816164E-02  0.1300439E+00
        -11   -1    0    0    0    0  0.00000000000E+00  0.00000000000E+00  0.45593999997E+02  0.45594000000E+02  0.51100000000E-03 0.  1.
         11   -1    0    0    0    0 -0.00000000000E+00 -0.00000000000E+00 -0.45593999997E+02  0.45594000000E+02  0.51100000000E-03 0. -1.
    9900012    2    1    2    0    0  0.40221400458E+02  0.35599508118E+01 -0.47677328953E+01  0.50528861033E+02  0.30000003596E+02 0.  0.
         12    1    1    2    0    0 -0.40221400458E+02 -0.35599508118E+01  0.47677328953E+01  0.40659138967E+02  0.00000000000E+00 0. -1.
         11    1    3    3    0    0  0.28006207194E+01  0.34448586080E-01 -0.54608419860E+01  0.61372191240E+01  0.51100000000E-03 0. -1.
        -11    1    3    3    0    0 -0.19315970506E+01 -0.21994600037E+01 -0.33162943674E+01  0.44234036744E+01  0.51100000000E-03 0.  1.
        -12    1    3    3    0    0  0.39352376789E+02  0.57249622294E+01  0.40094034582E+01  0.39968238235E+02  0.00000000000E+00 0.  1.
</event>
<event>
 7    1  0.6726285E-013  0.5052885E+02  0.7816164E-02  0.1300439E+00
        -11   -1    0    0    0    0  0.00000000000E+00  0.00000000000E+00  0.45593999997E+02  0.45594000000E+02  0.51100000000E-03 0.  1.
         11   -1    0    0    0    0 -0.00000000000E+00 -0.00000000000E+00 -0.45593999997E+02  0.45594000000E+02  0.51100000000E-03 0. -1.
    9900012    2    1    2    0    0 -0.30287277160E+02  0.20308515374E+02  0.17983644243E+02  0.50528850787E+02  0.29999972453E+02 0.  0.
         12    1    1    2    0    0  0.30287277160E+02 -0.20308515374E+02 -0.17983644243E+02  0.40659149213E+02  0.00000000000E+00 0. -1.
         11    1    3    3    0    0  0.26628834612E+01 -0.12968068814E+01 -0.36371563302E+00  0.29841155705E+01  0.51100000000E-03 0. -1.
        -11    1    3    3    0    0 -0.82192589726E+01  0.13696657718E+01 -0.32846377400E+01  0.89566203297E+01  0.51100000000E-03 0.  1.
        -12    1    3    3    0    0 -0.24730901648E+02  0.20235656483E+02  0.21631997616E+02  0.38588114887E+02  0.00000000000E+00 0.  1.
</event>
<event>
 7    1  0.6726285E-013  0.5052887E+02  0.7816164E-02  0.1300439E+00
        -11   -1    0    0    0    0  0.00000000000E+00  0.00000000000E+00  0.45593999997E+02  0.45594000000E+02  0.51100000000E-03 0.  1.
         11   -1    0    0    0    0 -0.00000000000E+00 -0.00000000000E+00 -0.45593999997E+02  0.45594000000E+02  0.51100000000E-03 0. -1.
    9900012    2    1    2    0    0 -0.19752309225E+02 -0.32386538265E+02 -0.14632960110E+02  0.50528866929E+02  0.30000021518E+02 0.  0.
         12    1    1    2    0    0  0.19752309225E+02  0.32386538265E+02  0.14632960110E+02  0.40659133071E+02  0.00000000000E+00 0. -1.
         11    1    3    3    0    0  0.25563660951E+01  0.16539987284E+01 -0.46345337661E+01  0.55452342508E+01  0.51100000000E-03 0. -1.
        -11    1    3    3    0    0 -0.41645608143E+01 -0.50280178582E+01 -0.85186120649E+01  0.10732720165E+02  0.51100000000E-03 0.  1.
        -12    1    3    3    0    0 -0.18144114506E+02 -0.29012519135E+02 -0.14798142788E+01  0.34250912514E+02  0.00000000000E+00 0.  1.
</event>
<event>
 7    1  0.6726285E-013  0.5052886E+02  0.7816164E-02  0.1300439E+00
        -11   -1    0    0    0    0  0.00000000000E+00  0.00000000000E+00  0.45593999997E+02  0.45594000000E+02  0.51100000000E-03 0. -1.
         11   -1    0    0    0    0 -0.00000000000E+00 -0.00000000000E+00 -0.45593999997E+02  0.45594000000E+02  0.51100000000E-03 0.  1.
    9900012    2    1    2    0    0 -0.23732910291E+02 -0.20142304805E+01 -0.32952357788E+02  0.50528855407E+02  0.29999986494E+02 0.  0.
         12    1    1    2    0    0  0.23732910291E+02  0.20142304805E+01  0.32952357788E+02  0.40659144593E+02  0.00000000000E+00 0. -1.
         11    1    3    3    0    0 -0.15208090039E+02 -0.10168871120E+02 -0.16603014258E+02  0.24705303584E+02  0.51100000000E-03 0. -1.
        -11    1    3    3    0    0 -0.81903897166E+01  0.67092543415E+01 -0.19585208258E+02  0.22263803815E+02  0.51100000000E-03 0.  1.
         12    1    3    3    0    0 -0.33443053505E+00  0.14453862975E+01  0.32358647288E+01  0.35597480072E+01  0.00000000000E+00 0. -1.
</event>
<event>
 7    1  0.6726285E-013  0.5052885E+02  0.7816164E-02  0.1300439E+00
        -11   -1    0    0    0    0  0.00000000000E+00  0.00000000000E+00  0.45593999997E+02  0.45594000000E+02  0.51100000000E-03 0. -1.
         11   -1    0    0    0    0 -0.00000000000E+00 -0.00000000000E+00 -0.45593999997E+02  0.45594000000E+02  0.51100000000E-03 0.  1.
    9900012    2    1    2    0    0  0.35399924903E+02 -0.10514831753E+02 -0.17013225643E+02  0.50528853222E+02  0.29999979854E+02 0.  0.
         12    1    1    2    0    0 -0.35399924903E+02  0.10514831753E+02  0.17013225643E+02  0.40659146778E+02  0.00000000000E+00 0. -1.
         11    1    3    3    0    0  0.19129701377E+02  0.11373087801E+01 -0.23841944583E+01  0.19311222890E+02  0.51100000000E-03 0. -1.
        -11    1    3    3    0    0  0.15089412143E+02  0.75477530792E+00 -0.76790470267E+01  0.16947796555E+02  0.51100000000E-03 0.  1.
         12    1    3    3    0    0  0.11808113828E+01 -0.12406915841E+02 -0.69499841581E+01  0.14269833777E+02  0.00000000000E+00 0. -1.
</event>
<event>
 7    1  0.6726285E-013  0.5052889E+02  0.7816164E-02  0.1300439E+00
        -11   -1    0    0    0    0  0.00000000000E+00  0.00000000000E+00  0.45593999997E+02  0.45594000000E+02  0.51100000000E-03 0.  1.
         11   -1    0    0    0    0 -0.00000000000E+00 -0.00000000000E+00 -0.45593999997E+02  0.45594000000E+02  0.51100000000E-03 0. -1.
    9900012    2    1    2    0    0  0.35331630499E+02  0.46436373704E+01  0.19577420168E+02  0.50528894474E+02  0.30000105243E+02 0.  0.
         12    1    1    2    0    0 -0.35331630499E+02 -0.46436373704E+01 -0.19577420168E+02  0.40659105526E+02  0.00000000000E+00 0. -1.
         11    1    3    3    0    0  0.28910661921E+02  0.68217048657E+01  0.12388357022E+02  0.32184366080E+02  0.51100000000E-03 0. -1.
        -11    1    3    3    0    0  0.65131654140E+01  0.52013794880E+01  0.44484665650E+00  0.83470690124E+01  0.51100000000E-03 0.  1.
        -12    1    3    3    0    0 -0.92196836293E-01 -0.73794469834E+01  0.67442164896E+01  0.99974593820E+01  0.00000000000E+00 0.  1.
</event>
<event>
 7    1  0.6726285E-013  0.5052886E+02  0.7816164E-02  0.1300439E+00
        -11   -1    0    0    0    0  0.00000000000E+00  0.00000000000E+00  0.45593999997E+02  0.45594000000E+02  0.51100000000E-03 0.  1.
         11   -1    0    0    0    0 -0.00000000000E+00 -0.00000000000E+00 -0.45593999997E+02  0.45594000000E+02  0.51100000000E-03 0. -1.
    9900012    2    1    2    0    0 -0.84533982250E+01 -0.42352188568E+01  0.39544516353E+02  0.50528858421E+02  0.29999995656E+02 0.  0.
         12    1    1    2    0    0  0.84533982250E+01  0.42352188568E+01 -0.39544516353E+02  0.40659141579E+02  0.00000000000E+00 0. -1.
         11    1    3    3    0    0 -0.77896971968E+01  0.22536064232E+01  0.50279210030E+01  0.95413895320E+01  0.51100000000E-03 0. -1.
        -11    1    3    3    0    0 -0.65583869816E+01  0.93915003736E+00  0.17163827667E+01  0.68440056003E+01  0.51100000000E-03 0.  1.
        -12    1    3    3    0    0  0.58946859534E+01 -0.74279753174E+01  0.32800212584E+02  0.34143463289E+02  0.00000000000E+00 0.  1.
</event>
<event>
 7    1  0.6726285E-013  0.5052886E+02  0.7816164E-02  0.1300439E+00
        -11   -1    0    0    0    0  0.00000000000E+00  0.00000000000E+00  0.45593999997E+02  0.45594000000E+02  0.51100000000E-03 0.  1.
         11   -1    0    0    0    0 -0.00000000000E+00 -0.00000000000E+00 -0.45593999997E+02  0.45594000000E+02  0.51100000000E-03 0. -1.
    9900012    2    1    2    0    0 -0.18518166783E+02  0.77022417135E+01  0.35368328882E+02  0.50528859376E+02  0.29999998558E+02 0.  0.
         12    1    1    2    0    0  0.18518166783E+02 -0.77022417135E+01 -0.35368328882E+02  0.40659140624E+02  0.00000000000E+00 0. -1.
         11    1    3    3    0    0 -0.46558916065E+01  0.10119741635E+02  0.31265739462E+02  0.33190856599E+02  0.51100000000E-03 0. -1.
        -11    1    3    3    0    0  0.81923052007E+00 -0.81882669592E+00 -0.11798770552E+01  0.16533982973E+01  0.51100000000E-03 0.  1.
        -12    1    3    3    0    0 -0.14681505697E+02 -0.15986732253E+01  0.52824664749E+01  0.15684604479E+02  0.00000000000E+00 0.  1.
</event>
<event>
 7    1  0.6726285E-013  0.5052886E+02  0.7816164E-02  0.1300439E+00
        -11   -1    0    0    0    0  0.00000000000E+00  0.00000000000E+00  0.45593999997E+02  0.45594000000E+02  0.51100000000E-03 0. -1.
         11   -1    0    0    0    0 -0.00000000000E+00 -0.00000000000E+00 -0.45593999997E+02  0.45594000000E+02  0.51100000000E-03 0.  1.
    9900012    2    1    2    0    0 -0.20126889275E+02 -0.21865471340E+02 -0.27748427856E+02  0.50528858872E+02  0.29999997027E+02 0.  0.
         12    1    1    2    0    0  0.20126889275E+02  0.21865471340E+02  0.27748427856E+02  0.40659141128E+02  0.00000000000E+00 0. -1.
         11    1    3    3    0    0  0.36606354650E+00  0.39206622386E+01 -0.12971231979E+02  0.13555753547E+02  0.51100000000E-03 0. -1.
        -11    1    3    3    0    0 -0.70096708029E+01 -0.35846609589E+01 -0.42391042491E+01  0.89417718631E+01  0.51100000000E-03 0.  1.
         12    1    3    3    0    0 -0.13483282019E+02 -0.22201472620E+02 -0.10538091627E+02  0.28031333462E+02  0.00000000000E+00 0. -1.
</event>
<event>
 7    1  0.6726285E-013  0.5052886E+02  0.7816164E-02  0.1300439E+00
        -11   -1    0    0    0    0  0.00000000000E+00  0.00000000000E+00  0.45593999997E+02  0.45594000000E+02  0.51100000000E-03 0.  1.
         11   -1    0    0    0    0 -0.00000000000E+00 -0.00000000000E+00 -0.45593999997E+02  0.45594000000E+02  0.51100000000E-03 0. -1.
    9900012    2    1    2    0    0  0.34030178079E+02  0.17645336004E+02  0.13555623788E+02  0.50528857866E+02  0.29999993971E+02 0.  0.
         12    1    1    2    0    0 -0.34030178079E+02 -0.17645336004E+02 -0.13555623788E+02  0.40659142134E+02  0.00000000000E+00 0. -1.
         11    1    3    3    0    0  0.77109123666E+01  0.60049156809E+01  0.68946100132E+01  0.11960469445E+02  0.51100000000E-03 0. -1.
        -11    1    3    3    0    0  0.14672208008E+02  0.19131254930E+02  0.49809763257E+01  0.24618869358E+02  0.51100000000E-03 0.  1.
         12    1    3    3    0    0  0.11647057704E+02 -0.74908346071E+01  0.16800374492E+01  0.13949519063E+02  0.00000000000E+00 0. -1.
</event>
<event>
 7    1  0.6726285E-013  0.5052886E+02  0.7816164E-02  0.1300439E+00
        -11   -1    0    0    0    0  0.00000000000E+00  0.00000000000E+00  0.45593999997E+02  0.45594000000E+02  0.51100000000E-03 0.  1.
         11   -1    0    0    0    0 -0.00000000000E+00 -0.00000000000E+00 -0.45593999997E+02  0.45594000000E+02  0.51100000000E-03 0. -1.
    9900012    2    1    2    0    0  0.21801560418E+02 -0.33551743033E+02  0.72206679949E+01  0.50528861500E+02  0.30000005017E+02 0.  0.
         12    1    1    2    0    0 -0.21801560418E+02  0.33551743033E+02 -0.72206679949E+01  0.40659138500E+02  0.00000000000E+00 0. -1.
         11    1    3    3    0    0  0.15606442027E+02 -0.16706707434E+02  0.73920295240E+01  0.24027426137E+02  0.51100000000E-03 0. -1.
        -11    1    3    3    0    0  0.12658570853E+02 -0.13506416437E+02  0.26476714283E+01  0.18699541846E+02  0.51100000000E-03 0.  1.
         12    1    3    3    0    0 -0.64634524617E+01 -0.33386191622E+01 -0.28190329574E+01  0.78018935170E+01  0.00000000000E+00 0. -1.
</event>
<event>
 7    1  0.6726285E-013  0.5052886E+02  0.7816164E-02  0.1300439E+00
        -11   -1    0    0    0    0  0.00000000000E+00  0.00000000000E+00  0.45593999997E+02  0.45594000000E+02  0.51100000000E-03 0.  1.
         11   -1    0    0    0    0 -0.00000000000E+00 -0.00000000000E+00 -0.45593999997E+02  0.45594000000E+02  0.51100000000E-03 0. -1.
    9900012    2    1    2    0    0  0.20588284917E+02  0.31925949164E+02  0.14492132563E+02  0.50528860657E+02  0.30000002453E+02 0.  0.
         12    1    1    2    0    0 -0.20588284917E+02 -0.31925949164E+02 -0.14492132563E+02  0.40659139343E+02  0.00000000000E+00 0. -1.
         11    1    3    3    0    0  0.14908772192E+02  0.77281904274E+01  0.10913607448E+01  0.16828175305E+02  0.51100000000E-03 0. -1.
        -11    1    3    3    0    0 -0.10359154581E+01  0.16102683313E+02 -0.65027983287E+00  0.16149067925E+02  0.51100000000E-03 0.  1.
        -12    1    3    3    0    0  0.67154281835E+01  0.80950754235E+01  0.14051051651E+02  0.17551617427E+02  0.00000000000E+00 0.  1.
</event>
<event>
 7    1  0.6726285E-013  0.5052885E+02  0.7816164E-02  0.1300439E+00
        -11   -1    0    0    0    0  0.00000000000E+00  0.00000000000E+00  0.45593999997E+02  0.45594000000E+02  0.51100000000E-03 0.  1.
         11   -1    0    0    0    0 -0.00000000000E+00 -0.00000000000E+00 -0.45593999997E+02  0.45594000000E+02  0.51100000000E-03 0. -1.
    9900012    2    1    2    0    0 -0.37039969457E+02  0.50467930411E+01  0.15991792424E+02  0.50528845037E+02  0.29999954974E+02 0.  0.
         12    1    1    2    0    0  0.37039969457E+02 -0.50467930411E+01 -0.15991792424E+02  0.40659154963E+02  0.00000000000E+00 0. -1.
         11    1    3    3    0    0 -0.12332004978E+02  0.48637071921E+01 -0.67502604271E+01  0.14876155771E+02  0.51100000000E-03 0. -1.
        -11    1    3    3    0    0 -0.20213124819E+02 -0.11146718624E+01  0.11058746062E+02  0.23067483023E+02  0.51100000000E-03 0.  1.
        -12    1    3    3    0    0 -0.44948396606E+01  0.12977577114E+01  0.11683306789E+02  0.12585206243E+02  0.00000000000E+00 0.  1.
</event>
<event>
 7    1  0.6726285E-013  0.5052885E+02  0.7816164E-02  0.1300439E+00
        -11   -1    0    0    0    0  0.00000000000E+00  0.00000000000E+00  0.45593999997E+02  0.45594000000E+02  0.51100000000E-03 0.  1.
         11   -1    0    0    0    0 -0.00000000000E+00 -0.00000000000E+00 -0.45593999997E+02  0.45594000000E+02  0.51100000000E-03 0. -1.
    9900012    2    1    2    0    0 -0.11844690146E+01  0.37787454430E+02  0.14962334916E+02  0.50528854100E+02  0.29999982523E+02 0.  0.
         12    1    1    2    0    0  0.11844690146E+01 -0.37787454430E+02 -0.14962334916E+02  0.40659145900E+02  0.00000000000E+00 0. -1.
         11    1    3    3    0    0  0.77270027839E-01 -0.75896273758E+00 -0.26948797964E+01  0.28007806898E+01  0.51100000000E-03 0. -1.
        -11    1    3    3    0    0 -0.75211562955E+00 -0.25460295232E+01 -0.65919093955E+00  0.27354117075E+01  0.51100000000E-03 0.  1.
        -12    1    3    3    0    0 -0.50962341289E+00  0.41092446691E+02  0.18316405652E+02  0.44992661703E+02  0.00000000000E+00 0.  1.
</event>
<event>
 7    1  0.6726285E-013  0.5052885E+02  0.7816164E-02  0.1300439E+00
        -11   -1    0    0    0    0  0.00000000000E+00  0.00000000000E+00  0.45593999997E+02  0.45594000000E+02  0.51100000000E-03 0.  1.
         11   -1    0    0    0    0 -0.00000000000E+00 -0.00000000000E+00 -0.45593999997E+02  0.45594000000E+02  0.51100000000E-03 0. -1.
    9900012    2    1    2    0    0  0.16080771132E+02  0.78108825787E+01  0.36518010601E+02  0.50528853611E+02  0.29999981036E+02 0.  0.
         12    1    1    2    0    0 -0.16080771132E+02 -0.78108825787E+01 -0.36518010601E+02  0.40659146389E+02  0.00000000000E+00 0. -1.
         11    1    3    3    0    0  0.17997857821E+02  0.88809080075E+01  0.25317417130E+02  0.32307352469E+02  0.51100000000E-03 0.  1.
        -11    1    3    3    0    0  0.29004941918E+01  0.54653489952E+01  0.57158332973E+01  0.84233993578E+01  0.51100000000E-03 0. -1.
         12    1    3    3    0    0 -0.48175808812E+01 -0.65353744241E+01  0.54847601734E+01  0.97981017840E+01  0.00000000000E+00 0. -1.
</event>
<event>
 7    1  0.6726285E-013  0.5052886E+02  0.7816164E-02  0.1300439E+00
        -11   -1    0    0    0    0  0.00000000000E+00  0.00000000000E+00  0.45593999997E+02  0.45594000000E+02  0.51100000000E-03 0.  1.
         11   -1    0    0    0    0 -0.00000000000E+00 -0.00000000000E+00 -0.45593999997E+02  0.45594000000E+02  0.51100000000E-03 0. -1.
    9900012    2    1    2    0    0  0.18209672188E+02 -0.19082687155E+02  0.30942274877E+02  0.50528862223E+02  0.30000007212E+02 0.  0.
         12    1    1    2    0    0 -0.18209672188E+02  0.19082687155E+02 -0.30942274877E+02  0.40659137777E+02  0.00000000000E+00 0. -1.
         11    1    3    3    0    0  0.18795148512E+02 -0.41713864199E+01  0.49209605994E+01  0.19871434919E+02  0.51100000000E-03 0. -1.
        -11    1    3    3    0    0  0.23943387492E+01 -0.25633038959E+01  0.55907580664E+01  0.65999970400E+01  0.51100000000E-03 0.  1.
        -12    1    3    3    0    0 -0.29798150734E+01 -0.12347996839E+02  0.20430556211E+02  0.24057430264E+02  0.00000000000E+00 0.  1.
</event>
<event>
 7    1  0.6726285E-013  0.5052886E+02  0.7816164E-02  0.1300439E+00
        -11   -1    0    0    0    0  0.00000000000E+00  0.00000000000E+00  0.45593999997E+02  0.45594000000E+02  0.51100000000E-03 0.  1.
         11   -1    0    0    0    0 -0.00000000000E+00 -0.00000000000E+00 -0.45593999997E+02  0.45594000000E+02  0.51100000000E-03 0. -1.
    9900012    2    1    2    0    0 -0.26123106842E+02 -0.22902220154E+02  0.21124328968E+02  0.50528859903E+02  0.30000000160E+02 0.  0.
         12    1    1    2    0    0  0.26123106842E+02  0.22902220154E+02 -0.21124328968E+02  0.40659140097E+02  0.00000000000E+00 0. -1.
         11    1    3    3    0    0  0.95072288737E+00  0.41426334240E+01  0.34696963703E+01  0.54867184052E+01  0.51100000000E-03 0. -1.
        -11    1    3    3    0    0 -0.22261826061E+01  0.20650293278E+01  0.22787228336E+01  0.37964210954E+01  0.51100000000E-03 0.  1.
        -12    1    3    3    0    0 -0.24847647124E+02 -0.29109882906E+02  0.15375909765E+02  0.41245720402E+02  0.00000000000E+00 0.  1.
</event>
<event>
 7    1  0.6726285E-013  0.5052887E+02  0.7816164E-02  0.1300439E+00
        -11   -1    0    0    0    0  0.00000000000E+00  0.00000000000E+00  0.45593999997E+02  0.45594000000E+02  0.51100000000E-03 0.  1.
         11   -1    0    0    0    0 -0.00000000000E+00 -0.00000000000E+00 -0.45593999997E+02  0.45594000000E+02  0.51100000000E-03 0. -1.
    9900012    2    1    2    0    0  0.25171503871E+02 -0.26128700402E+02  0.18353519122E+02  0.50528865037E+02  0.30000015765E+02 0.  0.
         12    1    1    2    0    0 -0.25171503871E+02  0.26128700402E+02 -0.18353519122E+02  0.40659134963E+02  0.00000000000E+00 0. -1.
         11    1    3    3    0    0  0.15677410933E+00 -0.48471144622E+01 -0.19050470487E+01  0.52104031754E+01  0.51100000000E-03 0.  1.
        -11    1    3    3    0    0  0.11994016561E+01 -0.46341368705E+01 -0.49242290223E+01  0.68674464390E+01  0.51100000000E-03 0. -1.
        -12    1    3    3    0    0  0.23815328105E+02 -0.16647449070E+02  0.25182795193E+02  0.38451015422E+02  0.00000000000E+00 0.  1.
</event>
<event>
 7    1  0.6726285E-013  0.5052890E+02  0.7816164E-02  0.1300439E+00
        -11   -1    0    0    0    0  0.00000000000E+00  0.00000000000E+00  0.45593999997E+02  0.45594000000E+02  0.51100000000E-03 0. -1.
         11   -1    0    0    0    0 -0.00000000000E+00 -0.00000000000E+00 -0.45593999997E+02  0.45594000000E+02  0.51100000000E-03 0.  1.
    9900012    2    1    2    0    0 -0.33918891826E+02 -0.22100632513E+02 -0.37727091141E+01  0.50528898753E+02  0.30000118249E+02 0.  0.
         12    1    1    2    0    0  0.33918891826E+02  0.22100632513E+02  0.37727091141E+01  0.40659101247E+02  0.00000000000E+00 0. -1.
         11    1    3    3    0    0 -0.10401496068E+02 -0.88422106220E+01  0.76131629027E+01  0.15631252630E+02  0.51100000000E-03 0. -1.
        -11    1    3    3    0    0 -0.53653512384E+01 -0.80672470647E+01  0.40598068461E+01  0.10504737074E+02  0.51100000000E-03 0.  1.
         12    1    3    3    0    0 -0.18152044519E+02 -0.51911748268E+01 -0.15445678863E+02  0.24392909048E+02  0.00000000000E+00 0. -1.
</event>
<event>
 7    1  0.6726285E-013  0.5052886E+02  0.7816164E-02  0.1300439E+00
        -11   -1    0    0    0    0  0.00000000000E+00  0.00000000000E+00  0.45593999997E+02  0.45594000000E+02  0.51100000000E-03 0.  1.
         11   -1    0    0    0    0 -0.00000000000E+00 -0.00000000000E+00 -0.45593999997E+02  0.45594000000E+02  0.51100000000E-03 0. -1.
    9900012    2    1    2    0    0  0.28208893014E+02  0.92680126022E+01  0.27776385980E+02  0.50528864239E+02  0.30000013341E+02 0.  0.
         12    1    1    2    0    0 -0.28208893014E+02 -0.92680126022E+01 -0.27776385980E+02  0.40659135761E+02  0.00000000000E+00 0. -1.
         11    1    3    3    0    0 -0.90934399255E+00  0.49250186847E+01 -0.33937626905E+01  0.60498215678E+01  0.51100000000E-03 0.  1.
        -11    1    3    3    0    0  0.58320824967E-01 -0.15767881756E+01  0.38323789385E+01  0.41444892157E+01  0.51100000000E-03 0. -1.
        -12    1    3    3    0    0  0.29059916182E+02  0.59197820932E+01  0.27337769732E+02  0.40334553456E+02  0.00000000000E+00 0.  1.
</event>
<event>
 7    1  0.6726285E-013  0.5052886E+02  0.7816164E-02  0.1300439E+00
        -11   -1    0    0    0    0  0.00000000000E+00  0.00000000000E+00  0.45593999997E+02  0.45594000000E+02  0.51100000000E-03 0.  1.
         11   -1    0    0    0    0 -0.00000000000E+00 -0.00000000000E+00 -0.45593999997E+02  0.45594000000E+02  0.51100000000E-03 0. -1.
    9900012    2    1    2    0    0 -0.35183171510E+01 -0.11273315161E+02  0.38906287658E+02  0.50528863147E+02  0.30000010023E+02 0.  0.
         12    1    1    2    0    0  0.35183171510E+01  0.11273315161E+02 -0.38906287658E+02  0.40659136853E+02  0.00000000000E+00 0. -1.
         11    1    3    3    0    0  0.10219662764E+01 -0.88848016056E+01  0.31025734769E+02  0.32289012571E+02  0.51100000000E-03 0. -1.
        -11    1    3    3    0    0 -0.45874177194E+01 -0.23792542584E+00  0.12406022291E+02  0.13229149602E+02  0.51100000000E-03 0.  1.
         12    1    3    3    0    0  0.47134291965E-01 -0.21505881296E+01 -0.45254694020E+01  0.50107009742E+01  0.00000000000E+00 0. -1.
</event>
<event>
 7    1  0.6726285E-013  0.5052888E+02  0.7816164E-02  0.1300439E+00
        -11   -1    0    0    0    0  0.00000000000E+00  0.00000000000E+00  0.45593999997E+02  0.45594000000E+02  0.51100000000E-03 0.  1.
         11   -1    0    0    0    0 -0.00000000000E+00 -0.00000000000E+00 -0.45593999997E+02  0.45594000000E+02  0.51100000000E-03 0. -1.
    9900012    2    1    2    0    0 -0.36199617544E+02  0.17889288538E+02 -0.47670419686E+01  0.50528884861E+02  0.30000076025E+02 0.  0.
         12    1    1    2    0    0  0.36199617544E+02 -0.17889288538E+02  0.47670419686E+01  0.40659115139E+02  0.00000000000E+00 0. -1.
         11    1    3    3    0    0 -0.97694701947E+01  0.15799008965E+02 -0.57412362545E+01  0.19442557089E+02  0.51100000000E-03 0. -1.
        -11    1    3    3    0    0 -0.12826841148E+02  0.82820951371E+01  0.41162829883E+01  0.15813435414E+02  0.51100000000E-03 0.  1.
        -12    1    3    3    0    0 -0.13603306201E+02 -0.61918155641E+01 -0.31420887024E+01  0.15272892359E+02  0.00000000000E+00 0.  1.
</event>
<event>
 7    1  0.6726285E-013  0.5052885E+02  0.7816164E-02  0.1300439E+00
        -11   -1    0    0    0    0  0.00000000000E+00  0.00000000000E+00  0.45593999997E+02  0.45594000000E+02  0.51100000000E-03 0.  1.
         11   -1    0    0    0    0 -0.00000000000E+00 -0.00000000000E+00 -0.45593999997E+02  0.45594000000E+02  0.51100000000E-03 0. -1.
    9900012    2    1    2    0    0 -0.15716341918E+02 -0.91968428061E+01  0.36353554722E+02  0.50528852667E+02  0.29999978167E+02 0.  0.
         12    1    1    2    0    0  0.15716341918E+02  0.91968428061E+01 -0.36353554722E+02  0.40659147333E+02  0.00000000000E+00 0. -1.
         11    1    3    3    0    0 -0.72424625940E+01 -0.30313087698E+01  0.54233803503E+01  0.95422823249E+01  0.51100000000E-03 0.  1.
        -11    1    3    3    0    0 -0.17179597534E+02 -0.26704805854E+01  0.21936993140E+02  0.27991100483E+02  0.51100000000E-03 0. -1.
        -12    1    3    3    0    0  0.87057182101E+01 -0.34950534510E+01  0.89931812324E+01  0.12995469859E+02  0.00000000000E+00 0.  1.
</event>
<event>
 7    1  0.6726285E-013  0.5052886E+02  0.7816164E-02  0.1300439E+00
        -11   -1    0    0    0    0  0.00000000000E+00  0.00000000000E+00  0.45593999997E+02  0.45594000000E+02  0.51100000000E-03 0.  1.
         11   -1    0    0    0    0 -0.00000000000E+00 -0.00000000000E+00 -0.45593999997E+02  0.45594000000E+02  0.51100000000E-03 0. -1.
    9900012    2    1    2    0    0  0.35695436272E+02 -0.16636272487E+02  0.10111194634E+02  0.50528856012E+02  0.29999988335E+02 0.  0.
         12    1    1    2    0    0 -0.35695436272E+02  0.16636272487E+02 -0.10111194634E+02  0.40659143988E+02  0.00000000000E+00 0. -1.
         11    1    3    3    0    0  0.88326660247E+01  0.16272472672E+01 -0.47376230636E+01  0.10154259960E+02  0.51100000000E-03 0. -1.
        -11    1    3    3    0    0  0.90633114969E+01 -0.66752039198E+01 -0.40318332769E+01  0.11956489556E+02  0.51100000000E-03 0.  1.
        -12    1    3    3    0    0  0.17799458750E+02 -0.11588315835E+02  0.18880650974E+02  0.28418106497E+02  0.00000000000E+00 0.  1.
</event>
<event>
 7    1  0.6726285E-013  0.5052886E+02  0.7816164E-02  0.1300439E+00
        -11   -1    0    0    0    0  0.00000000000E+00  0.00000000000E+00  0.45593999997E+02  0.45594000000E+02  0.51100000000E-03 0.  1.
         11   -1    0    0    0    0 -0.00000000000E+00 -0.00000000000E+00 -0.45593999997E+02  0.45594000000E+02  0.51100000000E-03 0. -1.
    9900012    2    1    2    0    0  0.18995537526E+02  0.25663087156E+02 -0.25174219492E+02  0.50528858158E+02  0.29999994857E+02 0.  0.
         12    1    1    2    0    0 -0.18995537526E+02 -0.25663087156E+02  0.25174219492E+02  0.40659141842E+02  0.00000000000E+00 0. -1.
         11    1    3    3    0    0  0.38645506112E+00  0.40785654424E+00 -0.14923688576E+02  0.14934261798E+02  0.51100000000E-03 0. -1.
        -11    1    3    3    0    0  0.13034476732E+02  0.14449326065E+02 -0.12637832123E+02  0.23203349078E+02  0.51100000000E-03 0.  1.
        -12    1    3    3    0    0  0.55746057334E+01  0.10805904547E+02  0.23873012070E+01  0.12391247282E+02  0.00000000000E+00 0.  1.
</event>
<event>
 7    1  0.6726285E-013  0.5052886E+02  0.7816164E-02  0.1300439E+00
        -11   -1    0    0    0    0  0.00000000000E+00  0.00000000000E+00  0.45593999997E+02  0.45594000000E+02  0.51100000000E-03 0. -1.
         11   -1    0    0    0    0 -0.00000000000E+00 -0.00000000000E+00 -0.45593999997E+02  0.45594000000E+02  0.51100000000E-03 0.  1.
    9900012    2    1    2    0    0 -0.12385616423E+02 -0.38643136597E+02  0.25436622368E+01  0.50528859357E+02  0.29999998502E+02 0.  0.
         12    1    1    2    0    0  0.12385616423E+02  0.38643136597E+02 -0.25436622368E+01  0.40659140643E+02  0.00000000000E+00 0. -1.
         11    1    3    3    0    0  0.11626209282E+01  0.16474196437E+01  0.29753845548E+01  0.35942443455E+01  0.51100000000E-03 0. -1.
        -11    1    3    3    0    0 -0.80382674369E+01 -0.25347583791E+01 -0.22888782803E+01  0.87337109793E+01  0.51100000000E-03 0.  1.
        -12    1    3    3    0    0 -0.55099699143E+01 -0.37755797862E+02  0.18571559622E+01  0.38200904032E+02  0.00000000000E+00 0.  1.
</event>
<event>
 7    1  0.6726285E-013  0.5052886E+02  0.7816164E-02  0.1300439E+00
        -11   -1    0    0    0    0  0.00000000000E+00  0.00000000000E+00  0.45593999997E+02  0.45594000000E+02  0.51100000000E-03 0.  1.
         11   -1    0    0    0    0 -0.00000000000E+00 -0.00000000000E+00 -0.45593999997E+02  0.45594000000E+02  0.51100000000E-03 0. -1.
    9900012    2    1    2    0    0  0.18698219503E+02  0.35879578207E+02 -0.40247381606E+01  0.50528855123E+02  0.29999985632E+02 0.  0.
         12    1    1    2    0    0 -0.18698219503E+02 -0.35879578207E+02  0.40247381606E+01  0.40659144877E+02  0.00000000000E+00 0. -1.
         11    1    3    3    0    0 -0.16499300995E+01  0.31765714950E+01  0.54392316971E+00  0.36205978059E+01  0.51100000000E-03 0. -1.
        -11    1    3    3    0    0  0.12420543325E+02  0.32607921407E+02  0.41320641263E+01  0.35137165355E+02  0.51100000000E-03 0.  1.
        -12    1    3    3    0    0  0.79276062779E+01  0.95085304386E-01 -0.87007254566E+01  0.11771091962E+02  0.00000000000E+00 0.  1.
</event>
<event>
 7    1  0.8818715E-013  0.5052886E+02  0.7816164E-02  0.1300439E+00
        -11   -1    0    0    0    0  0.00000000000E+00  0.00000000000E+00  0.45593999997E+02  0.45594000000E+02  0.51100000000E-03 0. -1.
         11   -1    0    0    0    0 -0.00000000000E+00 -0.00000000000E+00 -0.45593999997E+02  0.45594000000E+02  0.51100000000E-03 0.  1.
    9900012    2    1    2    0    0 -0.13119001995E+02 -0.28333812450E+00 -0.38483464421E+02  0.50528861695E+02  0.30000005609E+02 0.  0.
         12    1    1    2    0    0  0.13119001995E+02  0.28333812450E+00  0.38483464421E+02  0.40659138305E+02  0.00000000000E+00 0. -1.
         11    1    3    3    0    0 -0.11615444052E+01 -0.91068862028E+01 -0.10043445910E+02  0.13607180741E+02  0.51100000000E-03 0. -1.
        -11    1    3    3    0    0 -0.12379453940E+02  0.21103363994E+00 -0.24480122517E+02  0.27433042372E+02  0.51100000000E-03 0.  1.
         12    1    3    3    0    0  0.42199635022E+00  0.86125144383E+01 -0.39598959939E+01  0.94886385827E+01  0.00000000000E+00 0. -1.
</event>
<event>
 7    1  0.6726285E-013  0.5052886E+02  0.7816164E-02  0.1300439E+00
        -11   -1    0    0    0    0  0.00000000000E+00  0.00000000000E+00  0.45593999997E+02  0.45594000000E+02  0.51100000000E-03 0.  1.
         11   -1    0    0    0    0 -0.00000000000E+00 -0.00000000000E+00 -0.45593999997E+02  0.45594000000E+02  0.51100000000E-03 0. -1.
    9900012    2    1    2    0    0 -0.28916030045E+02  0.11729656788E+02  0.26066145789E+02  0.50528860827E+02  0.30000002971E+02 0.  0.
         12    1    1    2    0    0  0.28916030045E+02 -0.11729656788E+02 -0.26066145789E+02  0.40659139173E+02  0.00000000000E+00 0. -1.
         11    1    3    3    0    0  0.26556256424E+01 -0.11203130776E+01  0.11311243881E+02  0.11672689807E+02  0.51100000000E-03 0. -1.
        -11    1    3    3    0    0 -0.19556409493E+02  0.97456596621E+01  0.14897539685E+02  0.26445561507E+02  0.51100000000E-03 0.  1.
        -12    1    3    3    0    0 -0.12015246194E+02  0.31043102035E+01 -0.14263777597E+00  0.12410609513E+02  0.00000000000E+00 0.  1.
</event>
<event>
 7    1  0.6726285E-013  0.5052886E+02  0.7816164E-02  0.1300439E+00
        -11   -1    0    0    0    0  0.00000000000E+00  0.00000000000E+00  0.45593999997E+02  0.45594000000E+02  0.51100000000E-03 0. -1.
         11   -1    0    0    0    0 -0.00000000000E+00 -0.00000000000E+00 -0.45593999997E+02  0.45594000000E+02  0.51100000000E-03 0.  1.
    9900012    2    1    2    0    0  0.14773831473E+02 -0.22511362337E+02 -0.30465358790E+02  0.50528860599E+02  0.30000002277E+02 0.  0.
         12    1    1    2    0    0 -0.14773831473E+02  0.22511362337E+02  0.30465358790E+02  0.40659139401E+02  0.00000000000E+00 0. -1.
         11    1    3    3    0    0  0.95539527493E+01 -0.70775189886E+01 -0.17548240131E+01  0.12018681115E+02  0.51100000000E-03 0. -1.
        -11    1    3    3    0    0  0.45528170731E+01 -0.12869942443E+02 -0.48263952361E+01  0.14479559836E+02  0.51100000000E-03 0.  1.
        -12    1    3    3    0    0  0.66706165017E+00 -0.25639009050E+01 -0.23884139540E+02  0.24030619648E+02  0.00000000000E+00 0.  1.
</event>
<event>
 7    1  0.6726285E-013  0.5052887E+02  0.7816164E-02  0.1300439E+00
        -11   -1    0    0    0    0  0.00000000000E+00  0.00000000000E+00  0.45593999997E+02  0.45594000000E+02  0.51100000000E-03 0.  1.
         11   -1    0    0    0    0 -0.00000000000E+00 -0.00000000000E+00 -0.45593999997E+02  0.45594000000E+02  0.51100000000E-03 0. -1.
    9900012    2    1    2    0    0  0.50543717401E+01  0.98297225673E+01  0.39127929036E+02  0.50528868798E+02  0.30000027200E+02 0.  0.
         12    1    1    2    0    0 -0.50543717401E+01 -0.98297225673E+01 -0.39127929036E+02  0.40659131202E+02  0.00000000000E+00 0. -1.
         11    1    3    3    0    0 -0.36680725227E+00 -0.61138581098E+01  0.62403743334E+01  0.87439167785E+01  0.51100000000E-03 0. -1.
        -11    1    3    3    0    0  0.31694062207E+01 -0.41509829228E+01  0.97212048148E+01  0.11035289680E+02  0.51100000000E-03 0.  1.
        -12    1    3    3    0    0  0.22517727717E+01  0.20094563600E+02  0.23166349888E+02  0.30749662340E+02  0.00000000000E+00 0.  1.
</event>
<event>
 7    1  0.6726285E-013  0.5052887E+02  0.7816164E-02  0.1300439E+00
        -11   -1    0    0    0    0  0.00000000000E+00  0.00000000000E+00  0.45593999997E+02  0.45594000000E+02  0.51100000000E-03 0.  1.
         11   -1    0    0    0    0 -0.00000000000E+00 -0.00000000000E+00 -0.45593999997E+02  0.45594000000E+02  0.51100000000E-03 0. -1.
    9900012    2    1    2    0    0 -0.42716001612E+01  0.27276454240E+02  0.29848175960E+02  0.50528866561E+02  0.30000020400E+02 0.  0.
         12    1    1    2    0    0  0.42716001612E+01 -0.27276454240E+02 -0.29848175960E+02  0.40659133439E+02  0.00000000000E+00 0. -1.
         11    1    3    3    0    0 -0.12848538522E+01  0.60621459376E+01  0.21070945761E+02  0.21963269755E+02  0.51100000000E-03 0. -1.
        -11    1    3    3    0    0 -0.61998987811E+01  0.20983938133E+01  0.61915122656E+01  0.90098183050E+01  0.51100000000E-03 0.  1.
         12    1    3    3    0    0  0.32131524721E+01  0.19115914489E+02  0.25857179328E+01  0.19555778501E+02  0.00000000000E+00 0. -1.
</event>
<event>
 7    1  0.6726285E-013  0.5052886E+02  0.7816164E-02  0.1300439E+00
        -11   -1    0    0    0    0  0.00000000000E+00  0.00000000000E+00  0.45593999997E+02  0.45594000000E+02  0.51100000000E-03 0. -1.
         11   -1    0    0    0    0 -0.00000000000E+00 -0.00000000000E+00 -0.45593999997E+02  0.45594000000E+02  0.51100000000E-03 0.  1.
    9900012    2    1    2    0    0 -0.18120411193E+02  0.33448988515E+02 -0.14352064403E+02  0.50528857276E+02  0.29999992175E+02 0.  0.
         12    1    1    2    0    0  0.18120411193E+02 -0.33448988515E+02  0.14352064403E+02  0.40659142724E+02  0.00000000000E+00 0. -1.
         11    1    3    3    0    0 -0.42381381572E+01 -0.23116232036E+01 -0.12183283413E+01  0.49789297126E+01  0.51100000000E-03 0. -1.
        -11    1    3    3    0    0 -0.14879993033E+02  0.36606210331E+02 -0.80837169961E+01  0.40333302719E+02  0.51100000000E-03 0.  1.
         12    1    3    3    0    0  0.99771999719E+00 -0.84559861289E+00 -0.50500190652E+01  0.52166248442E+01  0.00000000000E+00 0. -1.
</event>
<event>
 7    1  0.6726285E-013  0.5052886E+02  0.7816164E-02  0.1300439E+00
        -11   -1    0    0    0    0  0.00000000000E+00  0.00000000000E+00  0.45593999997E+02  0.45594000000E+02  0.51100000000E-03 0.  1.
         11   -1    0    0    0    0 -0.00000000000E+00 -0.00000000000E+00 -0.45593999997E+02  0.45594000000E+02  0.51100000000E-03 0. -1.
    9900012    2    1    2    0    0  0.23650881162E+02 -0.28418207616E+02  0.16917653903E+02  0.50528859362E+02  0.29999998517E+02 0.  0.
         12    1    1    2    0    0 -0.23650881162E+02  0.28418207616E+02 -0.16917653903E+02  0.40659140638E+02  0.00000000000E+00 0. -1.
         11    1    3    3    0    0 -0.43091785282E+00 -0.28008402700E+00 -0.63489139224E+00  0.81683817193E+00  0.51100000000E-03 0. -1.
        -11    1    3    3    0    0  0.29101611122E+02 -0.27453230331E+02  0.11120075840E+02  0.41523965520E+02  0.51100000000E-03 0.  1.
        -12    1    3    3    0    0 -0.50198121080E+01 -0.68489325797E+00  0.64324694551E+01  0.81880556706E+01  0.00000000000E+00 0.  1.
</event>
<event>
 7    1  0.6726285E-013  0.5052886E+02  0.7816164E-02  0.1300439E+00
        -11   -1    0    0    0    0  0.00000000000E+00  0.00000000000E+00  0.45593999997E+02  0.45594000000E+02  0.51100000000E-03 0.  1.
         11   -1    0    0    0    0 -0.00000000000E+00 -0.00000000000E+00 -0.45593999997E+02  0.45594000000E+02  0.51100000000E-03 0. -1.
    9900012    2    1    2    0    0  0.36900725120E+02  0.17036411823E+02  0.11239316813E+01  0.50528855092E+02  0.29999985538E+02 0.  0.
         12    1    1    2    0    0 -0.36900725120E+02 -0.17036411823E+02 -0.11239316813E+01  0.40659144908E+02  0.00000000000E+00 0. -1.
         11    1    3    3    0    0  0.10049852161E+02 -0.33492483201E+01  0.31164744710E+01  0.11042164922E+02  0.51100000000E-03 0. -1.
        -11    1    3    3    0    0  0.18889227535E+02  0.18349038987E+01  0.13442578869E+01  0.19025688390E+02  0.51100000000E-03 0.  1.
         12    1    3    3    0    0  0.79616454244E+01  0.18550756244E+02 -0.33368006766E+01  0.20461001780E+02  0.00000000000E+00 0. -1.
</event>
<event>
 7    1  0.6726285E-013  0.5052887E+02  0.7816164E-02  0.1300439E+00
        -11   -1    0    0    0    0  0.00000000000E+00  0.00000000000E+00  0.45593999997E+02  0.45594000000E+02  0.51100000000E-03 0.  1.
         11   -1    0    0    0    0 -0.00000000000E+00 -0.00000000000E+00 -0.45593999997E+02  0.45594000000E+02  0.51100000000E-03 0. -1.
    9900012    2    1    2    0    0  0.13544581042E+02  0.38335871171E+02  0.26447635814E+00  0.50528872590E+02  0.30000038724E+02 0.  0.
         12    1    1    2    0    0 -0.13544581042E+02 -0.38335871171E+02 -0.26447635814E+00  0.40659127410E+02  0.00000000000E+00 0. -1.
         11    1    3    3    0    0  0.59974897069E+01  0.32850204547E+02 -0.67743244416E+00  0.33400070906E+02  0.51100000000E-03 0. -1.
        -11    1    3    3    0    0  0.19465035142E+01  0.97174748935E+01 -0.64704985280E+00  0.99316095377E+01  0.51100000000E-03 0.  1.
         12    1    3    3    0    0  0.56005878208E+01 -0.42318082702E+01  0.15889586551E+01  0.71971921457E+01  0.00000000000E+00 0. -1.
</event>
<event>
 7    1  0.6726285E-013  0.5052885E+02  0.7816164E-02  0.1300439E+00
        -11   -1    0    0    0    0  0.00000000000E+00  0.00000000000E+00  0.45593999997E+02  0.45594000000E+02  0.51100000000E-03 0.  1.
         11   -1    0    0    0    0 -0.00000000000E+00 -0.00000000000E+00 -0.45593999997E+02  0.45594000000E+02  0.51100000000E-03 0. -1.
    9900012    2    1    2    0    0 -0.14819328604E+02 -0.12260514092E+00  0.37862099646E+02  0.50528854388E+02  0.29999983399E+02 0.  0.
         12    1    1    2    0    0  0.14819328604E+02  0.12260514092E+00 -0.37862099646E+02  0.40659145612E+02  0.00000000000E+00 0. -1.
         11    1    3    3    0    0 -0.30132871333E+01 -0.12992250696E+02  0.21460526620E+02  0.25267225423E+02  0.51100000000E-03 0. -1.
        -11    1    3    3    0    0 -0.53115465200E+01  0.20974022940E+01  0.90240487184E+01  0.10679189031E+02  0.51100000000E-03 0.  1.
        -12    1    3    3    0    0 -0.64944949504E+01  0.10772243261E+02  0.73775243074E+01  0.14582439935E+02  0.00000000000E+00 0.  1.
</event>
<event>
 7    1  0.6726285E-013  0.5052886E+02  0.7816164E-02  0.1300439E+00
        -11   -1    0    0    0    0  0.00000000000E+00  0.00000000000E+00  0.45593999997E+02  0.45594000000E+02  0.51100000000E-03 0.  1.
         11   -1    0    0    0    0 -0.00000000000E+00 -0.00000000000E+00 -0.45593999997E+02  0.45594000000E+02  0.51100000000E-03 0. -1.
    9900012    2    1    2    0    0 -0.74576919400E+01  0.29386348814E+02  0.27092272281E+02  0.50528857325E+02  0.29999992325E+02 0.  0.
         12    1    1    2    0    0  0.74576919400E+01 -0.29386348814E+02 -0.27092272281E+02  0.40659142675E+02  0.00000000000E+00 0. -1.
         11    1    3    3    0    0 -0.39344159379E+01  0.11449414464E+01  0.13944308395E+01  0.43283896908E+01  0.51100000000E-03 0. -1.
        -11    1    3    3    0    0 -0.26414869457E+01  0.18640161562E+01  0.18588537283E+02  0.18867584056E+02  0.51100000000E-03 0.  1.
         12    1    3    3    0    0 -0.88178905649E+00  0.26377391212E+02  0.71093041582E+01  0.27332883578E+02  0.00000000000E+00 0. -1.
</event>
<event>
 7    1  0.6726285E-013  0.5052893E+02  0.7816164E-02  0.1300439E+00
        -11   -1    0    0    0    0  0.00000000000E+00  0.00000000000E+00  0.45593999997E+02  0.45594000000E+02  0.51100000000E-03 0.  1.
         11   -1    0    0    0    0 -0.00000000000E+00 -0.00000000000E+00 -0.45593999997E+02  0.45594000000E+02  0.51100000000E-03 0. -1.
    9900012    2    1    2    0    0  0.33727710957E+02  0.22672949730E+02  0.12404634377E+01  0.50528931081E+02  0.30000216513E+02 0.  0.
         12    1    1    2    0    0 -0.33727710957E+02 -0.22672949730E+02 -0.12404634377E+01  0.40659068919E+02  0.00000000000E+00 0. -1.
         11    1    3    3    0    0  0.10233269457E+01  0.26053973605E+01  0.82361034343E+00  0.29178121431E+01  0.51100000000E-03 0.  1.
        -11    1    3    3    0    0 -0.34938343597E+01  0.17426108399E+01  0.54751885713E+01  0.67246755479E+01  0.51100000000E-03 0. -1.
         12    1    3    3    0    0  0.36198218371E+02  0.18324941530E+02 -0.50583354770E+01  0.40886443390E+02  0.00000000000E+00 0. -1.
</event>
<event>
 7    1  0.6726285E-013  0.5052886E+02  0.7816164E-02  0.1300439E+00
        -11   -1    0    0    0    0  0.00000000000E+00  0.00000000000E+00  0.45593999997E+02  0.45594000000E+02  0.51100000000E-03 0.  1.
         11   -1    0    0    0    0 -0.00000000000E+00 -0.00000000000E+00 -0.45593999997E+02  0.45594000000E+02  0.51100000000E-03 0. -1.
    9900012    2    1    2    0    0 -0.35930642547E+02  0.66659097454E+01  0.17824703053E+02  0.50528862460E+02  0.30000007934E+02 0.  0.
         12    1    1    2    0    0  0.35930642547E+02 -0.66659097454E+01 -0.17824703053E+02  0.40659137540E+02  0.00000000000E+00 0. -1.
         11    1    3    3    0    0  0.21973020866E+01 -0.32241424380E+01  0.57542867254E+00  0.39439002699E+01  0.51100000000E-03 0. -1.
        -11    1    3    3    0    0 -0.59750992238E+01 -0.41669415835E+01  0.68142577718E+01  0.99749346934E+01  0.51100000000E-03 0.  1.
         12    1    3    3    0    0 -0.32152845410E+02  0.14056993767E+02  0.10435016609E+02  0.36610027497E+02  0.00000000000E+00 0. -1.
</event>
<event>
 7    1  0.6726285E-013  0.5052886E+02  0.7816164E-02  0.1300439E+00
        -11   -1    0    0    0    0  0.00000000000E+00  0.00000000000E+00  0.45593999997E+02  0.45594000000E+02  0.51100000000E-03 0.  1.
         11   -1    0    0    0    0 -0.00000000000E+00 -0.00000000000E+00 -0.45593999997E+02  0.45594000000E+02  0.51100000000E-03 0. -1.
    9900012    2    1    2    0    0  0.42199406022E+00 -0.17034409787E+02  0.36916340585E+02  0.50528863291E+02  0.30000010459E+02 0.  0.
         12    1    1    2    0    0 -0.42199406022E+00  0.17034409787E+02 -0.36916340585E+02  0.40659136709E+02  0.00000000000E+00 0. -1.
         11    1    3    3    0    0 -0.61644318847E-01 -0.21775278654E+02  0.18310469159E+02  0.28450656258E+02  0.51100000000E-03 0. -1.
        -11    1    3    3    0    0  0.42105163491E+01 -0.97384062886E+00  0.37156571349E+01  0.56993790628E+01  0.51100000000E-03 0.  1.
         12    1    3    3    0    0 -0.37268779700E+01  0.57147094959E+01  0.14890214291E+02  0.16378827970E+02  0.00000000000E+00 0. -1.
</event>
<event>
 7    1  0.6726285E-013  0.5052885E+02  0.7816164E-02  0.1300439E+00
        -11   -1    0    0    0    0  0.00000000000E+00  0.00000000000E+00  0.45593999997E+02  0.45594000000E+02  0.51100000000E-03 0.  1.
         11   -1    0    0    0    0 -0.00000000000E+00 -0.00000000000E+00 -0.45593999997E+02  0.45594000000E+02  0.51100000000E-03 0. -1.
    9900012    2    1    2    0    0 -0.17551771947E+01  0.18028538817E+02  0.36401335971E+02  0.50528854419E+02  0.29999983493E+02 0.  0.
         12    1    1    2    0    0  0.17551771947E+01 -0.18028538817E+02 -0.36401335971E+02  0.40659145581E+02  0.00000000000E+00 0. -1.
         11    1    3    3    0    0 -0.18629028088E+01  0.31340878307E+01  0.19862343404E+02  0.20194197166E+02  0.51100000000E-03 0. -1.
        -11    1    3    3    0    0 -0.12525446589E+01  0.20887009391E+01  0.17265460321E+02  0.17436388963E+02  0.51100000000E-03 0.  1.
         12    1    3    3    0    0  0.13602702730E+01  0.12805750047E+02 -0.72646775361E+00  0.12898268290E+02  0.00000000000E+00 0. -1.
</event>
<event>
 7    1  0.6726285E-013  0.5052887E+02  0.7816164E-02  0.1300439E+00
        -11   -1    0    0    0    0  0.00000000000E+00  0.00000000000E+00  0.45593999997E+02  0.45594000000E+02  0.51100000000E-03 0.  1.
         11   -1    0    0    0    0 -0.00000000000E+00 -0.00000000000E+00 -0.45593999997E+02  0.45594000000E+02  0.51100000000E-03 0. -1.
    9900012    2    1    2    0    0  0.29133079151E+02  0.24791634599E+02  0.13776925370E+02  0.50528866714E+02  0.30000020864E+02 0.  0.
         12    1    1    2    0    0 -0.29133079151E+02 -0.24791634599E+02 -0.13776925370E+02  0.40659133286E+02  0.00000000000E+00 0. -1.
         11    1    3    3    0    0 -0.26109126686E+01  0.68218838357E+01  0.15943455286E+01  0.74764230723E+01  0.51100000000E-03 0. -1.
        -11    1    3    3    0    0  0.84861957675E+01 -0.36271986738E+01  0.50570593445E+01  0.10523589611E+02  0.51100000000E-03 0.  1.
        -12    1    3    3    0    0  0.23257796052E+02  0.21596949437E+02  0.71255204965E+01  0.32528854031E+02  0.00000000000E+00 0.  1.
</event>
<event>
 7    1  0.7477381E-013  0.5052886E+02  0.7816164E-02  0.1300439E+00
        -11   -1    0    0    0    0  0.00000000000E+00  0.00000000000E+00  0.45593999997E+02  0.45594000000E+02  0.51100000000E-03 0. -1.
         11   -1    0    0    0    0 -0.00000000000E+00 -0.00000000000E+00 -0.45593999997E+02  0.45594000000E+02  0.51100000000E-03 0.  1.
    9900012    2    1    2    0    0  0.22481695811E+02 -0.18451171301E+02 -0.28412909392E+02  0.50528858482E+02  0.29999995841E+02 0.  0.
         12    1    1    2    0    0 -0.22481695811E+02  0.18451171301E+02  0.28412909392E+02  0.40659141518E+02  0.00000000000E+00 0. -1.
         11    1    3    3    0    0 -0.36923277331E+00 -0.50256315865E+01 -0.36474322664E+01  0.62206967522E+01  0.51100000000E-03 0. -1.
        -11    1    3    3    0    0  0.87635752240E+01 -0.17458777931E+02 -0.21955225491E+02  0.29387771337E+02  0.51100000000E-03 0.  1.
         12    1    3    3    0    0  0.14087353360E+02  0.40332382161E+01 -0.28102516340E+01  0.14920390392E+02  0.00000000000E+00 0. -1.
</event>
<event>
 7    1  0.6726285E-013  0.5052886E+02  0.7816164E-02  0.1300439E+00
        -11   -1    0    0    0    0  0.00000000000E+00  0.00000000000E+00  0.45593999997E+02  0.45594000000E+02  0.51100000000E-03 0. -1.
         11   -1    0    0    0    0 -0.00000000000E+00 -0.00000000000E+00 -0.45593999997E+02  0.45594000000E+02  0.51100000000E-03 0.  1.
    9900012    2    1    2    0    0 -0.14906358963E+02 -0.36605987646E+02 -0.95377101426E+01  0.50528858545E+02  0.29999996035E+02 0.  0.
         12    1    1    2    0    0  0.14906358963E+02  0.36605987646E+02  0.95377101426E+01  0.40659141455E+02  0.00000000000E+00 0. -1.
         11    1    3    3    0    0 -0.77476890524E+01 -0.23143052234E+02 -0.97543180160E+01  0.26282584967E+02  0.51100000000E-03 0. -1.
        -11    1    3    3    0    0 -0.40380290963E+01 -0.16659574562E+02 -0.45275883299E+01  0.17729809923E+02  0.51100000000E-03 0.  1.
         12    1    3    3    0    0 -0.31206408139E+01  0.31966391501E+01  0.47441962033E+01  0.65164636545E+01  0.00000000000E+00 0. -1.
</event>
<event>
 7    1  0.6726285E-013  0.5052886E+02  0.7816164E-02  0.1300439E+00
        -11   -1    0    0    0    0  0.00000000000E+00  0.00000000000E+00  0.45593999997E+02  0.45594000000E+02  0.51100000000E-03 0.  1.
         11   -1    0    0    0    0 -0.00000000000E+00 -0.00000000000E+00 -0.45593999997E+02  0.45594000000E+02  0.51100000000E-03 0. -1.
    9900012    2    1    2    0    0 -0.21930049770E+02  0.34174345470E+02 -0.20863009847E+01  0.50528860523E+02  0.30000002047E+02 0.  0.
         12    1    1    2    0    0  0.21930049770E+02 -0.34174345470E+02  0.20863009847E+01  0.40659139477E+02  0.00000000000E+00 0. -1.
         11    1    3    3    0    0 -0.79628119103E+01  0.14369223381E+01 -0.99687512582E+01  0.12839280402E+02  0.51100000000E-03 0. -1.
        -11    1    3    3    0    0  0.79449081772E+00  0.70771024381E+01  0.28042690434E+01  0.76537911983E+01  0.51100000000E-03 0.  1.
        -12    1    3    3    0    0 -0.14761728677E+02  0.25660320693E+02  0.50781812301E+01  0.30035788923E+02  0.00000000000E+00 0.  1.
</event>
<event>
 7    1  0.6726285E-013  0.5052890E+02  0.7816164E-02  0.1300439E+00
        -11   -1    0    0    0    0  0.00000000000E+00  0.00000000000E+00  0.45593999997E+02  0.45594000000E+02  0.51100000000E-03 0. -1.
         11   -1    0    0    0    0 -0.00000000000E+00 -0.00000000000E+00 -0.45593999997E+02  0.45594000000E+02  0.51100000000E-03 0.  1.
    9900012    2    1    2    0    0 -0.21350176634E+02 -0.27109886888E+02 -0.21503171764E+02  0.50528900093E+02  0.30000122321E+02 0.  0.
         12    1    1    2    0    0  0.21350176634E+02  0.27109886888E+02  0.21503171764E+02  0.40659099907E+02  0.00000000000E+00 0. -1.
         11    1    3    3    0    0 -0.81658295095E+01 -0.38728923776E+01  0.24023354545E+01  0.93515390628E+01  0.51100000000E-03 0. -1.
        -11    1    3    3    0    0 -0.16283027981E+02 -0.12926452780E+02 -0.86786105337E+01  0.22528836250E+02  0.51100000000E-03 0.  1.
        -12    1    3    3    0    0  0.30986808571E+01 -0.10310541731E+02 -0.15226896685E+02  0.18648524780E+02  0.00000000000E+00 0.  1.
</event>
<event>
 7    1  0.6726285E-013  0.5052886E+02  0.7816164E-02  0.1300439E+00
        -11   -1    0    0    0    0  0.00000000000E+00  0.00000000000E+00  0.45593999997E+02  0.45594000000E+02  0.51100000000E-03 0.  1.
         11   -1    0    0    0    0 -0.00000000000E+00 -0.00000000000E+00 -0.45593999997E+02  0.45594000000E+02  0.51100000000E-03 0. -1.
    9900012    2    1    2    0    0 -0.30445056276E+01 -0.58327731680E+01  0.40123255242E+02  0.50528857504E+02  0.29999992868E+02 0.  0.
         12    1    1    2    0    0  0.30445056276E+01  0.58327731680E+01 -0.40123255242E+02  0.40659142496E+02  0.00000000000E+00 0. -1.
         11    1    3    3    0    0 -0.43453556638E+01 -0.12676897528E+01  0.18577500668E+02  0.19121001137E+02  0.51100000000E-03 0. -1.
        -11    1    3    3    0    0  0.38096151323E+01  0.85506162816E+01  0.72049650146E+01  0.11812608830E+02  0.51100000000E-03 0.  1.
         12    1    3    3    0    0 -0.25087650961E+01 -0.13115699697E+02  0.14340789559E+02  0.19595247537E+02  0.00000000000E+00 0. -1.
</event>
<event>
 7    1  0.6726285E-013  0.5052886E+02  0.7816164E-02  0.1300439E+00
        -11   -1    0    0    0    0  0.00000000000E+00  0.00000000000E+00  0.45593999997E+02  0.45594000000E+02  0.51100000000E-03 0.  1.
         11   -1    0    0    0    0 -0.00000000000E+00 -0.00000000000E+00 -0.45593999997E+02  0.45594000000E+02  0.51100000000E-03 0. -1.
    9900012    2    1    2    0    0 -0.15535596400E+02  0.19259917299E+02  0.32262465032E+02  0.50528858102E+02  0.29999994688E+02 0.  0.
         12    1    1    2    0    0  0.15535596400E+02 -0.19259917299E+02 -0.32262465032E+02  0.40659141898E+02  0.00000000000E+00 0. -1.
         11    1    3    3    0    0 -0.31551704311E+01 -0.74619528954E+00  0.51011800002E+01  0.60443316847E+01  0.51100000000E-03 0. -1.
        -11    1    3    3    0    0 -0.98131952657E+01  0.61979362286E+01  0.28105757328E+02  0.30408005690E+02  0.51100000000E-03 0.  1.
         12    1    3    3    0    0 -0.25672307032E+01  0.13808176360E+02 -0.94447229564E+00  0.14076520728E+02  0.00000000000E+00 0. -1.
</event>
<event>
 7    1  0.6726285E-013  0.5052886E+02  0.7816164E-02  0.1300439E+00
        -11   -1    0    0    0    0  0.00000000000E+00  0.00000000000E+00  0.45593999997E+02  0.45594000000E+02  0.51100000000E-03 0. -1.
         11   -1    0    0    0    0 -0.00000000000E+00 -0.00000000000E+00 -0.45593999997E+02  0.45594000000E+02  0.51100000000E-03 0.  1.
    9900012    2    1    2    0    0  0.18252344728E+02 -0.22236695930E+02 -0.28732338580E+02  0.50528855712E+02  0.29999987422E+02 0.  0.
         12    1    1    2    0    0 -0.18252344728E+02  0.22236695930E+02  0.28732338580E+02  0.40659144288E+02  0.00000000000E+00 0. -1.
         11    1    3    3    0    0 -0.14915372714E+01  0.10356282525E+01  0.77214734067E-01  0.18174629805E+01  0.51100000000E-03 0. -1.
        -11    1    3    3    0    0  0.12360656807E+02  0.15845260088E+01 -0.47432729386E+01  0.13333986569E+02  0.51100000000E-03 0.  1.
        -12    1    3    3    0    0  0.73832251918E+01 -0.24856850192E+02 -0.24066280375E+02  0.35377406163E+02  0.00000000000E+00 0.  1.
</event>
<event>
 7    1  0.6726285E-013  0.5052887E+02  0.7816164E-02  0.1300439E+00
        -11   -1    0    0    0    0  0.00000000000E+00  0.00000000000E+00  0.45593999997E+02  0.45594000000E+02  0.51100000000E-03 0.  1.
         11   -1    0    0    0    0 -0.00000000000E+00 -0.00000000000E+00 -0.45593999997E+02  0.45594000000E+02  0.51100000000E-03 0. -1.
    9900012    2    1    2    0    0  0.29945306280E+02 -0.24203125412E+02  0.13063396710E+02  0.50528868412E+02  0.30000026025E+02 0.  0.
         12    1    1    2    0    0 -0.29945306280E+02  0.24203125412E+02 -0.13063396710E+02  0.40659131588E+02  0.00000000000E+00 0. -1.
         11    1    3    3    0    0 -0.14556032175E+00  0.31926524206E+00 -0.19676530026E+01  0.19986937489E+01  0.51100000000E-03 0. -1.
        -11    1    3    3    0    0 -0.21197790874E+01 -0.10944206762E+02  0.45125846593E+01  0.12026327186E+02  0.51100000000E-03 0.  1.
        -12    1    3    3    0    0  0.32210645689E+02 -0.13578183892E+02  0.10518465054E+02  0.36503847477E+02  0.00000000000E+00 0.  1.
</event>
<event>
 7    1  0.6726285E-013  0.5052880E+02  0.7816164E-02  0.1300439E+00
        -11   -1    0    0    0    0  0.00000000000E+00  0.00000000000E+00  0.45593999997E+02  0.45594000000E+02  0.51100000000E-03 0.  1.
         11   -1    0    0    0    0 -0.00000000000E+00 -0.00000000000E+00 -0.45593999997E+02  0.45594000000E+02  0.51100000000E-03 0. -1.
    9900012    2    1    2    0    0 -0.16130714384E+02 -0.22735207879E+02  0.29598659006E+02  0.50528803761E+02  0.29999829511E+02 0.  0.
         12    1    1    2    0    0  0.16130714384E+02  0.22735207879E+02 -0.29598659006E+02  0.40659196239E+02  0.00000000000E+00 0. -1.
         11    1    3    3    0    0  0.42211031049E+00  0.28622561683E+01  0.38084739413E+01  0.47827985019E+01  0.51100000000E-03 0. -1.
        -11    1    3    3    0    0 -0.88487766930E+01  0.15938783436E+01  0.96951552955E+01  0.13222606914E+02  0.51100000000E-03 0.  1.
        -12    1    3    3    0    0 -0.77040480016E+01 -0.27191342391E+02  0.16095029770E+02  0.32523398345E+02  0.00000000000E+00 0.  1.
</event>
<event>
 7    1  0.6726285E-013  0.5052886E+02  0.7816164E-02  0.1300439E+00
        -11   -1    0    0    0    0  0.00000000000E+00  0.00000000000E+00  0.45593999997E+02  0.45594000000E+02  0.51100000000E-03 0.  1.
         11   -1    0    0    0    0 -0.00000000000E+00 -0.00000000000E+00 -0.45593999997E+02  0.45594000000E+02  0.51100000000E-03 0. -1.
    9900012    2    1    2    0    0 -0.64870057519E+01  0.40076799627E+02  0.22213512447E+01  0.50528861872E+02  0.30000006145E+02 0.  0.
         12    1    1    2    0    0  0.64870057519E+01 -0.40076799627E+02 -0.22213512447E+01  0.40659138128E+02  0.00000000000E+00 0. -1.
         11    1    3    3    0    0  0.16202709321E+01 -0.19439535234E+01 -0.12658791814E+01  0.28296083753E+01  0.51100000000E-03 0. -1.
        -11    1    3    3    0    0  0.62589710851E+01  0.20769457007E+02  0.39228899902E+01  0.22043913662E+02  0.51100000000E-03 0.  1.
        -12    1    3    3    0    0 -0.14366247769E+02  0.21251296143E+02 -0.43565956415E+00  0.25655339834E+02  0.00000000000E+00 0.  1.
</event>
<event>
 7    1  0.6726285E-013  0.5052886E+02  0.7816164E-02  0.1300439E+00
        -11   -1    0    0    0    0  0.00000000000E+00  0.00000000000E+00  0.45593999997E+02  0.45594000000E+02  0.51100000000E-03 0.  1.
         11   -1    0    0    0    0 -0.00000000000E+00 -0.00000000000E+00 -0.45593999997E+02  0.45594000000E+02  0.51100000000E-03 0. -1.
    9900012    2    1    2    0    0 -0.29943587248E+02 -0.25908389710E+02  0.92359572792E+01  0.50528856115E+02  0.29999988646E+02 0.  0.
         12    1    1    2    0    0  0.29943587248E+02  0.25908389710E+02 -0.92359572792E+01  0.40659143885E+02  0.00000000000E+00 0. -1.
         11    1    3    3    0    0  0.88638738653E-01 -0.16502180104E+02  0.47784884141E+01  0.17180330521E+02  0.51100000000E-03 0. -1.
        -11    1    3    3    0    0 -0.55618514183E+01 -0.42769053385E+01  0.45204043479E+01  0.83462666027E+01  0.51100000000E-03 0.  1.
         12    1    3    3    0    0 -0.24470374568E+02 -0.51293042667E+01 -0.62935482828E-01  0.25002258991E+02  0.00000000000E+00 0. -1.
</event>
<event>
 7    1  0.6726285E-013  0.5052885E+02  0.7816164E-02  0.1300439E+00
        -11   -1    0    0    0    0  0.00000000000E+00  0.00000000000E+00  0.45593999997E+02  0.45594000000E+02  0.51100000000E-03 0.  1.
         11   -1    0    0    0    0 -0.00000000000E+00 -0.00000000000E+00 -0.45593999997E+02  0.45594000000E+02  0.51100000000E-03 0. -1.
    9900012    2    1    2    0    0  0.31366359387E+02 -0.19380988928E+02  0.17137530193E+02  0.50528853746E+02  0.29999981446E+02 0.  0.
         12    1    1    2    0    0 -0.31366359387E+02  0.19380988928E+02 -0.17137530193E+02  0.40659146254E+02  0.00000000000E+00 0. -1.
         11    1    3    3    0    0 -0.29622353235E+00 -0.19785618118E+01  0.12526848750E+01  0.23604395526E+01  0.51100000000E-03 0.  1.
        -11    1    3    3    0    0  0.10888255050E+01 -0.12880477561E+02  0.10804614398E+02  0.16847312418E+02  0.51100000000E-03 0. -1.
         12    1    3    3    0    0  0.30573757414E+02 -0.45219495553E+01  0.50802309197E+01  0.31321101775E+02  0.00000000000E+00 0. -1.
</event>
<event>
 7    1  0.6726285E-013  0.5052885E+02  0.7816164E-02  0.1300439E+00
        -11   -1    0    0    0    0  0.00000000000E+00  0.00000000000E+00  0.45593999997E+02  0.45594000000E+02  0.51100000000E-03 0.  1.
         11   -1    0    0    0    0 -0.00000000000E+00 -0.00000000000E+00 -0.45593999997E+02  0.45594000000E+02  0.51100000000E-03 0. -1.
    9900012    2    1    2    0    0 -0.27591806631E+02  0.29114225730E+02 -0.66498823300E+01  0.50528845213E+02  0.29999955508E+02 0.  0.
         12    1    1    2    0    0  0.27591806631E+02 -0.29114225730E+02  0.66498823300E+01  0.40659154787E+02  0.00000000000E+00 0. -1.
         11    1    3    3    0    0  0.19037306439E+01  0.36789418556E+01  0.29145162715E+00  0.41525591932E+01  0.51100000000E-03 0. -1.
        -11    1    3    3    0    0 -0.10813319728E+02 -0.33203467393E+01 -0.38362273847E+01  0.11944422415E+02  0.51100000000E-03 0.  1.
         12    1    3    3    0    0 -0.18682217547E+02  0.28755630614E+02 -0.31051065725E+01  0.34431863605E+02  0.00000000000E+00 0. -1.
</event>
<event>
 7    1  0.6726285E-013  0.5052886E+02  0.7816164E-02  0.1300439E+00
        -11   -1    0    0    0    0  0.00000000000E+00  0.00000000000E+00  0.45593999997E+02  0.45594000000E+02  0.51100000000E-03 0. -1.
         11   -1    0    0    0    0 -0.00000000000E+00 -0.00000000000E+00 -0.45593999997E+02  0.45594000000E+02  0.51100000000E-03 0.  1.
    9900012    2    1    2    0    0  0.10119185809E+02 -0.70642588042E+01 -0.38740986762E+02  0.50528859217E+02  0.29999998076E+02 0.  0.
         12    1    1    2    0    0 -0.10119185809E+02  0.70642588042E+01  0.38740986762E+02  0.40659140783E+02  0.00000000000E+00 0. -1.
         11    1    3    3    0    0  0.76632142012E+01 -0.33750332499E+01 -0.18903067472E+02  0.20674662305E+02  0.51100000000E-03 0. -1.
        -11    1    3    3    0    0 -0.25548555467E+01  0.68686371930E+01 -0.15924373452E+02  0.17529721442E+02  0.51100000000E-03 0.  1.
         12    1    3    3    0    0  0.50108271548E+01 -0.10557862747E+02 -0.39135458384E+01  0.12324475469E+02  0.00000000000E+00 0. -1.
</event>
<event>
 7    1  0.6726285E-013  0.5052883E+02  0.7816164E-02  0.1300439E+00
        -11   -1    0    0    0    0  0.00000000000E+00  0.00000000000E+00  0.45593999997E+02  0.45594000000E+02  0.51100000000E-03 0. -1.
         11   -1    0    0    0    0 -0.00000000000E+00 -0.00000000000E+00 -0.45593999997E+02  0.45594000000E+02  0.51100000000E-03 0.  1.
    9900012    2    1    2    0    0 -0.21737275909E+02 -0.24161060876E+02 -0.24431575452E+02  0.50528832452E+02  0.29999916722E+02 0.  0.
         12    1    1    2    0    0  0.21737275909E+02  0.24161060876E+02  0.24431575452E+02  0.40659167548E+02  0.00000000000E+00 0. -1.
         11    1    3    3    0    0 -0.30881647923E+01 -0.13466722617E+02  0.20268127722E+01  0.13964145162E+02  0.51100000000E-03 0. -1.
        -11    1    3    3    0    0 -0.16297681324E+02 -0.50603765294E+01 -0.11976142910E+02  0.20848257156E+02  0.51100000000E-03 0.  1.
        -12    1    3    3    0    0 -0.23514297921E+01 -0.56339617298E+01 -0.14482245314E+02  0.15716430134E+02  0.00000000000E+00 0.  1.
</event>
<event>
 7    1  0.6726285E-013  0.5052886E+02  0.7816164E-02  0.1300439E+00
        -11   -1    0    0    0    0  0.00000000000E+00  0.00000000000E+00  0.45593999997E+02  0.45594000000E+02  0.51100000000E-03 0.  1.
         11   -1    0    0    0    0 -0.00000000000E+00 -0.00000000000E+00 -0.45593999997E+02  0.45594000000E+02  0.51100000000E-03 0. -1.
    9900012    2    1    2    0    0 -0.51533255328E+01  0.36859376222E+02  0.16370565688E+02  0.50528858340E+02  0.29999995411E+02 0.  0.
         12    1    1    2    0    0  0.51533255328E+01 -0.36859376222E+02 -0.16370565688E+02  0.40659141660E+02  0.00000000000E+00 0. -1.
         11    1    3    3    0    0  0.18955160101E+01  0.15861956920E+02  0.15880912736E+02  0.22525497727E+02  0.51100000000E-03 0. -1.
        -11    1    3    3    0    0 -0.30764902538E+01  0.71732775309E+01  0.84997862593E+01  0.11539803704E+02  0.51100000000E-03 0.  1.
         12    1    3    3    0    0 -0.39723512891E+01  0.13824141772E+02 -0.80101333072E+01  0.16463556909E+02  0.00000000000E+00 0. -1.
</event>
<event>
 7    1  0.6726285E-013  0.5052886E+02  0.7816164E-02  0.1300439E+00
        -11   -1    0    0    0    0  0.00000000000E+00  0.00000000000E+00  0.45593999997E+02  0.45594000000E+02  0.51100000000E-03 0.  1.
         11   -1    0    0    0    0 -0.00000000000E+00 -0.00000000000E+00 -0.45593999997E+02  0.45594000000E+02  0.51100000000E-03 0. -1.
    9900012    2    1    2    0    0 -0.17349686519E+00 -0.20718173109E+02  0.34984183172E+02  0.50528857482E+02  0.29999992801E+02 0.  0.
         12    1    1    2    0    0  0.17349686519E+00  0.20718173109E+02 -0.34984183172E+02  0.40659142518E+02  0.00000000000E+00 0. -1.
         11    1    3    3    0    0 -0.16701160429E+01 -0.44765600237E+01 -0.34007052405E+01  0.58646119766E+01  0.51100000000E-03 0. -1.
        -11    1    3    3    0    0 -0.63256534800E+01 -0.20995828719E+01  0.11817668714E+02  0.13567587637E+02  0.51100000000E-03 0.  1.
         12    1    3    3    0    0  0.78222726577E+01 -0.14142030213E+02  0.26567219698E+02  0.31096657868E+02  0.00000000000E+00 0. -1.
</event>
<event>
 7    1  0.6726285E-013  0.5052886E+02  0.7816164E-02  0.1300439E+00
        -11   -1    0    0    0    0  0.00000000000E+00  0.00000000000E+00  0.45593999997E+02  0.45594000000E+02  0.51100000000E-03 0.  1.
         11   -1    0    0    0    0 -0.00000000000E+00 -0.00000000000E+00 -0.45593999997E+02  0.45594000000E+02  0.51100000000E-03 0. -1.
    9900012    2    1    2    0    0  0.27008222608E+02 -0.30019819858E+02  0.47468016495E+01  0.50528858364E+02  0.29999995482E+02 0.  0.
         12    1    1    2    0    0 -0.27008222608E+02  0.30019819858E+02 -0.47468016495E+01  0.40659141636E+02  0.00000000000E+00 0. -1.
         11    1    3    3    0    0  0.69423994096E+00 -0.12116389172E+02  0.64221561578E+01  0.13730729975E+02  0.51100000000E-03 0. -1.
        -11    1    3    3    0    0  0.18812679545E+01 -0.10270105113E+02  0.28059427438E+01  0.10811454255E+02  0.51100000000E-03 0.  1.
         12    1    3    3    0    0  0.24432714712E+02 -0.76333255720E+01 -0.44812972522E+01  0.25986674134E+02  0.00000000000E+00 0. -1.
</event>
<event>
 7    1  0.6726285E-013  0.5052886E+02  0.7816164E-02  0.1300439E+00
        -11   -1    0    0    0    0  0.00000000000E+00  0.00000000000E+00  0.45593999997E+02  0.45594000000E+02  0.51100000000E-03 0. -1.
         11   -1    0    0    0    0 -0.00000000000E+00 -0.00000000000E+00 -0.45593999997E+02  0.45594000000E+02  0.51100000000E-03 0.  1.
    9900012    2    1    2    0    0 -0.20467234934E+02  0.37617058820E+01 -0.34930039784E+02  0.50528858146E+02  0.29999994820E+02 0.  0.
         12    1    1    2    0    0  0.20467234934E+02 -0.37617058820E+01  0.34930039784E+02  0.40659141854E+02  0.00000000000E+00 0. -1.
         11    1    3    3    0    0  0.10483976510E+00 -0.68300666088E+01 -0.91547562294E+01  0.11422362415E+02  0.51100000000E-03 0. -1.
        -11    1    3    3    0    0 -0.57768788617E+01 -0.17473918675E+01 -0.16803565596E+02  0.17854565935E+02  0.51100000000E-03 0.  1.
         12    1    3    3    0    0 -0.14795195837E+02  0.12339164358E+02 -0.89717179591E+01  0.21251929796E+02  0.00000000000E+00 0. -1.
</event>
<event>
 7    1  0.7290153E-013  0.5052899E+02  0.7816164E-02  0.1300438E+00
        -11   -1    0    0    0    0  0.00000000000E+00  0.00000000000E+00  0.45593999997E+02  0.45594000000E+02  0.51100000000E-03 0.  1.
         11   -1    0    0    0    0 -0.00000000000E+00 -0.00000000000E+00 -0.45593999997E+02  0.45594000000E+02  0.51100000000E-03 0. -1.
    9900012    2    1    2    0    0  0.12204543586E+01 -0.34748224661E+02  0.21076678454E+02  0.50528991151E+02  0.30000399100E+02 0.  0.
         12    1    1    2    0    0 -0.12204543586E+01  0.34748224661E+02 -0.21076678454E+02  0.40659008849E+02  0.00000000000E+00 0. -1.
         11    1    3    3    0    0 -0.78890749296E+01 -0.18842826405E+02  0.66775843700E+01  0.21491387658E+02  0.51100000000E-03 0. -1.
        -11    1    3    3    0    0  0.45088889935E+01 -0.18758610927E+02  0.13506801438E+02  0.23550992532E+02  0.51100000000E-03 0.  1.
         12    1    3    3    0    0  0.46006402947E+01  0.28532126721E+01  0.89229264563E+00  0.54866109611E+01  0.00000000000E+00 0. -1.
</event>
<event>
 7    1  0.6726285E-013  0.5052884E+02  0.7816164E-02  0.1300439E+00
        -11   -1    0    0    0    0  0.00000000000E+00  0.00000000000E+00  0.45593999997E+02  0.45594000000E+02  0.51100000000E-03 0.  1.
         11   -1    0    0    0    0 -0.00000000000E+00 -0.00000000000E+00 -0.45593999997E+02  0.45594000000E+02  0.51100000000E-03 0. -1.
    9900012    2    1    2    0    0  0.34583888021E+02  0.16600918034E+02  0.13473348726E+02  0.50528844621E+02  0.29999953710E+02 0.  0.
         12    1    1    2    0    0 -0.34583888021E+02 -0.16600918034E+02 -0.13473348726E+02  0.40659155379E+02  0.00000000000E+00 0. -1.
         11    1    3    3    0    0  0.41068464826E+01  0.51214287181E+01 -0.32531700096E+01  0.73265500421E+01  0.51100000000E-03 0. -1.
        -11    1    3    3    0    0 -0.17300606587E+00 -0.34632901949E+01 -0.22938219225E+01  0.41576350665E+01  0.51100000000E-03 0.  1.
        -12    1    3    3    0    0  0.30650047605E+02  0.14942779511E+02  0.19020340658E+02  0.39044659512E+02  0.00000000000E+00 0.  1.
</event>
<event>
 7    1  0.6726285E-013  0.5052886E+02  0.7816164E-02  0.1300439E+00
        -11   -1    0    0    0    0  0.00000000000E+00  0.00000000000E+00  0.45593999997E+02  0.45594000000E+02  0.51100000000E-03 0.  1.
         11   -1    0    0    0    0 -0.00000000000E+00 -0.00000000000E+00 -0.45593999997E+02  0.45594000000E+02  0.51100000000E-03 0. -1.
    9900012    2    1    2    0    0 -0.29872252387E+02 -0.26323634151E+02 -0.82389758325E+01  0.50528857112E+02  0.29999991679E+02 0.  0.
         12    1    1    2    0    0  0.29872252387E+02  0.26323634151E+02  0.82389758325E+01  0.40659142888E+02  0.00000000000E+00 0. -1.
         11    1    3    3    0    0 -0.10590586680E+02  0.23045915815E+01  0.19029345099E+01  0.11004218672E+02  0.51100000000E-03 0. -1.
        -11    1    3    3    0    0 -0.21236374865E+01  0.16189237522E+01 -0.30140760517E+01  0.40268356058E+01  0.51100000000E-03 0.  1.
        -12    1    3    3    0    0 -0.17158028221E+02 -0.30247149485E+02 -0.71278342907E+01  0.35497802834E+02  0.00000000000E+00 0.  1.
</event>
<event>
 7    1  0.6726285E-013  0.5052886E+02  0.7816164E-02  0.1300439E+00
        -11   -1    0    0    0    0  0.00000000000E+00  0.00000000000E+00  0.45593999997E+02  0.45594000000E+02  0.51100000000E-03 0.  1.
         11   -1    0    0    0    0 -0.00000000000E+00 -0.00000000000E+00 -0.45593999997E+02  0.45594000000E+02  0.51100000000E-03 0. -1.
    9900012    2    1    2    0    0 -0.15022420153E+02 -0.12353167734E+02  0.35705630519E+02  0.50528856980E+02  0.29999991277E+02 0.  0.
         12    1    1    2    0    0  0.15022420153E+02  0.12353167734E+02 -0.35705630519E+02  0.40659143020E+02  0.00000000000E+00 0. -1.
         11    1    3    3    0    0 -0.31718169492E+01 -0.11099088230E+02  0.17666448023E+02  0.21103401818E+02  0.51100000000E-03 0. -1.
        -11    1    3    3    0    0  0.19733470433E+01 -0.19612337770E+01  0.14997236919E+02  0.15253119417E+02  0.51100000000E-03 0.  1.
         12    1    3    3    0    0 -0.13823950247E+02  0.70715427273E+00  0.30419455783E+01  0.14172335746E+02  0.00000000000E+00 0. -1.
</event>
<event>
 7    1  0.6726285E-013  0.5052885E+02  0.7816164E-02  0.1300439E+00
        -11   -1    0    0    0    0  0.00000000000E+00  0.00000000000E+00  0.45593999997E+02  0.45594000000E+02  0.51100000000E-03 0.  1.
         11   -1    0    0    0    0 -0.00000000000E+00 -0.00000000000E+00 -0.45593999997E+02  0.45594000000E+02  0.51100000000E-03 0. -1.
    9900012    2    1    2    0    0  0.49383681922E+01 -0.33306743447E+02  0.22791218279E+02  0.50528852566E+02  0.29999977859E+02 0.  0.
         12    1    1    2    0    0 -0.49383681922E+01  0.33306743447E+02 -0.22791218279E+02  0.40659147434E+02  0.00000000000E+00 0. -1.
         11    1    3    3    0    0  0.20829774967E+01 -0.83272897659E+01  0.15778933774E+02  0.17962664095E+02  0.51100000000E-03 0.  1.
        -11    1    3    3    0    0  0.43035937290E+01  0.84893693124E+00  0.49518280246E+01  0.66153015006E+01  0.51100000000E-03 0. -1.
         12    1    3    3    0    0 -0.14482030335E+01 -0.25828390612E+02  0.20604564810E+01  0.25950886970E+02  0.00000000000E+00 0. -1.
</event>
<event>
 7    1  0.6726285E-013  0.5052886E+02  0.7816164E-02  0.1300439E+00
        -11   -1    0    0    0    0  0.00000000000E+00  0.00000000000E+00  0.45593999997E+02  0.45594000000E+02  0.51100000000E-03 0. -1.
         11   -1    0    0    0    0 -0.00000000000E+00 -0.00000000000E+00 -0.45593999997E+02  0.45594000000E+02  0.51100000000E-03 0.  1.
    9900012    2    1    2    0    0 -0.35932069310E+01 -0.31796421384E+02  0.25084691102E+02  0.50528864784E+02  0.30000014997E+02 0.  0.
         12    1    1    2    0    0  0.35932069310E+01  0.31796421384E+02 -0.25084691102E+02  0.40659135216E+02  0.00000000000E+00 0. -1.
         11    1    3    3    0    0 -0.42879157001E+01 -0.34947057275E+02  0.26262005108E+02  0.43924662159E+02  0.51100000000E-03 0.  1.
        -11    1    3    3    0    0  0.23548009723E+01 -0.13046219150E+00 -0.16761376061E+01  0.28933623241E+01  0.51100000000E-03 0. -1.
        -12    1    3    3    0    0 -0.16600922032E+01  0.32810980829E+01  0.49882359968E+00  0.37108403006E+01  0.00000000000E+00 0.  1.
</event>
<event>
 7    1  0.6726285E-013  0.5052885E+02  0.7816164E-02  0.1300439E+00
        -11   -1    0    0    0    0  0.00000000000E+00  0.00000000000E+00  0.45593999997E+02  0.45594000000E+02  0.51100000000E-03 0. -1.
         11   -1    0    0    0    0 -0.00000000000E+00 -0.00000000000E+00 -0.45593999997E+02  0.45594000000E+02  0.51100000000E-03 0.  1.
    9900012    2    1    2    0    0  0.35124529654E+02  0.83659304657E+01  0.18693448110E+02  0.50528851236E+02  0.29999973816E+02 0.  0.
         12    1    1    2    0    0 -0.35124529654E+02 -0.83659304657E+01 -0.18693448110E+02  0.40659148764E+02  0.00000000000E+00 0. -1.
         11    1    3    3    0    0  0.60777177576E+01  0.76695858145E+00 -0.92250041115E+00  0.61949887713E+01  0.51100000000E-03 0. -1.
        -11    1    3    3    0    0  0.25044296800E+02  0.35649180336E+01  0.14929212027E+01  0.25340762750E+02  0.51100000000E-03 0.  1.
         12    1    3    3    0    0  0.40025150968E+01  0.40340538507E+01  0.18123027319E+02  0.18993099715E+02  0.00000000000E+00 0. -1.
</event>
<event>
 7    1  0.6726285E-013  0.5052886E+02  0.7816164E-02  0.1300439E+00
        -11   -1    0    0    0    0  0.00000000000E+00  0.00000000000E+00  0.45593999997E+02  0.45594000000E+02  0.51100000000E-03 0.  1.
         11   -1    0    0    0    0 -0.00000000000E+00 -0.00000000000E+00 -0.45593999997E+02  0.45594000000E+02  0.51100000000E-03 0. -1.
    9900012    2    1    2    0    0  0.39988286278E+01  0.35283941910E+02  0.19804500151E+02  0.50528863101E+02  0.30000009882E+02 0.  0.
         12    1    1    2    0    0 -0.39988286278E+01 -0.35283941910E+02 -0.19804500151E+02  0.40659136899E+02  0.00000000000E+00 0. -1.
         11    1    3    3    0    0  0.48183750538E+01  0.11235198964E+02  0.18612990556E+02  0.22268584410E+02  0.51100000000E-03 0. -1.
        -11    1    3    3    0    0  0.85942219901E+00  0.14250850314E+02  0.78529339353E+01  0.16293983946E+02  0.51100000000E-03 0.  1.
         12    1    3    3    0    0 -0.16789686251E+01  0.97978926327E+01 -0.66614243403E+01  0.11966294745E+02  0.00000000000E+00 0. -1.
</event>
<event>
 7    1  0.6726285E-013  0.5052885E+02  0.7816164E-02  0.1300439E+00
        -11   -1    0    0    0    0  0.00000000000E+00  0.00000000000E+00  0.45593999997E+02  0.45594000000E+02  0.51100000000E-03 0.  1.
         11   -1    0    0    0    0 -0.00000000000E+00 -0.00000000000E+00 -0.45593999997E+02  0.45594000000E+02  0.51100000000E-03 0. -1.
    9900012    2    1    2    0    0 -0.28503619596E+02  0.22136077984E+02  0.18727091907E+02  0.50528852814E+02  0.29999978615E+02 0.  0.
         12    1    1    2    0    0  0.28503619596E+02 -0.22136077984E+02 -0.18727091907E+02  0.40659147186E+02  0.00000000000E+00 0. -1.
         11    1    3    3    0    0  0.39877284428E+01  0.58235407299E+01  0.49166437682E+01  0.86016853564E+01  0.51100000000E-03 0. -1.
        -11    1    3    3    0    0 -0.20438814026E+02  0.12897063437E+02  0.16305632891E+02  0.29153953906E+02  0.51100000000E-03 0.  1.
        -12    1    3    3    0    0 -0.12052534012E+02  0.34154738169E+01 -0.24951847521E+01  0.12773213552E+02  0.00000000000E+00 0.  1.
</event>
<event>
 7    1  0.6726285E-013  0.5052886E+02  0.7816164E-02  0.1300439E+00
        -11   -1    0    0    0    0  0.00000000000E+00  0.00000000000E+00  0.45593999997E+02  0.45594000000E+02  0.51100000000E-03 0. -1.
         11   -1    0    0    0    0 -0.00000000000E+00 -0.00000000000E+00 -0.45593999997E+02  0.45594000000E+02  0.51100000000E-03 0.  1.
    9900012    2    1    2    0    0  0.20144690394E+02 -0.30391232514E+02 -0.17992502889E+02  0.50528859268E+02  0.29999998232E+02 0.  0.
         12    1    1    2    0    0 -0.20144690394E+02  0.30391232514E+02  0.17992502889E+02  0.40659140732E+02  0.00000000000E+00 0. -1.
         11    1    3    3    0    0  0.42447453600E+01 -0.99576884259E+01 -0.18662575054E+02  0.21574640898E+02  0.51100000000E-03 0. -1.
        -11    1    3    3    0    0  0.20448098751E+00  0.15599064823E+01  0.11194355066E+01  0.19308694472E+01  0.51100000000E-03 0.  1.
        -12    1    3    3    0    0  0.15695464046E+02 -0.21993450571E+02 -0.44936334225E+00  0.27023348924E+02  0.00000000000E+00 0.  1.
</event>
<event>
 7    1  0.6726285E-013  0.5052886E+02  0.7816164E-02  0.1300439E+00
        -11   -1    0    0    0    0  0.00000000000E+00  0.00000000000E+00  0.45593999997E+02  0.45594000000E+02  0.51100000000E-03 0.  1.
         11   -1    0    0    0    0 -0.00000000000E+00 -0.00000000000E+00 -0.45593999997E+02  0.45594000000E+02  0.51100000000E-03 0. -1.
    9900012    2    1    2    0    0 -0.40329344508E+02  0.44402760122E+01  0.26446054653E+01  0.50528855671E+02  0.29999987297E+02 0.  0.
         12    1    1    2    0    0  0.40329344508E+02 -0.44402760122E+01 -0.26446054653E+01  0.40659144329E+02  0.00000000000E+00 0. -1.
         11    1    3    3    0    0  0.17543801038E+00  0.10669592791E+01 -0.35625808415E+01  0.37230583010E+01  0.51100000000E-03 0. -1.
        -11    1    3    3    0    0 -0.33779114996E+01 -0.63219226831E+01 -0.22506771401E+01  0.75128250586E+01  0.51100000000E-03 0.  1.
        -12    1    3    3    0    0 -0.37126871019E+02  0.96952394161E+01  0.84578634470E+01  0.39292972311E+02  0.00000000000E+00 0.  1.
</event>
<event>
 7    1  0.6726285E-013  0.5052886E+02  0.7816164E-02  0.1300439E+00
        -11   -1    0    0    0    0  0.00000000000E+00  0.00000000000E+00  0.45593999997E+02  0.45594000000E+02  0.51100000000E-03 0.  1.
         11   -1    0    0    0    0 -0.00000000000E+00 -0.00000000000E+00 -0.45593999997E+02  0.45594000000E+02  0.51100000000E-03 0. -1.
    9900012    2    1    2    0    0 -0.21536060950E+01  0.40597100414E+02 -0.63511805624E+00  0.50528856425E+02  0.29999989591E+02 0.  0.
         12    1    1    2    0    0  0.21536060950E+01 -0.40597100414E+02  0.63511805624E+00  0.40659143575E+02  0.00000000000E+00 0. -1.
         11    1    3    3    0    0  0.37265065479E+01  0.94134511597E+01 -0.44712171585E+01  0.11067596710E+02  0.51100000000E-03 0. -1.
        -11    1    3    3    0    0 -0.26542961345E+01  0.12001723397E+01 -0.68689085140E+01  0.74610727144E+01  0.51100000000E-03 0.  1.
        -12    1    3    3    0    0 -0.32258165084E+01  0.29983476915E+02  0.10705007616E+02  0.32000187001E+02  0.00000000000E+00 0.  1.
</event>
<event>
 7    1  0.6726285E-013  0.5052885E+02  0.7816164E-02  0.1300439E+00
        -11   -1    0    0    0    0  0.00000000000E+00  0.00000000000E+00  0.45593999997E+02  0.45594000000E+02  0.51100000000E-03 0.  1.
         11   -1    0    0    0    0 -0.00000000000E+00 -0.00000000000E+00 -0.45593999997E+02  0.45594000000E+02  0.51100000000E-03 0. -1.
    9900012    2    1    2    0    0 -0.17311430101E+02  0.98245991681E+01  0.35453600159E+02  0.50528854348E+02  0.29999983276E+02 0.  0.
         12    1    1    2    0    0  0.17311430101E+02 -0.98245991681E+01 -0.35453600159E+02  0.40659145652E+02  0.00000000000E+00 0. -1.
         11    1    3    3    0    0 -0.13317038579E+02  0.10108695694E+02  0.28181403881E+02  0.32767678742E+02  0.51100000000E-03 0.  1.
        -11    1    3    3    0    0 -0.36916535849E+01 -0.70429711006E+01  0.75836838025E+01  0.10988357857E+02  0.51100000000E-03 0. -1.
         12    1    3    3    0    0 -0.30273793700E+00  0.67588745753E+01 -0.31148752528E+00  0.67728177490E+01  0.00000000000E+00 0. -1.
</event>
<event>
 7    1  0.6726285E-013  0.5052886E+02  0.7816164E-02  0.1300439E+00
        -11   -1    0    0    0    0  0.00000000000E+00  0.00000000000E+00  0.45593999997E+02  0.45594000000E+02  0.51100000000E-03 0. -1.
         11   -1    0    0    0    0 -0.00000000000E+00 -0.00000000000E+00 -0.45593999997E+02  0.45594000000E+02  0.51100000000E-03 0.  1.
    9900012    2    1    2    0    0  0.21964797320E+02 -0.34175927200E+02  0.16489609583E+01  0.50528863345E+02  0.30000010624E+02 0.  0.
         12    1    1    2    0    0 -0.21964797320E+02  0.34175927200E+02 -0.16489609583E+01  0.40659136655E+02  0.00000000000E+00 0. -1.
         11    1    3    3    0    0  0.64660219296E+01  0.87108589765E+00 -0.61718033629E+01  0.89810571342E+01  0.51100000000E-03 0. -1.
        -11    1    3    3    0    0  0.27544909720E+01 -0.16869199371E+02 -0.21199911267E+01  0.17223573107E+02  0.51100000000E-03 0.  1.
        -12    1    3    3    0    0  0.12744284419E+02 -0.18177813726E+02  0.99407554479E+01  0.24324233104E+02  0.00000000000E+00 0.  1.
</event>
<event>
 7    1  0.6726285E-013  0.5052887E+02  0.7816164E-02  0.1300439E+00
        -11   -1    0    0    0    0  0.00000000000E+00  0.00000000000E+00  0.45593999997E+02  0.45594000000E+02  0.51100000000E-03 0.  1.
         11   -1    0    0    0    0 -0.00000000000E+00 -0.00000000000E+00 -0.45593999997E+02  0.45594000000E+02  0.51100000000E-03 0. -1.
    9900012    2    1    2    0    0  0.20607415219E+02  0.13672082829E+02  0.32273421147E+02  0.50528866666E+02  0.30000020719E+02 0.  0.
         12    1    1    2    0    0 -0.20607415219E+02 -0.13672082829E+02 -0.32273421147E+02  0.40659133334E+02  0.00000000000E+00 0. -1.
         11    1    3    3    0    0  0.17257900315E+02  0.26671795655E+01  0.89675685572E+01  0.19630747724E+02  0.51100000000E-03 0. -1.
        -11    1    3    3    0    0  0.97238806336E+01  0.32613862450E+01  0.11866961803E+02  0.15684874163E+02  0.51100000000E-03 0.  1.
        -12    1    3    3    0    0 -0.63743657296E+01  0.77435170188E+01  0.11438890787E+02  0.15213244779E+02  0.00000000000E+00 0.  1.
</event>
<event>
 7    1  0.6726285E-013  0.5052882E+02  0.7816164E-02  0.1300439E+00
        -11   -1    0    0    0    0  0.00000000000E+00  0.00000000000E+00  0.45593999997E+02  0.45594000000E+02  0.51100000000E-03 0.  1.
         11   -1    0    0    0    0 -0.00000000000E+00 -0.00000000000E+00 -0.45593999997E+02  0.45594000000E+02  0.51100000000E-03 0. -1.
    9900012    2    1    2    0    0 -0.24573965158E+02 -0.28750552506E+02  0.14922975965E+02  0.50528815987E+02  0.29999866673E+02 0.  0.
         12    1    1    2    0    0  0.24573965158E+02  0.28750552506E+02 -0.14922975965E+02  0.40659184013E+02  0.00000000000E+00 0. -1.
         11    1    3    3    0    0 -0.86020174682E+01 -0.11083238594E+02 -0.53513487708E+01  0.15015652373E+02  0.51100000000E-03 0. -1.
        -11    1    3    3    0    0 -0.13914396795E+01 -0.88621987869E+01 -0.81457882948E-01  0.89711374623E+01  0.51100000000E-03 0.  1.
         12    1    3    3    0    0 -0.14580508010E+02 -0.88051151251E+01  0.20355782619E+02  0.26542026152E+02  0.00000000000E+00 0. -1.
</event>
<event>
 7    1  0.6726285E-013  0.5052887E+02  0.7816164E-02  0.1300439E+00
        -11   -1    0    0    0    0  0.00000000000E+00  0.00000000000E+00  0.45593999997E+02  0.45594000000E+02  0.51100000000E-03 0.  1.
         11   -1    0    0    0    0 -0.00000000000E+00 -0.00000000000E+00 -0.45593999997E+02  0.45594000000E+02  0.51100000000E-03 0. -1.
    9900012    2    1    2    0    0  0.16957873573E+02 -0.33201002250E+02  0.16226185231E+02  0.50528866787E+02  0.30000021085E+02 0.  0.
         12    1    1    2    0    0 -0.16957873573E+02  0.33201002250E+02 -0.16226185231E+02  0.40659133213E+02  0.00000000000E+00 0. -1.
         11    1    3    3    0    0  0.38553091485E+01 -0.11358052401E+02 -0.29127717410E+01  0.12343135844E+02  0.51100000000E-03 0.  1.
        -11    1    3    3    0    0 -0.16406535610E+01 -0.61745794431E+01 -0.32221971438E+01  0.71553986682E+01  0.51100000000E-03 0. -1.
         12    1    3    3    0    0  0.14743217985E+02 -0.15668370405E+02  0.22361154115E+02  0.31030332275E+02  0.00000000000E+00 0. -1.
</event>
<event>
 7    1  0.6726285E-013  0.5052886E+02  0.7816164E-02  0.1300439E+00
        -11   -1    0    0    0    0  0.00000000000E+00  0.00000000000E+00  0.45593999997E+02  0.45594000000E+02  0.51100000000E-03 0.  1.
         11   -1    0    0    0    0 -0.00000000000E+00 -0.00000000000E+00 -0.45593999997E+02  0.45594000000E+02  0.51100000000E-03 0. -1.
    9900012    2    1    2    0    0 -0.10989030167E+02  0.21262137023E+02  0.32868344247E+02  0.50528864393E+02  0.30000013808E+02 0.  0.
         12    1    1    2    0    0  0.10989030167E+02 -0.21262137023E+02 -0.32868344247E+02  0.40659135607E+02  0.00000000000E+00 0. -1.
         11    1    3    3    0    0  0.51693374057E+01  0.61715333800E+01  0.13043466878E+01  0.81554395355E+01  0.51100000000E-03 0. -1.
        -11    1    3    3    0    0 -0.15897345051E+02  0.11040900434E+02  0.12868936685E+02  0.23242990206E+02  0.51100000000E-03 0.  1.
         12    1    3    3    0    0 -0.26102252136E+00  0.40497032094E+01  0.18695060874E+02  0.19130434651E+02  0.00000000000E+00 0. -1.
</event>
<event>
 7    1  0.6726285E-013  0.5052886E+02  0.7816164E-02  0.1300439E+00
        -11   -1    0    0    0    0  0.00000000000E+00  0.00000000000E+00  0.45593999997E+02  0.45594000000E+02  0.51100000000E-03 0. -1.
         11   -1    0    0    0    0 -0.00000000000E+00 -0.00000000000E+00 -0.45593999997E+02  0.45594000000E+02  0.51100000000E-03 0.  1.
    9900012    2    1    2    0    0  0.15734404905E+02 -0.25085642062E+02 -0.27862243634E+02  0.50528861351E+02  0.30000004562E+02 0.  0.
         12    1    1    2    0    0 -0.15734404905E+02  0.25085642062E+02  0.27862243634E+02  0.40659138649E+02  0.00000000000E+00 0. -1.
         11    1    3    3    0    0  0.10668470377E+02 -0.79699672603E+01 -0.11966935853E+02  0.17903747995E+02  0.51100000000E-03 0. -1.
        -11    1    3    3    0    0  0.13818296909E+02 -0.11401445270E+02 -0.85549079278E+01  0.19852574987E+02  0.51100000000E-03 0.  1.
         12    1    3    3    0    0 -0.87523623804E+01 -0.57142295321E+01 -0.73403998531E+01  0.12772538369E+02  0.00000000000E+00 0. -1.
</event>
<event>
 7    1  0.6726285E-013  0.5052899E+02  0.7816164E-02  0.1300438E+00
        -11   -1    0    0    0    0  0.00000000000E+00  0.00000000000E+00  0.45593999997E+02  0.45594000000E+02  0.51100000000E-03 0. -1.
         11   -1    0    0    0    0 -0.00000000000E+00 -0.00000000000E+00 -0.45593999997E+02  0.45594000000E+02  0.51100000000E-03 0.  1.
    9900012    2    1    2    0    0 -0.39004494812E+01  0.71271982015E+01 -0.39838988602E+02  0.50528985339E+02  0.30000381433E+02 0.  0.
         12    1    1    2    0    0  0.39004494812E+01 -0.71271982015E+01  0.39838988602E+02  0.40659014661E+02  0.00000000000E+00 0. -1.
         11    1    3    3    0    0  0.58258055520E+01 -0.58967656146E+01 -0.68102339883E+01  0.10728053984E+02  0.51100000000E-03 0. -1.
        -11    1    3    3    0    0 -0.21583785079E+01 -0.27434657134E+01 -0.16140036043E+01  0.38458041812E+01  0.51100000000E-03 0.  1.
        -12    1    3    3    0    0 -0.75678765253E+01  0.15767429529E+02 -0.31414751010E+02  0.35955127174E+02  0.00000000000E+00 0.  1.
</event>
<event>
 7    1  0.6726285E-013  0.5052886E+02  0.7816164E-02  0.1300439E+00
        -11   -1    0    0    0    0  0.00000000000E+00  0.00000000000E+00  0.45593999997E+02  0.45594000000E+02  0.51100000000E-03 0. -1.
         11   -1    0    0    0    0 -0.00000000000E+00 -0.00000000000E+00 -0.45593999997E+02  0.45594000000E+02  0.51100000000E-03 0.  1.
    9900012    2    1    2    0    0  0.39516114014E+02  0.94805435633E+01  0.13273909367E+01  0.50528856628E+02  0.29999990207E+02 0.  0.
         12    1    1    2    0    0 -0.39516114014E+02 -0.94805435633E+01 -0.13273909367E+01  0.40659143372E+02  0.00000000000E+00 0. -1.
         11    1    3    3    0    0  0.46056591370E+01 -0.90115378902E-01  0.29313108772E+01  0.54601099428E+01  0.51100000000E-03 0. -1.
        -11    1    3    3    0    0  0.38763575067E+02  0.51737247551E+01 -0.45152336644E+00  0.39109922698E+02  0.51100000000E-03 0.  1.
         12    1    3    3    0    0 -0.38531201903E+01  0.43969341872E+01 -0.11523965741E+01  0.59588239873E+01  0.00000000000E+00 0. -1.
</event>
<event>
 7    1  0.6726285E-013  0.5052886E+02  0.7816164E-02  0.1300439E+00
        -11   -1    0    0    0    0  0.00000000000E+00  0.00000000000E+00  0.45593999997E+02  0.45594000000E+02  0.51100000000E-03 0.  1.
         11   -1    0    0    0    0 -0.00000000000E+00 -0.00000000000E+00 -0.45593999997E+02  0.45594000000E+02  0.51100000000E-03 0. -1.
    9900012    2    1    2    0    0  0.54324587149E+00 -0.93625998907E+01  0.39562760568E+02  0.50528863062E+02  0.30000009764E+02 0.  0.
         12    1    1    2    0    0 -0.54324587149E+00  0.93625998907E+01 -0.39562760568E+02  0.40659136938E+02  0.00000000000E+00 0. -1.
         11    1    3    3    0    0  0.41826144525E+01 -0.32119356747E+01  0.51797950242E+01  0.73919599018E+01  0.51100000000E-03 0. -1.
        -11    1    3    3    0    0  0.85801161752E+01 -0.17769687661E+01  0.31440713322E+01  0.93091995563E+01  0.51100000000E-03 0.  1.
         12    1    3    3    0    0 -0.12219484756E+02 -0.43736954499E+01  0.31238894211E+02  0.33827703604E+02  0.00000000000E+00 0. -1.
</event>
<event>
 7    1  0.6726285E-013  0.5052884E+02  0.7816164E-02  0.1300439E+00
        -11   -1    0    0    0    0  0.00000000000E+00  0.00000000000E+00  0.45593999997E+02  0.45594000000E+02  0.51100000000E-03 0. -1.
         11   -1    0    0    0    0 -0.00000000000E+00 -0.00000000000E+00 -0.45593999997E+02  0.45594000000E+02  0.51100000000E-03 0.  1.
    9900012    2    1    2    0    0  0.23497568277E+01 -0.39089663639E+02 -0.10938187419E+02  0.50528842304E+02  0.29999946667E+02 0.  0.
         12    1    1    2    0    0 -0.23497568277E+01  0.39089663639E+02  0.10938187419E+02  0.40659157696E+02  0.00000000000E+00 0. -1.
         11    1    3    3    0    0 -0.16170300871E+01  0.75006005099E+00  0.19309856070E+01  0.26279425523E+01  0.51100000000E-03 0. -1.
        -11    1    3    3    0    0 -0.21551073732E+01 -0.38547636770E+01 -0.10419523379E+02  0.11316808671E+02  0.51100000000E-03 0.  1.
        -12    1    3    3    0    0  0.61218942880E+01 -0.35984960013E+02 -0.24496496465E+01  0.36584091080E+02  0.00000000000E+00 0.  1.
</event>
<event>
 7    1  0.6726285E-013  0.5052886E+02  0.7816164E-02  0.1300439E+00
        -11   -1    0    0    0    0  0.00000000000E+00  0.00000000000E+00  0.45593999997E+02  0.45594000000E+02  0.51100000000E-03 0. -1.
         11   -1    0    0    0    0 -0.00000000000E+00 -0.00000000000E+00 -0.45593999997E+02  0.45594000000E+02  0.51100000000E-03 0.  1.
    9900012    2    1    2    0    0 -0.52172491121E+01 -0.31732007433E+02 -0.24880223314E+02  0.50528862083E+02  0.30000006787E+02 0.  0.
         12    1    1    2    0    0  0.52172491121E+01  0.31732007433E+02  0.24880223314E+02  0.40659137917E+02  0.00000000000E+00 0. -1.
         11    1    3    3    0    0 -0.34265740370E+01  0.54247522433E-01 -0.13160760700E+02  0.13599631425E+02  0.51100000000E-03 0. -1.
        -11    1    3    3    0    0 -0.37838674523E+01 -0.40125816836E+01 -0.66278157549E+01  0.86224362338E+01  0.51100000000E-03 0.  1.
         12    1    3    3    0    0  0.19931923772E+01 -0.27773673271E+02 -0.50916468593E+01  0.28306794424E+02  0.00000000000E+00 0. -1.
</event>
<event>
 7    1  0.6726285E-013  0.5052885E+02  0.7816164E-02  0.1300439E+00
        -11   -1    0    0    0    0  0.00000000000E+00  0.00000000000E+00  0.45593999997E+02  0.45594000000E+02  0.51100000000E-03 0. -1.
         11   -1    0    0    0    0 -0.00000000000E+00 -0.00000000000E+00 -0.45593999997E+02  0.45594000000E+02  0.51100000000E-03 0.  1.
    9900012    2    1    2    0    0  0.27334551167E+02  0.92605826569E+00 -0.30085404765E+02  0.50528845418E+02  0.29999956134E+02 0.  0.
         12    1    1    2    0    0 -0.27334551167E+02 -0.92605826569E+00  0.30085404765E+02  0.40659154582E+02  0.00000000000E+00 0. -1.
         11    1    3    3    0    0  0.11276003004E+02  0.96624599179E+01 -0.18315372905E+02  0.23578894383E+02  0.51100000000E-03 0. -1.
        -11    1    3    3    0    0  0.16685628705E+02 -0.14112967925E+01 -0.95162764253E+01  0.19260360359E+02  0.51100000000E-03 0.  1.
         12    1    3    3    0    0 -0.62708054162E+00 -0.73251048597E+01 -0.22537554349E+01  0.76895906765E+01  0.00000000000E+00 0. -1.
</event>
<event>
 7    1  0.6726285E-013  0.5052886E+02  0.7816164E-02  0.1300439E+00
        -11   -1    0    0    0    0  0.00000000000E+00  0.00000000000E+00  0.45593999997E+02  0.45594000000E+02  0.51100000000E-03 0.  1.
         11   -1    0    0    0    0 -0.00000000000E+00 -0.00000000000E+00 -0.45593999997E+02  0.45594000000E+02  0.51100000000E-03 0. -1.
    9900012    2    1    2    0    0  0.89597766646E+01  0.36391792312E+02  0.15764693152E+02  0.50528859629E+02  0.29999999327E+02 0.  0.
         12    1    1    2    0    0 -0.89597766646E+01 -0.36391792312E+02 -0.15764693152E+02  0.40659140371E+02  0.00000000000E+00 0. -1.
         11    1    3    3    0    0  0.28569890828E+01  0.19397636054E+01  0.11036046355E+01  0.36253293529E+01  0.51100000000E-03 0. -1.
        -11    1    3    3    0    0  0.98710915191E+01  0.34380896431E+02  0.19523773416E+02  0.40751223489E+02  0.51100000000E-03 0.  1.
         12    1    3    3    0    0 -0.37683039373E+01  0.71132275296E-01 -0.48626848994E+01  0.61523067865E+01  0.00000000000E+00 0. -1.
</event>
<event>
 7    1  0.6726285E-013  0.5052900E+02  0.7816164E-02  0.1300438E+00
        -11   -1    0    0    0    0  0.00000000000E+00  0.00000000000E+00  0.45593999997E+02  0.45594000000E+02  0.51100000000E-03 0.  1.
         11   -1    0    0    0    0 -0.00000000000E+00 -0.00000000000E+00 -0.45593999997E+02  0.45594000000E+02  0.51100000000E-03 0. -1.
    9900012    2    1    2    0    0 -0.37282980536E+02 -0.15964489863E+02  0.28755031096E+01  0.50529002320E+02  0.30000433048E+02 0.  0.
         12    1    1    2    0    0  0.37282980536E+02  0.15964489863E+02 -0.28755031096E+01  0.40658997680E+02  0.00000000000E+00 0. -1.
         11    1    3    3    0    0  0.19624422294E+01  0.28269855172E+01  0.18833703671E+01  0.39230231734E+01  0.51100000000E-03 0. -1.
        -11    1    3    3    0    0 -0.16807929268E+02 -0.17158713465E+02 -0.84573956614E+00  0.24034209155E+02  0.51100000000E-03 0.  1.
        -12    1    3    3    0    0 -0.22437493498E+02 -0.16327619160E+01  0.18378723086E+01  0.22571769992E+02  0.00000000000E+00 0.  1.
</event>
<event>
 7    1  0.6726285E-013  0.5052887E+02  0.7816164E-02  0.1300439E+00
        -11   -1    0    0    0    0  0.00000000000E+00  0.00000000000E+00  0.45593999997E+02  0.45594000000E+02  0.51100000000E-03 0.  1.
         11   -1    0    0    0    0 -0.00000000000E+00 -0.00000000000E+00 -0.45593999997E+02  0.45594000000E+02  0.51100000000E-03 0. -1.
    9900012    2    1    2    0    0 -0.33254810926E+02 -0.14604310171E+02  0.18275576046E+02  0.50528868122E+02  0.30000025142E+02 0.  0.
         12    1    1    2    0    0  0.33254810926E+02  0.14604310171E+02 -0.18275576046E+02  0.40659131878E+02  0.00000000000E+00 0. -1.
         11    1    3    3    0    0 -0.31508079279E+02 -0.50414624702E+01  0.17760444330E+02  0.36518608774E+02  0.51100000000E-03 0. -1.
        -11    1    3    3    0    0 -0.14833293804E+01 -0.21533920400E+01 -0.43975461036E+01  0.51162266684E+01  0.51100000000E-03 0.  1.
        -12    1    3    3    0    0 -0.26340226635E+00 -0.74094556612E+01  0.49126778194E+01  0.88940326796E+01  0.00000000000E+00 0.  1.
</event>
<event>
 7    1  0.6726285E-013  0.5052885E+02  0.7816164E-02  0.1300439E+00
        -11   -1    0    0    0    0  0.00000000000E+00  0.00000000000E+00  0.45593999997E+02  0.45594000000E+02  0.51100000000E-03 0. -1.
         11   -1    0    0    0    0 -0.00000000000E+00 -0.00000000000E+00 -0.45593999997E+02  0.45594000000E+02  0.51100000000E-03 0.  1.
    9900012    2    1    2    0    0  0.24682021444E+02  0.12509656999E+02 -0.29790476666E+02  0.50528853418E+02  0.29999980448E+02 0.  0.
         12    1    1    2    0    0 -0.24682021444E+02 -0.12509656999E+02  0.29790476666E+02  0.40659146582E+02  0.00000000000E+00 0. -1.
         11    1    3    3    0    0 -0.97414727596E+00 -0.31716457986E+00 -0.83031122276E+01  0.83660760941E+01  0.51100000000E-03 0. -1.
        -11    1    3    3    0    0  0.32255510853E+01  0.11582716500E+02 -0.15434159503E+01  0.12122113446E+02  0.51100000000E-03 0.  1.
        -12    1    3    3    0    0  0.22430617635E+02  0.12441050785E+01 -0.19943948488E+02  0.30040663878E+02  0.00000000000E+00 0.  1.
</event>
<event>
 7    1  0.6726285E-013  0.5052882E+02  0.7816164E-02  0.1300439E+00
        -11   -1    0    0    0    0  0.00000000000E+00  0.00000000000E+00  0.45593999997E+02  0.45594000000E+02  0.51100000000E-03 0.  1.
         11   -1    0    0    0    0 -0.00000000000E+00 -0.00000000000E+00 -0.45593999997E+02  0.45594000000E+02  0.51100000000E-03 0. -1.
    9900012    2    1    2    0    0 -0.39912932743E+02  0.75323063177E+01  0.18415274137E+01  0.50528818234E+02  0.29999873505E+02 0.  0.
         12    1    1    2    0    0  0.39912932743E+02 -0.75323063177E+01 -0.18415274137E+01  0.40659181766E+02  0.00000000000E+00 0. -1.
         11    1    3    3    0    0 -0.11022210446E+02  0.87859839113E+01 -0.45945959150E+01  0.14825415619E+02  0.51100000000E-03 0. -1.
        -11    1    3    3    0    0 -0.69717538642E+01  0.18599839540E+01 -0.67954194079E+01  0.99117413930E+01  0.51100000000E-03 0.  1.
        -12    1    3    3    0    0 -0.21918968433E+02 -0.31136615476E+01  0.13231542737E+02  0.25791661222E+02  0.00000000000E+00 0.  1.
</event>
<event>
 7    1  0.6726285E-013  0.5052886E+02  0.7816164E-02  0.1300439E+00
        -11   -1    0    0    0    0  0.00000000000E+00  0.00000000000E+00  0.45593999997E+02  0.45594000000E+02  0.51100000000E-03 0.  1.
         11   -1    0    0    0    0 -0.00000000000E+00 -0.00000000000E+00 -0.45593999997E+02  0.45594000000E+02  0.51100000000E-03 0. -1.
    9900012    2    1    2    0    0  0.29079999864E+02  0.14079139078E+02  0.24683947199E+02  0.50528858364E+02  0.29999995482E+02 0.  0.
         12    1    1    2    0    0 -0.29079999864E+02 -0.14079139078E+02 -0.24683947199E+02  0.40659141636E+02  0.00000000000E+00 0. -1.
         11    1    3    3    0    0  0.13364084404E+02 -0.65414820210E+01  0.80042111039E+01  0.16895476751E+02  0.51100000000E-03 0.  1.
        -11    1    3    3    0    0 -0.15211783247E+01  0.52480861589E+01  0.61276085799E+00  0.54983513853E+01  0.51100000000E-03 0. -1.
        -12    1    3    3    0    0  0.17237093785E+02  0.15372534940E+02  0.16066975237E+02  0.28135030228E+02  0.00000000000E+00 0.  1.
</event>
<event>
 7    1  0.6726285E-013  0.5052890E+02  0.7816164E-02  0.1300439E+00
        -11   -1    0    0    0    0  0.00000000000E+00  0.00000000000E+00  0.45593999997E+02  0.45594000000E+02  0.51100000000E-03 0.  1.
         11   -1    0    0    0    0 -0.00000000000E+00 -0.00000000000E+00 -0.45593999997E+02  0.45594000000E+02  0.51100000000E-03 0. -1.
    9900012    2    1    2    0    0 -0.18546148374E+02  0.23084667438E+02  0.27862181830E+02  0.50528896880E+02  0.30000112556E+02 0.  0.
         12    1    1    2    0    0  0.18546148374E+02 -0.23084667438E+02 -0.27862181830E+02  0.40659103120E+02  0.00000000000E+00 0. -1.
         11    1    3    3    0    0  0.31488384310E+00  0.15062774773E+01 -0.92111503472E+00  0.17934538861E+01  0.51100000000E-03 0. -1.
        -11    1    3    3    0    0  0.48096196774E+01  0.12182378873E+02  0.14486755004E+02  0.19529691940E+02  0.51100000000E-03 0.  1.
        -12    1    3    3    0    0 -0.23670651894E+02  0.93960110877E+01  0.14296541860E+02  0.29205751054E+02  0.00000000000E+00 0.  1.
</event>
<event>
 7    1  0.6726285E-013  0.5052886E+02  0.7816164E-02  0.1300439E+00
        -11   -1    0    0    0    0  0.00000000000E+00  0.00000000000E+00  0.45593999997E+02  0.45594000000E+02  0.51100000000E-03 0. -1.
         11   -1    0    0    0    0 -0.00000000000E+00 -0.00000000000E+00 -0.45593999997E+02  0.45594000000E+02  0.51100000000E-03 0.  1.
    9900012    2    1    2    0    0  0.14943104653E+02  0.37802850372E+02 -0.90203125618E+00  0.50528861626E+02  0.30000005399E+02 0.  0.
         12    1    1    2    0    0 -0.14943104653E+02 -0.37802850372E+02  0.90203125618E+00  0.40659138374E+02  0.00000000000E+00 0. -1.
         11    1    3    3    0    0 -0.30232707184E+00 -0.24873810496E+01  0.93782259271E-01  0.25074412291E+01  0.51100000000E-03 0. -1.
        -11    1    3    3    0    0  0.16179168789E+02  0.18031826385E+02 -0.64808282276E+01  0.25078145869E+02  0.51100000000E-03 0.  1.
         12    1    3    3    0    0 -0.93373706371E+00  0.22258405036E+02  0.54850147121E+01  0.22943274528E+02  0.00000000000E+00 0. -1.
</event>
<event>
 7    1  0.6726285E-013  0.5052886E+02  0.7816164E-02  0.1300439E+00
        -11   -1    0    0    0    0  0.00000000000E+00  0.00000000000E+00  0.45593999997E+02  0.45594000000E+02  0.51100000000E-03 0.  1.
         11   -1    0    0    0    0 -0.00000000000E+00 -0.00000000000E+00 -0.45593999997E+02  0.45594000000E+02  0.51100000000E-03 0. -1.
    9900012    2    1    2    0    0 -0.24015521173E+01  0.15677491725E+02  0.37438146263E+02  0.50528855949E+02  0.29999988142E+02 0.  0.
         12    1    1    2    0    0  0.24015521173E+01 -0.15677491725E+02 -0.37438146263E+02  0.40659144051E+02  0.00000000000E+00 0. -1.
         11    1    3    3    0    0 -0.32642297366E+01  0.13388449893E+02  0.11444970168E+02  0.17913490132E+02  0.51100000000E-03 0. -1.
        -11    1    3    3    0    0  0.72649629722E+01  0.40770974731E+01  0.24395566018E+02  0.25778790748E+02  0.51100000000E-03 0.  1.
         12    1    3    3    0    0 -0.64022853530E+01 -0.17880556409E+01  0.15976100763E+01  0.68365750689E+01  0.00000000000E+00 0. -1.
</event>
<event>
 7    1  0.6726285E-013  0.5052886E+02  0.7816164E-02  0.1300439E+00
        -11   -1    0    0    0    0  0.00000000000E+00  0.00000000000E+00  0.45593999997E+02  0.45594000000E+02  0.51100000000E-03 0. -1.
         11   -1    0    0    0    0 -0.00000000000E+00 -0.00000000000E+00 -0.45593999997E+02  0.45594000000E+02  0.51100000000E-03 0.  1.
    9900012    2    1    2    0    0 -0.86098005172E+01 -0.38705539012E+02  0.89954637759E+01  0.50528858547E+02  0.29999996040E+02 0.  0.
         12    1    1    2    0    0  0.86098005172E+01  0.38705539012E+02 -0.89954637759E+01  0.40659141453E+02  0.00000000000E+00 0. -1.
         11    1    3    3    0    0 -0.10575051039E+02 -0.28304888696E+01  0.20068425946E+01  0.11129725477E+02  0.51100000000E-03 0. -1.
        -11    1    3    3    0    0 -0.14395179664E+01  0.58272353171E+00 -0.10960517565E+01  0.19008178250E+01  0.51100000000E-03 0.  1.
         12    1    3    3    0    0  0.34047684887E+01 -0.36457773674E+02  0.80846729378E+01  0.37498315245E+02  0.00000000000E+00 0. -1.
</event>
<event>
 7    1  0.6726285E-013  0.5052881E+02  0.7816164E-02  0.1300439E+00
        -11   -1    0    0    0    0  0.00000000000E+00  0.00000000000E+00  0.45593999997E+02  0.45594000000E+02  0.51100000000E-03 0. -1.
         11   -1    0    0    0    0 -0.00000000000E+00 -0.00000000000E+00 -0.45593999997E+02  0.45594000000E+02  0.51100000000E-03 0.  1.
    9900012    2    1    2    0    0  0.27040690493E+01  0.36665143555E+02 -0.17364478523E+02  0.50528808472E+02  0.29999843831E+02 0.  0.
         12    1    1    2    0    0 -0.27040690493E+01 -0.36665143555E+02  0.17364478523E+02  0.40659191528E+02  0.00000000000E+00 0. -1.
         11    1    3    3    0    0  0.16509665355E+01  0.51802320813E+01  0.66742825024E+01  0.86085156735E+01  0.51100000000E-03 0. -1.
        -11    1    3    3    0    0  0.17611932885E+01 -0.75669406177E+00 -0.46202798397E+00  0.19717651538E+01  0.51100000000E-03 0.  1.
        -12    1    3    3    0    0 -0.70809077477E+00  0.32241605536E+02 -0.23576733041E+02  0.39948527645E+02  0.00000000000E+00 0.  1.
</event>
<event>
 7    1  0.6726285E-013  0.5052886E+02  0.7816164E-02  0.1300439E+00
        -11   -1    0    0    0    0  0.00000000000E+00  0.00000000000E+00  0.45593999997E+02  0.45594000000E+02  0.51100000000E-03 0.  1.
         11   -1    0    0    0    0 -0.00000000000E+00 -0.00000000000E+00 -0.45593999997E+02  0.45594000000E+02  0.51100000000E-03 0. -1.
    9900012    2    1    2    0    0  0.19388545870E+01 -0.19734251799E+02  0.35495996277E+02  0.50528860770E+02  0.30000002798E+02 0.  0.
         12    1    1    2    0    0 -0.19388545870E+01  0.19734251799E+02 -0.35495996277E+02  0.40659139230E+02  0.00000000000E+00 0. -1.
         11    1    3    3    0    0  0.32041005363E+01  0.16813280746E+01  0.11082635422E+02  0.11658384644E+02  0.51100000000E-03 0. -1.
        -11    1    3    3    0    0  0.58190990254E+01  0.47731053992E-01  0.11375131313E+02  0.12777237744E+02  0.51100000000E-03 0.  1.
        -12    1    3    3    0    0 -0.70843449746E+01 -0.21463310928E+02  0.13038229542E+02  0.26093238383E+02  0.00000000000E+00 0.  1.
</event>
<event>
 7    1  0.6726285E-013  0.5052886E+02  0.7816164E-02  0.1300439E+00
        -11   -1    0    0    0    0  0.00000000000E+00  0.00000000000E+00  0.45593999997E+02  0.45594000000E+02  0.51100000000E-03 0.  1.
         11   -1    0    0    0    0 -0.00000000000E+00 -0.00000000000E+00 -0.45593999997E+02  0.45594000000E+02  0.51100000000E-03 0. -1.
    9900012    2    1    2    0    0 -0.14388993689E+02 -0.35130593052E+02  0.14558974457E+02  0.50528862714E+02  0.30000008707E+02 0.  0.
         12    1    1    2    0    0  0.14388993689E+02  0.35130593052E+02 -0.14558974457E+02  0.40659137286E+02  0.00000000000E+00 0. -1.
         11    1    3    3    0    0 -0.35488141944E+01 -0.64155669231E+01 -0.52731446525E+01  0.90310373667E+01  0.51100000000E-03 0. -1.
        -11    1    3    3    0    0 -0.47301802659E+01 -0.92142197801E+01 -0.30709727140E+01  0.10803116457E+02  0.51100000000E-03 0.  1.
        -12    1    3    3    0    0 -0.61099992289E+01 -0.19500806349E+02  0.22903091824E+02  0.30694708891E+02  0.00000000000E+00 0.  1.
</event>
<event>
 7    1  0.6726285E-013  0.5052886E+02  0.7816164E-02  0.1300439E+00
        -11   -1    0    0    0    0  0.00000000000E+00  0.00000000000E+00  0.45593999997E+02  0.45594000000E+02  0.51100000000E-03 0.  1.
         11   -1    0    0    0    0 -0.00000000000E+00 -0.00000000000E+00 -0.45593999997E+02  0.45594000000E+02  0.51100000000E-03 0. -1.
    9900012    2    1    2    0    0 -0.86472679238E+00 -0.40350084973E+02 -0.49283383962E+01  0.50528860448E+02  0.30000001817E+02 0.  0.
         12    1    1    2    0    0  0.86472679238E+00  0.40350084973E+02  0.49283383962E+01  0.40659139552E+02  0.00000000000E+00 0. -1.
         11    1    3    3    0    0  0.39573544893E+01 -0.15848857628E+00  0.10967673883E+01  0.41095829652E+01  0.51100000000E-03 0. -1.
        -11    1    3    3    0    0 -0.41457700517E+00  0.26975833184E+00  0.43814134217E+01  0.44092434140E+01  0.51100000000E-03 0.  1.
         12    1    3    3    0    0 -0.44075042765E+01 -0.40461354729E+02 -0.10406519206E+02  0.42010034069E+02  0.00000000000E+00 0. -1.
</event>
<event>
 7    1  0.6726285E-013  0.5052886E+02  0.7816164E-02  0.1300439E+00
        -11   -1    0    0    0    0  0.00000000000E+00  0.00000000000E+00  0.45593999997E+02  0.45594000000E+02  0.51100000000E-03 0. -1.
         11   -1    0    0    0    0 -0.00000000000E+00 -0.00000000000E+00 -0.45593999997E+02  0.45594000000E+02  0.51100000000E-03 0.  1.
    9900012    2    1    2    0    0 -0.24650626163E+02 -0.17211715405E+02 -0.27372788567E+02  0.50528855010E+02  0.29999985288E+02 0.  0.
         12    1    1    2    0    0  0.24650626163E+02  0.17211715405E+02  0.27372788567E+02  0.40659144990E+02  0.00000000000E+00 0. -1.
         11    1    3    3    0    0 -0.13879782016E+02 -0.11615461265E+02 -0.38010161701E+01  0.18493647920E+02  0.51100000000E-03 0. -1.
        -11    1    3    3    0    0 -0.11133689965E+02 -0.10537088733E+02 -0.12066717399E+02  0.19508843129E+02  0.51100000000E-03 0.  1.
        -12    1    3    3    0    0  0.36284581796E+00  0.49408345927E+01 -0.11505054997E+02  0.12526363960E+02  0.00000000000E+00 0.  1.
</event>
<event>
 7    1  0.6726285E-013  0.5052887E+02  0.7816164E-02  0.1300439E+00
        -11   -1    0    0    0    0  0.00000000000E+00  0.00000000000E+00  0.45593999997E+02  0.45594000000E+02  0.51100000000E-03 0.  1.
         11   -1    0    0    0    0 -0.00000000000E+00 -0.00000000000E+00 -0.45593999997E+02  0.45594000000E+02  0.51100000000E-03 0. -1.
    9900012    2    1    2    0    0 -0.23507795962E+02  0.25915409075E+02 -0.20710865373E+02  0.50528870115E+02  0.30000031201E+02 0.  0.
         12    1    1    2    0    0  0.23507795962E+02 -0.25915409075E+02  0.20710865373E+02  0.40659129885E+02  0.00000000000E+00 0. -1.
         11    1    3    3    0    0 -0.46931854281E+01  0.15569577041E+02 -0.91863958013E+01  0.18676926588E+02  0.51100000000E-03 0. -1.
        -11    1    3    3    0    0 -0.12420773869E+02  0.96148814443E+01 -0.17184541158E+02  0.23281538261E+02  0.51100000000E-03 0.  1.
        -12    1    3    3    0    0 -0.63938366647E+01  0.73095058912E+00  0.56600715862E+01  0.85704052658E+01  0.00000000000E+00 0.  1.
</event>
<event>
 7    1  0.6726285E-013  0.5052887E+02  0.7816164E-02  0.1300439E+00
        -11   -1    0    0    0    0  0.00000000000E+00  0.00000000000E+00  0.45593999997E+02  0.45594000000E+02  0.51100000000E-03 0. -1.
         11   -1    0    0    0    0 -0.00000000000E+00 -0.00000000000E+00 -0.45593999997E+02  0.45594000000E+02  0.51100000000E-03 0.  1.
    9900012    2    1    2    0    0  0.13327429858E+02  0.19042667618E+01 -0.38365590953E+02  0.50528865876E+02  0.30000018316E+02 0.  0.
         12    1    1    2    0    0 -0.13327429858E+02 -0.19042667618E+01  0.38365590953E+02  0.40659134124E+02  0.00000000000E+00 0. -1.
         11    1    3    3    0    0 -0.14030209258E+01 -0.44092131143E+01 -0.14696595027E+02  0.15407775104E+02  0.51100000000E-03 0. -1.
        -11    1    3    3    0    0  0.12618227336E+02  0.14572497165E+00 -0.25411993509E+02  0.28372703629E+02  0.51100000000E-03 0.  1.
         12    1    3    3    0    0  0.21122234483E+01  0.61677549045E+01  0.17429975825E+01  0.67483871428E+01  0.00000000000E+00 0. -1.
</event>
<event>
 7    1  0.6726285E-013  0.5052887E+02  0.7816164E-02  0.1300439E+00
        -11   -1    0    0    0    0  0.00000000000E+00  0.00000000000E+00  0.45593999997E+02  0.45594000000E+02  0.51100000000E-03 0.  1.
         11   -1    0    0    0    0 -0.00000000000E+00 -0.00000000000E+00 -0.45593999997E+02  0.45594000000E+02  0.51100000000E-03 0. -1.
    9900012    2    1    2    0    0  0.11139820195E+02  0.18693112285E+02  0.34345837424E+02  0.50528873236E+02  0.30000040688E+02 0.  0.
         12    1    1    2    0    0 -0.11139820195E+02 -0.18693112285E+02 -0.34345837424E+02  0.40659126764E+02  0.00000000000E+00 0. -1.
         11    1    3    3    0    0  0.13161648183E+01 -0.67789831079E+01  0.61596106681E+01  0.92535239585E+01  0.51100000000E-03 0. -1.
        -11    1    3    3    0    0 -0.26935187627E+01  0.14851906057E+01  0.33537308575E+01  0.45506423048E+01  0.51100000000E-03 0.  1.
        -12    1    3    3    0    0  0.12517174139E+02  0.23986904787E+02  0.24832495898E+02  0.36724706973E+02  0.00000000000E+00 0.  1.
</event>
<event>
 7    1  0.6726285E-013  0.5052887E+02  0.7816164E-02  0.1300439E+00
        -11   -1    0    0    0    0  0.00000000000E+00  0.00000000000E+00  0.45593999997E+02  0.45594000000E+02  0.51100000000E-03 0. -1.
         11   -1    0    0    0    0 -0.00000000000E+00 -0.00000000000E+00 -0.45593999997E+02  0.45594000000E+02  0.51100000000E-03 0.  1.
    9900012    2    1    2    0    0  0.32020942124E+01  0.39882956757E+02  0.72292023581E+01  0.50528868015E+02  0.30000024818E+02 0.  0.
         12    1    1    2    0    0 -0.32020942124E+01 -0.39882956757E+02 -0.72292023581E+01  0.40659131985E+02  0.00000000000E+00 0. -1.
         11    1    3    3    0    0 -0.31266509648E+01  0.32842522259E+01  0.48351940607E+01  0.66288280114E+01  0.51100000000E-03 0. -1.
        -11    1    3    3    0    0  0.96747536635E+01  0.22439535482E+02  0.11213629872E+02  0.26886411182E+02  0.51100000000E-03 0.  1.
         12    1    3    3    0    0 -0.33460084864E+01  0.14159169049E+02 -0.88196215742E+01  0.17013628821E+02  0.00000000000E+00 0. -1.
</event>
<event>
 7    1  0.6726285E-013  0.5052886E+02  0.7816164E-02  0.1300439E+00
        -11   -1    0    0    0    0  0.00000000000E+00  0.00000000000E+00  0.45593999997E+02  0.45594000000E+02  0.51100000000E-03 0. -1.
         11   -1    0    0    0    0 -0.00000000000E+00 -0.00000000000E+00 -0.45593999997E+02  0.45594000000E+02  0.51100000000E-03 0.  1.
    9900012    2    1    2    0    0  0.14327172619E+02 -0.30582958234E+02 -0.22640247506E+02  0.50528855681E+02  0.29999987327E+02 0.  0.
         12    1    1    2    0    0 -0.14327172619E+02  0.30582958234E+02  0.22640247506E+02  0.40659144319E+02  0.00000000000E+00 0. -1.
         11    1    3    3    0    0  0.42597612738E+01  0.11254883347E+01 -0.89148107337E+01  0.99441510840E+01  0.51100000000E-03 0. -1.
        -11    1    3    3    0    0  0.73284179691E+01 -0.80465268263E+01 -0.12724019971E+02  0.16743744754E+02  0.51100000000E-03 0.  1.
         12    1    3    3    0    0  0.27389933764E+01 -0.23661919743E+02 -0.10014168014E+01  0.23840959843E+02  0.00000000000E+00 0. -1.
</event>
<event>
 7    1  0.6726285E-013  0.5052886E+02  0.7816164E-02  0.1300439E+00
        -11   -1    0    0    0    0  0.00000000000E+00  0.00000000000E+00  0.45593999997E+02  0.45594000000E+02  0.51100000000E-03 0.  1.
         11   -1    0    0    0    0 -0.00000000000E+00 -0.00000000000E+00 -0.45593999997E+02  0.45594000000E+02  0.51100000000E-03 0. -1.
    9900012    2    1    2    0    0  0.35633133591E+02 -0.91438291717E+01  0.17315772576E+02  0.50528858330E+02  0.29999995379E+02 0.  0.
         12    1    1    2    0    0 -0.35633133591E+02  0.91438291717E+01 -0.17315772576E+02  0.40659141670E+02  0.00000000000E+00 0. -1.
         11    1    3    3    0    0 -0.56466772534E-01  0.92084703896E+00  0.35751742276E+01  0.36922918065E+01  0.51100000000E-03 0. -1.
        -11    1    3    3    0    0  0.15643228688E+02 -0.56498307026E+01  0.19390465227E+02  0.25546454406E+02  0.51100000000E-03 0.  1.
         12    1    3    3    0    0  0.20046371676E+02 -0.44148455080E+01 -0.56498668781E+01  0.21290112117E+02  0.00000000000E+00 0. -1.
</event>
<event>
 7    1  0.6726285E-013  0.5052883E+02  0.7816164E-02  0.1300439E+00
        -11   -1    0    0    0    0  0.00000000000E+00  0.00000000000E+00  0.45593999997E+02  0.45594000000E+02  0.51100000000E-03 0.  1.
         11   -1    0    0    0    0 -0.00000000000E+00 -0.00000000000E+00 -0.45593999997E+02  0.45594000000E+02  0.51100000000E-03 0. -1.
    9900012    2    1    2    0    0 -0.36273135041E+01 -0.29174218492E+01  0.40391820412E+02  0.50528832403E+02  0.29999916572E+02 0.  0.
         12    1    1    2    0    0  0.36273135041E+01  0.29174218492E+01 -0.40391820412E+02  0.40659167597E+02  0.00000000000E+00 0. -1.
         11    1    3    3    0    0 -0.33629562389E+01  0.96974346235E+00  0.93444671540E+01  0.99784239086E+01  0.51100000000E-03 0.  1.
        -11    1    3    3    0    0 -0.53349242377E+01  0.64747420344E+01  0.11041382081E+01  0.84618450988E+01  0.51100000000E-03 0. -1.
         12    1    3    3    0    0  0.50705669725E+01 -0.10361907346E+02  0.29943215050E+02  0.32088563395E+02  0.00000000000E+00 0. -1.
</event>
<event>
 7    1  0.6726285E-013  0.5052886E+02  0.7816164E-02  0.1300439E+00
        -11   -1    0    0    0    0  0.00000000000E+00  0.00000000000E+00  0.45593999997E+02  0.45594000000E+02  0.51100000000E-03 0.  1.
         11   -1    0    0    0    0 -0.00000000000E+00 -0.00000000000E+00 -0.45593999997E+02  0.45594000000E+02  0.51100000000E-03 0. -1.
    9900012    2    1    2    0    0  0.23098601099E+02  0.30005494467E+02  0.14808464099E+02  0.50528859823E+02  0.29999999918E+02 0.  0.
         12    1    1    2    0    0 -0.23098601099E+02 -0.30005494467E+02 -0.14808464099E+02  0.40659140177E+02  0.00000000000E+00 0. -1.
         11    1    3    3    0    0  0.13805399868E+02  0.15536925196E+02 -0.11640841407E+01  0.20816824979E+02  0.51100000000E-03 0. -1.
        -11    1    3    3    0    0  0.13593324510E+02  0.11715435419E+02  0.67544117114E+01  0.19174252948E+02  0.51100000000E-03 0.  1.
         12    1    3    3    0    0 -0.43001232793E+01  0.27531338520E+01  0.92181365285E+01  0.10537781896E+02  0.00000000000E+00 0. -1.
</event>
<event>
 7    1  0.6726285E-013  0.5052885E+02  0.7816164E-02  0.1300439E+00
        -11   -1    0    0    0    0  0.00000000000E+00  0.00000000000E+00  0.45593999997E+02  0.45594000000E+02  0.51100000000E-03 0. -1.
         11   -1    0    0    0    0 -0.00000000000E+00 -0.00000000000E+00 -0.45593999997E+02  0.45594000000E+02  0.51100000000E-03 0.  1.
    9900012    2    1    2    0    0  0.31568962240E+01 -0.39153164867E+02 -0.10499040373E+02  0.50528853899E+02  0.29999981913E+02 0.  0.
         12    1    1    2    0    0 -0.31568962240E+01  0.39153164867E+02  0.10499040373E+02  0.40659146101E+02  0.00000000000E+00 0. -1.
         11    1    3    3    0    0  0.64335390375E+01 -0.12058814060E+02 -0.88363476024E+01  0.16275332878E+02  0.51100000000E-03 0. -1.
        -11    1    3    3    0    0 -0.10223891132E+02 -0.13359250910E+02 -0.66268129366E+01  0.18080713058E+02  0.51100000000E-03 0.  1.
         12    1    3    3    0    0  0.69472483181E+01 -0.13735099897E+02  0.49641201664E+01  0.16172807963E+02  0.00000000000E+00 0. -1.
</event>
<event>
 7    1  0.6726285E-013  0.5052891E+02  0.7816164E-02  0.1300439E+00
        -11   -1    0    0    0    0  0.00000000000E+00  0.00000000000E+00  0.45593999997E+02  0.45594000000E+02  0.51100000000E-03 0.  1.
         11   -1    0    0    0    0 -0.00000000000E+00 -0.00000000000E+00 -0.45593999997E+02  0.45594000000E+02  0.51100000000E-03 0. -1.
    9900012    2    1    2    0    0 -0.17142907109E+02  0.18603245397E+02  0.31830834114E+02  0.50528905029E+02  0.30000137327E+02 0.  0.
         12    1    1    2    0    0  0.17142907109E+02 -0.18603245397E+02 -0.31830834114E+02  0.40659094971E+02  0.00000000000E+00 0. -1.
         11    1    3    3    0    0  0.10234132530E+01 -0.31966971118E+01  0.26285800077E+00  0.33667999199E+01  0.51100000000E-03 0. -1.
        -11    1    3    3    0    0  0.27481750147E+01  0.10946017493E+02  0.12580367351E+02  0.16900692525E+02  0.51100000000E-03 0.  1.
        -12    1    3    3    0    0 -0.20914495377E+02  0.10853925016E+02  0.18987608761E+02  0.30261412584E+02  0.00000000000E+00 0.  1.
</event>
<event>
 7    1  0.6726285E-013  0.5052886E+02  0.7816164E-02  0.1300439E+00
        -11   -1    0    0    0    0  0.00000000000E+00  0.00000000000E+00  0.45593999997E+02  0.45594000000E+02  0.51100000000E-03 0.  1.
         11   -1    0    0    0    0 -0.00000000000E+00 -0.00000000000E+00 -0.45593999997E+02  0.45594000000E+02  0.51100000000E-03 0. -1.
    9900012    2    1    2    0    0 -0.60092550591E+01  0.18058613960E+02  0.35929664091E+02  0.50528862697E+02  0.30000008655E+02 0.  0.
         12    1    1    2    0    0  0.60092550591E+01 -0.18058613960E+02 -0.35929664091E+02  0.40659137303E+02  0.00000000000E+00 0. -1.
         11    1    3    3    0    0 -0.52646236597E+01  0.10044831185E+02  0.65001154243E+01  0.13071587379E+02  0.51100000000E-03 0. -1.
        -11    1    3    3    0    0  0.77968201511E+01  0.10457460665E+02  0.11259236020E+02  0.17231345973E+02  0.51100000000E-03 0.  1.
         12    1    3    3    0    0 -0.85414515504E+01 -0.24436778897E+01  0.18170312647E+02  0.20225929346E+02  0.00000000000E+00 0. -1.
</event>
<event>
 7    1  0.6726285E-013  0.5052885E+02  0.7816164E-02  0.1300439E+00
        -11   -1    0    0    0    0  0.00000000000E+00  0.00000000000E+00  0.45593999997E+02  0.45594000000E+02  0.51100000000E-03 0. -1.
         11   -1    0    0    0    0 -0.00000000000E+00 -0.00000000000E+00 -0.45593999997E+02  0.45594000000E+02  0.51100000000E-03 0.  1.
    9900012    2    1    2    0    0 -0.17663559973E+02  0.20042608249E+02 -0.30650597939E+02  0.50528847889E+02  0.29999963644E+02 0.  0.
         12    1    1    2    0    0  0.17663559973E+02 -0.20042608249E+02  0.30650597939E+02  0.40659152111E+02  0.00000000000E+00 0. -1.
         11    1    3    3    0    0  0.65931270331E+01  0.44811238762E+01 -0.34132381461E+01  0.86717927888E+01  0.51100000000E-03 0. -1.
        -11    1    3    3    0    0 -0.32234493137E+01  0.69563251025E+01 -0.20568830665E+01  0.79380005430E+01  0.51100000000E-03 0.  1.
        -12    1    3    3    0    0 -0.21033237693E+02  0.86051592700E+01 -0.25180476726E+02  0.33919054557E+02  0.00000000000E+00 0.  1.
</event>
<event>
 7    1  0.6726285E-013  0.5052886E+02  0.7816164E-02  0.1300439E+00
        -11   -1    0    0    0    0  0.00000000000E+00  0.00000000000E+00  0.45593999997E+02  0.45594000000E+02  0.51100000000E-03 0.  1.
         11   -1    0    0    0    0 -0.00000000000E+00 -0.00000000000E+00 -0.45593999997E+02  0.45594000000E+02  0.51100000000E-03 0. -1.
    9900012    2    1    2    0    0  0.76298433221E+01 -0.13730832621E+02  0.37502210494E+02  0.50528855081E+02  0.29999985505E+02 0.  0.
         12    1    1    2    0    0 -0.76298433221E+01  0.13730832621E+02 -0.37502210494E+02  0.40659144919E+02  0.00000000000E+00 0. -1.
         11    1    3    3    0    0  0.53437521486E+01 -0.98267032146E+01  0.10325394422E+02  0.15222797158E+02  0.51100000000E-03 0. -1.
        -11    1    3    3    0    0  0.24627349312E+01 -0.29071126261E+01  0.31060114074E+02  0.31292923381E+02  0.51100000000E-03 0.  1.
        -12    1    3    3    0    0 -0.17664375762E+00 -0.99701678037E+00 -0.38832980023E+01  0.40131345420E+01  0.00000000000E+00 0.  1.
</event>
<event>
 7    1  0.6726285E-013  0.5052886E+02  0.7816164E-02  0.1300439E+00
        -11   -1    0    0    0    0  0.00000000000E+00  0.00000000000E+00  0.45593999997E+02  0.45594000000E+02  0.51100000000E-03 0.  1.
         11   -1    0    0    0    0 -0.00000000000E+00 -0.00000000000E+00 -0.45593999997E+02  0.45594000000E+02  0.51100000000E-03 0. -1.
    9900012    2    1    2    0    0  0.18048997780E+02  0.70294204170E+01  0.35748936451E+02  0.50528861671E+02  0.30000005536E+02 0.  0.
         12    1    1    2    0    0 -0.18048997780E+02 -0.70294204170E+01 -0.35748936451E+02  0.40659138329E+02  0.00000000000E+00 0. -1.
         11    1    3    3    0    0  0.13842816909E+02  0.91017923074E+00  0.35306345582E+01  0.14314935796E+02  0.51100000000E-03 0. -1.
        -11    1    3    3    0    0  0.73464833592E+00 -0.42216997942E+00 -0.14833170018E+01  0.17082638140E+01  0.51100000000E-03 0.  1.
        -12    1    3    3    0    0  0.34715325357E+01  0.65414111657E+01  0.33701618894E+02  0.34505662061E+02  0.00000000000E+00 0.  1.
</event>
<event>
 7    1  0.6726285E-013  0.5052885E+02  0.7816164E-02  0.1300439E+00
        -11   -1    0    0    0    0  0.00000000000E+00  0.00000000000E+00  0.45593999997E+02  0.45594000000E+02  0.51100000000E-03 0.  1.
         11   -1    0    0    0    0 -0.00000000000E+00 -0.00000000000E+00 -0.45593999997E+02  0.45594000000E+02  0.51100000000E-03 0. -1.
    9900012    2    1    2    0    0  0.39955420119E+02 -0.43513656337E+01  0.61478644845E+01  0.50528853213E+02  0.29999979826E+02 0.  0.
         12    1    1    2    0    0 -0.39955420119E+02  0.43513656337E+01 -0.61478644845E+01  0.40659146787E+02  0.00000000000E+00 0. -1.
         11    1    3    3    0    0  0.19319120156E+02 -0.45393744958E+01 -0.89065232238E+01  0.21752252311E+02  0.51100000000E-03 0.  1.
        -11    1    3    3    0    0  0.57672348203E+00  0.33118313171E+00 -0.22114790827E+01  0.23093142349E+01  0.51100000000E-03 0. -1.
        -12    1    3    3    0    0  0.20059576480E+02 -0.14317426956E+00  0.17265866791E+02  0.26467286667E+02  0.00000000000E+00 0.  1.
</event>
<event>
 7    1  0.6726285E-013  0.5052886E+02  0.7816164E-02  0.1300439E+00
        -11   -1    0    0    0    0  0.00000000000E+00  0.00000000000E+00  0.45593999997E+02  0.45594000000E+02  0.51100000000E-03 0.  1.
         11   -1    0    0    0    0 -0.00000000000E+00 -0.00000000000E+00 -0.45593999997E+02  0.45594000000E+02  0.51100000000E-03 0. -1.
    9900012    2    1    2    0    0  0.31734145021E+02 -0.24177152607E+02 -0.78469891005E+01  0.50528857039E+02  0.29999991456E+02 0.  0.
         12    1    1    2    0    0 -0.31734145021E+02  0.24177152607E+02  0.78469891005E+01  0.40659142961E+02  0.00000000000E+00 0. -1.
         11    1    3    3    0    0  0.16251552862E+02 -0.20475845735E+02  0.21872859764E+01  0.26232755273E+02  0.51100000000E-03 0. -1.
        -11    1    3    3    0    0  0.73447761078E+01 -0.84246422655E+01 -0.94982024291E+00  0.11217062545E+02  0.51100000000E-03 0.  1.
         12    1    3    3    0    0  0.81378160508E+01  0.47233353941E+01 -0.90844548340E+01  0.13079039221E+02  0.00000000000E+00 0. -1.
</event>
<event>
 7    1  0.6726285E-013  0.5052887E+02  0.7816164E-02  0.1300439E+00
        -11   -1    0    0    0    0  0.00000000000E+00  0.00000000000E+00  0.45593999997E+02  0.45594000000E+02  0.51100000000E-03 0.  1.
         11   -1    0    0    0    0 -0.00000000000E+00 -0.00000000000E+00 -0.45593999997E+02  0.45594000000E+02  0.51100000000E-03 0. -1.
    9900012    2    1    2    0    0  0.20702179248E+02 -0.23325634995E+02  0.26086388058E+02  0.50528866765E+02  0.30000021018E+02 0.  0.
         12    1    1    2    0    0 -0.20702179248E+02  0.23325634995E+02 -0.26086388058E+02  0.40659133235E+02  0.00000000000E+00 0. -1.
         11    1    3    3    0    0 -0.18021037453E+01 -0.53604041013E+01  0.24959735331E+01  0.61815365547E+01  0.51100000000E-03 0. -1.
        -11    1    3    3    0    0  0.23550293515E+01 -0.15246994029E+02  0.17039808969E+02  0.22986345515E+02  0.51100000000E-03 0.  1.
         12    1    3    3    0    0  0.20149253642E+02 -0.27182368642E+01  0.65506055557E+01  0.21360984695E+02  0.00000000000E+00 0. -1.
</event>
<event>
 7    1  0.1017030E-012  0.5052886E+02  0.7816164E-02  0.1300439E+00
        -11   -1    0    0    0    0  0.00000000000E+00  0.00000000000E+00  0.45593999997E+02  0.45594000000E+02  0.51100000000E-03 0.  1.
         11   -1    0    0    0    0 -0.00000000000E+00 -0.00000000000E+00 -0.45593999997E+02  0.45594000000E+02  0.51100000000E-03 0. -1.
    9900012    2    1    2    0    0 -0.20365521884E+02 -0.34393803978E+02  0.74483096371E+01  0.50528861419E+02  0.30000004769E+02 0.  0.
         12    1    1    2    0    0  0.20365521884E+02  0.34393803978E+02 -0.74483096371E+01  0.40659138581E+02  0.00000000000E+00 0. -1.
         11    1    3    3    0    0 -0.93593518908E+01  0.92913935653E-01  0.23610398032E+01  0.96530104127E+01  0.51100000000E-03 0. -1.
        -11    1    3    3    0    0 -0.13210714553E+02 -0.11646230769E+02  0.22580272449E+01  0.17755459933E+02  0.51100000000E-03 0.  1.
         12    1    3    3    0    0  0.22045445602E+01 -0.22840487145E+02  0.28292425891E+01  0.23120391073E+02  0.00000000000E+00 0. -1.
</event>
<event>
 7    1  0.6726285E-013  0.5052883E+02  0.7816164E-02  0.1300439E+00
        -11   -1    0    0    0    0  0.00000000000E+00  0.00000000000E+00  0.45593999997E+02  0.45594000000E+02  0.51100000000E-03 0.  1.
         11   -1    0    0    0    0 -0.00000000000E+00 -0.00000000000E+00 -0.45593999997E+02  0.45594000000E+02  0.51100000000E-03 0. -1.
    9900012    2    1    2    0    0 -0.25457848163E+02  0.27551438945E+02  0.15683893352E+02  0.50528827213E+02  0.29999900797E+02 0.  0.
         12    1    1    2    0    0  0.25457848163E+02 -0.27551438945E+02 -0.15683893352E+02  0.40659172787E+02  0.00000000000E+00 0. -1.
         11    1    3    3    0    0 -0.10594238112E+02  0.12651234456E+01  0.63696734081E+01  0.12426228635E+02  0.51100000000E-03 0. -1.
        -11    1    3    3    0    0  0.44980653118E+01  0.10304881912E+02  0.61010509322E+01  0.12792419845E+02  0.51100000000E-03 0.  1.
         12    1    3    3    0    0 -0.19361675363E+02  0.15981433588E+02  0.32131690121E+01  0.25310178733E+02  0.00000000000E+00 0. -1.
</event>
<event>
 7    1  0.6726285E-013  0.5052884E+02  0.7816164E-02  0.1300439E+00
        -11   -1    0    0    0    0  0.00000000000E+00  0.00000000000E+00  0.45593999997E+02  0.45594000000E+02  0.51100000000E-03 0.  1.
         11   -1    0    0    0    0 -0.00000000000E+00 -0.00000000000E+00 -0.45593999997E+02  0.45594000000E+02  0.51100000000E-03 0. -1.
    9900012    2    1    2    0    0  0.69406579173E+01 -0.49998374551E+01  0.39749168510E+02  0.50528837391E+02  0.29999931732E+02 0.  0.
         12    1    1    2    0    0 -0.69406579173E+01  0.49998374551E+01 -0.39749168510E+02  0.40659162609E+02  0.00000000000E+00 0. -1.
         11    1    3    3    0    0  0.13240989300E+00  0.36632885508E+01  0.10037780953E+02  0.10686171536E+02  0.51100000000E-03 0. -1.
        -11    1    3    3    0    0  0.42732593850E+01 -0.49383883208E+01  0.33392161180E+02  0.34024768236E+02  0.51100000000E-03 0.  1.
         12    1    3    3    0    0  0.25349886393E+01 -0.37247376852E+01 -0.36807736235E+01  0.58178976179E+01  0.00000000000E+00 0. -1.
</event>
<event>
 7    1  0.6726285E-013  0.5052886E+02  0.7816164E-02  0.1300439E+00
        -11   -1    0    0    0    0  0.00000000000E+00  0.00000000000E+00  0.45593999997E+02  0.45594000000E+02  0.51100000000E-03 0. -1.
         11   -1    0    0    0    0 -0.00000000000E+00 -0.00000000000E+00 -0.45593999997E+02  0.45594000000E+02  0.51100000000E-03 0.  1.
    9900012    2    1    2    0    0 -0.28523296143E+02  0.26216556201E+02  0.12340162694E+02  0.50528857643E+02  0.29999993292E+02 0.  0.
         12    1    1    2    0    0  0.28523296143E+02 -0.26216556201E+02 -0.12340162694E+02  0.40659142357E+02  0.00000000000E+00 0. -1.
         11    1    3    3    0    0 -0.31383232707E-01  0.20871825818E+01  0.56606914535E+01  0.60333029122E+01  0.51100000000E-03 0. -1.
        -11    1    3    3    0    0 -0.76121448945E+01  0.46699114217E+01 -0.83608298681E+01  0.12233409129E+02  0.51100000000E-03 0.  1.
        -12    1    3    3    0    0 -0.20879768016E+02  0.19459462197E+02  0.15040301108E+02  0.32262145602E+02  0.00000000000E+00 0.  1.
</event>
<event>
 7    1  0.6726285E-013  0.5052887E+02  0.7816164E-02  0.1300439E+00
        -11   -1    0    0    0    0  0.00000000000E+00  0.00000000000E+00  0.45593999997E+02  0.45594000000E+02  0.51100000000E-03 0.  1.
         11   -1    0    0    0    0 -0.00000000000E+00 -0.00000000000E+00 -0.45593999997E+02  0.45594000000E+02  0.51100000000E-03 0. -1.
    9900012    2    1    2    0    0  0.88437892469E+01  0.13383816897E+02  0.37360752901E+02  0.50528867935E+02  0.30000024574E+02 0.  0.
         12    1    1    2    0    0 -0.88437892469E+01 -0.13383816897E+02 -0.37360752901E+02  0.40659132065E+02  0.00000000000E+00 0. -1.
         11    1    3    3    0    0  0.97302780737E+01  0.10551868710E+02  0.11169657330E+02  0.18187399204E+02  0.51100000000E-03 0. -1.
        -11    1    3    3    0    0  0.84944937325E+00  0.10668839935E+02  0.12358695398E+02  0.16348793900E+02  0.51100000000E-03 0.  1.
        -12    1    3    3    0    0 -0.17359382000E+01 -0.78368917475E+01  0.13832400173E+02  0.15992674831E+02  0.00000000000E+00 0.  1.
</event>
<event>
 7    1  0.6726285E-013  0.5052886E+02  0.7816164E-02  0.1300439E+00
        -11   -1    0    0    0    0  0.00000000000E+00  0.00000000000E+00  0.45593999997E+02  0.45594000000E+02  0.51100000000E-03 0.  1.
         11   -1    0    0    0    0 -0.00000000000E+00 -0.00000000000E+00 -0.45593999997E+02  0.45594000000E+02  0.51100000000E-03 0. -1.
    9900012    2    1    2    0    0  0.20066828624E+01  0.30166411623E+02  0.27186881755E+02  0.50528859504E+02  0.29999998948E+02 0.  0.
         12    1    1    2    0    0 -0.20066828624E+01 -0.30166411623E+02 -0.27186881755E+02  0.40659140496E+02  0.00000000000E+00 0. -1.
         11    1    3    3    0    0  0.55904067619E+01  0.87545668389E+01  0.18943747890E+02  0.21604644701E+02  0.51100000000E-03 0. -1.
        -11    1    3    3    0    0 -0.49183096227E+01  0.14152369431E+02  0.13253348882E+02  0.20003264406E+02  0.51100000000E-03 0.  1.
         12    1    3    3    0    0  0.13345857231E+01  0.72594753535E+01 -0.50102150169E+01  0.89209503965E+01  0.00000000000E+00 0. -1.
</event>
<event>
 7    1  0.6726285E-013  0.5052886E+02  0.7816164E-02  0.1300439E+00
        -11   -1    0    0    0    0  0.00000000000E+00  0.00000000000E+00  0.45593999997E+02  0.45594000000E+02  0.51100000000E-03 0.  1.
         11   -1    0    0    0    0 -0.00000000000E+00 -0.00000000000E+00 -0.45593999997E+02  0.45594000000E+02  0.51100000000E-03 0. -1.
    9900012    2    1    2    0    0 -0.26303028902E+02  0.30600221945E+02  0.49942853313E+01  0.50528858366E+02  0.29999995489E+02 0.  0.
         12    1    1    2    0    0  0.26303028902E+02 -0.30600221945E+02 -0.49942853313E+01  0.40659141634E+02  0.00000000000E+00 0. -1.
         11    1    3    3    0    0 -0.30503364216E+01  0.87638538375E+01  0.11253957060E+02  0.14586337311E+02  0.51100000000E-03 0. -1.
        -11    1    3    3    0    0 -0.49175310270E+01  0.12949633753E+02  0.19245922348E+01  0.13984962684E+02  0.51100000000E-03 0.  1.
         12    1    3    3    0    0 -0.18335161453E+02  0.88867343542E+01 -0.81842639639E+01  0.21957558371E+02  0.00000000000E+00 0. -1.
</event>
<event>
 7    1  0.6726285E-013  0.5052886E+02  0.7816164E-02  0.1300439E+00
        -11   -1    0    0    0    0  0.00000000000E+00  0.00000000000E+00  0.45593999997E+02  0.45594000000E+02  0.51100000000E-03 0. -1.
         11   -1    0    0    0    0 -0.00000000000E+00 -0.00000000000E+00 -0.45593999997E+02  0.45594000000E+02  0.51100000000E-03 0.  1.
    9900012    2    1    2    0    0 -0.20395274723E+02  0.32615470399E+02  0.13169263475E+02  0.50528860304E+02  0.30000001379E+02 0.  0.
         12    1    1    2    0    0  0.20395274723E+02 -0.32615470399E+02 -0.13169263475E+02  0.40659139696E+02  0.00000000000E+00 0. -1.
         11    1    3    3    0    0 -0.82218976625E+01  0.22180299208E+02  0.14315435347E+02  0.27649538216E+02  0.51100000000E-03 0.  1.
        -11    1    3    3    0    0  0.22086241353E+01 -0.25852246022E+01  0.36763705937E+00  0.34200239887E+01  0.51100000000E-03 0. -1.
         12    1    3    3    0    0 -0.14382001196E+02  0.13020395793E+02 -0.15138089311E+01  0.19459298099E+02  0.00000000000E+00 0. -1.
</event>
<event>
 7    1  0.6726285E-013  0.5052886E+02  0.7816164E-02  0.1300439E+00
        -11   -1    0    0    0    0  0.00000000000E+00  0.00000000000E+00  0.45593999997E+02  0.45594000000E+02  0.51100000000E-03 0.  1.
         11   -1    0    0    0    0 -0.00000000000E+00 -0.00000000000E+00 -0.45593999997E+02  0.45594000000E+02  0.51100000000E-03 0. -1.
    9900012    2    1    2    0    0  0.17976248123E+02  0.34627220515E+02  0.11444465502E+02  0.50528859726E+02  0.29999999623E+02 0.  0.
         12    1    1    2    0    0 -0.17976248123E+02 -0.34627220515E+02 -0.11444465502E+02  0.40659140274E+02  0.00000000000E+00 0. -1.
         11    1    3    3    0    0 -0.14753461230E+01  0.40205676280E+01  0.42330196278E+01  0.60216331393E+01  0.51100000000E-03 0. -1.
        -11    1    3    3    0    0  0.24883531955E+02  0.24967833738E+02  0.91959912935E+01  0.36430058197E+02  0.51100000000E-03 0.  1.
        -12    1    3    3    0    0 -0.54319377089E+01  0.56388191490E+01 -0.19845454191E+01  0.80771683893E+01  0.00000000000E+00 0.  1.
</event>
<event>
 7    1  0.6726285E-013  0.5052886E+02  0.7816164E-02  0.1300439E+00
        -11   -1    0    0    0    0  0.00000000000E+00  0.00000000000E+00  0.45593999997E+02  0.45594000000E+02  0.51100000000E-03 0.  1.
         11   -1    0    0    0    0 -0.00000000000E+00 -0.00000000000E+00 -0.45593999997E+02  0.45594000000E+02  0.51100000000E-03 0. -1.
    9900012    2    1    2    0    0  0.11730384282E+02 -0.35491843924E+02  0.15996639101E+02  0.50528863720E+02  0.30000011764E+02 0.  0.
         12    1    1    2    0    0 -0.11730384282E+02  0.35491843924E+02 -0.15996639101E+02  0.40659136280E+02  0.00000000000E+00 0. -1.
         11    1    3    3    0    0  0.69000753417E+01  0.11435518757E+00  0.11839133313E+01  0.70018403200E+01  0.51100000000E-03 0. -1.
        -11    1    3    3    0    0  0.77124637165E+01 -0.96319409256E+01  0.12051226474E+02  0.17247853268E+02  0.51100000000E-03 0.  1.
        -12    1    3    3    0    0 -0.28821547762E+01 -0.25974258186E+02  0.27614992949E+01  0.26279170132E+02  0.00000000000E+00 0.  1.
</event>
<event>
 7    1  0.6726285E-013  0.5052885E+02  0.7816164E-02  0.1300439E+00
        -11   -1    0    0    0    0  0.00000000000E+00  0.00000000000E+00  0.45593999997E+02  0.45594000000E+02  0.51100000000E-03 0.  1.
         11   -1    0    0    0    0 -0.00000000000E+00 -0.00000000000E+00 -0.45593999997E+02  0.45594000000E+02  0.51100000000E-03 0. -1.
    9900012    2    1    2    0    0 -0.32243714579E+02 -0.24349301198E+02  0.45410126728E+01  0.50528851032E+02  0.29999973197E+02 0.  0.
         12    1    1    2    0    0  0.32243714579E+02  0.24349301198E+02 -0.45410126728E+01  0.40659148968E+02  0.00000000000E+00 0. -1.
         11    1    3    3    0    0 -0.79099087053E+01  0.50244819002E+01 -0.30258760943E+01  0.98472331388E+01  0.51100000000E-03 0. -1.
        -11    1    3    3    0    0 -0.10064826309E+02 -0.40513896561E+01  0.11023096596E+01  0.10905483650E+02  0.51100000000E-03 0.  1.
        -12    1    3    3    0    0 -0.14268979564E+02 -0.25322393442E+02  0.64645791074E+01  0.29776134244E+02  0.00000000000E+00 0.  1.
</event>
<event>
 7    1  0.6726285E-013  0.5052886E+02  0.7816164E-02  0.1300439E+00
        -11   -1    0    0    0    0  0.00000000000E+00  0.00000000000E+00  0.45593999997E+02  0.45594000000E+02  0.51100000000E-03 0.  1.
         11   -1    0    0    0    0 -0.00000000000E+00 -0.00000000000E+00 -0.45593999997E+02  0.45594000000E+02  0.51100000000E-03 0. -1.
    9900012    2    1    2    0    0 -0.69404408826E+01  0.13601607434E+02  0.37682789348E+02  0.50528855180E+02  0.29999985805E+02 0.  0.
         12    1    1    2    0    0  0.69404408826E+01 -0.13601607434E+02 -0.37682789348E+02  0.40659144820E+02  0.00000000000E+00 0. -1.
         11    1    3    3    0    0  0.16373856119E+00  0.59087585875E+00  0.14904417050E+02  0.14917023579E+02  0.51100000000E-03 0.  1.
        -11    1    3    3    0    0 -0.95788861793E+01  0.32057149365E+01  0.23393015768E+02  0.25480676123E+02  0.51100000000E-03 0. -1.
         12    1    3    3    0    0  0.24747067355E+01  0.98050166387E+01 -0.61464347055E+00  0.10131155477E+02  0.00000000000E+00 0. -1.
</event>
<event>
 7    1  0.6726285E-013  0.5052884E+02  0.7816164E-02  0.1300439E+00
        -11   -1    0    0    0    0  0.00000000000E+00  0.00000000000E+00  0.45593999997E+02  0.45594000000E+02  0.51100000000E-03 0.  1.
         11   -1    0    0    0    0 -0.00000000000E+00 -0.00000000000E+00 -0.45593999997E+02  0.45594000000E+02  0.51100000000E-03 0. -1.
    9900012    2    1    2    0    0 -0.40573709017E+02  0.16043570915E+01  0.20897545518E+01  0.50528844830E+02  0.29999954346E+02 0.  0.
         12    1    1    2    0    0  0.40573709017E+02 -0.16043570915E+01 -0.20897545518E+01  0.40659155170E+02  0.00000000000E+00 0. -1.
         11    1    3    3    0    0 -0.66362947297E+00  0.67410802535E+01 -0.35095462401E+00  0.67827528682E+01  0.51100000000E-03 0. -1.
        -11    1    3    3    0    0 -0.15385292843E+02 -0.47789017496E+01  0.88689586743E+01  0.18390311744E+02  0.51100000000E-03 0.  1.
         12    1    3    3    0    0 -0.24524786700E+02 -0.35782141248E+00 -0.64282494984E+01  0.25355780218E+02  0.00000000000E+00 0. -1.
</event>
<event>
 7    1  0.6726285E-013  0.5052886E+02  0.7816164E-02  0.1300439E+00
        -11   -1    0    0    0    0  0.00000000000E+00  0.00000000000E+00  0.45593999997E+02  0.45594000000E+02  0.51100000000E-03 0.  1.
         11   -1    0    0    0    0 -0.00000000000E+00 -0.00000000000E+00 -0.45593999997E+02  0.45594000000E+02  0.51100000000E-03 0. -1.
    9900012    2    1    2    0    0 -0.22260174268E+02 -0.33986410737E+02 -0.16043529422E+01  0.50528863000E+02  0.30000009574E+02 0.  0.
         12    1    1    2    0    0  0.22260174268E+02  0.33986410737E+02  0.16043529422E+01  0.40659137000E+02  0.00000000000E+00 0. -1.
         11    1    3    3    0    0 -0.29220481900E+01  0.17870382549E+01 -0.68631020673E+01  0.76703351685E+01  0.51100000000E-03 0. -1.
        -11    1    3    3    0    0 -0.37705990657E+01 -0.52189115412E+01 -0.36864966382E+01  0.74192124052E+01  0.51100000000E-03 0.  1.
        -12    1    3    3    0    0 -0.15567527012E+02 -0.30554537451E+02  0.89452457633E+01  0.35439315426E+02  0.00000000000E+00 0.  1.
</event>
<event>
 7    1  0.6726285E-013  0.5052884E+02  0.7816164E-02  0.1300439E+00
        -11   -1    0    0    0    0  0.00000000000E+00  0.00000000000E+00  0.45593999997E+02  0.45594000000E+02  0.51100000000E-03 0.  1.
         11   -1    0    0    0    0 -0.00000000000E+00 -0.00000000000E+00 -0.45593999997E+02  0.45594000000E+02  0.51100000000E-03 0. -1.
    9900012    2    1    2    0    0 -0.24467827595E+02  0.77224571336E+01  0.31541338926E+02  0.50528843680E+02  0.29999950848E+02 0.  0.
         12    1    1    2    0    0  0.24467827595E+02 -0.77224571336E+01 -0.31541338926E+02  0.40659156320E+02  0.00000000000E+00 0. -1.
         11    1    3    3    0    0 -0.10891977529E+02  0.43400113177E+01  0.88149453844E+01  0.14668815055E+02  0.51100000000E-03 0. -1.
        -11    1    3    3    0    0 -0.18228542138E+02  0.87697458460E+01  0.14009755747E+02  0.24606126210E+02  0.51100000000E-03 0.  1.
         12    1    3    3    0    0  0.46526920714E+01 -0.53873000301E+01  0.87166377945E+01  0.11253902415E+02  0.00000000000E+00 0. -1.
</event>
<event>
 7    1  0.6726285E-013  0.5052885E+02  0.7816164E-02  0.1300439E+00
        -11   -1    0    0    0    0  0.00000000000E+00  0.00000000000E+00  0.45593999997E+02  0.45594000000E+02  0.51100000000E-03 0.  1.
         11   -1    0    0    0    0 -0.00000000000E+00 -0.00000000000E+00 -0.45593999997E+02  0.45594000000E+02  0.51100000000E-03 0. -1.
    9900012    2    1    2    0    0  0.12913064728E+02 -0.21461666138E+02  0.32028359241E+02  0.50528854046E+02  0.29999982358E+02 0.  0.
         12    1    1    2    0    0 -0.12913064728E+02  0.21461666138E+02 -0.32028359241E+02  0.40659145954E+02  0.00000000000E+00 0. -1.
         11    1    3    3    0    0  0.94916238744E+01 -0.17022067265E+02  0.16681024899E+02  0.25653426471E+02  0.51100000000E-03 0. -1.
        -11    1    3    3    0    0  0.55979493953E+01 -0.63068495721E+01  0.18670126128E+02  0.20486263662E+02  0.51100000000E-03 0.  1.
         12    1    3    3    0    0 -0.21765085412E+01  0.18672506999E+01 -0.33227917855E+01  0.43891639131E+01  0.00000000000E+00 0. -1.
</event>
<event>
 7    1  0.6726285E-013  0.5052887E+02  0.7816164E-02  0.1300439E+00
        -11   -1    0    0    0    0  0.00000000000E+00  0.00000000000E+00  0.45593999997E+02  0.45594000000E+02  0.51100000000E-03 0.  1.
         11   -1    0    0    0    0 -0.00000000000E+00 -0.00000000000E+00 -0.45593999997E+02  0.45594000000E+02  0.51100000000E-03 0. -1.
    9900012    2    1    2    0    0  0.22094331978E+02 -0.24096561192E+02  0.24173569242E+02  0.50528865520E+02  0.30000017233E+02 0.  0.
         12    1    1    2    0    0 -0.22094331978E+02  0.24096561192E+02 -0.24173569242E+02  0.40659134480E+02  0.00000000000E+00 0. -1.
         11    1    3    3    0    0  0.34678936974E+01 -0.36659601986E+01  0.16839415545E+02  0.17579290857E+02  0.51100000000E-03 0. -1.
        -11    1    3    3    0    0 -0.13466584849E+01 -0.56387065521E+01  0.55595156643E+01  0.80322297862E+01  0.51100000000E-03 0.  1.
         12    1    3    3    0    0  0.19973096765E+02 -0.14791894441E+02  0.17746380326E+01  0.24917344877E+02  0.00000000000E+00 0. -1.
</event>
<event>
 7    1  0.6726285E-013  0.5052887E+02  0.7816164E-02  0.1300439E+00
        -11   -1    0    0    0    0  0.00000000000E+00  0.00000000000E+00  0.45593999997E+02  0.45594000000E+02  0.51100000000E-03 0.  1.
         11   -1    0    0    0    0 -0.00000000000E+00 -0.00000000000E+00 -0.45593999997E+02  0.45594000000E+02  0.51100000000E-03 0. -1.
    9900012    2    1    2    0    0  0.27227281817E+02 -0.10943916682E+02  0.28143755278E+02  0.50528866357E+02  0.30000019777E+02 0.  0.
         12    1    1    2    0    0 -0.27227281817E+02  0.10943916682E+02 -0.28143755278E+02  0.40659133643E+02  0.00000000000E+00 0. -1.
         11    1    3    3    0    0  0.26699162870E+02 -0.62188481700E+01  0.21648835181E+02  0.34931238676E+02  0.51100000000E-03 0.  1.
        -11    1    3    3    0    0  0.31287317572E+01 -0.52047997491E+01 -0.22387898734E+01  0.64723321295E+01  0.51100000000E-03 0. -1.
         12    1    3    3    0    0 -0.26006128096E+01  0.47973123715E+00  0.87337099702E+01  0.91252955507E+01  0.00000000000E+00 0. -1.
</event>
<event>
 7    1  0.6726285E-013  0.5052891E+02  0.7816164E-02  0.1300439E+00
        -11   -1    0    0    0    0  0.00000000000E+00  0.00000000000E+00  0.45593999997E+02  0.45594000000E+02  0.51100000000E-03 0. -1.
         11   -1    0    0    0    0 -0.00000000000E+00 -0.00000000000E+00 -0.45593999997E+02  0.45594000000E+02  0.51100000000E-03 0.  1.
    9900012    2    1    2    0    0 -0.78474487245E+01  0.19869142027E+02 -0.34594739718E+02  0.50528914023E+02  0.30000164663E+02 0.  0.
         12    1    1    2    0    0  0.78474487245E+01 -0.19869142027E+02  0.34594739718E+02  0.40659085977E+02  0.00000000000E+00 0. -1.
         11    1    3    3    0    0 -0.67043008552E+01  0.16375539479E+02 -0.31370168039E+02  0.36016570995E+02  0.51100000000E-03 0. -1.
        -11    1    3    3    0    0  0.94810804159E-01  0.31338088164E+01 -0.85114617982E+01  0.90705418245E+01  0.51100000000E-03 0.  1.
         12    1    3    3    0    0 -0.12379586735E+01  0.35979373148E+00  0.52868901192E+01  0.54418012035E+01  0.00000000000E+00 0. -1.
</event>
<event>
 7    1  0.6726285E-013  0.5052876E+02  0.7816164E-02  0.1300439E+00
        -11   -1    0    0    0    0  0.00000000000E+00  0.00000000000E+00  0.45593999997E+02  0.45594000000E+02  0.51100000000E-03 0.  1.
         11   -1    0    0    0    0 -0.00000000000E+00 -0.00000000000E+00 -0.45593999997E+02  0.45594000000E+02  0.51100000000E-03 0. -1.
    9900012    2    1    2    0    0 -0.20950609909E+02 -0.15815461134E+02  0.31050237264E+02  0.50528756271E+02  0.29999685160E+02 0.  0.
         12    1    1    2    0    0  0.20950609909E+02  0.15815461134E+02 -0.31050237264E+02  0.40659243729E+02  0.00000000000E+00 0. -1.
         11    1    3    3    0    0 -0.22838285175E+00 -0.59146880543E+01  0.30295953734E+01  0.66493715413E+01  0.51100000000E-03 0. -1.
        -11    1    3    3    0    0 -0.17932495149E+02 -0.17809395538E+02  0.22511356759E+02  0.33845385728E+02  0.51100000000E-03 0.  1.
         12    1    3    3    0    0 -0.27897319087E+01  0.79086224581E+01  0.55092851312E+01  0.10033999002E+02  0.00000000000E+00 0. -1.
</event>
<event>
 7    1  0.6726285E-013  0.5052885E+02  0.7816164E-02  0.1300439E+00
        -11   -1    0    0    0    0  0.00000000000E+00  0.00000000000E+00  0.45593999997E+02  0.45594000000E+02  0.51100000000E-03 0.  1.
         11   -1    0    0    0    0 -0.00000000000E+00 -0.00000000000E+00 -0.45593999997E+02  0.45594000000E+02  0.51100000000E-03 0. -1.
    9900012    2    1    2    0    0 -0.18306621955E+02 -0.14942964241E+02  0.33086884810E+02  0.50528849319E+02  0.29999967989E+02 0.  0.
         12    1    1    2    0    0  0.18306621955E+02  0.14942964241E+02 -0.33086884810E+02  0.40659150681E+02  0.00000000000E+00 0. -1.
         11    1    3    3    0    0  0.25324909916E+01  0.73741973075E+00  0.66193633277E+01  0.71255364435E+01  0.51100000000E-03 0. -1.
        -11    1    3    3    0    0  0.10797098922E+01 -0.11352085749E+02  0.13098454595E+02  0.17366782585E+02  0.51100000000E-03 0.  1.
         12    1    3    3    0    0 -0.21918822838E+02 -0.43282982221E+01  0.13369066888E+02  0.26036530291E+02  0.00000000000E+00 0. -1.
</event>
<event>
 7    1  0.6726285E-013  0.5052889E+02  0.7816164E-02  0.1300439E+00
        -11   -1    0    0    0    0  0.00000000000E+00  0.00000000000E+00  0.45593999997E+02  0.45594000000E+02  0.51100000000E-03 0. -1.
         11   -1    0    0    0    0 -0.00000000000E+00 -0.00000000000E+00 -0.45593999997E+02  0.45594000000E+02  0.51100000000E-03 0.  1.
    9900012    2    1    2    0    0  0.24216738057E+02  0.29817001782E+02  0.13328899254E+02  0.50528885982E+02  0.30000079431E+02 0.  0.
         12    1    1    2    0    0 -0.24216738057E+02 -0.29817001782E+02 -0.13328899254E+02  0.40659114018E+02  0.00000000000E+00 0. -1.
         11    1    3    3    0    0  0.51633925786E+01  0.10438930351E+01  0.15270966328E+00  0.52700717350E+01  0.51100000000E-03 0. -1.
        -11    1    3    3    0    0  0.17422214146E+02  0.37407662291E+01  0.24912191574E+01  0.17992583218E+02  0.51100000000E-03 0.  1.
        -12    1    3    3    0    0  0.16311313329E+01  0.25032342518E+02  0.10684970433E+02  0.27266231029E+02  0.00000000000E+00 0.  1.
</event>
<event>
 7    1  0.7065950E-013  0.5052886E+02  0.7816164E-02  0.1300439E+00
        -11   -1    0    0    0    0  0.00000000000E+00  0.00000000000E+00  0.45593999997E+02  0.45594000000E+02  0.51100000000E-03 0. -1.
         11   -1    0    0    0    0 -0.00000000000E+00 -0.00000000000E+00 -0.45593999997E+02  0.45594000000E+02  0.51100000000E-03 0.  1.
    9900012    2    1    2    0    0  0.96880167926E+01  0.38138233133E+02  0.10236349120E+02  0.50528864014E+02  0.30000012656E+02 0.  0.
         12    1    1    2    0    0 -0.96880167926E+01 -0.38138233133E+02 -0.10236349120E+02  0.40659135986E+02  0.00000000000E+00 0. -1.
         11    1    3    3    0    0  0.81500387966E+01  0.11028505515E+02 -0.11422765822E+01  0.13760663586E+02  0.51100000000E-03 0. -1.
        -11    1    3    3    0    0  0.36233886423E+01  0.28768967968E+02  0.14700223705E+02  0.32509676105E+02  0.51100000000E-03 0.  1.
         12    1    3    3    0    0 -0.20854106463E+01 -0.16592403507E+01 -0.33215980035E+01  0.42585243221E+01  0.00000000000E+00 0. -1.
</event>
<event>
 7    1  0.6726285E-013  0.5052886E+02  0.7816164E-02  0.1300439E+00
        -11   -1    0    0    0    0  0.00000000000E+00  0.00000000000E+00  0.45593999997E+02  0.45594000000E+02  0.51100000000E-03 0.  1.
         11   -1    0    0    0    0 -0.00000000000E+00 -0.00000000000E+00 -0.45593999997E+02  0.45594000000E+02  0.51100000000E-03 0. -1.
    9900012    2    1    2    0    0  0.30785668234E+02 -0.17423402782E+02  0.20045779675E+02  0.50528860610E+02  0.30000002312E+02 0.  0.
         12    1    1    2    0    0 -0.30785668234E+02  0.17423402782E+02 -0.20045779675E+02  0.40659139390E+02  0.00000000000E+00 0. -1.
         11    1    3    3    0    0  0.13701198646E+02  0.51867203040E+01  0.15305143904E+02  0.21186607610E+02  0.51100000000E-03 0.  1.
        -11    1    3    3    0    0  0.87194433786E+01 -0.68636981747E+01  0.24641467577E+01  0.11367104511E+02  0.51100000000E-03 0. -1.
        -12    1    3    3    0    0  0.83650262097E+01 -0.15746424911E+02  0.22764890134E+01  0.17975148489E+02  0.00000000000E+00 0.  1.
</event>
<event>
 7    1  0.6726285E-013  0.5052883E+02  0.7816164E-02  0.1300439E+00
        -11   -1    0    0    0    0  0.00000000000E+00  0.00000000000E+00  0.45593999997E+02  0.45594000000E+02  0.51100000000E-03 0. -1.
         11   -1    0    0    0    0 -0.00000000000E+00 -0.00000000000E+00 -0.45593999997E+02  0.45594000000E+02  0.51100000000E-03 0.  1.
    9900012    2    1    2    0    0  0.17479730440E+02 -0.36647666295E+02 -0.21390333681E+01  0.50528832708E+02  0.29999917499E+02 0.  0.
         12    1    1    2    0    0 -0.17479730440E+02  0.36647666295E+02  0.21390333681E+01  0.40659167292E+02  0.00000000000E+00 0. -1.
         11    1    3    3    0    0 -0.49935892377E+01 -0.67981223192E+01  0.51982482541E+01  0.99081878118E+01  0.51100000000E-03 0. -1.
        -11    1    3    3    0    0  0.28713757477E+01 -0.10040006316E+02  0.30506866361E+01  0.10879026368E+02  0.51100000000E-03 0.  1.
        -12    1    3    3    0    0  0.19601943930E+02 -0.19809537660E+02 -0.10387968258E+02  0.29741618528E+02  0.00000000000E+00 0.  1.
</event>
<event>
 7    1  0.6726285E-013  0.5052886E+02  0.7816164E-02  0.1300439E+00
        -11   -1    0    0    0    0  0.00000000000E+00  0.00000000000E+00  0.45593999997E+02  0.45594000000E+02  0.51100000000E-03 0.  1.
         11   -1    0    0    0    0 -0.00000000000E+00 -0.00000000000E+00 -0.45593999997E+02  0.45594000000E+02  0.51100000000E-03 0. -1.
    9900012    2    1    2    0    0  0.30386278097E+01 -0.40527439420E+02 -0.12078398488E+01  0.50528862257E+02  0.30000007316E+02 0.  0.
         12    1    1    2    0    0 -0.30386278097E+01  0.40527439420E+02  0.12078398488E+01  0.40659137743E+02  0.00000000000E+00 0. -1.
         11    1    3    3    0    0 -0.53891899709E+01 -0.18518634869E+01  0.69111792552E+01  0.89575200740E+01  0.51100000000E-03 0. -1.
        -11    1    3    3    0    0  0.11619437777E+01 -0.14305827711E+02 -0.73604140763E+01  0.16130174069E+02  0.51100000000E-03 0.  1.
        -12    1    3    3    0    0  0.72658740028E+01 -0.24369748222E+02 -0.75860502767E+00  0.25441168114E+02  0.00000000000E+00 0.  1.
</event>
<event>
 7    1  0.6726285E-013  0.5052887E+02  0.7816164E-02  0.1300439E+00
        -11   -1    0    0    0    0  0.00000000000E+00  0.00000000000E+00  0.45593999997E+02  0.45594000000E+02  0.51100000000E-03 0. -1.
         11   -1    0    0    0    0 -0.00000000000E+00 -0.00000000000E+00 -0.45593999997E+02  0.45594000000E+02  0.51100000000E-03 0.  1.
    9900012    2    1    2    0    0  0.24773730145E+02  0.27231409233E+02 -0.17259125666E+02  0.50528870977E+02  0.30000033823E+02 0.  0.
         12    1    1    2    0    0 -0.24773730145E+02 -0.27231409233E+02  0.17259125666E+02  0.40659129023E+02  0.00000000000E+00 0. -1.
         11    1    3    3    0    0 -0.40899506422E+01  0.18301295993E+01  0.13285232940E+01  0.46735473689E+01  0.51100000000E-03 0. -1.
        -11    1    3    3    0    0  0.41168064504E+01  0.12735842249E+02 -0.10167184777E+02  0.16808373499E+02  0.51100000000E-03 0.  1.
        -12    1    3    3    0    0  0.24746874337E+02  0.12665437385E+02 -0.84204641832E+01  0.29046950109E+02  0.00000000000E+00 0.  1.
</event>
<event>
 7    1  0.6726285E-013  0.5052886E+02  0.7816164E-02  0.1300439E+00
        -11   -1    0    0    0    0  0.00000000000E+00  0.00000000000E+00  0.45593999997E+02  0.45594000000E+02  0.51100000000E-03 0.  1.
         11   -1    0    0    0    0 -0.00000000000E+00 -0.00000000000E+00 -0.45593999997E+02  0.45594000000E+02  0.51100000000E-03 0. -1.
    9900012    2    1    2    0    0  0.38635401832E+02  0.10974201112E+02  0.63275720502E+01  0.50528861632E+02  0.30000005418E+02 0.  0.
         12    1    1    2    0    0 -0.38635401832E+02 -0.10974201112E+02 -0.63275720502E+01  0.40659138368E+02  0.00000000000E+00 0. -1.
         11    1    3    3    0    0  0.23660764246E+02  0.84496707803E+01  0.81285160374E+01  0.26406466523E+02  0.51100000000E-03 0. -1.
        -11    1    3    3    0    0  0.15031932338E+02  0.24971109955E+01  0.59593822794E+01  0.16361808902E+02  0.51100000000E-03 0.  1.
         12    1    3    3    0    0 -0.57294752577E-01  0.27419336554E-01 -0.77603262666E+01  0.77605862068E+01  0.00000000000E+00 0. -1.
</event>
<event>
 7    1  0.6726285E-013  0.5052889E+02  0.7816164E-02  0.1300439E+00
        -11   -1    0    0    0    0  0.00000000000E+00  0.00000000000E+00  0.45593999997E+02  0.45594000000E+02  0.51100000000E-03 0.  1.
         11   -1    0    0    0    0 -0.00000000000E+00 -0.00000000000E+00 -0.45593999997E+02  0.45594000000E+02  0.51100000000E-03 0. -1.
    9900012    2    1    2    0    0 -0.14379327679E+02 -0.37557142785E+02  0.59882621558E+01  0.50528888816E+02  0.30000088044E+02 0.  0.
         12    1    1    2    0    0  0.14379327679E+02  0.37557142785E+02 -0.59882621558E+01  0.40659111184E+02  0.00000000000E+00 0. -1.
         11    1    3    3    0    0 -0.23648995061E+00 -0.81358743971E+01 -0.89386717243E+01  0.12089178308E+02  0.51100000000E-03 0. -1.
        -11    1    3    3    0    0  0.10993300482E+01 -0.12858407439E+02  0.58547523731E+01  0.14171284135E+02  0.51100000000E-03 0.  1.
         12    1    3    3    0    0 -0.15242167777E+02 -0.16562860949E+02  0.90721815069E+01  0.24268426373E+02  0.00000000000E+00 0. -1.
</event>
<event>
 7    1  0.6726285E-013  0.5052885E+02  0.7816164E-02  0.1300439E+00
        -11   -1    0    0    0    0  0.00000000000E+00  0.00000000000E+00  0.45593999997E+02  0.45594000000E+02  0.51100000000E-03 0.  1.
         11   -1    0    0    0    0 -0.00000000000E+00 -0.00000000000E+00 -0.45593999997E+02  0.45594000000E+02  0.51100000000E-03 0. -1.
    9900012    2    1    2    0    0  0.17978512413E+01  0.35744632640E+02  0.19293920557E+02  0.50528850942E+02  0.29999972923E+02 0.  0.
         12    1    1    2    0    0 -0.17978512413E+01 -0.35744632640E+02 -0.19293920557E+02  0.40659149058E+02  0.00000000000E+00 0. -1.
         11    1    3    3    0    0 -0.97278909296E+01  0.10476241838E+02 -0.21182269803E+01  0.14452348971E+02  0.51100000000E-03 0. -1.
        -11    1    3    3    0    0  0.38145277201E+01  0.16962764560E+01  0.23069295210E+01  0.47696854842E+01  0.51100000000E-03 0.  1.
        -12    1    3    3    0    0  0.77112144508E+01  0.23572114346E+02  0.19105218016E+02  0.31306816486E+02  0.00000000000E+00 0.  1.
</event>
<event>
 7    1  0.6726285E-013  0.5052886E+02  0.7816164E-02  0.1300439E+00
        -11   -1    0    0    0    0  0.00000000000E+00  0.00000000000E+00  0.45593999997E+02  0.45594000000E+02  0.51100000000E-03 0.  1.
         11   -1    0    0    0    0 -0.00000000000E+00 -0.00000000000E+00 -0.45593999997E+02  0.45594000000E+02  0.51100000000E-03 0. -1.
    9900012    2    1    2    0    0 -0.43810490655E+01 -0.50923971954E+01  0.40100367430E+02  0.50528861198E+02  0.30000004096E+02 0.  0.
         12    1    1    2    0    0  0.43810490655E+01  0.50923971954E+01 -0.40100367430E+02  0.40659138802E+02  0.00000000000E+00 0. -1.
         11    1    3    3    0    0 -0.62773395779E+01 -0.41983409495E+01  0.51061527564E+01  0.91161315884E+01  0.51100000000E-03 0. -1.
        -11    1    3    3    0    0  0.11186083402E+02  0.28725134375E+01  0.14005749403E+02  0.18153258989E+02  0.51100000000E-03 0.  1.
         12    1    3    3    0    0 -0.92897928892E+01 -0.37665696833E+01  0.20988465271E+02  0.23259470621E+02  0.00000000000E+00 0. -1.
</event>
<event>
 7    1  0.6726285E-013  0.5052885E+02  0.7816164E-02  0.1300439E+00
        -11   -1    0    0    0    0  0.00000000000E+00  0.00000000000E+00  0.45593999997E+02  0.45594000000E+02  0.51100000000E-03 0.  1.
         11   -1    0    0    0    0 -0.00000000000E+00 -0.00000000000E+00 -0.45593999997E+02  0.45594000000E+02  0.51100000000E-03 0. -1.
    9900012    2    1    2    0    0  0.17785665409E+02 -0.22141812088E+02  0.29095989167E+02  0.50528851925E+02  0.29999975911E+02 0.  0.
         12    1    1    2    0    0 -0.17785665409E+02  0.22141812088E+02 -0.29095989167E+02  0.40659148075E+02  0.00000000000E+00 0. -1.
         11    1    3    3    0    0  0.46714286613E+01  0.48967282224E+01  0.44383010039E+01  0.80931272747E+01  0.51100000000E-03 0. -1.
        -11    1    3    3    0    0  0.78519261586E+01 -0.12321798970E+02  0.17657805634E+01  0.14717250270E+02  0.51100000000E-03 0.  1.
        -12    1    3    3    0    0  0.52623105888E+01 -0.14716741340E+02  0.22891907600E+02  0.27718474380E+02  0.00000000000E+00 0.  1.
</event>
<event>
 7    1  0.6726285E-013  0.5052885E+02  0.7816164E-02  0.1300439E+00
        -11   -1    0    0    0    0  0.00000000000E+00  0.00000000000E+00  0.45593999997E+02  0.45594000000E+02  0.51100000000E-03 0.  1.
         11   -1    0    0    0    0 -0.00000000000E+00 -0.00000000000E+00 -0.45593999997E+02  0.45594000000E+02  0.51100000000E-03 0. -1.
    9900012    2    1    2    0    0  0.22718559239E+02 -0.16731115657E+02  0.29276321549E+02  0.50528853815E+02  0.29999981657E+02 0.  0.
         12    1    1    2    0    0 -0.22718559239E+02  0.16731115657E+02 -0.29276321549E+02  0.40659146185E+02  0.00000000000E+00 0. -1.
         11    1    3    3    0    0 -0.49768968584E+01 -0.10023692564E+02  0.46209023929E+01  0.12107710524E+02  0.51100000000E-03 0. -1.
        -11    1    3    3    0    0  0.19722602812E+01 -0.21334832530E+01  0.47801338692E+01  0.55938574773E+01  0.51100000000E-03 0.  1.
        -12    1    3    3    0    0  0.25723195816E+02 -0.45739398400E+01  0.19875285287E+02  0.32827285814E+02  0.00000000000E+00 0.  1.
</event>
<event>
 7    1  0.6726285E-013  0.5052886E+02  0.7816164E-02  0.1300439E+00
        -11   -1    0    0    0    0  0.00000000000E+00  0.00000000000E+00  0.45593999997E+02  0.45594000000E+02  0.51100000000E-03 0.  1.
         11   -1    0    0    0    0 -0.00000000000E+00 -0.00000000000E+00 -0.45593999997E+02  0.45594000000E+02  0.51100000000E-03 0. -1.
    9900012    2    1    2    0    0 -0.31191203026E+02  0.12290032012E+02 -0.23004990727E+02  0.50528860420E+02  0.30000001733E+02 0.  0.
         12    1    1    2    0    0  0.31191203026E+02 -0.12290032012E+02  0.23004990727E+02  0.40659139580E+02  0.00000000000E+00 0. -1.
         11    1    3    3    0    0  0.30357783511E+01 -0.45791704814E+01 -0.23679472424E+01  0.59826354476E+01  0.51100000000E-03 0. -1.
        -11    1    3    3    0    0 -0.14555325567E+02  0.20545450923E+01 -0.96225302981E+01  0.17569056534E+02  0.51100000000E-03 0.  1.
        -12    1    3    3    0    0 -0.19671655810E+02  0.14814657401E+02 -0.11014513186E+02  0.26977168438E+02  0.00000000000E+00 0.  1.
</event>
<event>
 7    1  0.6726285E-013  0.5052886E+02  0.7816164E-02  0.1300439E+00
        -11   -1    0    0    0    0  0.00000000000E+00  0.00000000000E+00  0.45593999997E+02  0.45594000000E+02  0.51100000000E-03 0.  1.
         11   -1    0    0    0    0 -0.00000000000E+00 -0.00000000000E+00 -0.45593999997E+02  0.45594000000E+02  0.51100000000E-03 0. -1.
    9900012    2    1    2    0    0 -0.21111461452E+02 -0.69176611435E+01  0.34053166366E+02  0.50528856134E+02  0.29999988706E+02 0.  0.
         12    1    1    2    0    0  0.21111461452E+02  0.69176611435E+01 -0.34053166366E+02  0.40659143866E+02  0.00000000000E+00 0. -1.
         11    1    3    3    0    0 -0.12122149518E+02 -0.69113326709E+00  0.41981995754E+01  0.12847141864E+02  0.51100000000E-03 0. -1.
        -11    1    3    3    0    0 -0.15094797600E+02 -0.57132625195E+01  0.17000199767E+02  0.23441439281E+02  0.51100000000E-03 0.  1.
         12    1    3    3    0    0  0.61054856658E+01 -0.51326535694E+00  0.12854767024E+02  0.14240274989E+02  0.00000000000E+00 0. -1.
</event>
<event>
 7    1  0.1013822E-012  0.5052886E+02  0.7816164E-02  0.1300439E+00
        -11   -1    0    0    0    0  0.00000000000E+00  0.00000000000E+00  0.45593999997E+02  0.45594000000E+02  0.51100000000E-03 0. -1.
         11   -1    0    0    0    0 -0.00000000000E+00 -0.00000000000E+00 -0.45593999997E+02  0.45594000000E+02  0.51100000000E-03 0.  1.
    9900012    2    1    2    0    0  0.17837008277E+02 -0.23963190865E+02 -0.27582100371E+02  0.50528860294E+02  0.30000001351E+02 0.  0.
         12    1    1    2    0    0 -0.17837008277E+02  0.23963190865E+02  0.27582100371E+02  0.40659139706E+02  0.00000000000E+00 0. -1.
         11    1    3    3    0    0  0.61661811686E+00 -0.11314186763E+02 -0.46479566707E+01  0.12247225869E+02  0.51100000000E-03 0. -1.
        -11    1    3    3    0    0  0.51264658932E+01 -0.15994887689E+02 -0.18464673800E+02  0.24961195155E+02  0.51100000000E-03 0.  1.
         12    1    3    3    0    0  0.12093924267E+02  0.33458835880E+01 -0.44694699007E+01  0.13320439271E+02  0.00000000000E+00 0. -1.
</event>
<event>
 7    1  0.7801579E-013  0.5052884E+02  0.7816164E-02  0.1300439E+00
        -11   -1    0    0    0    0  0.00000000000E+00  0.00000000000E+00  0.45593999997E+02  0.45594000000E+02  0.51100000000E-03 0.  1.
         11   -1    0    0    0    0 -0.00000000000E+00 -0.00000000000E+00 -0.45593999997E+02  0.45594000000E+02  0.51100000000E-03 0. -1.
    9900012    2    1    2    0    0 -0.24060962244E+02 -0.23315324804E+02 -0.23035474313E+02  0.50528839266E+02  0.29999937432E+02 0.  0.
         12    1    1    2    0    0  0.24060962244E+02  0.23315324804E+02  0.23035474313E+02  0.40659160734E+02  0.00000000000E+00 0. -1.
         11    1    3    3    0    0 -0.12326042568E+01  0.34694332451E+01  0.13844924502E+01  0.39335861376E+01  0.51100000000E-03 0. -1.
        -11    1    3    3    0    0 -0.23929017536E+02 -0.16442677937E+02 -0.15605153575E+02  0.32961801473E+02  0.51100000000E-03 0.  1.
         12    1    3    3    0    0  0.11006595493E+01 -0.10342080112E+02 -0.88148131885E+01  0.13633451655E+02  0.00000000000E+00 0. -1.
</event>
<event>
 7    1  0.6726285E-013  0.5052886E+02  0.7816164E-02  0.1300439E+00
        -11   -1    0    0    0    0  0.00000000000E+00  0.00000000000E+00  0.45593999997E+02  0.45594000000E+02  0.51100000000E-03 0. -1.
         11   -1    0    0    0    0 -0.00000000000E+00 -0.00000000000E+00 -0.45593999997E+02  0.45594000000E+02  0.51100000000E-03 0.  1.
    9900012    2    1    2    0    0 -0.34019271508E+02  0.18885269248E+02 -0.11798355231E+02  0.50528863085E+02  0.30000009833E+02 0.  0.
         12    1    1    2    0    0  0.34019271508E+02 -0.18885269248E+02  0.11798355231E+02  0.40659136915E+02  0.00000000000E+00 0. -1.
         11    1    3    3    0    0 -0.36724988098E+01  0.13238598046E+02 -0.73156171405E+00  0.13758012521E+02  0.51100000000E-03 0.  1.
        -11    1    3    3    0    0 -0.19669618011E+01 -0.39662828849E+01 -0.40417292793E+01  0.59946571610E+01  0.51100000000E-03 0. -1.
        -12    1    3    3    0    0 -0.28379810897E+02  0.96129540869E+01 -0.70250642380E+01  0.30776193403E+02  0.00000000000E+00 0.  1.
</event>
<event>
 7    1  0.6726285E-013  0.5052888E+02  0.7816164E-02  0.1300439E+00
        -11   -1    0    0    0    0  0.00000000000E+00  0.00000000000E+00  0.45593999997E+02  0.45594000000E+02  0.51100000000E-03 0. -1.
         11   -1    0    0    0    0 -0.00000000000E+00 -0.00000000000E+00 -0.45593999997E+02  0.45594000000E+02  0.51100000000E-03 0.  1.
    9900012    2    1    2    0    0 -0.27627118325E+02 -0.29063281025E+02  0.67254912172E+01  0.50528877985E+02  0.30000055123E+02 0.  0.
         12    1    1    2    0    0  0.27627118325E+02  0.29063281025E+02 -0.67254912172E+01  0.40659122015E+02  0.00000000000E+00 0. -1.
         11    1    3    3    0    0 -0.61007729576E+00 -0.23494751403E+01  0.38642268747E+01  0.45633844175E+01  0.51100000000E-03 0. -1.
        -11    1    3    3    0    0 -0.11634001668E+02  0.28445367625E+01  0.39924808050E+01  0.12624630190E+02  0.51100000000E-03 0.  1.
        -12    1    3    3    0    0 -0.15383039362E+02 -0.29558342647E+02 -0.11312164624E+01  0.33340863378E+02  0.00000000000E+00 0.  1.
</event>
<event>
 7    1  0.6726285E-013  0.5052886E+02  0.7816164E-02  0.1300439E+00
        -11   -1    0    0    0    0  0.00000000000E+00  0.00000000000E+00  0.45593999997E+02  0.45594000000E+02  0.51100000000E-03 0. -1.
         11   -1    0    0    0    0 -0.00000000000E+00 -0.00000000000E+00 -0.45593999997E+02  0.45594000000E+02  0.51100000000E-03 0.  1.
    9900012    2    1    2    0    0 -0.13954536737E+02 -0.15054181546E+02 -0.35097121920E+02  0.50528862716E+02  0.30000008712E+02 0.  0.
         12    1    1    2    0    0  0.13954536737E+02  0.15054181546E+02  0.35097121920E+02  0.40659137284E+02  0.00000000000E+00 0. -1.
         11    1    3    3    0    0 -0.30648240674E+01 -0.12423536732E+02 -0.76990059499E+01  0.14933589802E+02  0.51100000000E-03 0. -1.
        -11    1    3    3    0    0 -0.31584949953E+01 -0.10311805716E+02 -0.83092401788E+01  0.13614437204E+02  0.51100000000E-03 0.  1.
        -12    1    3    3    0    0 -0.77312176747E+01  0.76811609023E+01 -0.19088875791E+02  0.21980835710E+02  0.00000000000E+00 0.  1.
</event>
<event>
 7    1  0.6726285E-013  0.5052886E+02  0.7816164E-02  0.1300439E+00
        -11   -1    0    0    0    0  0.00000000000E+00  0.00000000000E+00  0.45593999997E+02  0.45594000000E+02  0.51100000000E-03 0.  1.
         11   -1    0    0    0    0 -0.00000000000E+00 -0.00000000000E+00 -0.45593999997E+02  0.45594000000E+02  0.51100000000E-03 0. -1.
    9900012    2    1    2    0    0 -0.32369368364E+02  0.19373975954E+02  0.15167036253E+02  0.50528856609E+02  0.29999990150E+02 0.  0.
         12    1    1    2    0    0  0.32369368364E+02 -0.19373975954E+02 -0.15167036253E+02  0.40659143391E+02  0.00000000000E+00 0. -1.
         11    1    3    3    0    0 -0.23876874789E+02  0.20661840867E+02  0.10081821207E+02  0.33146039535E+02  0.51100000000E-03 0.  1.
        -11    1    3    3    0    0 -0.11571490016E+01  0.54512205478E+01  0.48991857215E+01  0.74200283199E+01  0.51100000000E-03 0. -1.
         12    1    3    3    0    0 -0.73353445734E+01 -0.67390854615E+01  0.18602932541E+00  0.99627887551E+01  0.00000000000E+00 0. -1.
</event>
<event>
 7    1  0.6726285E-013  0.5052887E+02  0.7816164E-02  0.1300439E+00
        -11   -1    0    0    0    0  0.00000000000E+00  0.00000000000E+00  0.45593999997E+02  0.45594000000E+02  0.51100000000E-03 0.  1.
         11   -1    0    0    0    0 -0.00000000000E+00 -0.00000000000E+00 -0.45593999997E+02  0.45594000000E+02  0.51100000000E-03 0. -1.
    9900012    2    1    2    0    0 -0.34159057549E+02  0.96238748884E+01  0.19841996774E+02  0.50528867981E+02  0.30000024716E+02 0.  0.
         12    1    1    2    0    0  0.34159057549E+02 -0.96238748884E+01 -0.19841996774E+02  0.40659132019E+02  0.00000000000E+00 0. -1.
         11    1    3    3    0    0  0.17544446668E+01 -0.83827042308E+00 -0.34842825267E+01  0.39901125771E+01  0.51100000000E-03 0. -1.
        -11    1    3    3    0    0 -0.20665817417E+01  0.14588763537E+01 -0.20762409584E+01  0.32725917999E+01  0.51100000000E-03 0.  1.
        -12    1    3    3    0    0 -0.33846920474E+02  0.90032689578E+01  0.25402520260E+02  0.43266163604E+02  0.00000000000E+00 0.  1.
</event>
<event>
 7    1  0.6726285E-013  0.5052887E+02  0.7816164E-02  0.1300439E+00
        -11   -1    0    0    0    0  0.00000000000E+00  0.00000000000E+00  0.45593999997E+02  0.45594000000E+02  0.51100000000E-03 0.  1.
         11   -1    0    0    0    0 -0.00000000000E+00 -0.00000000000E+00 -0.45593999997E+02  0.45594000000E+02  0.51100000000E-03 0. -1.
    9900012    2    1    2    0    0  0.14683559086E+02  0.18768342171E+02  0.32944003312E+02  0.50528869051E+02  0.30000027968E+02 0.  0.
         12    1    1    2    0    0 -0.14683559086E+02 -0.18768342171E+02 -0.32944003312E+02  0.40659130949E+02  0.00000000000E+00 0. -1.
         11    1    3    3    0    0  0.76467758036E+01  0.74422069565E+01 -0.91131583336E+00  0.10709347384E+02  0.51100000000E-03 0. -1.
        -11    1    3    3    0    0  0.19551931776E+01 -0.40716414281E+01  0.51404716083E+01  0.68429155261E+01  0.51100000000E-03 0.  1.
        -12    1    3    3    0    0  0.50815901045E+01  0.15397776643E+02  0.28714847537E+02  0.32976606142E+02  0.00000000000E+00 0.  1.
</event>
<event>
 7    1  0.6726285E-013  0.5052886E+02  0.7816164E-02  0.1300439E+00
        -11   -1    0    0    0    0  0.00000000000E+00  0.00000000000E+00  0.45593999997E+02  0.45594000000E+02  0.51100000000E-03 0. -1.
         11   -1    0    0    0    0 -0.00000000000E+00 -0.00000000000E+00 -0.45593999997E+02  0.45594000000E+02  0.51100000000E-03 0.  1.
    9900012    2    1    2    0    0  0.30665970919E+01  0.20972504638E+02 -0.34697483642E+02  0.50528864008E+02  0.30000012640E+02 0.  0.
         12    1    1    2    0    0 -0.30665970919E+01 -0.20972504638E+02  0.34697483642E+02  0.40659135992E+02  0.00000000000E+00 0. -1.
         11    1    3    3    0    0  0.52549736078E+01  0.45594945927E+01 -0.13015756425E+02  0.14758511244E+02  0.51100000000E-03 0.  1.
        -11    1    3    3    0    0 -0.12406246061E+02  0.58920799222E+01 -0.11544590516E+02  0.17941825927E+02  0.51100000000E-03 0. -1.
         12    1    3    3    0    0  0.10217869546E+02  0.10520930124E+02 -0.10137136701E+02  0.17828526838E+02  0.00000000000E+00 0. -1.
</event>
<event>
 7    1  0.6726285E-013  0.5052884E+02  0.7816164E-02  0.1300439E+00
        -11   -1    0    0    0    0  0.00000000000E+00  0.00000000000E+00  0.45593999997E+02  0.45594000000E+02  0.51100000000E-03 0. -1.
         11   -1    0    0    0    0 -0.00000000000E+00 -0.00000000000E+00 -0.45593999997E+02  0.45594000000E+02  0.51100000000E-03 0.  1.
    9900012    2    1    2    0    0 -0.17108604538E+02 -0.28448628259E+02 -0.23476347057E+02  0.50528835348E+02  0.29999925524E+02 0.  0.
         12    1    1    2    0    0  0.17108604538E+02  0.28448628259E+02  0.23476347057E+02  0.40659164652E+02  0.00000000000E+00 0. -1.
         11    1    3    3    0    0 -0.28059416311E+01 -0.20428808877E+01  0.32277065954E+01  0.47397005058E+01  0.51100000000E-03 0. -1.
        -11    1    3    3    0    0 -0.42187714343E+01  0.75599161932E-02  0.26911364165E+01  0.50040288809E+01  0.51100000000E-03 0.  1.
        -12    1    3    3    0    0 -0.10083891473E+02 -0.26413307287E+02 -0.29395190069E+02  0.40785105961E+02  0.00000000000E+00 0.  1.
</event>
<event>
 7    1  0.1556403E-012  0.5052887E+02  0.7816164E-02  0.1300439E+00
        -11   -1    0    0    0    0  0.00000000000E+00  0.00000000000E+00  0.45593999997E+02  0.45594000000E+02  0.51100000000E-03 0.  1.
         11   -1    0    0    0    0 -0.00000000000E+00 -0.00000000000E+00 -0.45593999997E+02  0.45594000000E+02  0.51100000000E-03 0. -1.
    9900012    2    1    2    0    0 -0.60414920614E+01 -0.32317222316E+02  0.23922012989E+02  0.50528865848E+02  0.30000018231E+02 0.  0.
         12    1    1    2    0    0  0.60414920614E+01  0.32317222316E+02 -0.23922012989E+02  0.40659134152E+02  0.00000000000E+00 0. -1.
         11    1    3    3    0    0 -0.77463283785E+01 -0.45655981319E+01  0.88816054042E+01  0.12638560221E+02  0.51100000000E-03 0. -1.
        -11    1    3    3    0    0 -0.22810422736E+01 -0.29606238138E+02  0.15453854974E+02  0.33474678853E+02  0.51100000000E-03 0.  1.
         12    1    3    3    0    0  0.39858785907E+01  0.18546139537E+01 -0.41344738916E+00  0.44156267732E+01  0.00000000000E+00 0. -1.
</event>
<event>
 7    1  0.6726285E-013  0.5052887E+02  0.7816164E-02  0.1300439E+00
        -11   -1    0    0    0    0  0.00000000000E+00  0.00000000000E+00  0.45593999997E+02  0.45594000000E+02  0.51100000000E-03 0.  1.
         11   -1    0    0    0    0 -0.00000000000E+00 -0.00000000000E+00 -0.45593999997E+02  0.45594000000E+02  0.51100000000E-03 0. -1.
    9900012    2    1    2    0    0  0.23743490438E+02  0.12588097608E+02  0.30511495485E+02  0.50528869460E+02  0.30000029211E+02 0.  0.
         12    1    1    2    0    0 -0.23743490438E+02 -0.12588097608E+02 -0.30511495485E+02  0.40659130540E+02  0.00000000000E+00 0. -1.
         11    1    3    3    0    0 -0.27062857741E+01 -0.24099330513E+01  0.19046365032E+01  0.40938246755E+01  0.51100000000E-03 0. -1.
        -11    1    3    3    0    0  0.22750318542E+02  0.14277617317E+02  0.31707414268E+02  0.41554632351E+02  0.51100000000E-03 0.  1.
         12    1    3    3    0    0  0.36994576704E+01  0.72041334208E+00 -0.31005552865E+01  0.48804124337E+01  0.00000000000E+00 0. -1.
</event>
<event>
 7    1  0.6726285E-013  0.5052885E+02  0.7816164E-02  0.1300439E+00
        -11   -1    0    0    0    0  0.00000000000E+00  0.00000000000E+00  0.45593999997E+02  0.45594000000E+02  0.51100000000E-03 0. -1.
         11   -1    0    0    0    0 -0.00000000000E+00 -0.00000000000E+00 -0.45593999997E+02  0.45594000000E+02  0.51100000000E-03 0.  1.
    9900012    2    1    2    0    0  0.36416788408E+02  0.55264600813E+01 -0.17217492480E+02  0.50528852367E+02  0.29999977254E+02 0.  0.
         12    1    1    2    0    0 -0.36416788408E+02 -0.55264600813E+01  0.17217492480E+02  0.40659147633E+02  0.00000000000E+00 0. -1.
         11    1    3    3    0    0  0.74528048054E+01  0.12432925323E+02 -0.73534403279E+01  0.16254076919E+02  0.51100000000E-03 0. -1.
        -11    1    3    3    0    0  0.12311957784E+02 -0.98156999605E+01 -0.29948479732E+01  0.16028143524E+02  0.51100000000E-03 0.  1.
         12    1    3    3    0    0  0.16652025819E+02  0.29092347185E+01 -0.68692041784E+01  0.18246631924E+02  0.00000000000E+00 0. -1.
</event>
<event>
 7    1  0.6726285E-013  0.5052893E+02  0.7816164E-02  0.1300439E+00
        -11   -1    0    0    0    0  0.00000000000E+00  0.00000000000E+00  0.45593999997E+02  0.45594000000E+02  0.51100000000E-03 0.  1.
         11   -1    0    0    0    0 -0.00000000000E+00 -0.00000000000E+00 -0.45593999997E+02  0.45594000000E+02  0.51100000000E-03 0. -1.
    9900012    2    1    2    0    0  0.10360439010E+02 -0.26531039986E+02  0.29015941827E+02  0.50528933861E+02  0.30000224963E+02 0.  0.
         12    1    1    2    0    0 -0.10360439010E+02  0.26531039986E+02 -0.29015941827E+02  0.40659066139E+02  0.00000000000E+00 0. -1.
         11    1    3    3    0    0  0.91654438787E+01 -0.65925003053E+01  0.36677690397E+01  0.11870928850E+02  0.51100000000E-03 0. -1.
        -11    1    3    3    0    0  0.92966768336E+01 -0.33290233867E+01  0.46637044838E+01  0.10920656419E+02  0.51100000000E-03 0.  1.
        -12    1    3    3    0    0 -0.81016817023E+01 -0.16609516294E+02  0.20684468303E+02  0.27737348592E+02  0.00000000000E+00 0.  1.
</event>
<event>
 7    1  0.6726285E-013  0.5052886E+02  0.7816164E-02  0.1300439E+00
        -11   -1    0    0    0    0  0.00000000000E+00  0.00000000000E+00  0.45593999997E+02  0.45594000000E+02  0.51100000000E-03 0.  1.
         11   -1    0    0    0    0 -0.00000000000E+00 -0.00000000000E+00 -0.45593999997E+02  0.45594000000E+02  0.51100000000E-03 0. -1.
    9900012    2    1    2    0    0  0.27242030470E+02 -0.30156525066E+02  0.12734101461E+01  0.50528858327E+02  0.29999995371E+02 0.  0.
         12    1    1    2    0    0 -0.27242030470E+02  0.30156525066E+02 -0.12734101461E+01  0.40659141673E+02  0.00000000000E+00 0. -1.
         11    1    3    3    0    0  0.52462168929E+01 -0.10213995885E+02 -0.50692447676E+01  0.12551722846E+02  0.51100000000E-03 0. -1.
        -11    1    3    3    0    0  0.72956623637E+01 -0.50810515470E+00 -0.70613608940E+01  0.10166006006E+02  0.51100000000E-03 0.  1.
        -12    1    3    3    0    0  0.14700151214E+02 -0.19434424026E+02  0.13404015808E+02  0.27811129476E+02  0.00000000000E+00 0.  1.
</event>
<event>
 7    1  0.6726285E-013  0.5052885E+02  0.7816164E-02  0.1300439E+00
        -11   -1    0    0    0    0  0.00000000000E+00  0.00000000000E+00  0.45593999997E+02  0.45594000000E+02  0.51100000000E-03 0. -1.
         11   -1    0    0    0    0 -0.00000000000E+00 -0.00000000000E+00 -0.45593999997E+02  0.45594000000E+02  0.51100000000E-03 0.  1.
    9900012    2    1    2    0    0  0.35588473204E+01 -0.39418264088E+02 -0.93113714253E+01  0.50528848807E+02  0.29999966433E+02 0.  0.
         12    1    1    2    0    0 -0.35588473204E+01  0.39418264088E+02  0.93113714253E+01  0.40659151193E+02  0.00000000000E+00 0. -1.
         11    1    3    3    0    0  0.93117175768E+01 -0.98796303574E+01 -0.19977636476E+01  0.13722472083E+02  0.51100000000E-03 0. -1.
        -11    1    3    3    0    0  0.51495012545E+01 -0.13890936707E+01 -0.34999240189E+01  0.63793740128E+01  0.51100000000E-03 0.  1.
        -12    1    3    3    0    0 -0.10902371511E+02 -0.28149540060E+02 -0.38136837588E+01  0.30427002710E+02  0.00000000000E+00 0.  1.
</event>
<event>
 7    1  0.6726285E-013  0.5052886E+02  0.7816164E-02  0.1300439E+00
        -11   -1    0    0    0    0  0.00000000000E+00  0.00000000000E+00  0.45593999997E+02  0.45594000000E+02  0.51100000000E-03 0.  1.
         11   -1    0    0    0    0 -0.00000000000E+00 -0.00000000000E+00 -0.45593999997E+02  0.45594000000E+02  0.51100000000E-03 0. -1.
    9900012    2    1    2    0    0 -0.59988407500E+01  0.98598628749E+01  0.38986701363E+02  0.50528857493E+02  0.29999992836E+02 0.  0.
         12    1    1    2    0    0  0.59988407500E+01 -0.98598628749E+01 -0.38986701363E+02  0.40659142507E+02  0.00000000000E+00 0. -1.
         11    1    3    3    0    0 -0.83372883923E+01  0.19230600048E+01  0.69287125385E+01  0.11009795421E+02  0.51100000000E-03 0.  1.
        -11    1    3    3    0    0 -0.64705928804E+01  0.10443344140E+02  0.10744370958E+02  0.16320953299E+02  0.51100000000E-03 0. -1.
        -12    1    3    3    0    0  0.88090405227E+01 -0.25065412700E+01  0.21313617866E+02  0.23198108773E+02  0.00000000000E+00 0.  1.
</event>
<event>
 7    1  0.6726285E-013  0.5052888E+02  0.7816164E-02  0.1300439E+00
        -11   -1    0    0    0    0  0.00000000000E+00  0.00000000000E+00  0.45593999997E+02  0.45594000000E+02  0.51100000000E-03 0.  1.
         11   -1    0    0    0    0 -0.00000000000E+00 -0.00000000000E+00 -0.45593999997E+02  0.45594000000E+02  0.51100000000E-03 0. -1.
    9900012    2    1    2    0    0  0.34169942215E+02  0.12115154634E+02  0.18406580379E+02  0.50528878957E+02  0.30000058077E+02 0.  0.
         12    1    1    2    0    0 -0.34169942215E+02 -0.12115154634E+02 -0.18406580379E+02  0.40659121043E+02  0.00000000000E+00 0. -1.
         11    1    3    3    0    0  0.18478138593E+02 -0.51280343627E+00 -0.59866571985E+00  0.18494944556E+02  0.51100000000E-03 0. -1.
        -11    1    3    3    0    0  0.14451905160E+02  0.53260322454E+01  0.50042742707E+01  0.16194657868E+02  0.51100000000E-03 0.  1.
        -12    1    3    3    0    0  0.12398984621E+01  0.73019258246E+01  0.14000971829E+02  0.15839276533E+02  0.00000000000E+00 0.  1.
</event>
<event>
 7    1  0.6726285E-013  0.5052886E+02  0.7816164E-02  0.1300439E+00
        -11   -1    0    0    0    0  0.00000000000E+00  0.00000000000E+00  0.45593999997E+02  0.45594000000E+02  0.51100000000E-03 0.  1.
         11   -1    0    0    0    0 -0.00000000000E+00 -0.00000000000E+00 -0.45593999997E+02  0.45594000000E+02  0.51100000000E-03 0. -1.
    9900012    2    1    2    0    0  0.30302566752E+02  0.22565704604E+02  0.15023629606E+02  0.50528855609E+02  0.29999987109E+02 0.  0.
         12    1    1    2    0    0 -0.30302566752E+02 -0.22565704604E+02 -0.15023629606E+02  0.40659144391E+02  0.00000000000E+00 0. -1.
         11    1    3    3    0    0  0.12347013199E+02  0.21416771945E+02  0.11909519550E+02  0.27440180605E+02  0.51100000000E-03 0. -1.
        -11    1    3    3    0    0  0.87868334316E+01  0.75488820997E+01  0.27252649835E+01  0.11900467730E+02  0.51100000000E-03 0.  1.
         12    1    3    3    0    0  0.91687201217E+01 -0.63999494401E+01  0.38884507237E+00  0.11188207274E+02  0.00000000000E+00 0. -1.
</event>
<event>
 7    1  0.6726285E-013  0.5052886E+02  0.7816164E-02  0.1300439E+00
        -11   -1    0    0    0    0  0.00000000000E+00  0.00000000000E+00  0.45593999997E+02  0.45594000000E+02  0.51100000000E-03 0. -1.
         11   -1    0    0    0    0 -0.00000000000E+00 -0.00000000000E+00 -0.45593999997E+02  0.45594000000E+02  0.51100000000E-03 0.  1.
    9900012    2    1    2    0    0  0.74433721575E+00  0.24383731205E+02 -0.32527607473E+02  0.50528860397E+02  0.30000001662E+02 0.  0.
         12    1    1    2    0    0 -0.74433721575E+00 -0.24383731205E+02  0.32527607473E+02  0.40659139603E+02  0.00000000000E+00 0. -1.
         11    1    3    3    0    0 -0.49877400419E+01  0.13572302717E+02 -0.88578272045E+01  0.16957182986E+02  0.51100000000E-03 0. -1.
        -11    1    3    3    0    0 -0.36058692051E+01  0.12020585454E+02 -0.68547106350E+01  0.14299784108E+02  0.51100000000E-03 0.  1.
         12    1    3    3    0    0  0.93379464628E+01 -0.12091569659E+01 -0.16815069633E+02  0.19271893303E+02  0.00000000000E+00 0. -1.
</event>
<event>
 7    1  0.6726285E-013  0.5052886E+02  0.7816164E-02  0.1300439E+00
        -11   -1    0    0    0    0  0.00000000000E+00  0.00000000000E+00  0.45593999997E+02  0.45594000000E+02  0.51100000000E-03 0.  1.
         11   -1    0    0    0    0 -0.00000000000E+00 -0.00000000000E+00 -0.45593999997E+02  0.45594000000E+02  0.51100000000E-03 0. -1.
    9900012    2    1    2    0    0  0.17530485362E+02  0.36405562182E+02  0.45258334006E+01  0.50528855361E+02  0.29999986355E+02 0.  0.
         12    1    1    2    0    0 -0.17530485362E+02 -0.36405562182E+02 -0.45258334006E+01  0.40659144639E+02  0.00000000000E+00 0. -1.
         11    1    3    3    0    0  0.68919957780E+01  0.72162557579E+01  0.62491883739E+00  0.99982236813E+01  0.51100000000E-03 0. -1.
        -11    1    3    3    0    0  0.16685016403E+02  0.10467829131E+02 -0.24700186459E+01  0.19851101014E+02  0.51100000000E-03 0.  1.
        -12    1    3    3    0    0 -0.60465268186E+01  0.18721477293E+02  0.63709332091E+01  0.20679530666E+02  0.00000000000E+00 0.  1.
</event>
<event>
 7    1  0.6726285E-013  0.5052880E+02  0.7816164E-02  0.1300439E+00
        -11   -1    0    0    0    0  0.00000000000E+00  0.00000000000E+00  0.45593999997E+02  0.45594000000E+02  0.51100000000E-03 0. -1.
         11   -1    0    0    0    0 -0.00000000000E+00 -0.00000000000E+00 -0.45593999997E+02  0.45594000000E+02  0.51100000000E-03 0.  1.
    9900012    2    1    2    0    0  0.21343470941E+02  0.33401837864E+02 -0.90522922194E+01  0.50528800317E+02  0.29999819042E+02 0.  0.
         12    1    1    2    0    0 -0.21343470941E+02 -0.33401837864E+02  0.90522922194E+01  0.40659199683E+02  0.00000000000E+00 0. -1.
         11    1    3    3    0    0  0.76313880662E+01  0.43347432503E+01  0.73476409401E+00  0.88072675330E+01  0.51100000000E-03 0. -1.
        -11    1    3    3    0    0  0.68568734079E+01 -0.18388086794E+01 -0.69545907416E+01  0.99380210775E+01  0.51100000000E-03 0.  1.
         12    1    3    3    0    0  0.68552094664E+01  0.30905903293E+02 -0.28324655717E+01  0.31783511706E+02  0.00000000000E+00 0. -1.
</event>
<event>
 7    1  0.6726285E-013  0.5052886E+02  0.7816164E-02  0.1300439E+00
        -11   -1    0    0    0    0  0.00000000000E+00  0.00000000000E+00  0.45593999997E+02  0.45594000000E+02  0.51100000000E-03 0.  1.
         11   -1    0    0    0    0 -0.00000000000E+00 -0.00000000000E+00 -0.45593999997E+02  0.45594000000E+02  0.51100000000E-03 0. -1.
    9900012    2    1    2    0    0 -0.14487732781E+02  0.23694091295E+02  0.29696154852E+02  0.50528856177E+02  0.29999988835E+02 0.  0.
         12    1    1    2    0    0  0.14487732781E+02 -0.23694091295E+02 -0.29696154852E+02  0.40659143823E+02  0.00000000000E+00 0. -1.
         11    1    3    3    0    0 -0.28120129945E+01 -0.34960903392E+01  0.39218270425E+01  0.59590932493E+01  0.51100000000E-03 0.  1.
        -11    1    3    3    0    0 -0.12631409296E+02  0.53556169791E+01  0.55744462258E+01  0.14809104801E+02  0.51100000000E-03 0. -1.
        -12    1    3    3    0    0  0.95568950901E+00  0.21834564655E+02  0.20199881584E+02  0.29760658127E+02  0.00000000000E+00 0.  1.
</event>
<event>
 7    1  0.6726285E-013  0.5052886E+02  0.7816164E-02  0.1300439E+00
        -11   -1    0    0    0    0  0.00000000000E+00  0.00000000000E+00  0.45593999997E+02  0.45594000000E+02  0.51100000000E-03 0. -1.
         11   -1    0    0    0    0 -0.00000000000E+00 -0.00000000000E+00 -0.45593999997E+02  0.45594000000E+02  0.51100000000E-03 0.  1.
    9900012    2    1    2    0    0 -0.10504577291E+02 -0.67808797585E+01 -0.38689009763E+02  0.50528856492E+02  0.29999989792E+02 0.  0.
         12    1    1    2    0    0  0.10504577291E+02  0.67808797585E+01  0.38689009763E+02  0.40659143508E+02  0.00000000000E+00 0. -1.
         11    1    3    3    0    0 -0.53465185306E+01 -0.37507182081E+01 -0.18202052352E+01  0.67798447500E+01  0.51100000000E-03 0. -1.
        -11    1    3    3    0    0 -0.91382579312E+01 -0.92292520145E+01 -0.32922415130E+02  0.35391697741E+02  0.51100000000E-03 0.  1.
         12    1    3    3    0    0  0.39801991705E+01  0.61990904641E+01 -0.39463893980E+01  0.83573140003E+01  0.00000000000E+00 0. -1.
</event>
<event>
 7    1  0.6726285E-013  0.5052885E+02  0.7816164E-02  0.1300439E+00
        -11   -1    0    0    0    0  0.00000000000E+00  0.00000000000E+00  0.45593999997E+02  0.45594000000E+02  0.51100000000E-03 0.  1.
         11   -1    0    0    0    0 -0.00000000000E+00 -0.00000000000E+00 -0.45593999997E+02  0.45594000000E+02  0.51100000000E-03 0. -1.
    9900012    2    1    2    0    0 -0.11408163655E+02 -0.24011013437E+02  0.30765102396E+02  0.50528849865E+02  0.29999969651E+02 0.  0.
         12    1    1    2    0    0  0.11408163655E+02  0.24011013437E+02 -0.30765102396E+02  0.40659150135E+02  0.00000000000E+00 0. -1.
         11    1    3    3    0    0 -0.66087715019E+00  0.10758976567E+01  0.35370677911E+00  0.13112677537E+01  0.51100000000E-03 0. -1.
        -11    1    3    3    0    0  0.66858925974E+01 -0.14103474882E+02  0.21972405354E+02  0.26951730202E+02  0.51100000000E-03 0.  1.
         12    1    3    3    0    0 -0.17433179102E+02 -0.10983436212E+02  0.84389902622E+01  0.22265851910E+02  0.00000000000E+00 0. -1.
</event>
<event>
 7    1  0.6726285E-013  0.5052888E+02  0.7816164E-02  0.1300439E+00
        -11   -1    0    0    0    0  0.00000000000E+00  0.00000000000E+00  0.45593999997E+02  0.45594000000E+02  0.51100000000E-03 0.  1.
         11   -1    0    0    0    0 -0.00000000000E+00 -0.00000000000E+00 -0.45593999997E+02  0.45594000000E+02  0.51100000000E-03 0. -1.
    9900012    2    1    2    0    0  0.21088901003E+01  0.38399284876E+02 -0.13198934989E+02  0.50528875792E+02  0.30000048459E+02 0.  0.
         12    1    1    2    0    0 -0.21088901003E+01 -0.38399284876E+02  0.13198934989E+02  0.40659124208E+02  0.00000000000E+00 0. -1.
         11    1    3    3    0    0  0.23128062684E+01  0.22902512183E+01 -0.72814566532E+01  0.79758344223E+01  0.51100000000E-03 0. -1.
        -11    1    3    3    0    0  0.64412119684E-01  0.27450671976E+02 -0.13903579019E+02  0.30770977408E+02  0.51100000000E-03 0.  1.
         12    1    3    3    0    0 -0.26832828777E+00  0.86583616824E+01  0.79861006829E+01  0.11782063962E+02  0.00000000000E+00 0. -1.
</event>
<event>
 7    1  0.6726285E-013  0.5052885E+02  0.7816164E-02  0.1300439E+00
        -11   -1    0    0    0    0  0.00000000000E+00  0.00000000000E+00  0.45593999997E+02  0.45594000000E+02  0.51100000000E-03 0.  1.
         11   -1    0    0    0    0 -0.00000000000E+00 -0.00000000000E+00 -0.45593999997E+02  0.45594000000E+02  0.51100000000E-03 0. -1.
    9900012    2    1    2    0    0 -0.81380057410E+01 -0.28284286751E+02  0.28052419756E+02  0.50528852584E+02  0.29999977913E+02 0.  0.
         12    1    1    2    0    0  0.81380057410E+01  0.28284286751E+02 -0.28052419756E+02  0.40659147416E+02  0.00000000000E+00 0. -1.
         11    1    3    3    0    0  0.31279977839E+00 -0.68687632394E+00 -0.89511815994E+00  0.11708456632E+01  0.51100000000E-03 0. -1.
        -11    1    3    3    0    0  0.92320726607E+00 -0.66810432785E+01 -0.50008952898E+01  0.83962851849E+01  0.51100000000E-03 0.  1.
        -12    1    3    3    0    0 -0.93740127855E+01 -0.20916367149E+02  0.33948433206E+02  0.40961721735E+02  0.00000000000E+00 0.  1.
</event>
<event>
 7    1  0.6726285E-013  0.5052886E+02  0.7816164E-02  0.1300439E+00
        -11   -1    0    0    0    0  0.00000000000E+00  0.00000000000E+00  0.45593999997E+02  0.45594000000E+02  0.51100000000E-03 0.  1.
         11   -1    0    0    0    0 -0.00000000000E+00 -0.00000000000E+00 -0.45593999997E+02  0.45594000000E+02  0.51100000000E-03 0. -1.
    9900012    2    1    2    0    0  0.12421766788E+02  0.21743535639E+02  0.32032549078E+02  0.50528857944E+02  0.29999994208E+02 0.  0.
         12    1    1    2    0    0 -0.12421766788E+02 -0.21743535639E+02 -0.32032549078E+02  0.40659142056E+02  0.00000000000E+00 0. -1.
         11    1    3    3    0    0  0.15614813959E+01  0.94336252134E+01 -0.12403293108E+01  0.96420913643E+01  0.51100000000E-03 0. -1.
        -11    1    3    3    0    0  0.73678639245E+01  0.16639008856E+02  0.25743098458E+02  0.31525373162E+02  0.51100000000E-03 0.  1.
        -12    1    3    3    0    0  0.34924214679E+01 -0.43290984295E+01  0.75297799312E+01  0.93613934184E+01  0.00000000000E+00 0.  1.
</event>
<event>
 7    1  0.6726285E-013  0.5052886E+02  0.7816164E-02  0.1300439E+00
        -11   -1    0    0    0    0  0.00000000000E+00  0.00000000000E+00  0.45593999997E+02  0.45594000000E+02  0.51100000000E-03 0.  1.
         11   -1    0    0    0    0 -0.00000000000E+00 -0.00000000000E+00 -0.45593999997E+02  0.45594000000E+02  0.51100000000E-03 0. -1.
    9900012    2    1    2    0    0  0.93534421904E+01 -0.28583068696E+02  0.27362144342E+02  0.50528860316E+02  0.30000001416E+02 0.  0.
         12    1    1    2    0    0 -0.93534421904E+01  0.28583068696E+02 -0.27362144342E+02  0.40659139684E+02  0.00000000000E+00 0. -1.
         11    1    3    3    0    0 -0.66601277153E+01 -0.14032425618E+02  0.27911474613E+01  0.15781532699E+02  0.51100000000E-03 0.  1.
        -11    1    3    3    0    0 -0.73513199467E+00 -0.41777148040E+01  0.17224804777E+01  0.45782812594E+01  0.51100000000E-03 0. -1.
         12    1    3    3    0    0  0.16748701900E+02 -0.10372928274E+02  0.22848516403E+02  0.30169046358E+02  0.00000000000E+00 0. -1.
</event>
<event>
 7    1  0.6726285E-013  0.5052886E+02  0.7816164E-02  0.1300439E+00
        -11   -1    0    0    0    0  0.00000000000E+00  0.00000000000E+00  0.45593999997E+02  0.45594000000E+02  0.51100000000E-03 0.  1.
         11   -1    0    0    0    0 -0.00000000000E+00 -0.00000000000E+00 -0.45593999997E+02  0.45594000000E+02  0.51100000000E-03 0. -1.
    9900012    2    1    2    0    0  0.18761427432E+02 -0.35791632503E+02  0.44870787473E+01  0.50528855983E+02  0.29999988247E+02 0.  0.
         12    1    1    2    0    0 -0.18761427432E+02  0.35791632503E+02 -0.44870787473E+01  0.40659144017E+02  0.00000000000E+00 0. -1.
         11    1    3    3    0    0  0.15212048234E+02 -0.21671851469E+02  0.11800424748E+02  0.28988369772E+02  0.51100000000E-03 0. -1.
        -11    1    3    3    0    0  0.30603585532E+01 -0.10551170397E+02  0.23439728476E+01  0.11233307624E+02  0.51100000000E-03 0.  1.
         12    1    3    3    0    0  0.48902064471E+00 -0.35686106373E+01 -0.96573188486E+01  0.10307178587E+02  0.00000000000E+00 0. -1.
</event>
<event>
 7    1  0.6726285E-013  0.5052885E+02  0.7816164E-02  0.1300439E+00
        -11   -1    0    0    0    0  0.00000000000E+00  0.00000000000E+00  0.45593999997E+02  0.45594000000E+02  0.51100000000E-03 0.  1.
         11   -1    0    0    0    0 -0.00000000000E+00 -0.00000000000E+00 -0.45593999997E+02  0.45594000000E+02  0.51100000000E-03 0. -1.
    9900012    2    1    2    0    0  0.46339194605E+01  0.92323918086E+01  0.39325004001E+02  0.50528853332E+02  0.29999980188E+02 0.  0.
         12    1    1    2    0    0 -0.46339194605E+01 -0.92323918086E+01 -0.39325004001E+02  0.40659146668E+02  0.00000000000E+00 0. -1.
         11    1    3    3    0    0 -0.80077232679E+01  0.52873086818E+00  0.52846113695E+01  0.96088660025E+01  0.51100000000E-03 0. -1.
        -11    1    3    3    0    0  0.86363705313E+01  0.82308606465E+01  0.75374834732E+01  0.14111967273E+02  0.51100000000E-03 0.  1.
        -12    1    3    3    0    0  0.40052721972E+01  0.47280029400E+00  0.26502909159E+02  0.26808020057E+02  0.00000000000E+00 0.  1.
</event>
<event>
 7    1  0.6726285E-013  0.5052886E+02  0.7816164E-02  0.1300439E+00
        -11   -1    0    0    0    0  0.00000000000E+00  0.00000000000E+00  0.45593999997E+02  0.45594000000E+02  0.51100000000E-03 0. -1.
         11   -1    0    0    0    0 -0.00000000000E+00 -0.00000000000E+00 -0.45593999997E+02  0.45594000000E+02  0.51100000000E-03 0.  1.
    9900012    2    1    2    0    0 -0.34845540810E+02 -0.20926406785E+02 -0.10195968545E+01  0.50528858432E+02  0.29999995691E+02 0.  0.
         12    1    1    2    0    0  0.34845540810E+02  0.20926406785E+02  0.10195968545E+01  0.40659141568E+02  0.00000000000E+00 0. -1.
         11    1    3    3    0    0 -0.13645089992E+02 -0.14603313913E+02 -0.33351871796E+01  0.20262495698E+02  0.51100000000E-03 0. -1.
        -11    1    3    3    0    0 -0.44921862620E+01 -0.10159550961E+02 -0.42714900120E+01  0.11901337754E+02  0.51100000000E-03 0.  1.
         12    1    3    3    0    0 -0.16708264557E+02  0.38364580896E+01  0.65870803371E+01  0.18365024981E+02  0.00000000000E+00 0. -1.
</event>
<event>
 7    1  0.6726285E-013  0.5052886E+02  0.7816164E-02  0.1300439E+00
        -11   -1    0    0    0    0  0.00000000000E+00  0.00000000000E+00  0.45593999997E+02  0.45594000000E+02  0.51100000000E-03 0.  1.
         11   -1    0    0    0    0 -0.00000000000E+00 -0.00000000000E+00 -0.45593999997E+02  0.45594000000E+02  0.51100000000E-03 0. -1.
    9900012    2    1    2    0    0  0.38845160992E+02 -0.83666518538E+01 -0.86149833331E+01  0.50528864082E+02  0.30000012864E+02 0.  0.
         12    1    1    2    0    0 -0.38845160992E+02  0.83666518538E+01  0.86149833331E+01  0.40659135918E+02  0.00000000000E+00 0. -1.
         11    1    3    3    0    0  0.11494312153E+01 -0.28002910123E+01 -0.38468647373E+00  0.30513613055E+01  0.51100000000E-03 0. -1.
        -11    1    3    3    0    0  0.22333025194E+02 -0.16330202067E+02 -0.76733031407E+01  0.28710957756E+02  0.51100000000E-03 0.  1.
         12    1    3    3    0    0  0.15362704583E+02  0.10763841226E+02 -0.55699371866E+00  0.18766545021E+02  0.00000000000E+00 0. -1.
</event>
<event>
 7    1  0.6726285E-013  0.5052886E+02  0.7816164E-02  0.1300439E+00
        -11   -1    0    0    0    0  0.00000000000E+00  0.00000000000E+00  0.45593999997E+02  0.45594000000E+02  0.51100000000E-03 0.  1.
         11   -1    0    0    0    0 -0.00000000000E+00 -0.00000000000E+00 -0.45593999997E+02  0.45594000000E+02  0.51100000000E-03 0. -1.
    9900012    2    1    2    0    0  0.38874862947E+02 -0.54058130571E+01  0.10615456552E+02  0.50528859554E+02  0.29999999102E+02 0.  0.
         12    1    1    2    0    0 -0.38874862947E+02  0.54058130571E+01 -0.10615456552E+02  0.40659140446E+02  0.00000000000E+00 0. -1.
         11    1    3    3    0    0  0.30149888561E+01 -0.30056617934E+01  0.30025691967E+01  0.52095664561E+01  0.51100000000E-03 0. -1.
        -11    1    3    3    0    0  0.19485296162E+02  0.82162179172E+01  0.13313628424E+02  0.24988711560E+02  0.51100000000E-03 0.  1.
         12    1    3    3    0    0  0.16374577929E+02 -0.10616369181E+02 -0.57007410685E+01  0.20330581538E+02  0.00000000000E+00 0. -1.
</event>
<event>
 7    1  0.6726285E-013  0.5052887E+02  0.7816164E-02  0.1300439E+00
        -11   -1    0    0    0    0  0.00000000000E+00  0.00000000000E+00  0.45593999997E+02  0.45594000000E+02  0.51100000000E-03 0.  1.
         11   -1    0    0    0    0 -0.00000000000E+00 -0.00000000000E+00 -0.45593999997E+02  0.45594000000E+02  0.51100000000E-03 0. -1.
    9900012    2    1    2    0    0  0.10793397982E+02  0.86406525600E+01  0.38236196627E+02  0.50528867580E+02  0.30000023497E+02 0.  0.
         12    1    1    2    0    0 -0.10793397982E+02 -0.86406525600E+01 -0.38236196627E+02  0.40659132420E+02  0.00000000000E+00 0. -1.
         11    1    3    3    0    0  0.55151608852E+01  0.60917493838E+01  0.66540890312E+01  0.10573708490E+02  0.51100000000E-03 0. -1.
        -11    1    3    3    0    0  0.12765557229E+02  0.73331650064E+01  0.14305498057E+02  0.20527592048E+02  0.51100000000E-03 0.  1.
        -12    1    3    3    0    0 -0.74873201319E+01 -0.47842618302E+01  0.17276609538E+02  0.19427567042E+02  0.00000000000E+00 0.  1.
</event>
<event>
 7    1  0.6726285E-013  0.5052885E+02  0.7816164E-02  0.1300439E+00
        -11   -1    0    0    0    0  0.00000000000E+00  0.00000000000E+00  0.45593999997E+02  0.45594000000E+02  0.51100000000E-03 0.  1.
         11   -1    0    0    0    0 -0.00000000000E+00 -0.00000000000E+00 -0.45593999997E+02  0.45594000000E+02  0.51100000000E-03 0. -1.
    9900012    2    1    2    0    0 -0.39042772412E+02 -0.10942514554E+02  0.30149433400E+01  0.50528848684E+02  0.29999966060E+02 0.  0.
         12    1    1    2    0    0  0.39042772412E+02  0.10942514554E+02 -0.30149433400E+01  0.40659151316E+02  0.00000000000E+00 0. -1.
         11    1    3    3    0    0 -0.14157355587E+02  0.48762256228E+01 -0.16615697274E+01  0.15065493944E+02  0.51100000000E-03 0. -1.
        -11    1    3    3    0    0 -0.10756577153E+02 -0.96516047672E+01 -0.70636744730E+01  0.16085798828E+02  0.51100000000E-03 0.  1.
         12    1    3    3    0    0 -0.14128839672E+02 -0.61671354099E+01  0.11740187540E+02  0.19377555912E+02  0.00000000000E+00 0. -1.
</event>
<event>
 7    1  0.6726285E-013  0.5052889E+02  0.7816164E-02  0.1300439E+00
        -11   -1    0    0    0    0  0.00000000000E+00  0.00000000000E+00  0.45593999997E+02  0.45594000000E+02  0.51100000000E-03 0.  1.
         11   -1    0    0    0    0 -0.00000000000E+00 -0.00000000000E+00 -0.45593999997E+02  0.45594000000E+02  0.51100000000E-03 0. -1.
    9900012    2    1    2    0    0  0.16526465499E+02 -0.42255586555E+01  0.36907778611E+02  0.50528886263E+02  0.30000080286E+02 0.  0.
         12    1    1    2    0    0 -0.16526465499E+02  0.42255586555E+01 -0.36907778611E+02  0.40659113737E+02  0.00000000000E+00 0. -1.
         11    1    3    3    0    0  0.65403917602E+01  0.77771440249E+01  0.36512355058E+01  0.10797787484E+02  0.51100000000E-03 0. -1.
        -11    1    3    3    0    0 -0.33514591638E+01 -0.50721172664E+01  0.56577870946E+01  0.83047701449E+01  0.51100000000E-03 0.  1.
        -12    1    3    3    0    0  0.13337532903E+02 -0.69305854140E+01  0.27598756011E+02  0.31426328635E+02  0.00000000000E+00 0.  1.
</event>
<event>
 7    1  0.6726285E-013  0.5052885E+02  0.7816164E-02  0.1300439E+00
        -11   -1    0    0    0    0  0.00000000000E+00  0.00000000000E+00  0.45593999997E+02  0.45594000000E+02  0.51100000000E-03 0.  1.
         11   -1    0    0    0    0 -0.00000000000E+00 -0.00000000000E+00 -0.45593999997E+02  0.45594000000E+02  0.51100000000E-03 0. -1.
    9900012    2    1    2    0    0 -0.11715234199E+01 -0.26342365793E+02  0.30949533152E+02  0.50528852136E+02  0.29999976554E+02 0.  0.
         12    1    1    2    0    0  0.11715234199E+01  0.26342365793E+02 -0.30949533152E+02  0.40659147864E+02  0.00000000000E+00 0. -1.
         11    1    3    3    0    0  0.78655756524E+01 -0.53136774417E+01  0.10694653161E+02  0.14299582329E+02  0.51100000000E-03 0. -1.
        -11    1    3    3    0    0 -0.10852710488E+02 -0.10900629966E+02  0.20864566641E+02  0.25921712906E+02  0.51100000000E-03 0.  1.
         12    1    3    3    0    0  0.18156114154E+01 -0.10128058385E+02 -0.60968665046E+00  0.10307556901E+02  0.00000000000E+00 0. -1.
</event>
<event>
 7    1  0.6726285E-013  0.5052886E+02  0.7816164E-02  0.1300439E+00
        -11   -1    0    0    0    0  0.00000000000E+00  0.00000000000E+00  0.45593999997E+02  0.45594000000E+02  0.51100000000E-03 0. -1.
         11   -1    0    0    0    0 -0.00000000000E+00 -0.00000000000E+00 -0.45593999997E+02  0.45594000000E+02  0.51100000000E-03 0.  1.
    9900012    2    1    2    0    0 -0.59220153953E+01 -0.36287973377E+02 -0.17357366748E+02  0.50528862546E+02  0.30000008194E+02 0.  0.
         12    1    1    2    0    0  0.59220153953E+01  0.36287973377E+02  0.17357366748E+02  0.40659137454E+02  0.00000000000E+00 0. -1.
         11    1    3    3    0    0 -0.53593012263E+01 -0.37687083944E+01  0.51908239681E+01  0.83588232620E+01  0.51100000000E-03 0. -1.
        -11    1    3    3    0    0 -0.60775406948E+01 -0.13008529627E+02 -0.45584596274E+01  0.15064458118E+02  0.51100000000E-03 0.  1.
         12    1    3    3    0    0  0.55148265258E+01 -0.19510735355E+02 -0.17989731088E+02  0.27105581166E+02  0.00000000000E+00 0. -1.
</event>
<event>
 7    1  0.6726285E-013  0.5052886E+02  0.7816164E-02  0.1300439E+00
        -11   -1    0    0    0    0  0.00000000000E+00  0.00000000000E+00  0.45593999997E+02  0.45594000000E+02  0.51100000000E-03 0.  1.
         11   -1    0    0    0    0 -0.00000000000E+00 -0.00000000000E+00 -0.45593999997E+02  0.45594000000E+02  0.51100000000E-03 0. -1.
    9900012    2    1    2    0    0  0.27775681151E+02 -0.19125989042E+02  0.22712847595E+02  0.50528863682E+02  0.30000011648E+02 0.  0.
         12    1    1    2    0    0 -0.27775681151E+02  0.19125989042E+02 -0.22712847595E+02  0.40659136318E+02  0.00000000000E+00 0. -1.
         11    1    3    3    0    0  0.77042582858E+01 -0.32736219568E+01 -0.24930470057E+01  0.87342704380E+01  0.51100000000E-03 0. -1.
        -11    1    3    3    0    0  0.15585564265E+00  0.25856523046E+01  0.10723879534E+02  0.11032292660E+02  0.51100000000E-03 0.  1.
        -12    1    3    3    0    0  0.19915567223E+02 -0.18438019389E+02  0.14482015068E+02  0.30762300584E+02  0.00000000000E+00 0.  1.
</event>
<event>
 7    1  0.6726285E-013  0.5052894E+02  0.7816164E-02  0.1300439E+00
        -11   -1    0    0    0    0  0.00000000000E+00  0.00000000000E+00  0.45593999997E+02  0.45594000000E+02  0.51100000000E-03 0.  1.
         11   -1    0    0    0    0 -0.00000000000E+00 -0.00000000000E+00 -0.45593999997E+02  0.45594000000E+02  0.51100000000E-03 0. -1.
    9900012    2    1    2    0    0 -0.24053021941E+02 -0.15027170926E+02  0.29134095795E+02  0.50528938669E+02  0.30000239577E+02 0.  0.
         12    1    1    2    0    0  0.24053021941E+02  0.15027170926E+02 -0.29134095795E+02  0.40659061331E+02  0.00000000000E+00 0. -1.
         11    1    3    3    0    0 -0.10863391886E+02 -0.11507360650E+02  0.67577193592E+01  0.17207539150E+02  0.51100000000E-03 0. -1.
        -11    1    3    3    0    0 -0.60121574163E+01 -0.89845508835E+01  0.19409728678E+01  0.10983422386E+02  0.51100000000E-03 0.  1.
         12    1    3    3    0    0 -0.71774726394E+01  0.54647406077E+01  0.20435403568E+02  0.22337977133E+02  0.00000000000E+00 0. -1.
</event>
<event>
 7    1  0.6726285E-013  0.5052886E+02  0.7816164E-02  0.1300439E+00
        -11   -1    0    0    0    0  0.00000000000E+00  0.00000000000E+00  0.45593999997E+02  0.45594000000E+02  0.51100000000E-03 0.  1.
         11   -1    0    0    0    0 -0.00000000000E+00 -0.00000000000E+00 -0.45593999997E+02  0.45594000000E+02  0.51100000000E-03 0. -1.
    9900012    2    1    2    0    0  0.13067118637E+02  0.10741507046E+02  0.36973455939E+02  0.50528855799E+02  0.29999987685E+02 0.  0.
         12    1    1    2    0    0 -0.13067118637E+02 -0.10741507046E+02 -0.36973455939E+02  0.40659144201E+02  0.00000000000E+00 0. -1.
         11    1    3    3    0    0  0.16203383742E+01 -0.22158890884E+01 -0.26167333358E+00  0.27575594452E+01  0.51100000000E-03 0. -1.
        -11    1    3    3    0    0  0.81428440598E+01  0.81557997050E+01  0.15679820061E+01  0.11631059541E+02  0.51100000000E-03 0.  1.
         12    1    3    3    0    0  0.33039362030E+01  0.48015964296E+01  0.35667147267E+02  0.36140236812E+02  0.00000000000E+00 0. -1.
</event>
<event>
 7    1  0.6726285E-013  0.5052885E+02  0.7816164E-02  0.1300439E+00
        -11   -1    0    0    0    0  0.00000000000E+00  0.00000000000E+00  0.45593999997E+02  0.45594000000E+02  0.51100000000E-03 0.  1.
         11   -1    0    0    0    0 -0.00000000000E+00 -0.00000000000E+00 -0.45593999997E+02  0.45594000000E+02  0.51100000000E-03 0. -1.
    9900012    2    1    2    0    0  0.16473316637E+02  0.94652333267E+01  0.35947258115E+02  0.50528853809E+02  0.29999981638E+02 0.  0.
         12    1    1    2    0    0 -0.16473316637E+02 -0.94652333267E+01 -0.35947258115E+02  0.40659146191E+02  0.00000000000E+00 0. -1.
         11    1    3    3    0    0  0.71461332841E+00  0.82437817157E-01 -0.29690936349E+01  0.30549935314E+01  0.51100000000E-03 0. -1.
        -11    1    3    3    0    0  0.40595921600E+01 -0.47499935506E+01  0.25638382099E+01  0.67539613461E+01  0.51100000000E-03 0.  1.
        -12    1    3    3    0    0  0.11699111149E+02  0.14132789060E+02  0.36352513540E+02  0.40719898932E+02  0.00000000000E+00 0.  1.
</event>
<event>
 7    1  0.6726285E-013  0.5052887E+02  0.7816164E-02  0.1300439E+00
        -11   -1    0    0    0    0  0.00000000000E+00  0.00000000000E+00  0.45593999997E+02  0.45594000000E+02  0.51100000000E-03 0. -1.
         11   -1    0    0    0    0 -0.00000000000E+00 -0.00000000000E+00 -0.45593999997E+02  0.45594000000E+02  0.51100000000E-03 0.  1.
    9900012    2    1    2    0    0 -0.28263286951E+02 -0.27396802344E+02  0.10186580469E+02  0.50528873231E+02  0.30000040672E+02 0.  0.
         12    1    1    2    0    0  0.28263286951E+02  0.27396802344E+02 -0.10186580469E+02  0.40659126769E+02  0.00000000000E+00 0. -1.
         11    1    3    3    0    0 -0.14176706704E+00  0.25739975154E+01  0.14559997697E+01  0.29606581534E+01  0.51100000000E-03 0.  1.
        -11    1    3    3    0    0  0.29034027994E+01 -0.21181439007E+01  0.43545186273E+01  0.56460706811E+01  0.51100000000E-03 0. -1.
        -12    1    3    3    0    0 -0.31024922684E+02 -0.27852655959E+02  0.43760620723E+01  0.41922144396E+02  0.00000000000E+00 0.  1.
</event>
<event>
 7    1  0.6726285E-013  0.5052886E+02  0.7816164E-02  0.1300439E+00
        -11   -1    0    0    0    0  0.00000000000E+00  0.00000000000E+00  0.45593999997E+02  0.45594000000E+02  0.51100000000E-03 0.  1.
         11   -1    0    0    0    0 -0.00000000000E+00 -0.00000000000E+00 -0.45593999997E+02  0.45594000000E+02  0.51100000000E-03 0. -1.
    9900012    2    1    2    0    0  0.84168614385E+01 -0.19693814164E+02  0.34561189753E+02  0.50528859454E+02  0.29999998796E+02 0.  0.
         12    1    1    2    0    0 -0.84168614385E+01  0.19693814164E+02 -0.34561189753E+02  0.40659140546E+02  0.00000000000E+00 0. -1.
         11    1    3    3    0    0  0.11304794959E+01 -0.13436292368E+02  0.16034192121E+02  0.20950113453E+02  0.51100000000E-03 0. -1.
        -11    1    3    3    0    0 -0.31206683056E+01 -0.10692302549E+02  0.12565402969E+02  0.16791463799E+02  0.51100000000E-03 0.  1.
         12    1    3    3    0    0  0.10407050248E+02  0.44347807518E+01  0.59615946623E+01  0.12787282202E+02  0.00000000000E+00 0. -1.
</event>
<event>
 7    1  0.6726285E-013  0.5052888E+02  0.7816164E-02  0.1300439E+00
        -11   -1    0    0    0    0  0.00000000000E+00  0.00000000000E+00  0.45593999997E+02  0.45594000000E+02  0.51100000000E-03 0. -1.
         11   -1    0    0    0    0 -0.00000000000E+00 -0.00000000000E+00 -0.45593999997E+02  0.45594000000E+02  0.51100000000E-03 0.  1.
    9900012    2    1    2    0    0 -0.23259928963E+02  0.33239381008E+02 -0.26986870885E+01  0.50528884698E+02  0.30000075528E+02 0.  0.
         12    1    1    2    0    0  0.23259928963E+02 -0.33239381008E+02  0.26986870885E+01  0.40659115302E+02  0.00000000000E+00 0. -1.
         11    1    3    3    0    0  0.28818670825E+01  0.30025469944E+01 -0.33570398730E+01  0.53469770249E+01  0.51100000000E-03 0. -1.
        -11    1    3    3    0    0 -0.20268688762E+01  0.30875715095E+01 -0.71423349749E+01  0.80407863062E+01  0.51100000000E-03 0.  1.
        -12    1    3    3    0    0 -0.24114927169E+02  0.27149262504E+02  0.78006877594E+01  0.37141121367E+02  0.00000000000E+00 0.  1.
</event>
<event>
 7    1  0.6726285E-013  0.5052887E+02  0.7816164E-02  0.1300439E+00
        -11   -1    0    0    0    0  0.00000000000E+00  0.00000000000E+00  0.45593999997E+02  0.45594000000E+02  0.51100000000E-03 0. -1.
         11   -1    0    0    0    0 -0.00000000000E+00 -0.00000000000E+00 -0.45593999997E+02  0.45594000000E+02  0.51100000000E-03 0.  1.
    9900012    2    1    2    0    0  0.33564819475E+01  0.22288363273E+02 -0.33839740648E+02  0.50528866272E+02  0.30000019520E+02 0.  0.
         12    1    1    2    0    0 -0.33564819475E+01 -0.22288363273E+02  0.33839740648E+02  0.40659133728E+02  0.00000000000E+00 0. -1.
         11    1    3    3    0    0 -0.69603228902E+00  0.46852593046E+01 -0.99895138459E+01  0.11055609564E+02  0.51100000000E-03 0. -1.
        -11    1    3    3    0    0 -0.59016491408E+01  0.46705649507E+01 -0.21754309242E+02  0.23019418116E+02  0.51100000000E-03 0.  1.
         12    1    3    3    0    0  0.99541633774E+01  0.12932539017E+02 -0.20959175595E+01  0.16453838591E+02  0.00000000000E+00 0. -1.
</event>
<event>
 7    1  0.6726285E-013  0.5052883E+02  0.7816164E-02  0.1300439E+00
        -11   -1    0    0    0    0  0.00000000000E+00  0.00000000000E+00  0.45593999997E+02  0.45594000000E+02  0.51100000000E-03 0.  1.
         11   -1    0    0    0    0 -0.00000000000E+00 -0.00000000000E+00 -0.45593999997E+02  0.45594000000E+02  0.51100000000E-03 0. -1.
    9900012    2    1    2    0    0 -0.22214174793E+02 -0.29675410564E+02  0.16705337251E+02  0.50528833180E+02  0.29999918932E+02 0.  0.
         12    1    1    2    0    0  0.22214174793E+02  0.29675410564E+02 -0.16705337251E+02  0.40659166820E+02  0.00000000000E+00 0. -1.
         11    1    3    3    0    0 -0.79702193554E+01 -0.11495262621E+02  0.21630529201E+02  0.25759372141E+02  0.51100000000E-03 0. -1.
        -11    1    3    3    0    0 -0.22983591999E+01 -0.57151134800E+01  0.15133854651E+01  0.63431311612E+01  0.51100000000E-03 0.  1.
        -12    1    3    3    0    0 -0.11945596238E+02 -0.12465034463E+02 -0.64385774149E+01  0.18426329878E+02  0.00000000000E+00 0.  1.
</event>
<event>
 7    1  0.6726285E-013  0.5052886E+02  0.7816164E-02  0.1300439E+00
        -11   -1    0    0    0    0  0.00000000000E+00  0.00000000000E+00  0.45593999997E+02  0.45594000000E+02  0.51100000000E-03 0. -1.
         11   -1    0    0    0    0 -0.00000000000E+00 -0.00000000000E+00 -0.45593999997E+02  0.45594000000E+02  0.51100000000E-03 0.  1.
    9900012    2    1    2    0    0  0.35533195385E+02  0.26615127595E+01  0.19582485177E+02  0.50528863879E+02  0.30000012246E+02 0.  0.
         12    1    1    2    0    0 -0.35533195385E+02 -0.26615127595E+01 -0.19582485177E+02  0.40659136121E+02  0.00000000000E+00 0. -1.
         11    1    3    3    0    0  0.71579146595E+01  0.71250720274E+00  0.11027790510E+02  0.13166456341E+02  0.51100000000E-03 0. -1.
        -11    1    3    3    0    0  0.20780006977E+02 -0.36287001593E+01  0.15053922141E+02  0.25915183328E+02  0.51100000000E-03 0.  1.
         12    1    3    3    0    0  0.75952737480E+01  0.55777057160E+01 -0.64992274737E+01  0.11447224210E+02  0.00000000000E+00 0. -1.
</event>
<event>
 7    1  0.6726285E-013  0.5052885E+02  0.7816164E-02  0.1300439E+00
        -11   -1    0    0    0    0  0.00000000000E+00  0.00000000000E+00  0.45593999997E+02  0.45594000000E+02  0.51100000000E-03 0. -1.
         11   -1    0    0    0    0 -0.00000000000E+00 -0.00000000000E+00 -0.45593999997E+02  0.45594000000E+02  0.51100000000E-03 0.  1.
    9900012    2    1    2    0    0  0.11164713212E+02 -0.10058368491E+02 -0.37780213838E+02  0.50528853975E+02  0.29999982144E+02 0.  0.
         12    1    1    2    0    0 -0.11164713212E+02  0.10058368491E+02  0.37780213838E+02  0.40659146025E+02  0.00000000000E+00 0. -1.
         11    1    3    3    0    0 -0.63047972200E+01  0.57786211343E+01 -0.99412590967E+01  0.13113792849E+02  0.51100000000E-03 0. -1.
        -11    1    3    3    0    0  0.20002506716E+00 -0.31630886317E+00 -0.44229931136E+01  0.44387982234E+01  0.51100000000E-03 0.  1.
        -12    1    3    3    0    0  0.17269485365E+02 -0.15520680763E+02 -0.23415961627E+02  0.32976262903E+02  0.00000000000E+00 0.  1.
</event>
<event>
 7    1  0.6726285E-013  0.5052886E+02  0.7816164E-02  0.1300439E+00
        -11   -1    0    0    0    0  0.00000000000E+00  0.00000000000E+00  0.45593999997E+02  0.45594000000E+02  0.51100000000E-03 0.  1.
         11   -1    0    0    0    0 -0.00000000000E+00 -0.00000000000E+00 -0.45593999997E+02  0.45594000000E+02  0.51100000000E-03 0. -1.
    9900012    2    1    2    0    0  0.25144096177E+00  0.99859987226E+01  0.39412969043E+02  0.50528861767E+02  0.30000005827E+02 0.  0.
         12    1    1    2    0    0 -0.25144096177E+00 -0.99859987226E+01 -0.39412969043E+02  0.40659138233E+02  0.00000000000E+00 0. -1.
         11    1    3    3    0    0 -0.30638888503E+01  0.10550218174E+02  0.30963997683E+01  0.11414123278E+02  0.51100000000E-03 0. -1.
        -11    1    3    3    0    0 -0.36597012170E+01 -0.42369095697E+01  0.83106865963E+01  0.10020595175E+02  0.51100000000E-03 0.  1.
        -12    1    3    3    0    0  0.69750310291E+01  0.36726901179E+01  0.28005882679E+02  0.29094143314E+02  0.00000000000E+00 0.  1.
</event>
<event>
 7    1  0.6726285E-013  0.5052886E+02  0.7816164E-02  0.1300439E+00
        -11   -1    0    0    0    0  0.00000000000E+00  0.00000000000E+00  0.45593999997E+02  0.45594000000E+02  0.51100000000E-03 0.  1.
         11   -1    0    0    0    0 -0.00000000000E+00 -0.00000000000E+00 -0.45593999997E+02  0.45594000000E+02  0.51100000000E-03 0. -1.
    9900012    2    1    2    0    0 -0.95848955849E+00  0.38885900743E+02  0.11837800204E+02  0.50528862128E+02  0.30000006924E+02 0.  0.
         12    1    1    2    0    0  0.95848955849E+00 -0.38885900743E+02 -0.11837800204E+02  0.40659137872E+02  0.00000000000E+00 0. -1.
         11    1    3    3    0    0 -0.61307165512E+01  0.11679422753E+02  0.53536103547E+01  0.14235720753E+02  0.51100000000E-03 0. -1.
        -11    1    3    3    0    0  0.12956203214E+02  0.24033523484E+02  0.49418044712E+01  0.27746979736E+02  0.51100000000E-03 0.  1.
         12    1    3    3    0    0 -0.77839762209E+01  0.31729545064E+01  0.15423853785E+01  0.85461616392E+01  0.00000000000E+00 0. -1.
</event>
<event>
 7    1  0.6726285E-013  0.5052886E+02  0.7816164E-02  0.1300439E+00
        -11   -1    0    0    0    0  0.00000000000E+00  0.00000000000E+00  0.45593999997E+02  0.45594000000E+02  0.51100000000E-03 0.  1.
         11   -1    0    0    0    0 -0.00000000000E+00 -0.00000000000E+00 -0.45593999997E+02  0.45594000000E+02  0.51100000000E-03 0. -1.
    9900012    2    1    2    0    0  0.99881300482E+01  0.12841037090E+02  0.37262727767E+02  0.50528857658E+02  0.29999993336E+02 0.  0.
         12    1    1    2    0    0 -0.99881300482E+01 -0.12841037090E+02 -0.37262727767E+02  0.40659142342E+02  0.00000000000E+00 0. -1.
         11    1    3    3    0    0 -0.38801015983E+01  0.22701221531E+01  0.21095406290E-01  0.44954519550E+01  0.51100000000E-03 0. -1.
        -11    1    3    3    0    0  0.38043851728E+01  0.97295000264E+01  0.38265943777E+01  0.11125616482E+02  0.51100000000E-03 0.  1.
        -12    1    3    3    0    0  0.10063846474E+02  0.84141491086E+00  0.33415037983E+02  0.34907789221E+02  0.00000000000E+00 0.  1.
</event>
<event>
 7    1  0.6726285E-013  0.5052885E+02  0.7816164E-02  0.1300439E+00
        -11   -1    0    0    0    0  0.00000000000E+00  0.00000000000E+00  0.45593999997E+02  0.45594000000E+02  0.51100000000E-03 0.  1.
         11   -1    0    0    0    0 -0.00000000000E+00 -0.00000000000E+00 -0.45593999997E+02  0.45594000000E+02  0.51100000000E-03 0. -1.
    9900012    2    1    2    0    0 -0.34506991523E+02 -0.64967982275E+01  0.20499403849E+02  0.50528850853E+02  0.29999972653E+02 0.  0.
         12    1    1    2    0    0  0.34506991523E+02  0.64967982275E+01 -0.20499403849E+02  0.40659149147E+02  0.00000000000E+00 0. -1.
         11    1    3    3    0    0 -0.49263733368E+01 -0.94277683828E+00 -0.26602250353E+01  0.56775681344E+01  0.51100000000E-03 0. -1.
        -11    1    3    3    0    0 -0.29797686652E+02 -0.45812893677E-01  0.25147791799E+02  0.38991225439E+02  0.51100000000E-03 0.  1.
        -12    1    3    3    0    0  0.21706846565E+00 -0.55082084956E+01 -0.19881629144E+01  0.58600572799E+01  0.00000000000E+00 0.  1.
</event>
<event>
 7    1  0.6726285E-013  0.5052888E+02  0.7816164E-02  0.1300439E+00
        -11   -1    0    0    0    0  0.00000000000E+00  0.00000000000E+00  0.45593999997E+02  0.45594000000E+02  0.51100000000E-03 0.  1.
         11   -1    0    0    0    0 -0.00000000000E+00 -0.00000000000E+00 -0.45593999997E+02  0.45594000000E+02  0.51100000000E-03 0. -1.
    9900012    2    1    2    0    0 -0.90949150882E+01 -0.36904584206E+02  0.14439463603E+02  0.50528881404E+02  0.30000065516E+02 0.  0.
         12    1    1    2    0    0  0.90949150882E+01  0.36904584206E+02 -0.14439463603E+02  0.40659118596E+02  0.00000000000E+00 0. -1.
         11    1    3    3    0    0  0.14994073744E+00 -0.21469585233E+02  0.95730207783E+01  0.23507622155E+02  0.51100000000E-03 0. -1.
        -11    1    3    3    0    0  0.39136349765E+01 -0.11679173725E+02  0.51093170996E+01  0.13335095017E+02  0.51100000000E-03 0.  1.
         12    1    3    3    0    0 -0.13158490802E+02 -0.37558252479E+01 -0.24287427537E+00  0.13686164232E+02  0.00000000000E+00 0. -1.
</event>
<event>
 7    1  0.6726285E-013  0.5052888E+02  0.7816164E-02  0.1300439E+00
        -11   -1    0    0    0    0  0.00000000000E+00  0.00000000000E+00  0.45593999997E+02  0.45594000000E+02  0.51100000000E-03 0.  1.
         11   -1    0    0    0    0 -0.00000000000E+00 -0.00000000000E+00 -0.45593999997E+02  0.45594000000E+02  0.51100000000E-03 0. -1.
    9900012    2    1    2    0    0 -0.30140429317E+01 -0.55846143456E+01  0.40160818421E+02  0.50528884067E+02  0.30000073611E+02 0.  0.
         12    1    1    2    0    0  0.30140429317E+01  0.55846143456E+01 -0.40160818421E+02  0.40659115933E+02  0.00000000000E+00 0. -1.
         11    1    3    3    0    0  0.19253098924E+01 -0.98442907528E+01  0.14333911506E+02  0.17495082107E+02  0.51100000000E-03 0. -1.
        -11    1    3    3    0    0  0.66489711469E+01 -0.24711824699E+01  0.74183186303E+01  0.10263869235E+02  0.51100000000E-03 0.  1.
         12    1    3    3    0    0 -0.11588323971E+02  0.67308588771E+01  0.18408588285E+02  0.22769932726E+02  0.00000000000E+00 0. -1.
</event>
<event>
 7    1  0.6726285E-013  0.5052887E+02  0.7816164E-02  0.1300439E+00
        -11   -1    0    0    0    0  0.00000000000E+00  0.00000000000E+00  0.45593999997E+02  0.45594000000E+02  0.51100000000E-03 0.  1.
         11   -1    0    0    0    0 -0.00000000000E+00 -0.00000000000E+00 -0.45593999997E+02  0.45594000000E+02  0.51100000000E-03 0. -1.
    9900012    2    1    2    0    0  0.22604630015E+02  0.20100716577E+02  0.27169045884E+02  0.50528866225E+02  0.30000019378E+02 0.  0.
         12    1    1    2    0    0 -0.22604630015E+02 -0.20100716577E+02 -0.27169045884E+02  0.40659133775E+02  0.00000000000E+00 0. -1.
         11    1    3    3    0    0  0.13605723820E+02  0.73557279307E+01  0.97074521063E+00  0.15497251388E+02  0.51100000000E-03 0.  1.
        -11    1    3    3    0    0  0.75257437005E+00  0.51232036594E+01 -0.12914799907E+01  0.53368066056E+01  0.51100000000E-03 0. -1.
        -12    1    3    3    0    0  0.82463318259E+01  0.76217849871E+01  0.27489780664E+02  0.29694808232E+02  0.00000000000E+00 0.  1.
</event>
<event>
 7    1  0.6726285E-013  0.5052886E+02  0.7816164E-02  0.1300439E+00
        -11   -1    0    0    0    0  0.00000000000E+00  0.00000000000E+00  0.45593999997E+02  0.45594000000E+02  0.51100000000E-03 0. -1.
         11   -1    0    0    0    0 -0.00000000000E+00 -0.00000000000E+00 -0.45593999997E+02  0.45594000000E+02  0.51100000000E-03 0.  1.
    9900012    2    1    2    0    0 -0.97159500801E+01 -0.25285371377E+02  0.30321876651E+02  0.50528857175E+02  0.29999991869E+02 0.  0.
         12    1    1    2    0    0  0.97159500801E+01  0.25285371377E+02 -0.30321876651E+02  0.40659142825E+02  0.00000000000E+00 0. -1.
         11    1    3    3    0    0  0.48194518177E+00  0.94608168395E+00 -0.18911171840E+01  0.21687937144E+01  0.51100000000E-03 0. -1.
        -11    1    3    3    0    0  0.16446066944E+01 -0.23869858477E+02  0.19991771787E+02  0.31179252947E+02  0.51100000000E-03 0.  1.
         12    1    3    3    0    0 -0.11842501956E+02 -0.23615945842E+01  0.12221222048E+02  0.17180810514E+02  0.00000000000E+00 0. -1.
</event>
<event>
 7    1  0.6726285E-013  0.5052886E+02  0.7816164E-02  0.1300439E+00
        -11   -1    0    0    0    0  0.00000000000E+00  0.00000000000E+00  0.45593999997E+02  0.45594000000E+02  0.51100000000E-03 0.  1.
         11   -1    0    0    0    0 -0.00000000000E+00 -0.00000000000E+00 -0.45593999997E+02  0.45594000000E+02  0.51100000000E-03 0. -1.
    9900012    2    1    2    0    0  0.29528830422E+02  0.26408019296E+02  0.91558923742E+01  0.50528859891E+02  0.30000000125E+02 0.  0.
         12    1    1    2    0    0 -0.29528830422E+02 -0.26408019296E+02 -0.91558923742E+01  0.40659140109E+02  0.00000000000E+00 0. -1.
         11    1    3    3    0    0  0.34656849992E+01 -0.29620850691E+01 -0.36961575637E+01  0.58691141978E+01  0.51100000000E-03 0. -1.
        -11    1    3    3    0    0  0.77146931813E+01 -0.14109225470E+00  0.44537446959E+01  0.89091099434E+01  0.51100000000E-03 0.  1.
         12    1    3    3    0    0  0.18348452242E+02  0.29511196620E+02  0.83983052419E+01  0.35750635750E+02  0.00000000000E+00 0. -1.
</event>
<event>
 7    1  0.6726285E-013  0.5052886E+02  0.7816164E-02  0.1300439E+00
        -11   -1    0    0    0    0  0.00000000000E+00  0.00000000000E+00  0.45593999997E+02  0.45594000000E+02  0.51100000000E-03 0.  1.
         11   -1    0    0    0    0 -0.00000000000E+00 -0.00000000000E+00 -0.45593999997E+02  0.45594000000E+02  0.51100000000E-03 0. -1.
    9900012    2    1    2    0    0  0.29148201621E+02 -0.15209870127E+02  0.23920869888E+02  0.50528858061E+02  0.29999994562E+02 0.  0.
         12    1    1    2    0    0 -0.29148201621E+02  0.15209870127E+02 -0.23920869888E+02  0.40659141939E+02  0.00000000000E+00 0. -1.
         11    1    3    3    0    0 -0.16963272614E+01 -0.21847238556E+01 -0.33321242007E+01  0.43305422816E+01  0.51100000000E-03 0. -1.
        -11    1    3    3    0    0  0.24945676366E+02 -0.15758850077E+02  0.16987178985E+02  0.34046914327E+02  0.51100000000E-03 0.  1.
         12    1    3    3    0    0  0.58988525172E+01  0.27337038057E+01  0.10265815103E+02  0.12151401452E+02  0.00000000000E+00 0. -1.
</event>
<event>
 7    1  0.6726285E-013  0.5052886E+02  0.7816164E-02  0.1300439E+00
        -11   -1    0    0    0    0  0.00000000000E+00  0.00000000000E+00  0.45593999997E+02  0.45594000000E+02  0.51100000000E-03 0.  1.
         11   -1    0    0    0    0 -0.00000000000E+00 -0.00000000000E+00 -0.45593999997E+02  0.45594000000E+02  0.51100000000E-03 0. -1.
    9900012    2    1    2    0    0 -0.17572922843E+02  0.29858276045E+02  0.21280078944E+02  0.50528855573E+02  0.29999987001E+02 0.  0.
         12    1    1    2    0    0  0.17572922843E+02 -0.29858276045E+02 -0.21280078944E+02  0.40659144427E+02  0.00000000000E+00 0. -1.
         11    1    3    3    0    0 -0.18215352884E+02  0.22767221347E+02  0.29812925598E+01  0.29309274200E+02  0.51100000000E-03 0.  1.
        -11    1    3    3    0    0  0.37457904241E+01  0.26126415434E+01  0.46230714472E+01  0.64984330113E+01  0.51100000000E-03 0. -1.
        -12    1    3    3    0    0 -0.31033603831E+01  0.44784131547E+01  0.13675714937E+02  0.14721148362E+02  0.00000000000E+00 0.  1.
</event>
<event>
 7    1  0.6726285E-013  0.5052878E+02  0.7816164E-02  0.1300439E+00
        -11   -1    0    0    0    0  0.00000000000E+00  0.00000000000E+00  0.45593999997E+02  0.45594000000E+02  0.51100000000E-03 0. -1.
         11   -1    0    0    0    0 -0.00000000000E+00 -0.00000000000E+00 -0.45593999997E+02  0.45594000000E+02  0.51100000000E-03 0.  1.
    9900012    2    1    2    0    0 -0.31418213984E+02 -0.23679025212E+02  0.10265076243E+02  0.50528779702E+02  0.29999756383E+02 0.  0.
         12    1    1    2    0    0  0.31418213984E+02  0.23679025212E+02 -0.10265076243E+02  0.40659220298E+02  0.00000000000E+00 0. -1.
         11    1    3    3    0    0 -0.16703759605E+02 -0.26791172498E+02  0.17930365660E+01  0.31622736901E+02  0.51100000000E-03 0.  1.
        -11    1    3    3    0    0 -0.34547293635E+01  0.33905325159E+01  0.47504418818E-01  0.48407770706E+01  0.51100000000E-03 0. -1.
        -12    1    3    3    0    0 -0.11259725016E+02 -0.27838523029E+00  0.84245352577E+01  0.14065265731E+02  0.00000000000E+00 0.  1.
</event>
<event>
 7    1  0.6726285E-013  0.5052886E+02  0.7816164E-02  0.1300439E+00
        -11   -1    0    0    0    0  0.00000000000E+00  0.00000000000E+00  0.45593999997E+02  0.45594000000E+02  0.51100000000E-03 0.  1.
         11   -1    0    0    0    0 -0.00000000000E+00 -0.00000000000E+00 -0.45593999997E+02  0.45594000000E+02  0.51100000000E-03 0. -1.
    9900012    2    1    2    0    0  0.28539415146E+02  0.54483853819E+01  0.28442619892E+02  0.50528859005E+02  0.29999997431E+02 0.  0.
         12    1    1    2    0    0 -0.28539415146E+02 -0.54483853819E+01 -0.28442619892E+02  0.40659140995E+02  0.00000000000E+00 0. -1.
         11    1    3    3    0    0  0.72432739795E+01 -0.10777313004E+00 -0.17171287096E+01  0.74448078724E+01  0.51100000000E-03 0. -1.
        -11    1    3    3    0    0  0.22649143205E+02  0.75282341865E+01  0.16024511523E+02  0.28747921102E+02  0.51100000000E-03 0.  1.
        -12    1    3    3    0    0 -0.13530020386E+01 -0.19720756746E+01  0.14135237078E+02  0.14336130030E+02  0.00000000000E+00 0.  1.
</event>
<event>
 7    1  0.6726285E-013  0.5052884E+02  0.7816164E-02  0.1300439E+00
        -11   -1    0    0    0    0  0.00000000000E+00  0.00000000000E+00  0.45593999997E+02  0.45594000000E+02  0.51100000000E-03 0. -1.
         11   -1    0    0    0    0 -0.00000000000E+00 -0.00000000000E+00 -0.45593999997E+02  0.45594000000E+02  0.51100000000E-03 0.  1.
    9900012    2    1    2    0    0  0.23983962085E+02 -0.27230778765E+02 -0.18341788077E+02  0.50528844336E+02  0.29999952845E+02 0.  0.
         12    1    1    2    0    0 -0.23983962085E+02  0.27230778765E+02  0.18341788077E+02  0.40659155664E+02  0.00000000000E+00 0. -1.
         11    1    3    3    0    0  0.65740104775E+01  0.98674286421E+00 -0.51957662794E+01  0.84372544545E+01  0.51100000000E-03 0. -1.
        -11    1    3    3    0    0  0.18596448276E+02 -0.89010241211E+01 -0.61809494968E+01  0.21523481498E+02  0.51100000000E-03 0.  1.
         12    1    3    3    0    0 -0.11864966681E+01 -0.19316497508E+02 -0.69650723005E+01  0.20568108383E+02  0.00000000000E+00 0. -1.
</event>
<event>
 7    1  0.6726285E-013  0.5052886E+02  0.7816164E-02  0.1300439E+00
        -11   -1    0    0    0    0  0.00000000000E+00  0.00000000000E+00  0.45593999997E+02  0.45594000000E+02  0.51100000000E-03 0. -1.
         11   -1    0    0    0    0 -0.00000000000E+00 -0.00000000000E+00 -0.45593999997E+02  0.45594000000E+02  0.51100000000E-03 0.  1.
    9900012    2    1    2    0    0  0.10390333825E+02 -0.35222159873E+02 -0.17452966063E+02  0.50528860714E+02  0.30000002626E+02 0.  0.
         12    1    1    2    0    0 -0.10390333825E+02  0.35222159873E+02  0.17452966063E+02  0.40659139286E+02  0.00000000000E+00 0. -1.
         11    1    3    3    0    0  0.12559691798E+02 -0.24940087564E+02 -0.87269063939E+01  0.29255986075E+02  0.51100000000E-03 0. -1.
        -11    1    3    3    0    0  0.27255657750E+01 -0.13326153643E+02 -0.67026430794E+01  0.15163789244E+02  0.51100000000E-03 0.  1.
         12    1    3    3    0    0 -0.48949237483E+01  0.30440813340E+01 -0.20234165895E+01  0.61090853951E+01  0.00000000000E+00 0. -1.
</event>
<event>
 7    1  0.6726285E-013  0.5052886E+02  0.7816164E-02  0.1300439E+00
        -11   -1    0    0    0    0  0.00000000000E+00  0.00000000000E+00  0.45593999997E+02  0.45594000000E+02  0.51100000000E-03 0.  1.
         11   -1    0    0    0    0 -0.00000000000E+00 -0.00000000000E+00 -0.45593999997E+02  0.45594000000E+02  0.51100000000E-03 0. -1.
    9900012    2    1    2    0    0 -0.20193832607E+02  0.20658244978E+02  0.28611389021E+02  0.50528861512E+02  0.30000005051E+02 0.  0.
         12    1    1    2    0    0  0.20193832607E+02 -0.20658244978E+02 -0.28611389021E+02  0.40659138488E+02  0.00000000000E+00 0. -1.
         11    1    3    3    0    0 -0.23034828465E+01  0.16632317824E+01  0.23706044962E+01  0.37002890596E+01  0.51100000000E-03 0. -1.
        -11    1    3    3    0    0 -0.24013977925E+02  0.10426262400E+02  0.25042756144E+02  0.36228686410E+02  0.51100000000E-03 0.  1.
         12    1    3    3    0    0  0.61236281650E+01  0.85687507961E+01  0.11980283801E+01  0.10599886042E+02  0.00000000000E+00 0. -1.
</event>
<event>
 7    1  0.6726285E-013  0.5052886E+02  0.7816164E-02  0.1300439E+00
        -11   -1    0    0    0    0  0.00000000000E+00  0.00000000000E+00  0.45593999997E+02  0.45594000000E+02  0.51100000000E-03 0.  1.
         11   -1    0    0    0    0 -0.00000000000E+00 -0.00000000000E+00 -0.45593999997E+02  0.45594000000E+02  0.51100000000E-03 0. -1.
    9900012    2    1    2    0    0  0.25507787082E+02 -0.27457652060E+02  0.15766918956E+02  0.50528860907E+02  0.30000003212E+02 0.  0.
         12    1    1    2    0    0 -0.25507787082E+02  0.27457652060E+02 -0.15766918956E+02  0.40659139093E+02  0.00000000000E+00 0. -1.
         11    1    3    3    0    0  0.92267204325E+01 -0.29728453929E+01 -0.77127642914E+01  0.12387772719E+02  0.51100000000E-03 0. -1.
        -11    1    3    3    0    0  0.34895030191E+01 -0.34061694272E+01  0.14775826791E+01  0.50952794155E+01  0.51100000000E-03 0.  1.
         12    1    3    3    0    0  0.12791563630E+02 -0.21078637240E+02  0.22002100568E+02  0.33045808772E+02  0.00000000000E+00 0. -1.
</event>
<event>
 7    1  0.6726285E-013  0.5052887E+02  0.7816164E-02  0.1300439E+00
        -11   -1    0    0    0    0  0.00000000000E+00  0.00000000000E+00  0.45593999997E+02  0.45594000000E+02  0.51100000000E-03 0.  1.
         11   -1    0    0    0    0 -0.00000000000E+00 -0.00000000000E+00 -0.45593999997E+02  0.45594000000E+02  0.51100000000E-03 0. -1.
    9900012    2    1    2    0    0  0.30990528768E+02  0.17939803005E+02  0.19259174741E+02  0.50528865517E+02  0.30000017226E+02 0.  0.
         12    1    1    2    0    0 -0.30990528768E+02 -0.17939803005E+02 -0.19259174741E+02  0.40659134483E+02  0.00000000000E+00 0. -1.
         11    1    3    3    0    0  0.18029307672E+02  0.55294610902E+01  0.21073819844E+02  0.28279617362E+02  0.51100000000E-03 0. -1.
        -11    1    3    3    0    0  0.81962060630E+01  0.11033992435E+02  0.42757812259E+01  0.14394759054E+02  0.51100000000E-03 0.  1.
         12    1    3    3    0    0  0.47650150334E+01  0.13763494794E+01 -0.60904263291E+01  0.78544891004E+01  0.00000000000E+00 0. -1.
</event>
<event>
 7    1  0.6726285E-013  0.5052886E+02  0.7816164E-02  0.1300439E+00
        -11   -1    0    0    0    0  0.00000000000E+00  0.00000000000E+00  0.45593999997E+02  0.45594000000E+02  0.51100000000E-03 0.  1.
         11   -1    0    0    0    0 -0.00000000000E+00 -0.00000000000E+00 -0.45593999997E+02  0.45594000000E+02  0.51100000000E-03 0. -1.
    9900012    2    1    2    0    0  0.23327590851E+02  0.26323609259E+01  0.33197291881E+02  0.50528855799E+02  0.29999987687E+02 0.  0.
         12    1    1    2    0    0 -0.23327590851E+02 -0.26323609259E+01 -0.33197291881E+02  0.40659144201E+02  0.00000000000E+00 0. -1.
         11    1    3    3    0    0 -0.39701335159E+01  0.26155656995E+01 -0.44051315550E+00  0.47746409460E+01  0.51100000000E-03 0. -1.
        -11    1    3    3    0    0  0.16420823389E+02 -0.27597421069E+01  0.95899541526E+01  0.19215276168E+02  0.51100000000E-03 0.  1.
        -12    1    3    3    0    0  0.10876900977E+02  0.27765373333E+01  0.24047850884E+02  0.26538938685E+02  0.00000000000E+00 0.  1.
</event>
<event>
 7    1  0.6726285E-013  0.5052888E+02  0.7816164E-02  0.1300439E+00
        -11   -1    0    0    0    0  0.00000000000E+00  0.00000000000E+00  0.45593999997E+02  0.45594000000E+02  0.51100000000E-03 0. -1.
         11   -1    0    0    0    0 -0.00000000000E+00 -0.00000000000E+00 -0.45593999997E+02  0.45594000000E+02  0.51100000000E-03 0.  1.
    9900012    2    1    2    0    0 -0.20784274919E+02  0.34768431196E+02  0.35120024589E+01  0.50528879830E+02  0.30000060730E+02 0.  0.
         12    1    1    2    0    0  0.20784274919E+02 -0.34768431196E+02 -0.35120024589E+01  0.40659120170E+02  0.00000000000E+00 0. -1.
         11    1    3    3    0    0  0.72735162558E+00  0.49171125474E+00  0.44938486381E+01  0.45788094728E+01  0.51100000000E-03 0. -1.
        -11    1    3    3    0    0 -0.10192454381E+02  0.14830048031E+02  0.10347469549E+02  0.20757807622E+02  0.51100000000E-03 0.  1.
        -12    1    3    3    0    0 -0.11319172164E+02  0.19446671910E+02 -0.11329315728E+02  0.25192262735E+02  0.00000000000E+00 0.  1.
</event>
<event>
 7    1  0.6726285E-013  0.5052887E+02  0.7816164E-02  0.1300439E+00
        -11   -1    0    0    0    0  0.00000000000E+00  0.00000000000E+00  0.45593999997E+02  0.45594000000E+02  0.51100000000E-03 0.  1.
         11   -1    0    0    0    0 -0.00000000000E+00 -0.00000000000E+00 -0.45593999997E+02  0.45594000000E+02  0.51100000000E-03 0. -1.
    9900012    2    1    2    0    0 -0.13938098470E+01  0.33305574301E+02  0.23280055471E+02  0.50528868576E+02  0.30000026524E+02 0.  0.
         12    1    1    2    0    0  0.13938098470E+01 -0.33305574301E+02 -0.23280055471E+02  0.40659131424E+02  0.00000000000E+00 0. -1.
         11    1    3    3    0    0  0.60857759633E+01  0.17459075298E+02  0.44004896806E+01  0.19005796196E+02  0.51100000000E-03 0. -1.
        -11    1    3    3    0    0  0.53750887854E+01  0.76853877699E+01  0.38800934949E+01  0.10149477347E+02  0.51100000000E-03 0.  1.
        -12    1    3    3    0    0 -0.12854674596E+02  0.81611112328E+01  0.14999472296E+02  0.21373595034E+02  0.00000000000E+00 0.  1.
</event>
<event>
 7    1  0.6726285E-013  0.5052886E+02  0.7816164E-02  0.1300439E+00
        -11   -1    0    0    0    0  0.00000000000E+00  0.00000000000E+00  0.45593999997E+02  0.45594000000E+02  0.51100000000E-03 0. -1.
         11   -1    0    0    0    0 -0.00000000000E+00 -0.00000000000E+00 -0.45593999997E+02  0.45594000000E+02  0.51100000000E-03 0.  1.
    9900012    2    1    2    0    0  0.35081967423E+02 -0.19053579546E+02 -0.77060177075E+01  0.50528855386E+02  0.29999986432E+02 0.  0.
         12    1    1    2    0    0 -0.35081967423E+02  0.19053579546E+02  0.77060177075E+01  0.40659144614E+02  0.00000000000E+00 0. -1.
         11    1    3    3    0    0  0.21154330984E+00 -0.19320401728E+01  0.61863211901E+00  0.20396656003E+01  0.51100000000E-03 0. -1.
        -11    1    3    3    0    0  0.26764075388E+02 -0.77797945846E+01 -0.17657680455E+02  0.32994463391E+02  0.51100000000E-03 0.  1.
         12    1    3    3    0    0  0.81063487257E+01 -0.93417447885E+01  0.93330306282E+01  0.15494726395E+02  0.00000000000E+00 0. -1.
</event>
<event>
 7    1  0.6726285E-013  0.5052887E+02  0.7816164E-02  0.1300439E+00
        -11   -1    0    0    0    0  0.00000000000E+00  0.00000000000E+00  0.45593999997E+02  0.45594000000E+02  0.51100000000E-03 0.  1.
         11   -1    0    0    0    0 -0.00000000000E+00 -0.00000000000E+00 -0.45593999997E+02  0.45594000000E+02  0.51100000000E-03 0. -1.
    9900012    2    1    2    0    0 -0.25004882602E+02 -0.18372363715E+02  0.26275028169E+02  0.50528868090E+02  0.30000025045E+02 0.  0.
         12    1    1    2    0    0  0.25004882602E+02  0.18372363715E+02 -0.26275028169E+02  0.40659131910E+02  0.00000000000E+00 0. -1.
         11    1    3    3    0    0 -0.20017128801E+01 -0.61092335058E+01  0.12676237290E+01  0.65525917515E+01  0.51100000000E-03 0. -1.
        -11    1    3    3    0    0 -0.20976901064E+02 -0.11940782431E+02  0.60178973009E+01  0.24876248742E+02  0.51100000000E-03 0.  1.
         12    1    3    3    0    0 -0.20262686581E+01 -0.32234777861E+00  0.18989507139E+02  0.19100027596E+02  0.00000000000E+00 0. -1.
</event>
<event>
 7    1  0.6726285E-013  0.5052886E+02  0.7816164E-02  0.1300439E+00
        -11   -1    0    0    0    0  0.00000000000E+00  0.00000000000E+00  0.45593999997E+02  0.45594000000E+02  0.51100000000E-03 0.  1.
         11   -1    0    0    0    0 -0.00000000000E+00 -0.00000000000E+00 -0.45593999997E+02  0.45594000000E+02  0.51100000000E-03 0. -1.
    9900012    2    1    2    0    0 -0.28042275842E+02 -0.11083551374E+02  0.27275474244E+02  0.50528857846E+02  0.29999993909E+02 0.  0.
         12    1    1    2    0    0  0.28042275842E+02  0.11083551374E+02 -0.27275474244E+02  0.40659142154E+02  0.00000000000E+00 0. -1.
         11    1    3    3    0    0 -0.21826099310E+01 -0.87397873711E+01  0.41656810950E+01  0.99247452688E+01  0.51100000000E-03 0. -1.
        -11    1    3    3    0    0 -0.24687029229E+01 -0.84908760332E+01  0.36668042454E+01  0.95726132048E+01  0.51100000000E-03 0.  1.
        -12    1    3    3    0    0 -0.23390962988E+02  0.61471120302E+01  0.19442988903E+02  0.31031499373E+02  0.00000000000E+00 0.  1.
</event>
<event>
 7    1  0.6726285E-013  0.5052890E+02  0.7816164E-02  0.1300439E+00
        -11   -1    0    0    0    0  0.00000000000E+00  0.00000000000E+00  0.45593999997E+02  0.45594000000E+02  0.51100000000E-03 0. -1.
         11   -1    0    0    0    0 -0.00000000000E+00 -0.00000000000E+00 -0.45593999997E+02  0.45594000000E+02  0.51100000000E-03 0.  1.
    9900012    2    1    2    0    0 -0.27766721296E+02 -0.29447968165E+02 -0.38714834531E+01  0.50528904773E+02  0.30000136547E+02 0.  0.
         12    1    1    2    0    0  0.27766721296E+02  0.29447968165E+02  0.38714834531E+01  0.40659095227E+02  0.00000000000E+00 0. -1.
         11    1    3    3    0    0  0.33345002284E+01 -0.33940273367E+01  0.49655849298E+01  0.68771612815E+01  0.51100000000E-03 0. -1.
        -11    1    3    3    0    0 -0.64726017023E+01 -0.13786216769E+02 -0.33963807045E+01  0.15604158028E+02  0.51100000000E-03 0.  1.
        -12    1    3    3    0    0 -0.24628619822E+02 -0.12267724059E+02 -0.54406876785E+01  0.28047585463E+02  0.00000000000E+00 0.  1.
</event>
<event>
 7    1  0.6726285E-013  0.5052886E+02  0.7816164E-02  0.1300439E+00
        -11   -1    0    0    0    0  0.00000000000E+00  0.00000000000E+00  0.45593999997E+02  0.45594000000E+02  0.51100000000E-03 0. -1.
         11   -1    0    0    0    0 -0.00000000000E+00 -0.00000000000E+00 -0.45593999997E+02  0.45594000000E+02  0.51100000000E-03 0.  1.
    9900012    2    1    2    0    0  0.17955717560E+02 -0.24951030631E+02 -0.26612096401E+02  0.50528863296E+02  0.30000010475E+02 0.  0.
         12    1    1    2    0    0 -0.17955717560E+02  0.24951030631E+02  0.26612096401E+02  0.40659136704E+02  0.00000000000E+00 0. -1.
         11    1    3    3    0    0  0.85480660431E+01 -0.60643961597E+01  0.77364715954E+00  0.10509275144E+02  0.51100000000E-03 0. -1.
        -11    1    3    3    0    0  0.11857780532E+02 -0.24422597475E+01 -0.81490091146E+01  0.14593763793E+02  0.51100000000E-03 0.  1.
        -12    1    3    3    0    0 -0.24501290151E+01 -0.16444374723E+02 -0.19236734446E+02  0.25425824360E+02  0.00000000000E+00 0.  1.
</event>
<event>
 7    1  0.6726285E-013  0.5052886E+02  0.7816164E-02  0.1300439E+00
        -11   -1    0    0    0    0  0.00000000000E+00  0.00000000000E+00  0.45593999997E+02  0.45594000000E+02  0.51100000000E-03 0.  1.
         11   -1    0    0    0    0 -0.00000000000E+00 -0.00000000000E+00 -0.45593999997E+02  0.45594000000E+02  0.51100000000E-03 0. -1.
    9900012    2    1    2    0    0  0.29764053852E+01  0.25848052860E+01  0.40467588556E+02  0.50528856737E+02  0.29999990536E+02 0.  0.
         12    1    1    2    0    0 -0.29764053852E+01 -0.25848052860E+01 -0.40467588556E+02  0.40659143263E+02  0.00000000000E+00 0. -1.
         11    1    3    3    0    0  0.89085746396E+01 -0.23225388994E+01  0.28611640015E+01  0.96407027105E+01  0.51100000000E-03 0. -1.
        -11    1    3    3    0    0  0.39511908429E+01  0.37246699888E+00  0.43000155023E+01  0.58515616996E+01  0.51100000000E-03 0.  1.
        -12    1    3    3    0    0 -0.98833600973E+01  0.45348771865E+01  0.33306409052E+02  0.35036592327E+02  0.00000000000E+00 0.  1.
</event>
<event>
 7    1  0.6726285E-013  0.5052888E+02  0.7816164E-02  0.1300439E+00
        -11   -1    0    0    0    0  0.00000000000E+00  0.00000000000E+00  0.45593999997E+02  0.45594000000E+02  0.51100000000E-03 0.  1.
         11   -1    0    0    0    0 -0.00000000000E+00 -0.00000000000E+00 -0.45593999997E+02  0.45594000000E+02  0.51100000000E-03 0. -1.
    9900012    2    1    2    0    0  0.23441308803E+02  0.71812071343E+01  0.32436079268E+02  0.50528881311E+02  0.30000065233E+02 0.  0.
         12    1    1    2    0    0 -0.23441308803E+02 -0.71812071343E+01 -0.32436079268E+02  0.40659118689E+02  0.00000000000E+00 0. -1.
         11    1    3    3    0    0  0.56815125494E+01  0.10490483366E+02  0.96837226717E+01  0.15365686160E+02  0.51100000000E-03 0. -1.
        -11    1    3    3    0    0  0.19646996052E+02  0.32662463899E+01  0.15953977527E+02  0.25518664122E+02  0.51100000000E-03 0.  1.
         12    1    3    3    0    0 -0.18871997984E+01 -0.65755226220E+01  0.67983790684E+01  0.96445310300E+01  0.00000000000E+00 0. -1.
</event>
<event>
 7    1  0.6726285E-013  0.5052885E+02  0.7816164E-02  0.1300439E+00
        -11   -1    0    0    0    0  0.00000000000E+00  0.00000000000E+00  0.45593999997E+02  0.45594000000E+02  0.51100000000E-03 0.  1.
         11   -1    0    0    0    0 -0.00000000000E+00 -0.00000000000E+00 -0.45593999997E+02  0.45594000000E+02  0.51100000000E-03 0. -1.
    9900012    2    1    2    0    0 -0.36333766427E+02 -0.17183040002E+02  0.61455046891E+01  0.50528847595E+02  0.29999962748E+02 0.  0.
         12    1    1    2    0    0  0.36333766427E+02  0.17183040002E+02 -0.61455046891E+01  0.40659152405E+02  0.00000000000E+00 0. -1.
         11    1    3    3    0    0 -0.10332643438E+02 -0.13166856188E+02 -0.80700923238E+00  0.16756517731E+02  0.51100000000E-03 0. -1.
        -11    1    3    3    0    0 -0.19411383038E+02 -0.10858489017E+02  0.42471447711E+00  0.22246099834E+02  0.51100000000E-03 0.  1.
         12    1    3    3    0    0 -0.65897399511E+01  0.68423052034E+01  0.65277994443E+01  0.11526230030E+02  0.00000000000E+00 0. -1.
</event>
<event>
 7    1  0.6726285E-013  0.5052887E+02  0.7816164E-02  0.1300439E+00
        -11   -1    0    0    0    0  0.00000000000E+00  0.00000000000E+00  0.45593999997E+02  0.45594000000E+02  0.51100000000E-03 0. -1.
         11   -1    0    0    0    0 -0.00000000000E+00 -0.00000000000E+00 -0.45593999997E+02  0.45594000000E+02  0.51100000000E-03 0.  1.
    9900012    2    1    2    0    0  0.13686782766E+02  0.31187540317E+02 -0.22207532287E+02  0.50528865924E+02  0.30000018462E+02 0.  0.
         12    1    1    2    0    0 -0.13686782766E+02 -0.31187540317E+02  0.22207532287E+02  0.40659134076E+02  0.00000000000E+00 0. -1.
         11    1    3    3    0    0 -0.40556484335E+01  0.61603302590E+01 -0.88594544801E+00  0.74285161852E+01  0.51100000000E-03 0. -1.
        -11    1    3    3    0    0  0.46269009091E+00 -0.21158115123E+01  0.23187693240E+01  0.31729216686E+01  0.51100000000E-03 0.  1.
        -12    1    3    3    0    0  0.17279741108E+02  0.27143021571E+02 -0.23640356163E+02  0.39927428070E+02  0.00000000000E+00 0.  1.
</event>
<event>
 7    1  0.6726285E-013  0.5052880E+02  0.7816164E-02  0.1300439E+00
        -11   -1    0    0    0    0  0.00000000000E+00  0.00000000000E+00  0.45593999997E+02  0.45594000000E+02  0.51100000000E-03 0.  1.
         11   -1    0    0    0    0 -0.00000000000E+00 -0.00000000000E+00 -0.45593999997E+02  0.45594000000E+02  0.51100000000E-03 0. -1.
    9900012    2    1    2    0    0 -0.31378746004E+02 -0.23743066568E+02 -0.10237766498E+02  0.50528797183E+02  0.29999809518E+02 0.  0.
         12    1    1    2    0    0  0.31378746004E+02  0.23743066568E+02  0.10237766498E+02  0.40659202817E+02  0.00000000000E+00 0. -1.
         11    1    3    3    0    0 -0.16852930141E+02 -0.20545373720E+02 -0.74931410666E+01  0.27609433152E+02  0.51100000000E-03 0. -1.
        -11    1    3    3    0    0 -0.11459074980E+02 -0.80750282409E+01 -0.70839643359E+01  0.15706655642E+02  0.51100000000E-03 0.  1.
        -12    1    3    3    0    0 -0.30667408826E+01  0.48773353931E+01  0.43393389050E+01  0.72127083893E+01  0.00000000000E+00 0.  1.
</event>
<event>
 7    1  0.6726285E-013  0.5052886E+02  0.7816164E-02  0.1300439E+00
        -11   -1    0    0    0    0  0.00000000000E+00  0.00000000000E+00  0.45593999997E+02  0.45594000000E+02  0.51100000000E-03 0.  1.
         11   -1    0    0    0    0 -0.00000000000E+00 -0.00000000000E+00 -0.45593999997E+02  0.45594000000E+02  0.51100000000E-03 0. -1.
    9900012    2    1    2    0    0 -0.13060569578E+02  0.35241322300E+01  0.38342764317E+02  0.50528861284E+02  0.30000004358E+02 0.  0.
         12    1    1    2    0    0  0.13060569578E+02 -0.35241322300E+01 -0.38342764317E+02  0.40659138716E+02  0.00000000000E+00 0. -1.
         11    1    3    3    0    0  0.29211548317E+01  0.52565996478E-01  0.89675507758E+01  0.94314832297E+01  0.51100000000E-03 0. -1.
        -11    1    3    3    0    0  0.18161301090E+01  0.96920228881E+01  0.10950133010E+02  0.14735638752E+02  0.51100000000E-03 0.  1.
        -12    1    3    3    0    0 -0.17797854518E+02 -0.62204566545E+01  0.18425080531E+02  0.26361739302E+02  0.00000000000E+00 0.  1.
</event>
<event>
 7    1  0.6726285E-013  0.5052885E+02  0.7816164E-02  0.1300439E+00
        -11   -1    0    0    0    0  0.00000000000E+00  0.00000000000E+00  0.45593999997E+02  0.45594000000E+02  0.51100000000E-03 0. -1.
         11   -1    0    0    0    0 -0.00000000000E+00 -0.00000000000E+00 -0.45593999997E+02  0.45594000000E+02  0.51100000000E-03 0.  1.
    9900012    2    1    2    0    0  0.20178884624E+02 -0.16461283239E+00 -0.35298042211E+02  0.50528852616E+02  0.29999978012E+02 0.  0.
         12    1    1    2    0    0 -0.20178884624E+02  0.16461283239E+00  0.35298042211E+02  0.40659147384E+02  0.00000000000E+00 0. -1.
         11    1    3    3    0    0  0.16247153924E+02 -0.42611958323E+01 -0.75809857350E+01  0.18428216016E+02  0.51100000000E-03 0. -1.
        -11    1    3    3    0    0  0.56584896082E+01  0.61663145140E+01 -0.62001507881E+01  0.10415556125E+02  0.51100000000E-03 0.  1.
        -12    1    3    3    0    0 -0.17267589077E+01 -0.20697315141E+01 -0.21516905688E+02  0.21685080476E+02  0.00000000000E+00 0.  1.
</event>
<event>
 7    1  0.6726285E-013  0.5052886E+02  0.7816164E-02  0.1300439E+00
        -11   -1    0    0    0    0  0.00000000000E+00  0.00000000000E+00  0.45593999997E+02  0.45594000000E+02  0.51100000000E-03 0.  1.
         11   -1    0    0    0    0 -0.00000000000E+00 -0.00000000000E+00 -0.45593999997E+02  0.45594000000E+02  0.51100000000E-03 0. -1.
    9900012    2    1    2    0    0  0.32414528875E+02  0.77969377558E-01  0.24545012261E+02  0.50528863409E+02  0.30000010819E+02 0.  0.
         12    1    1    2    0    0 -0.32414528875E+02 -0.77969377558E-01 -0.24545012261E+02  0.40659136591E+02  0.00000000000E+00 0. -1.
         11    1    3    3    0    0  0.69290733211E+00  0.20732192426E+01  0.78306509676E+01  0.81300340366E+01  0.51100000000E-03 0. -1.
        -11    1    3    3    0    0  0.20115211123E+02  0.83894211936E+00  0.21566931187E+02  0.29503526289E+02  0.51100000000E-03 0.  1.
         12    1    3    3    0    0  0.11606410420E+02 -0.28341919844E+01 -0.48525698938E+01  0.12895303083E+02  0.00000000000E+00 0. -1.
</event>
<event>
 7    1  0.6726285E-013  0.5052898E+02  0.7816164E-02  0.1300438E+00
        -11   -1    0    0    0    0  0.00000000000E+00  0.00000000000E+00  0.45593999997E+02  0.45594000000E+02  0.51100000000E-03 0.  1.
         11   -1    0    0    0    0 -0.00000000000E+00 -0.00000000000E+00 -0.45593999997E+02  0.45594000000E+02  0.51100000000E-03 0. -1.
    9900012    2    1    2    0    0 -0.16265841560E+02 -0.19939027079E+02  0.31480370157E+02  0.50528977536E+02  0.30000357716E+02 0.  0.
         12    1    1    2    0    0  0.16265841560E+02  0.19939027079E+02 -0.31480370157E+02  0.40659022464E+02  0.00000000000E+00 0. -1.
         11    1    3    3    0    0 -0.61933569196E+01 -0.10817363307E+02  0.21276631083E+02  0.24659035856E+02  0.51100000000E-03 0. -1.
        -11    1    3    3    0    0 -0.59430015158E+01 -0.92264937666E+01  0.15600234684E+02  0.19073929242E+02  0.51100000000E-03 0.  1.
         12    1    3    3    0    0 -0.41294831241E+01  0.10482999465E+00 -0.53964956098E+01  0.67960124387E+01  0.00000000000E+00 0. -1.
</event>
<event>
 7    1  0.6726285E-013  0.5052885E+02  0.7816164E-02  0.1300439E+00
        -11   -1    0    0    0    0  0.00000000000E+00  0.00000000000E+00  0.45593999997E+02  0.45594000000E+02  0.51100000000E-03 0.  1.
         11   -1    0    0    0    0 -0.00000000000E+00 -0.00000000000E+00 -0.45593999997E+02  0.45594000000E+02  0.51100000000E-03 0. -1.
    9900012    2    1    2    0    0 -0.32527428418E+02 -0.68308971977E+01  0.23419472170E+02  0.50528850566E+02  0.29999971779E+02 0.  0.
         12    1    1    2    0    0  0.32527428418E+02  0.68308971977E+01 -0.23419472170E+02  0.40659149434E+02  0.00000000000E+00 0. -1.
         11    1    3    3    0    0 -0.90232839794E+01  0.96769842708E-01 -0.47931502058E+01  0.10217793663E+02  0.51100000000E-03 0. -1.
        -11    1    3    3    0    0 -0.37717515690E+01  0.23020266822E+01 -0.30004349290E+00  0.44289347593E+01  0.51100000000E-03 0.  1.
        -12    1    3    3    0    0 -0.19732392869E+02 -0.92296937226E+01  0.28512665869E+02  0.35882122144E+02  0.00000000000E+00 0.  1.
</event>
<event>
 7    1  0.6726285E-013  0.5052886E+02  0.7816164E-02  0.1300439E+00
        -11   -1    0    0    0    0  0.00000000000E+00  0.00000000000E+00  0.45593999997E+02  0.45594000000E+02  0.51100000000E-03 0. -1.
         11   -1    0    0    0    0 -0.00000000000E+00 -0.00000000000E+00 -0.45593999997E+02  0.45594000000E+02  0.51100000000E-03 0.  1.
    9900012    2    1    2    0    0 -0.16158877164E+02 -0.34514490175E+02 -0.14170625768E+02  0.50528856159E+02  0.29999988782E+02 0.  0.
         12    1    1    2    0    0  0.16158877164E+02  0.34514490175E+02  0.14170625768E+02  0.40659143841E+02  0.00000000000E+00 0. -1.
         11    1    3    3    0    0  0.34106495382E+01 -0.11697718834E+02 -0.29595421110E+01  0.12539060809E+02  0.51100000000E-03 0.  1.
        -11    1    3    3    0    0  0.38121484085E+01 -0.56084329197E+01 -0.46604210068E+01  0.82283971419E+01  0.51100000000E-03 0. -1.
         12    1    3    3    0    0 -0.23381675111E+02 -0.17208338421E+02 -0.65506626500E+01  0.29761398209E+02  0.00000000000E+00 0. -1.
</event>
<event>
 7    1  0.6726285E-013  0.5052885E+02  0.7816164E-02  0.1300439E+00
        -11   -1    0    0    0    0  0.00000000000E+00  0.00000000000E+00  0.45593999997E+02  0.45594000000E+02  0.51100000000E-03 0.  1.
         11   -1    0    0    0    0 -0.00000000000E+00 -0.00000000000E+00 -0.45593999997E+02  0.45594000000E+02  0.51100000000E-03 0. -1.
    9900012    2    1    2    0    0  0.28037394165E+02 -0.14195535467E+02  0.25798412036E+02  0.50528846512E+02  0.29999959457E+02 0.  0.
         12    1    1    2    0    0 -0.28037394165E+02  0.14195535467E+02 -0.25798412036E+02  0.40659153488E+02  0.00000000000E+00 0. -1.
         11    1    3    3    0    0  0.18811522923E+02 -0.11228302113E+01  0.27327509480E+02  0.33195284560E+02  0.51100000000E-03 0.  1.
        -11    1    3    3    0    0 -0.46345222497E+00 -0.17702971600E+01 -0.16231779685E+01  0.24461085377E+01  0.51100000000E-03 0. -1.
        -12    1    3    3    0    0  0.96893234671E+01 -0.11302408096E+02  0.94080525136E-01  0.14887453414E+02  0.00000000000E+00 0.  1.
</event>
<event>
 7    1  0.6726285E-013  0.5052886E+02  0.7816164E-02  0.1300439E+00
        -11   -1    0    0    0    0  0.00000000000E+00  0.00000000000E+00  0.45593999997E+02  0.45594000000E+02  0.51100000000E-03 0.  1.
         11   -1    0    0    0    0 -0.00000000000E+00 -0.00000000000E+00 -0.45593999997E+02  0.45594000000E+02  0.51100000000E-03 0. -1.
    9900012    2    1    2    0    0  0.27031122958E+02 -0.30301774579E+02  0.20704297905E+01  0.50528857971E+02  0.29999994287E+02 0.  0.
         12    1    1    2    0    0 -0.27031122958E+02  0.30301774579E+02 -0.20704297905E+01  0.40659142029E+02  0.00000000000E+00 0. -1.
         11    1    3    3    0    0  0.18528470901E+02 -0.52967361688E+01  0.84529984679E+01  0.21043118384E+02  0.51100000000E-03 0. -1.
        -11    1    3    3    0    0  0.44156821982E+01 -0.49731417649E+01  0.26184115222E+01  0.71474797971E+01  0.51100000000E-03 0.  1.
        -12    1    3    3    0    0  0.40869698589E+01 -0.20031896646E+02 -0.90009801996E+01  0.22338259789E+02  0.00000000000E+00 0.  1.
</event>
<event>
 7    1  0.6726285E-013  0.5052883E+02  0.7816164E-02  0.1300439E+00
        -11   -1    0    0    0    0  0.00000000000E+00  0.00000000000E+00  0.45593999997E+02  0.45594000000E+02  0.51100000000E-03 0. -1.
         11   -1    0    0    0    0 -0.00000000000E+00 -0.00000000000E+00 -0.45593999997E+02  0.45594000000E+02  0.51100000000E-03 0.  1.
    9900012    2    1    2    0    0  0.34042112235E+02 -0.13861521130E+02 -0.17382786752E+02  0.50528825775E+02  0.29999896424E+02 0.  0.
         12    1    1    2    0    0 -0.34042112235E+02  0.13861521130E+02  0.17382786752E+02  0.40659174225E+02  0.00000000000E+00 0. -1.
         11    1    3    3    0    0  0.16806600562E+02  0.39475083204E+01 -0.73772711919E+01  0.18774151776E+02  0.51100000000E-03 0.  1.
        -11    1    3    3    0    0 -0.34283567194E+01 -0.32201143370E+01 -0.48900264653E+00  0.47288360077E+01  0.51100000000E-03 0. -1.
         12    1    3    3    0    0  0.20663868392E+02 -0.14588915113E+02 -0.95165129134E+01  0.27025837991E+02  0.00000000000E+00 0. -1.
</event>
<event>
 7    1  0.6726285E-013  0.5052886E+02  0.7816164E-02  0.1300439E+00
        -11   -1    0    0    0    0  0.00000000000E+00  0.00000000000E+00  0.45593999997E+02  0.45594000000E+02  0.51100000000E-03 0.  1.
         11   -1    0    0    0    0 -0.00000000000E+00 -0.00000000000E+00 -0.45593999997E+02  0.45594000000E+02  0.51100000000E-03 0. -1.
    9900012    2    1    2    0    0  0.23365372402E+02 -0.24310457158E+01  0.33186068072E+02  0.50528859271E+02  0.29999998240E+02 0.  0.
         12    1    1    2    0    0 -0.23365372402E+02  0.24310457158E+01 -0.33186068072E+02  0.40659140729E+02  0.00000000000E+00 0. -1.
         11    1    3    3    0    0  0.82656104667E+01 -0.13071323198E+00  0.35502453483E+01  0.89967574510E+01  0.51100000000E-03 0. -1.
        -11    1    3    3    0    0  0.94498055114E+01 -0.98990881168E+01  0.40834318210E+01  0.14281638052E+02  0.51100000000E-03 0.  1.
        -12    1    3    3    0    0  0.56499564241E+01  0.75987556330E+01  0.25552390902E+02  0.27250463768E+02  0.00000000000E+00 0.  1.
</event>
<event>
 7    1  0.6726285E-013  0.5052890E+02  0.7816164E-02  0.1300439E+00
        -11   -1    0    0    0    0  0.00000000000E+00  0.00000000000E+00  0.45593999997E+02  0.45594000000E+02  0.51100000000E-03 0.  1.
         11   -1    0    0    0    0 -0.00000000000E+00 -0.00000000000E+00 -0.45593999997E+02  0.45594000000E+02  0.51100000000E-03 0. -1.
    9900012    2    1    2    0    0 -0.18923069503E+02  0.10831235914E+02  0.34318570343E+02  0.50528898913E+02  0.30000118735E+02 0.  0.
         12    1    1    2    0    0  0.18923069503E+02 -0.10831235914E+02 -0.34318570343E+02  0.40659101087E+02  0.00000000000E+00 0. -1.
         11    1    3    3    0    0 -0.33358084909E+01  0.60766974897E+00  0.98441619174E+00  0.35307161188E+01  0.51100000000E-03 0. -1.
        -11    1    3    3    0    0 -0.21449893124E+02  0.46959805660E+00  0.24674397217E+02  0.32697772335E+02  0.51100000000E-03 0.  1.
         12    1    3    3    0    0  0.58626321121E+01  0.97539681080E+01  0.86597569342E+01  0.14300410459E+02  0.00000000000E+00 0. -1.
</event>
<event>
 7    1  0.6726285E-013  0.5052889E+02  0.7816164E-02  0.1300439E+00
        -11   -1    0    0    0    0  0.00000000000E+00  0.00000000000E+00  0.45593999997E+02  0.45594000000E+02  0.51100000000E-03 0. -1.
         11   -1    0    0    0    0 -0.00000000000E+00 -0.00000000000E+00 -0.45593999997E+02  0.45594000000E+02  0.51100000000E-03 0.  1.
    9900012    2    1    2    0    0  0.12211960453E+02  0.29143830919E+02 -0.25586486166E+02  0.50528891143E+02  0.30000095117E+02 0.  0.
         12    1    1    2    0    0 -0.12211960453E+02 -0.29143830919E+02  0.25586486166E+02  0.40659108857E+02  0.00000000000E+00 0. -1.
         11    1    3    3    0    0 -0.29676180819E+01 -0.24789118021E+01  0.13980800120E+01  0.41117379274E+01  0.51100000000E-03 0. -1.
        -11    1    3    3    0    0  0.88270849958E+00 -0.80835581130E-01 -0.54284979282E+01  0.55003907774E+01  0.51100000000E-03 0.  1.
        -12    1    3    3    0    0  0.14296870035E+02  0.31703578302E+02 -0.21556068250E+02  0.40916762438E+02  0.00000000000E+00 0.  1.
</event>
<event>
 7    1  0.6726285E-013  0.5052885E+02  0.7816164E-02  0.1300439E+00
        -11   -1    0    0    0    0  0.00000000000E+00  0.00000000000E+00  0.45593999997E+02  0.45594000000E+02  0.51100000000E-03 0.  1.
         11   -1    0    0    0    0 -0.00000000000E+00 -0.00000000000E+00 -0.45593999997E+02  0.45594000000E+02  0.51100000000E-03 0. -1.
    9900012    2    1    2    0    0 -0.24113606916E+02  0.11274411146E+02  0.30734153844E+02  0.50528848537E+02  0.29999965612E+02 0.  0.
         12    1    1    2    0    0  0.24113606916E+02 -0.11274411146E+02 -0.30734153844E+02  0.40659151463E+02  0.00000000000E+00 0. -1.
         11    1    3    3    0    0 -0.11357229812E+02 -0.19755227048E+01  0.78599413477E+01  0.13952348806E+02  0.51100000000E-03 0. -1.
        -11    1    3    3    0    0 -0.15830955561E+02  0.12375050444E+01  0.15274722496E+02  0.22033332029E+02  0.51100000000E-03 0.  1.
         12    1    3    3    0    0  0.30745784568E+01  0.12012428807E+02  0.75994900006E+01  0.14543167701E+02  0.00000000000E+00 0. -1.
</event>
<event>
 7    1  0.6726285E-013  0.5052886E+02  0.7816164E-02  0.1300439E+00
        -11   -1    0    0    0    0  0.00000000000E+00  0.00000000000E+00  0.45593999997E+02  0.45594000000E+02  0.51100000000E-03 0.  1.
         11   -1    0    0    0    0 -0.00000000000E+00 -0.00000000000E+00 -0.45593999997E+02  0.45594000000E+02  0.51100000000E-03 0. -1.
    9900012    2    1    2    0    0  0.38683379894E+01 -0.11958310305E+02  0.38667824413E+02  0.50528857498E+02  0.29999992852E+02 0.  0.
         12    1    1    2    0    0 -0.38683379894E+01  0.11958310305E+02 -0.38667824413E+02  0.40659142502E+02  0.00000000000E+00 0. -1.
         11    1    3    3    0    0  0.43086596368E+01  0.62984400998E+00 -0.58796452571E+00  0.43939678979E+01  0.51100000000E-03 0. -1.
        -11    1    3    3    0    0  0.61769147176E+01 -0.13627712805E+02  0.15880446438E+02  0.21818739906E+02  0.51100000000E-03 0.  1.
         12    1    3    3    0    0 -0.66172363650E+01  0.10395584904E+01  0.23375342500E+02  0.24316149695E+02  0.00000000000E+00 0. -1.
</event>
<event>
 7    1  0.6726285E-013  0.5052886E+02  0.7816164E-02  0.1300439E+00
        -11   -1    0    0    0    0  0.00000000000E+00  0.00000000000E+00  0.45593999997E+02  0.45594000000E+02  0.51100000000E-03 0. -1.
         11   -1    0    0    0    0 -0.00000000000E+00 -0.00000000000E+00 -0.45593999997E+02  0.45594000000E+02  0.51100000000E-03 0.  1.
    9900012    2    1    2    0    0 -0.33427693306E+02 -0.11012655812E+02 -0.20358683888E+02  0.50528864773E+02  0.30000014964E+02 0.  0.
         12    1    1    2    0    0  0.33427693306E+02  0.11012655812E+02  0.20358683888E+02  0.40659135227E+02  0.00000000000E+00 0. -1.
         11    1    3    3    0    0 -0.18425969869E+02  0.30364745943E+01 -0.48334395609E+01  0.19289859560E+02  0.51100000000E-03 0. -1.
        -11    1    3    3    0    0 -0.14163492660E+02 -0.17243881169E+01 -0.53620333492E+01  0.15242356793E+02  0.51100000000E-03 0.  1.
        -12    1    3    3    0    0 -0.83823077698E+00 -0.12324742289E+02 -0.10163210978E+02  0.15996648421E+02  0.00000000000E+00 0.  1.
</event>
<event>
 7    1  0.6726285E-013  0.5052886E+02  0.7816164E-02  0.1300439E+00
        -11   -1    0    0    0    0  0.00000000000E+00  0.00000000000E+00  0.45593999997E+02  0.45594000000E+02  0.51100000000E-03 0.  1.
         11   -1    0    0    0    0 -0.00000000000E+00 -0.00000000000E+00 -0.45593999997E+02  0.45594000000E+02  0.51100000000E-03 0. -1.
    9900012    2    1    2    0    0  0.63558818852E+01  0.36760002752E+02  0.16170057654E+02  0.50528858329E+02  0.29999995378E+02 0.  0.
         12    1    1    2    0    0 -0.63558818852E+01 -0.36760002752E+02 -0.16170057654E+02  0.40659141671E+02  0.00000000000E+00 0. -1.
         11    1    3    3    0    0  0.97497972860E+01  0.90389464902E+01 -0.10833886771E+01  0.13339221569E+02  0.51100000000E-03 0. -1.
        -11    1    3    3    0    0  0.46349577905E+01  0.66051242423E+00  0.30840863871E+01  0.56063089004E+01  0.51100000000E-03 0.  1.
         12    1    3    3    0    0 -0.80288731913E+01  0.27060543838E+02  0.14169359944E+02  0.31583327860E+02  0.00000000000E+00 0. -1.
</event>
<event>
 7    1  0.6726285E-013  0.5052886E+02  0.7816164E-02  0.1300439E+00
        -11   -1    0    0    0    0  0.00000000000E+00  0.00000000000E+00  0.45593999997E+02  0.45594000000E+02  0.51100000000E-03 0. -1.
         11   -1    0    0    0    0 -0.00000000000E+00 -0.00000000000E+00 -0.45593999997E+02  0.45594000000E+02  0.51100000000E-03 0.  1.
    9900012    2    1    2    0    0  0.29211555920E+02  0.15698723549E+02 -0.23524473234E+02  0.50528858823E+02  0.29999996878E+02 0.  0.
         12    1    1    2    0    0 -0.29211555920E+02 -0.15698723549E+02  0.23524473234E+02  0.40659141177E+02  0.00000000000E+00 0. -1.
         11    1    3    3    0    0 -0.61181431678E+00  0.74274122100E+00  0.34583573777E+01  0.35897377749E+01  0.51100000000E-03 0. -1.
        -11    1    3    3    0    0  0.77902269901E+01  0.44656244695E+01 -0.19412799684E+02  0.21388927750E+02  0.51100000000E-03 0.  1.
        -12    1    3    3    0    0  0.22033143247E+02  0.10490357858E+02 -0.75700309278E+01  0.25550193298E+02  0.00000000000E+00 0.  1.
</event>
<event>
 7    1  0.6726285E-013  0.5052884E+02  0.7816164E-02  0.1300439E+00
        -11   -1    0    0    0    0  0.00000000000E+00  0.00000000000E+00  0.45593999997E+02  0.45594000000E+02  0.51100000000E-03 0.  1.
         11   -1    0    0    0    0 -0.00000000000E+00 -0.00000000000E+00 -0.45593999997E+02  0.45594000000E+02  0.51100000000E-03 0. -1.
    9900012    2    1    2    0    0 -0.36535272945E+02  0.17357834681E+02  0.41287334594E+01  0.50528843172E+02  0.29999949307E+02 0.  0.
         12    1    1    2    0    0  0.36535272945E+02 -0.17357834681E+02 -0.41287334594E+01  0.40659156828E+02  0.00000000000E+00 0. -1.
         11    1    3    3    0    0 -0.73061608933E+01  0.66824439061E+01  0.73204057628E+01  0.12313544752E+02  0.51100000000E-03 0. -1.
        -11    1    3    3    0    0 -0.11346054825E+01 -0.76270065465E+00  0.62879761208E+01  0.64348804066E+01  0.51100000000E-03 0.  1.
         12    1    3    3    0    0 -0.28094506569E+02  0.11438091429E+02 -0.94796484243E+01  0.31780418014E+02  0.00000000000E+00 0. -1.
</event>
<event>
 7    1  0.6726285E-013  0.5052890E+02  0.7816164E-02  0.1300439E+00
        -11   -1    0    0    0    0  0.00000000000E+00  0.00000000000E+00  0.45593999997E+02  0.45594000000E+02  0.51100000000E-03 0. -1.
         11   -1    0    0    0    0 -0.00000000000E+00 -0.00000000000E+00 -0.45593999997E+02  0.45594000000E+02  0.51100000000E-03 0.  1.
    9900012    2    1    2    0    0  0.39456938035E+02 -0.94677608653E+01  0.25834678698E+01  0.50528895716E+02  0.30000109019E+02 0.  0.
         12    1    1    2    0    0 -0.39456938035E+02  0.94677608653E+01 -0.25834678698E+01  0.40659104284E+02  0.00000000000E+00 0. -1.
         11    1    3    3    0    0  0.21502916640E+02 -0.29942722875E+01  0.10976227446E+02  0.24327323317E+02  0.51100000000E-03 0. -1.
        -11    1    3    3    0    0  0.14664273342E+02 -0.49814333127E+01  0.16059860025E+01  0.15570317332E+02  0.51100000000E-03 0.  1.
        -12    1    3    3    0    0  0.32897480527E+01 -0.14920552651E+01 -0.99987455786E+01  0.10631255068E+02  0.00000000000E+00 0.  1.
</event>
<event>
 7    1  0.6726285E-013  0.5052892E+02  0.7816164E-02  0.1300439E+00
        -11   -1    0    0    0    0  0.00000000000E+00  0.00000000000E+00  0.45593999997E+02  0.45594000000E+02  0.51100000000E-03 0. -1.
         11   -1    0    0    0    0 -0.00000000000E+00 -0.00000000000E+00 -0.45593999997E+02  0.45594000000E+02  0.51100000000E-03 0.  1.
    9900012    2    1    2    0    0 -0.80364734077E+01  0.33151130565E+01 -0.39718831106E+02  0.50528924459E+02  0.30000196384E+02 0.  0.
         12    1    1    2    0    0  0.80364734077E+01 -0.33151130565E+01  0.39718831106E+02  0.40659075541E+02  0.00000000000E+00 0. -1.
         11    1    3    3    0    0 -0.49998730865E+00 -0.19016990510E+01  0.55179478459E+00  0.20422840974E+01  0.51100000000E-03 0. -1.
        -11    1    3    3    0    0 -0.19357925847E+01 -0.65566338278E+01 -0.75767346659E+00  0.68782853551E+01  0.51100000000E-03 0.  1.
         12    1    3    3    0    0 -0.56006935144E+01  0.11773445935E+02 -0.39512952424E+02  0.41608355006E+02  0.00000000000E+00 0. -1.
</event>
<event>
 7    1  0.6726285E-013  0.5052889E+02  0.7816164E-02  0.1300439E+00
        -11   -1    0    0    0    0  0.00000000000E+00  0.00000000000E+00  0.45593999997E+02  0.45594000000E+02  0.51100000000E-03 0. -1.
         11   -1    0    0    0    0 -0.00000000000E+00 -0.00000000000E+00 -0.45593999997E+02  0.45594000000E+02  0.51100000000E-03 0.  1.
    9900012    2    1    2    0    0  0.27558143538E+02  0.50859800154E+01 -0.29459208295E+02  0.50528887598E+02  0.30000084342E+02 0.  0.
         12    1    1    2    0    0 -0.27558143538E+02 -0.50859800154E+01  0.29459208295E+02  0.40659112402E+02  0.00000000000E+00 0. -1.
         11    1    3    3    0    0  0.21599657360E+02  0.47705575679E+01 -0.11499835295E+02  0.24930897089E+02  0.51100000000E-03 0. -1.
        -11    1    3    3    0    0  0.11047528656E+02  0.17039325509E+01 -0.63728937992E+01  0.12867208367E+02  0.51100000000E-03 0.  1.
         12    1    3    3    0    0 -0.50890424782E+01 -0.13885101033E+01 -0.11586479201E+02  0.12730782141E+02  0.00000000000E+00 0. -1.
</event>
<event>
 7    1  0.6726285E-013  0.5052886E+02  0.7816164E-02  0.1300439E+00
        -11   -1    0    0    0    0  0.00000000000E+00  0.00000000000E+00  0.45593999997E+02  0.45594000000E+02  0.51100000000E-03 0.  1.
         11   -1    0    0    0    0 -0.00000000000E+00 -0.00000000000E+00 -0.45593999997E+02  0.45594000000E+02  0.51100000000E-03 0. -1.
    9900012    2    1    2    0    0  0.29188124009E+02 -0.25769346625E+02  0.11711521952E+02  0.50528861359E+02  0.30000004586E+02 0.  0.
         12    1    1    2    0    0 -0.29188124009E+02  0.25769346625E+02 -0.11711521952E+02  0.40659138641E+02  0.00000000000E+00 0. -1.
         11    1    3    3    0    0  0.50682427215E+01  0.11330551773E+01 -0.34379696737E+01  0.62282047219E+01  0.51100000000E-03 0. -1.
        -11    1    3    3    0    0  0.71878450121E+01 -0.10811200184E+02 -0.45371794267E+01  0.13752569314E+02  0.51100000000E-03 0.  1.
         12    1    3    3    0    0  0.16932036275E+02 -0.16091201618E+02  0.19686671052E+02  0.30548087322E+02  0.00000000000E+00 0. -1.
</event>
<event>
 7    1  0.6726285E-013  0.5052887E+02  0.7816164E-02  0.1300439E+00
        -11   -1    0    0    0    0  0.00000000000E+00  0.00000000000E+00  0.45593999997E+02  0.45594000000E+02  0.51100000000E-03 0.  1.
         11   -1    0    0    0    0 -0.00000000000E+00 -0.00000000000E+00 -0.45593999997E+02  0.45594000000E+02  0.51100000000E-03 0. -1.
    9900012    2    1    2    0    0  0.32320204936E+02 -0.23661302848E+02  0.69794111454E+01  0.50528867207E+02  0.30000022361E+02 0.  0.
         12    1    1    2    0    0 -0.32320204936E+02  0.23661302848E+02 -0.69794111454E+01  0.40659132793E+02  0.00000000000E+00 0. -1.
         11    1    3    3    0    0 -0.31918034748E+01 -0.80944847605E+01 -0.28295924640E+01  0.91495839650E+01  0.51100000000E-03 0. -1.
        -11    1    3    3    0    0  0.14259694262E+02 -0.13725906155E+01  0.60377944855E+01  0.15545991379E+02  0.51100000000E-03 0.  1.
        -12    1    3    3    0    0  0.21252314149E+02 -0.14194227472E+02  0.37712091239E+01  0.25833291862E+02  0.00000000000E+00 0.  1.
</event>
<event>
 7    1  0.6726285E-013  0.5052886E+02  0.7816164E-02  0.1300439E+00
        -11   -1    0    0    0    0  0.00000000000E+00  0.00000000000E+00  0.45593999997E+02  0.45594000000E+02  0.51100000000E-03 0.  1.
         11   -1    0    0    0    0 -0.00000000000E+00 -0.00000000000E+00 -0.45593999997E+02  0.45594000000E+02  0.51100000000E-03 0. -1.
    9900012    2    1    2    0    0 -0.24671481038E+02  0.31937141359E+02  0.49500008285E+01  0.50528862245E+02  0.30000007280E+02 0.  0.
         12    1    1    2    0    0  0.24671481038E+02 -0.31937141359E+02 -0.49500008285E+01  0.40659137755E+02  0.00000000000E+00 0. -1.
         11    1    3    3    0    0 -0.25011152478E+02  0.17883371889E+02 -0.59034271419E+01  0.31308516265E+02  0.51100000000E-03 0. -1.
        -11    1    3    3    0    0 -0.18713531805E+01  0.12407395652E+01 -0.58217580344E-01  0.22460603159E+01  0.51100000000E-03 0.  1.
        -12    1    3    3    0    0  0.22110246209E+01  0.12813029904E+02  0.10911645551E+02  0.16974285665E+02  0.00000000000E+00 0.  1.
</event>
<event>
 7    1  0.6726285E-013  0.5052887E+02  0.7816164E-02  0.1300439E+00
        -11   -1    0    0    0    0  0.00000000000E+00  0.00000000000E+00  0.45593999997E+02  0.45594000000E+02  0.51100000000E-03 0.  1.
         11   -1    0    0    0    0 -0.00000000000E+00 -0.00000000000E+00 -0.45593999997E+02  0.45594000000E+02  0.51100000000E-03 0. -1.
    9900012    2    1    2    0    0 -0.30297197753E+02 -0.92412706687E+01  0.25492031510E+02  0.50528868851E+02  0.30000027360E+02 0.  0.
         12    1    1    2    0    0  0.30297197753E+02  0.92412706687E+01 -0.25492031510E+02  0.40659131149E+02  0.00000000000E+00 0. -1.
         11    1    3    3    0    0 -0.10274855302E+01  0.27452510867E+00  0.44504492722E+01  0.45757610882E+01  0.51100000000E-03 0. -1.
        -11    1    3    3    0    0 -0.30387498363E+02 -0.13076483473E+02  0.10402766894E+02  0.34678697151E+02  0.51100000000E-03 0.  1.
        -12    1    3    3    0    0  0.11177861408E+01  0.35606876953E+01  0.10638815344E+02  0.11274410612E+02  0.00000000000E+00 0.  1.
</event>
<event>
 7    1  0.6726285E-013  0.5052886E+02  0.7816164E-02  0.1300439E+00
        -11   -1    0    0    0    0  0.00000000000E+00  0.00000000000E+00  0.45593999997E+02  0.45594000000E+02  0.51100000000E-03 0.  1.
         11   -1    0    0    0    0 -0.00000000000E+00 -0.00000000000E+00 -0.45593999997E+02  0.45594000000E+02  0.51100000000E-03 0. -1.
    9900012    2    1    2    0    0 -0.93493464549E+01  0.28674869788E+02  0.27267333344E+02  0.50528857065E+02  0.29999991536E+02 0.  0.
         12    1    1    2    0    0  0.93493464549E+01 -0.28674869788E+02 -0.27267333344E+02  0.40659142935E+02  0.00000000000E+00 0. -1.
         11    1    3    3    0    0  0.26083421139E+01  0.37665361424E+00 -0.12103998043E+00  0.26381750257E+01  0.51100000000E-03 0. -1.
        -11    1    3    3    0    0  0.44592104530E+01  0.94285790774E+00  0.11248890050E+02  0.12137177041E+02  0.51100000000E-03 0.  1.
        -12    1    3    3    0    0 -0.16416899022E+02  0.27355358266E+02  0.16139483274E+02  0.35753504999E+02  0.00000000000E+00 0.  1.
</event>
<event>
 7    1  0.6726285E-013  0.5052887E+02  0.7816164E-02  0.1300439E+00
        -11   -1    0    0    0    0  0.00000000000E+00  0.00000000000E+00  0.45593999997E+02  0.45594000000E+02  0.51100000000E-03 0.  1.
         11   -1    0    0    0    0 -0.00000000000E+00 -0.00000000000E+00 -0.45593999997E+02  0.45594000000E+02  0.51100000000E-03 0. -1.
    9900012    2    1    2    0    0  0.53590145683E+01 -0.18199324533E+02  0.35961516425E+02  0.50528866780E+02  0.30000021066E+02 0.  0.
         12    1    1    2    0    0 -0.53590145683E+01  0.18199324533E+02 -0.35961516425E+02  0.40659133220E+02  0.00000000000E+00 0. -1.
         11    1    3    3    0    0  0.18188083856E+01 -0.24461549136E+02  0.22328461340E+02  0.33169800062E+02  0.51100000000E-03 0.  1.
        -11    1    3    3    0    0  0.29214914727E+01  0.34859071041E+01  0.13404656973E+01  0.47416779003E+01  0.51100000000E-03 0. -1.
        -12    1    3    3    0    0  0.61871471000E+00  0.27763174986E+01  0.12292589387E+02  0.12617388818E+02  0.00000000000E+00 0.  1.
</event>
<event>
 7    1  0.6726285E-013  0.5052886E+02  0.7816164E-02  0.1300439E+00
        -11   -1    0    0    0    0  0.00000000000E+00  0.00000000000E+00  0.45593999997E+02  0.45594000000E+02  0.51100000000E-03 0. -1.
         11   -1    0    0    0    0 -0.00000000000E+00 -0.00000000000E+00 -0.45593999997E+02  0.45594000000E+02  0.51100000000E-03 0.  1.
    9900012    2    1    2    0    0 -0.14423407567E+02 -0.36047022693E+02 -0.12072414007E+02  0.50528859443E+02  0.29999998763E+02 0.  0.
         12    1    1    2    0    0  0.14423407567E+02  0.36047022693E+02  0.12072414007E+02  0.40659140557E+02  0.00000000000E+00 0. -1.
         11    1    3    3    0    0  0.77521356007E+00  0.69467867198E+00 -0.27678589348E+01  0.29571232415E+01  0.51100000000E-03 0. -1.
        -11    1    3    3    0    0 -0.24126814449E+01 -0.75588801534E+01 -0.13273814830E+02  0.15464535600E+02  0.51100000000E-03 0.  1.
         12    1    3    3    0    0 -0.12785939683E+02 -0.29182821211E+02  0.39692597574E+01  0.32107200601E+02  0.00000000000E+00 0. -1.
</event>
<event>
 7    1  0.6726285E-013  0.5052883E+02  0.7816164E-02  0.1300439E+00
        -11   -1    0    0    0    0  0.00000000000E+00  0.00000000000E+00  0.45593999997E+02  0.45594000000E+02  0.51100000000E-03 0. -1.
         11   -1    0    0    0    0 -0.00000000000E+00 -0.00000000000E+00 -0.45593999997E+02  0.45594000000E+02  0.51100000000E-03 0.  1.
    9900012    2    1    2    0    0 -0.28635144045E+02 -0.24474115735E+02 -0.15304070176E+02  0.50528826626E+02  0.29999899012E+02 0.  0.
         12    1    1    2    0    0  0.28635144045E+02  0.24474115735E+02  0.15304070176E+02  0.40659173374E+02  0.00000000000E+00 0. -1.
         11    1    3    3    0    0 -0.38318312435E+01 -0.72164979802E+01 -0.68725873478E+01  0.10676761255E+02  0.51100000000E-03 0. -1.
        -11    1    3    3    0    0 -0.25649478400E+02 -0.21576738158E+02 -0.10308477225E+02  0.35067307776E+02  0.51100000000E-03 0.  1.
        -12    1    3    3    0    0  0.84616559788E+00  0.43191204031E+01  0.18769943972E+01  0.47847575950E+01  0.00000000000E+00 0.  1.
</event>
<event>
 7    1  0.6726285E-013  0.5052886E+02  0.7816164E-02  0.1300439E+00
        -11   -1    0    0    0    0  0.00000000000E+00  0.00000000000E+00  0.45593999997E+02  0.45594000000E+02  0.51100000000E-03 0.  1.
         11   -1    0    0    0    0 -0.00000000000E+00 -0.00000000000E+00 -0.45593999997E+02  0.45594000000E+02  0.51100000000E-03 0. -1.
    9900012    2    1    2    0    0  0.27073021040E+02 -0.27049670788E+02  0.13730725095E+02  0.50528856261E+02  0.29999989090E+02 0.  0.
         12    1    1    2    0    0 -0.27073021040E+02  0.27049670788E+02 -0.13730725095E+02  0.40659143739E+02  0.00000000000E+00 0. -1.
         11    1    3    3    0    0  0.82131599885E+01 -0.30694671092E+01  0.43242952038E+00  0.87786457317E+01  0.51100000000E-03 0. -1.
        -11    1    3    3    0    0  0.25008618546E+02 -0.19997456821E+02  0.90219026911E+01  0.33267461720E+02  0.51100000000E-03 0.  1.
         12    1    3    3    0    0 -0.61487574943E+01 -0.39827468581E+01  0.42763928832E+01  0.84827488087E+01  0.00000000000E+00 0. -1.
</event>
<event>
 7    1  0.1066576E-012  0.5052886E+02  0.7816164E-02  0.1300439E+00
        -11   -1    0    0    0    0  0.00000000000E+00  0.00000000000E+00  0.45593999997E+02  0.45594000000E+02  0.51100000000E-03 0. -1.
         11   -1    0    0    0    0 -0.00000000000E+00 -0.00000000000E+00 -0.45593999997E+02  0.45594000000E+02  0.51100000000E-03 0.  1.
    9900012    2    1    2    0    0  0.14807405465E+02 -0.11181346346E+02 -0.36178497182E+02  0.50528863006E+02  0.30000009593E+02 0.  0.
         12    1    1    2    0    0 -0.14807405465E+02  0.11181346346E+02  0.36178497182E+02  0.40659136994E+02  0.00000000000E+00 0. -1.
         11    1    3    3    0    0  0.66329584774E+01  0.20467468208E+01 -0.20794784525E+02  0.21922782087E+02  0.51100000000E-03 0. -1.
        -11    1    3    3    0    0  0.12730477220E+02 -0.10682263436E+02 -0.16333288132E+02  0.23301332662E+02  0.51100000000E-03 0.  1.
         12    1    3    3    0    0 -0.45560302318E+01 -0.25458297308E+01  0.94957547495E+00  0.53047482574E+01  0.00000000000E+00 0. -1.
</event>
<event>
 7    1  0.6726285E-013  0.5052886E+02  0.7816164E-02  0.1300439E+00
        -11   -1    0    0    0    0  0.00000000000E+00  0.00000000000E+00  0.45593999997E+02  0.45594000000E+02  0.51100000000E-03 0.  1.
         11   -1    0    0    0    0 -0.00000000000E+00 -0.00000000000E+00 -0.45593999997E+02  0.45594000000E+02  0.51100000000E-03 0. -1.
    9900012    2    1    2    0    0 -0.23087701824E+02 -0.48434516354E+01  0.33115926705E+02  0.50528860796E+02  0.30000002877E+02 0.  0.
         12    1    1    2    0    0  0.23087701824E+02  0.48434516354E+01 -0.33115926705E+02  0.40659139204E+02  0.00000000000E+00 0. -1.
         11    1    3    3    0    0 -0.77514070931E+01 -0.65270932019E+00  0.54602851917E+00  0.77979797886E+01  0.51100000000E-03 0. -1.
        -11    1    3    3    0    0 -0.12489411005E+02  0.41350247047E+01  0.54870829001E+01  0.14254539473E+02  0.51100000000E-03 0.  1.
         12    1    3    3    0    0 -0.28468837255E+01 -0.83257670199E+01  0.27082815286E+02  0.28476341535E+02  0.00000000000E+00 0. -1.
</event>
<event>
 7    1  0.6726285E-013  0.5052887E+02  0.7816164E-02  0.1300439E+00
        -11   -1    0    0    0    0  0.00000000000E+00  0.00000000000E+00  0.45593999997E+02  0.45594000000E+02  0.51100000000E-03 0.  1.
         11   -1    0    0    0    0 -0.00000000000E+00 -0.00000000000E+00 -0.45593999997E+02  0.45594000000E+02  0.51100000000E-03 0. -1.
    9900012    2    1    2    0    0  0.14942423535E+02 -0.15624627724E+02  0.34434867404E+02  0.50528866884E+02  0.30000021380E+02 0.  0.
         12    1    1    2    0    0 -0.14942423535E+02  0.15624627724E+02 -0.34434867404E+02  0.40659133116E+02  0.00000000000E+00 0. -1.
         11    1    3    3    0    0  0.80818997234E+01 -0.89791933606E+00  0.69857096472E+01  0.10720237955E+02  0.51100000000E-03 0.  1.
        -11    1    3    3    0    0  0.63308653615E+01  0.52461942584E+01  0.44720480096E+01  0.93595739264E+01  0.51100000000E-03 0. -1.
         12    1    3    3    0    0  0.52965844982E+00 -0.19972902647E+02  0.22977109747E+02  0.30449055002E+02  0.00000000000E+00 0. -1.
</event>
<event>
 7    1  0.6726285E-013  0.5052886E+02  0.7816164E-02  0.1300439E+00
        -11   -1    0    0    0    0  0.00000000000E+00  0.00000000000E+00  0.45593999997E+02  0.45594000000E+02  0.51100000000E-03 0.  1.
         11   -1    0    0    0    0 -0.00000000000E+00 -0.00000000000E+00 -0.45593999997E+02  0.45594000000E+02  0.51100000000E-03 0. -1.
    9900012    2    1    2    0    0 -0.30575014591E+02  0.85662423738E+01  0.25395929899E+02  0.50528864728E+02  0.30000014826E+02 0.  0.
         12    1    1    2    0    0  0.30575014591E+02 -0.85662423738E+01 -0.25395929899E+02  0.40659135272E+02  0.00000000000E+00 0. -1.
         11    1    3    3    0    0 -0.47943185622E+01 -0.32880773229E+01  0.18751832257E+01  0.61084576899E+01  0.51100000000E-03 0. -1.
        -11    1    3    3    0    0 -0.21520204420E+02  0.39233031900E+01  0.30875054087E+01  0.22091722344E+02  0.51100000000E-03 0.  1.
        -12    1    3    3    0    0 -0.42604916086E+01  0.79310165067E+01  0.20433241265E+02  0.22328684694E+02  0.00000000000E+00 0.  1.
</event>
<event>
 7    1  0.6726285E-013  0.5052886E+02  0.7816164E-02  0.1300439E+00
        -11   -1    0    0    0    0  0.00000000000E+00  0.00000000000E+00  0.45593999997E+02  0.45594000000E+02  0.51100000000E-03 0.  1.
         11   -1    0    0    0    0 -0.00000000000E+00 -0.00000000000E+00 -0.45593999997E+02  0.45594000000E+02  0.51100000000E-03 0. -1.
    9900012    2    1    2    0    0  0.38364239412E+02 -0.11566123376E+02  0.68975242104E+01  0.50528856922E+02  0.29999991100E+02 0.  0.
         12    1    1    2    0    0 -0.38364239412E+02  0.11566123376E+02 -0.68975242104E+01  0.40659143078E+02  0.00000000000E+00 0. -1.
         11    1    3    3    0    0  0.21638613814E+02 -0.20757993116E+01  0.59337288857E+01  0.22533257406E+02  0.51100000000E-03 0. -1.
        -11    1    3    3    0    0  0.17138736635E+02  0.70175707669E+00  0.34498300509E+01  0.17496573495E+02  0.51100000000E-03 0.  1.
         12    1    3    3    0    0 -0.41311103742E+00 -0.10192081141E+02 -0.24860347262E+01  0.10499026020E+02  0.00000000000E+00 0. -1.
</event>
<event>
 7    1  0.6726285E-013  0.5052885E+02  0.7816164E-02  0.1300439E+00
        -11   -1    0    0    0    0  0.00000000000E+00  0.00000000000E+00  0.45593999997E+02  0.45594000000E+02  0.51100000000E-03 0.  1.
         11   -1    0    0    0    0 -0.00000000000E+00 -0.00000000000E+00 -0.45593999997E+02  0.45594000000E+02  0.51100000000E-03 0. -1.
    9900012    2    1    2    0    0 -0.11176052200E+02 -0.99894670009E+01  0.37795145480E+02  0.50528848317E+02  0.29999964944E+02 0.  0.
         12    1    1    2    0    0  0.11176052200E+02  0.99894670009E+01 -0.37795145480E+02  0.40659151683E+02  0.00000000000E+00 0. -1.
         11    1    3    3    0    0 -0.12805492236E+02 -0.11616261464E+02  0.80091266198E+01  0.19054245492E+02  0.51100000000E-03 0.  1.
        -11    1    3    3    0    0 -0.41944096710E+01  0.36231766482E+00  0.12097595808E+02  0.12809222114E+02  0.51100000000E-03 0. -1.
        -12    1    3    3    0    0  0.58238497073E+01  0.12644767980E+01  0.17688423053E+02  0.18665380711E+02  0.00000000000E+00 0.  1.
</event>
<event>
 7    1  0.6726285E-013  0.5052885E+02  0.7816164E-02  0.1300439E+00
        -11   -1    0    0    0    0  0.00000000000E+00  0.00000000000E+00  0.45593999997E+02  0.45594000000E+02  0.51100000000E-03 0.  1.
         11   -1    0    0    0    0 -0.00000000000E+00 -0.00000000000E+00 -0.45593999997E+02  0.45594000000E+02  0.51100000000E-03 0. -1.
    9900012    2    1    2    0    0  0.22626245103E+02 -0.12187814840E+02  0.31506770433E+02  0.50528851199E+02  0.29999973706E+02 0.  0.
         12    1    1    2    0    0 -0.22626245103E+02  0.12187814840E+02 -0.31506770433E+02  0.40659148801E+02  0.00000000000E+00 0. -1.
         11    1    3    3    0    0  0.20145294975E+02 -0.60704782283E+01  0.15708181405E+02  0.26257010090E+02  0.51100000000E-03 0. -1.
        -11    1    3    3    0    0 -0.26995791297E+00  0.36019823914E+01 -0.17577143129E+01  0.40170529359E+01  0.51100000000E-03 0.  1.
         12    1    3    3    0    0  0.27509080410E+01 -0.97193190033E+01  0.17556303341E+02  0.20254788173E+02  0.00000000000E+00 0. -1.
</event>
<event>
 7    1  0.6726285E-013  0.5052886E+02  0.7816164E-02  0.1300439E+00
        -11   -1    0    0    0    0  0.00000000000E+00  0.00000000000E+00  0.45593999997E+02  0.45594000000E+02  0.51100000000E-03 0.  1.
         11   -1    0    0    0    0 -0.00000000000E+00 -0.00000000000E+00 -0.45593999997E+02  0.45594000000E+02  0.51100000000E-03 0. -1.
    9900012    2    1    2    0    0 -0.26759755012E+02  0.21358381801E+02  0.21929444584E+02  0.50528862021E+02  0.30000006599E+02 0.  0.
         12    1    1    2    0    0  0.26759755012E+02 -0.21358381801E+02 -0.21929444584E+02  0.40659137979E+02  0.00000000000E+00 0. -1.
         11    1    3    3    0    0 -0.87020823957E+01 -0.22052948173E+01  0.12439881163E+00  0.89780308854E+01  0.51100000000E-03 0. -1.
        -11    1    3    3    0    0 -0.88409001432E+01 -0.11956225964E+01  0.62456656308E+01  0.10890333703E+02  0.51100000000E-03 0.  1.
         12    1    3    3    0    0 -0.92167724730E+01  0.24759299215E+02  0.15559380141E+02  0.30660497432E+02  0.00000000000E+00 0. -1.
</event>
<event>
 7    1  0.6726285E-013  0.5052886E+02  0.7816164E-02  0.1300439E+00
        -11   -1    0    0    0    0  0.00000000000E+00  0.00000000000E+00  0.45593999997E+02  0.45594000000E+02  0.51100000000E-03 0.  1.
         11   -1    0    0    0    0 -0.00000000000E+00 -0.00000000000E+00 -0.45593999997E+02  0.45594000000E+02  0.51100000000E-03 0. -1.
    9900012    2    1    2    0    0  0.13349373492E+02 -0.12374600367E+02  0.36356969871E+02  0.50528858776E+02  0.29999996735E+02 0.  0.
         12    1    1    2    0    0 -0.13349373492E+02  0.12374600367E+02 -0.36356969871E+02  0.40659141224E+02  0.00000000000E+00 0. -1.
         11    1    3    3    0    0  0.81783158188E+01 -0.12681671996E+02  0.16789938127E+02  0.22574580324E+02  0.51100000000E-03 0. -1.
        -11    1    3    3    0    0  0.12314836665E+02 -0.15458169410E+01  0.10452764453E+02  0.16226676711E+02  0.51100000000E-03 0.  1.
         12    1    3    3    0    0 -0.71437789922E+01  0.18528885696E+01  0.91142672914E+01  0.11727601741E+02  0.00000000000E+00 0. -1.
</event>
<event>
 7    1  0.6726285E-013  0.5052886E+02  0.7816164E-02  0.1300439E+00
        -11   -1    0    0    0    0  0.00000000000E+00  0.00000000000E+00  0.45593999997E+02  0.45594000000E+02  0.51100000000E-03 0.  1.
         11   -1    0    0    0    0 -0.00000000000E+00 -0.00000000000E+00 -0.45593999997E+02  0.45594000000E+02  0.51100000000E-03 0. -1.
    9900012    2    1    2    0    0  0.24919374297E+02 -0.31935613740E+02 -0.35081725912E+01  0.50528856929E+02  0.29999991122E+02 0.  0.
         12    1    1    2    0    0 -0.24919374297E+02  0.31935613740E+02  0.35081725912E+01  0.40659143071E+02  0.00000000000E+00 0. -1.
         11    1    3    3    0    0 -0.38854399585E+01 -0.22516906942E+01 -0.29790064337E+01  0.53889919509E+01  0.51100000000E-03 0. -1.
        -11    1    3    3    0    0  0.23884966960E+02 -0.29268786909E+02 -0.54503495208E+01  0.38168833411E+02  0.51100000000E-03 0.  1.
         12    1    3    3    0    0  0.49198472952E+01 -0.41513613746E+00  0.49211833634E+01  0.69710315676E+01  0.00000000000E+00 0. -1.
</event>
<event>
 7    1  0.6726285E-013  0.5052888E+02  0.7816164E-02  0.1300439E+00
        -11   -1    0    0    0    0  0.00000000000E+00  0.00000000000E+00  0.45593999997E+02  0.45594000000E+02  0.51100000000E-03 0.  1.
         11   -1    0    0    0    0 -0.00000000000E+00 -0.00000000000E+00 -0.45593999997E+02  0.45594000000E+02  0.51100000000E-03 0. -1.
    9900012    2    1    2    0    0  0.34233873856E+02  0.29525260963E+01  0.21736803394E+02  0.50528878621E+02  0.30000057055E+02 0.  0.
         12    1    1    2    0    0 -0.34233873856E+02 -0.29525260963E+01 -0.21736803394E+02  0.40659121379E+02  0.00000000000E+00 0. -1.
         11    1    3    3    0    0  0.12551636147E+02 -0.54118556913E+01  0.11898478541E+02  0.18121963024E+02  0.51100000000E-03 0.  1.
        -11    1    3    3    0    0  0.61693985263E+00 -0.44671386763E+01  0.59043826738E+01  0.74295139649E+01  0.51100000000E-03 0. -1.
         12    1    3    3    0    0  0.21065297857E+02  0.12831520464E+02  0.39339421791E+01  0.24977401632E+02  0.00000000000E+00 0. -1.
</event>
<event>
 7    1  0.6726285E-013  0.5052886E+02  0.7816164E-02  0.1300439E+00
        -11   -1    0    0    0    0  0.00000000000E+00  0.00000000000E+00  0.45593999997E+02  0.45594000000E+02  0.51100000000E-03 0.  1.
         11   -1    0    0    0    0 -0.00000000000E+00 -0.00000000000E+00 -0.45593999997E+02  0.45594000000E+02  0.51100000000E-03 0. -1.
    9900012    2    1    2    0    0 -0.29529371293E+02  0.13085314657E+02  0.24697292245E+02  0.50528862369E+02  0.30000007658E+02 0.  0.
         12    1    1    2    0    0  0.29529371293E+02 -0.13085314657E+02 -0.24697292245E+02  0.40659137631E+02  0.00000000000E+00 0. -1.
         11    1    3    3    0    0  0.28833595616E+01 -0.19818185731E+01 -0.13344101514E+01  0.37445985007E+01  0.51100000000E-03 0. -1.
        -11    1    3    3    0    0 -0.28125138449E+02  0.63783573426E+01  0.16666184670E+02  0.33308686058E+02  0.51100000000E-03 0.  1.
        -12    1    3    3    0    0 -0.42875924053E+01  0.86887758871E+01  0.93655177268E+01  0.13475577811E+02  0.00000000000E+00 0.  1.
</event>
<event>
 7    1  0.7007733E-013  0.5052878E+02  0.7816164E-02  0.1300439E+00
        -11   -1    0    0    0    0  0.00000000000E+00  0.00000000000E+00  0.45593999997E+02  0.45594000000E+02  0.51100000000E-03 0.  1.
         11   -1    0    0    0    0 -0.00000000000E+00 -0.00000000000E+00 -0.45593999997E+02  0.45594000000E+02  0.51100000000E-03 0. -1.
    9900012    2    1    2    0    0 -0.22854131224E+02 -0.33240907437E+02  0.50894637009E+01  0.50528783554E+02  0.29999768090E+02 0.  0.
         12    1    1    2    0    0  0.22854131224E+02  0.33240907437E+02 -0.50894637009E+01  0.40659216446E+02  0.00000000000E+00 0. -1.
         11    1    3    3    0    0  0.45462124583E-02 -0.55116879195E+01 -0.35857597119E+01  0.65754389483E+01  0.51100000000E-03 0. -1.
        -11    1    3    3    0    0 -0.29970967660E+00 -0.18390546814E+02  0.62129110586E+01  0.19413971827E+02  0.51100000000E-03 0.  1.
         12    1    3    3    0    0 -0.22558967760E+02 -0.93386727033E+01  0.24623123542E+01  0.24539372779E+02  0.00000000000E+00 0. -1.
</event>
<event>
 7    1  0.6726285E-013  0.5052887E+02  0.7816164E-02  0.1300439E+00
        -11   -1    0    0    0    0  0.00000000000E+00  0.00000000000E+00  0.45593999997E+02  0.45594000000E+02  0.51100000000E-03 0.  1.
         11   -1    0    0    0    0 -0.00000000000E+00 -0.00000000000E+00 -0.45593999997E+02  0.45594000000E+02  0.51100000000E-03 0. -1.
    9900012    2    1    2    0    0  0.35680404031E+01 -0.40489648748E+02  0.10109944482E+01  0.50528872147E+02  0.30000037377E+02 0.  0.
         12    1    1    2    0    0 -0.35680404031E+01  0.40489648748E+02 -0.10109944482E+01  0.40659127853E+02  0.00000000000E+00 0. -1.
         11    1    3    3    0    0  0.61963125770E+01 -0.63532275173E+01 -0.74796347252E+01  0.11606150323E+02  0.51100000000E-03 0. -1.
        -11    1    3    3    0    0  0.13551594409E+01 -0.27432232780E+01  0.65369241052E+01  0.72175555475E+01  0.51100000000E-03 0.  1.
         12    1    3    3    0    0 -0.39834316147E+01 -0.31393197952E+02  0.19537050682E+01  0.31705166276E+02  0.00000000000E+00 0. -1.
</event>
<event>
 7    1  0.6726285E-013  0.5052887E+02  0.7816164E-02  0.1300439E+00
        -11   -1    0    0    0    0  0.00000000000E+00  0.00000000000E+00  0.45593999997E+02  0.45594000000E+02  0.51100000000E-03 0.  1.
         11   -1    0    0    0    0 -0.00000000000E+00 -0.00000000000E+00 -0.45593999997E+02  0.45594000000E+02  0.51100000000E-03 0. -1.
    9900012    2    1    2    0    0 -0.33121374315E+02  0.10833361630E+02  0.20947027246E+02  0.50528866818E+02  0.30000021179E+02 0.  0.
         12    1    1    2    0    0  0.33121374315E+02 -0.10833361630E+02 -0.20947027246E+02  0.40659133182E+02  0.00000000000E+00 0. -1.
         11    1    3    3    0    0 -0.98229646199E+01 -0.79758267654E+01  0.23461424623E+00  0.12655413491E+02  0.51100000000E-03 0. -1.
        -11    1    3    3    0    0 -0.20167736257E+01  0.36524108257E+01  0.75307398530E+01  0.86092696375E+01  0.51100000000E-03 0.  1.
        -12    1    3    3    0    0 -0.21281636069E+02  0.15156777569E+02  0.13181673147E+02  0.29264183689E+02  0.00000000000E+00 0.  1.
</event>
<event>
 7    1  0.6726285E-013  0.5052885E+02  0.7816164E-02  0.1300439E+00
        -11   -1    0    0    0    0  0.00000000000E+00  0.00000000000E+00  0.45593999997E+02  0.45594000000E+02  0.51100000000E-03 0. -1.
         11   -1    0    0    0    0 -0.00000000000E+00 -0.00000000000E+00 -0.45593999997E+02  0.45594000000E+02  0.51100000000E-03 0.  1.
    9900012    2    1    2    0    0 -0.30863561881E+02  0.19146832492E+02  0.18275818771E+02  0.50528853450E+02  0.29999980546E+02 0.  0.
         12    1    1    2    0    0  0.30863561881E+02 -0.19146832492E+02 -0.18275818771E+02  0.40659146550E+02  0.00000000000E+00 0. -1.
         11    1    3    3    0    0 -0.63600785590E+01  0.61592731716E+01  0.18735555920E+02  0.20722169316E+02  0.51100000000E-03 0. -1.
        -11    1    3    3    0    0 -0.49012574499E+01  0.48717457527E+01  0.41977035915E+01  0.80856012128E+01  0.51100000000E-03 0.  1.
         12    1    3    3    0    0 -0.19602225872E+02  0.81158135673E+01 -0.46574407407E+01  0.21721082921E+02  0.00000000000E+00 0. -1.
</event>
<event>
 7    1  0.6726285E-013  0.5052886E+02  0.7816164E-02  0.1300439E+00
        -11   -1    0    0    0    0  0.00000000000E+00  0.00000000000E+00  0.45593999997E+02  0.45594000000E+02  0.51100000000E-03 0. -1.
         11   -1    0    0    0    0 -0.00000000000E+00 -0.00000000000E+00 -0.45593999997E+02  0.45594000000E+02  0.51100000000E-03 0.  1.
    9900012    2    1    2    0    0 -0.24347624723E+02  0.72065353134E+01 -0.31755699047E+02  0.50528863230E+02  0.30000010275E+02 0.  0.
         12    1    1    2    0    0  0.24347624723E+02 -0.72065353134E+01  0.31755699047E+02  0.40659136770E+02  0.00000000000E+00 0. -1.
         11    1    3    3    0    0  0.13934260503E+00  0.15714639106E+00  0.13514021938E+01  0.13676254971E+01  0.51100000000E-03 0. -1.
        -11    1    3    3    0    0  0.26862071032E+01  0.56494051757E+01 -0.15597024473E+02  0.16804721364E+02  0.51100000000E-03 0.  1.
        -12    1    3    3    0    0 -0.27173174431E+02  0.13999837467E+01 -0.17510076768E+02  0.32356516370E+02  0.00000000000E+00 0.  1.
</event>
<event>
 7    1  0.6726285E-013  0.5052885E+02  0.7816164E-02  0.1300439E+00
        -11   -1    0    0    0    0  0.00000000000E+00  0.00000000000E+00  0.45593999997E+02  0.45594000000E+02  0.51100000000E-03 0.  1.
         11   -1    0    0    0    0 -0.00000000000E+00 -0.00000000000E+00 -0.45593999997E+02  0.45594000000E+02  0.51100000000E-03 0. -1.
    9900012    2    1    2    0    0  0.25995332606E+02 -0.17416386324E+02  0.25963024784E+02  0.50528849913E+02  0.29999969794E+02 0.  0.
         12    1    1    2    0    0 -0.25995332606E+02  0.17416386324E+02 -0.25963024784E+02  0.40659150087E+02  0.00000000000E+00 0. -1.
         11    1    3    3    0    0  0.52665003780E+01  0.56072771437E+01  0.12733413732E+02  0.14876740528E+02  0.51100000000E-03 0. -1.
        -11    1    3    3    0    0  0.68276082217E-01 -0.30601507389E+01  0.48324757331E+01  0.57203152134E+01  0.51100000000E-03 0.  1.
        -12    1    3    3    0    0  0.20660556146E+02 -0.19963512729E+02  0.83971353186E+01  0.29931794171E+02  0.00000000000E+00 0.  1.
</event>
<event>
 7    1  0.6726285E-013  0.5052887E+02  0.7816164E-02  0.1300439E+00
        -11   -1    0    0    0    0  0.00000000000E+00  0.00000000000E+00  0.45593999997E+02  0.45594000000E+02  0.51100000000E-03 0. -1.
         11   -1    0    0    0    0 -0.00000000000E+00 -0.00000000000E+00 -0.45593999997E+02  0.45594000000E+02  0.51100000000E-03 0.  1.
    9900012    2    1    2    0    0  0.18272411967E+01  0.72068644232E+01 -0.39973584825E+02  0.50528865861E+02  0.30000018270E+02 0.  0.
         12    1    1    2    0    0 -0.18272411967E+01 -0.72068644232E+01  0.39973584825E+02  0.40659134139E+02  0.00000000000E+00 0. -1.
         11    1    3    3    0    0 -0.76772327122E+01  0.16060205368E+01 -0.21346904714E+01  0.81287211634E+01  0.51100000000E-03 0. -1.
        -11    1    3    3    0    0 -0.43638004000E+01  0.14357041241E+01 -0.10567976769E+02  0.11523286576E+02  0.51100000000E-03 0.  1.
        -12    1    3    3    0    0  0.13868274309E+02  0.41651397622E+01 -0.27270917584E+02  0.30876858121E+02  0.00000000000E+00 0.  1.
</event>
<event>
 7    1  0.6726285E-013  0.5052886E+02  0.7816164E-02  0.1300439E+00
        -11   -1    0    0    0    0  0.00000000000E+00  0.00000000000E+00  0.45593999997E+02  0.45594000000E+02  0.51100000000E-03 0.  1.
         11   -1    0    0    0    0 -0.00000000000E+00 -0.00000000000E+00 -0.45593999997E+02  0.45594000000E+02  0.51100000000E-03 0. -1.
    9900012    2    1    2    0    0  0.16106594331E+02 -0.14063207648E+02  0.34582792894E+02  0.50528858904E+02  0.29999997126E+02 0.  0.
         12    1    1    2    0    0 -0.16106594331E+02  0.14063207648E+02 -0.34582792894E+02  0.40659141096E+02  0.00000000000E+00 0. -1.
         11    1    3    3    0    0  0.85255255946E+00  0.66191476407E+01  0.43765829975E+01  0.79808796727E+01  0.51100000000E-03 0. -1.
        -11    1    3    3    0    0  0.16649231419E+02 -0.14859977678E+02  0.17019196482E+02  0.28065439469E+02  0.51100000000E-03 0.  1.
         12    1    3    3    0    0 -0.13951896469E+01 -0.58223776105E+01  0.13187013415E+02  0.14482539763E+02  0.00000000000E+00 0. -1.
</event>
<event>
 7    1  0.6726285E-013  0.5052886E+02  0.7816164E-02  0.1300439E+00
        -11   -1    0    0    0    0  0.00000000000E+00  0.00000000000E+00  0.45593999997E+02  0.45594000000E+02  0.51100000000E-03 0. -1.
         11   -1    0    0    0    0 -0.00000000000E+00 -0.00000000000E+00 -0.45593999997E+02  0.45594000000E+02  0.51100000000E-03 0.  1.
    9900012    2    1    2    0    0 -0.19158230573E+02  0.22661468751E+02 -0.27795422447E+02  0.50528862360E+02  0.30000007630E+02 0.  0.
         12    1    1    2    0    0  0.19158230573E+02 -0.22661468751E+02  0.27795422447E+02  0.40659137640E+02  0.00000000000E+00 0. -1.
         11    1    3    3    0    0 -0.50776575557E+01  0.10811506630E+02 -0.60856743004E+01  0.13405473279E+02  0.51100000000E-03 0. -1.
        -11    1    3    3    0    0 -0.92923140102E+01  0.16186641408E+02 -0.23879846101E+02  0.30308439581E+02  0.51100000000E-03 0.  1.
         12    1    3    3    0    0 -0.47882590073E+01 -0.43366792876E+01  0.21700979551E+01  0.68149495009E+01  0.00000000000E+00 0. -1.
</event>
<event>
 7    1  0.6726285E-013  0.5052886E+02  0.7816164E-02  0.1300439E+00
        -11   -1    0    0    0    0  0.00000000000E+00  0.00000000000E+00  0.45593999997E+02  0.45594000000E+02  0.51100000000E-03 0. -1.
         11   -1    0    0    0    0 -0.00000000000E+00 -0.00000000000E+00 -0.45593999997E+02  0.45594000000E+02  0.51100000000E-03 0.  1.
    9900012    2    1    2    0    0 -0.16586495211E+02  0.34273622904E+01 -0.36963589354E+02  0.50528861131E+02  0.30000003894E+02 0.  0.
         12    1    1    2    0    0  0.16586495211E+02 -0.34273622904E+01  0.36963589354E+02  0.40659138869E+02  0.00000000000E+00 0. -1.
         11    1    3    3    0    0  0.16705374463E+01 -0.62756596793E+01 -0.58166364032E+01  0.87182486245E+01  0.51100000000E-03 0. -1.
        -11    1    3    3    0    0 -0.14834424045E+02 -0.19922571283E+01 -0.21842419033E+02  0.26478680002E+02  0.51100000000E-03 0.  1.
         12    1    3    3    0    0 -0.34226086126E+01  0.11695279098E+02 -0.93045339177E+01  0.15331932504E+02  0.00000000000E+00 0. -1.
</event>
<event>
 7    1  0.6726285E-013  0.5052887E+02  0.7816164E-02  0.1300439E+00
        -11   -1    0    0    0    0  0.00000000000E+00  0.00000000000E+00  0.45593999997E+02  0.45594000000E+02  0.51100000000E-03 0.  1.
         11   -1    0    0    0    0 -0.00000000000E+00 -0.00000000000E+00 -0.45593999997E+02  0.45594000000E+02  0.51100000000E-03 0. -1.
    9900012    2    1    2    0    0 -0.13056320765E+01 -0.17673816098E+02  0.36593667759E+02  0.50528868545E+02  0.30000026430E+02 0.  0.
         12    1    1    2    0    0  0.13056320765E+01  0.17673816098E+02 -0.36593667759E+02  0.40659131455E+02  0.00000000000E+00 0. -1.
         11    1    3    3    0    0 -0.69124603330E+00  0.21937247529E+00 -0.17554640510E+01  0.18993682257E+01  0.51100000000E-03 0. -1.
        -11    1    3    3    0    0  0.93334202285E+01 -0.64789019034E+00  0.78774532902E+01  0.12230566850E+02  0.51100000000E-03 0.  1.
        -12    1    3    3    0    0 -0.99478062718E+01 -0.17245298382E+02  0.30471678520E+02  0.36398933470E+02  0.00000000000E+00 0.  1.
</event>
<event>
 7    1  0.6726285E-013  0.5052885E+02  0.7816164E-02  0.1300439E+00
        -11   -1    0    0    0    0  0.00000000000E+00  0.00000000000E+00  0.45593999997E+02  0.45594000000E+02  0.51100000000E-03 0. -1.
         11   -1    0    0    0    0 -0.00000000000E+00 -0.00000000000E+00 -0.45593999997E+02  0.45594000000E+02  0.51100000000E-03 0.  1.
    9900012    2    1    2    0    0 -0.31985606298E+02 -0.18597182189E+02 -0.16859184009E+02  0.50528852431E+02  0.29999977449E+02 0.  0.
         12    1    1    2    0    0  0.31985606298E+02  0.18597182189E+02  0.16859184009E+02  0.40659147569E+02  0.00000000000E+00 0. -1.
         11    1    3    3    0    0 -0.19271589328E+01 -0.43374008438E+01  0.63579213575E+01  0.79341131754E+01  0.51100000000E-03 0. -1.
        -11    1    3    3    0    0 -0.29513745996E+01 -0.67894695261E+01 -0.31225436986E+01  0.80347861131E+01  0.51100000000E-03 0.  1.
         12    1    3    3    0    0 -0.27107072765E+02 -0.74703118194E+01 -0.20094561668E+02  0.34559953142E+02  0.00000000000E+00 0. -1.
</event>
<event>
 7    1  0.6726285E-013  0.5052886E+02  0.7816164E-02  0.1300439E+00
        -11   -1    0    0    0    0  0.00000000000E+00  0.00000000000E+00  0.45593999997E+02  0.45594000000E+02  0.51100000000E-03 0. -1.
         11   -1    0    0    0    0 -0.00000000000E+00 -0.00000000000E+00 -0.45593999997E+02  0.45594000000E+02  0.51100000000E-03 0.  1.
    9900012    2    1    2    0    0 -0.36702807960E+02 -0.16742001296E+02 -0.50768881074E+01  0.50528861883E+02  0.30000006180E+02 0.  0.
         12    1    1    2    0    0  0.36702807960E+02  0.16742001296E+02  0.50768881074E+01  0.40659138117E+02  0.00000000000E+00 0. -1.
         11    1    3    3    0    0 -0.18440473049E+02 -0.23633432789E+01  0.34497553108E+01  0.18908655418E+02  0.51100000000E-03 0. -1.
        -11    1    3    3    0    0 -0.11382220219E+02  0.24714417654E+01 -0.31186066960E+00  0.11651618722E+02  0.51100000000E-03 0.  1.
        -12    1    3    3    0    0 -0.68801146921E+01 -0.16850099782E+02 -0.82147827486E+01  0.19968587743E+02  0.00000000000E+00 0.  1.
</event>
<event>
 7    1  0.6726285E-013  0.5052888E+02  0.7816164E-02  0.1300439E+00
        -11   -1    0    0    0    0  0.00000000000E+00  0.00000000000E+00  0.45593999997E+02  0.45594000000E+02  0.51100000000E-03 0.  1.
         11   -1    0    0    0    0 -0.00000000000E+00 -0.00000000000E+00 -0.45593999997E+02  0.45594000000E+02  0.51100000000E-03 0. -1.
    9900012    2    1    2    0    0 -0.32531161007E+02  0.17350275325E+02  0.17142212725E+02  0.50528881128E+02  0.30000064677E+02 0.  0.
         12    1    1    2    0    0  0.32531161007E+02 -0.17350275325E+02 -0.17142212725E+02  0.40659118872E+02  0.00000000000E+00 0. -1.
         11    1    3    3    0    0 -0.10798326089E+02  0.86205932759E+01 -0.35287979189E+01  0.14260816588E+02  0.51100000000E-03 0. -1.
        -11    1    3    3    0    0 -0.23008232514E+02  0.83144616540E+01  0.11558720146E+02  0.27057587618E+02  0.51100000000E-03 0.  1.
        -12    1    3    3    0    0  0.12753975958E+01  0.41522039510E+00  0.91122904985E+01  0.92104769221E+01  0.00000000000E+00 0.  1.
</event>
<event>
 7    1  0.6726285E-013  0.5052882E+02  0.7816164E-02  0.1300439E+00
        -11   -1    0    0    0    0  0.00000000000E+00  0.00000000000E+00  0.45593999997E+02  0.45594000000E+02  0.51100000000E-03 0. -1.
         11   -1    0    0    0    0 -0.00000000000E+00 -0.00000000000E+00 -0.45593999997E+02  0.45594000000E+02  0.51100000000E-03 0.  1.
    9900012    2    1    2    0    0 -0.34757145119E+02  0.20156385883E+02 -0.62313409464E+01  0.50528823438E+02  0.29999889322E+02 0.  0.
         12    1    1    2    0    0  0.34757145119E+02 -0.20156385883E+02  0.62313409464E+01  0.40659176562E+02  0.00000000000E+00 0. -1.
         11    1    3    3    0    0 -0.22570847936E+02  0.22407747175E+01  0.28275363470E+01  0.22857366645E+02  0.51100000000E-03 0. -1.
        -11    1    3    3    0    0 -0.13423429523E+02  0.75089844867E+01 -0.33652877918E+01  0.15744791849E+02  0.51100000000E-03 0.  1.
        -12    1    3    3    0    0  0.12371323403E+01  0.10406626679E+02 -0.56935895016E+01  0.11926664943E+02  0.00000000000E+00 0.  1.
</event>
<event>
 7    1  0.6726285E-013  0.5052886E+02  0.7816164E-02  0.1300439E+00
        -11   -1    0    0    0    0  0.00000000000E+00  0.00000000000E+00  0.45593999997E+02  0.45594000000E+02  0.51100000000E-03 0. -1.
         11   -1    0    0    0    0 -0.00000000000E+00 -0.00000000000E+00 -0.45593999997E+02  0.45594000000E+02  0.51100000000E-03 0.  1.
    9900012    2    1    2    0    0  0.20379050275E+02  0.62003920578E+01 -0.34632577538E+02  0.50528856149E+02  0.29999988750E+02 0.  0.
         12    1    1    2    0    0 -0.20379050275E+02 -0.62003920578E+01  0.34632577538E+02  0.40659143851E+02  0.00000000000E+00 0. -1.
         11    1    3    3    0    0  0.31071214299E+01 -0.22896092949E+01  0.21866278314E+00  0.38657894378E+01  0.51100000000E-03 0. -1.
        -11    1    3    3    0    0  0.15380234435E+02 -0.53198008327E+01 -0.13400651367E+02  0.21081493056E+02  0.51100000000E-03 0.  1.
         12    1    3    3    0    0  0.18916944101E+01  0.13809802185E+02 -0.21450588955E+02  0.25581573655E+02  0.00000000000E+00 0. -1.
</event>
<event>
 7    1  0.6726285E-013  0.5052886E+02  0.7816164E-02  0.1300439E+00
        -11   -1    0    0    0    0  0.00000000000E+00  0.00000000000E+00  0.45593999997E+02  0.45594000000E+02  0.51100000000E-03 0.  1.
         11   -1    0    0    0    0 -0.00000000000E+00 -0.00000000000E+00 -0.45593999997E+02  0.45594000000E+02  0.51100000000E-03 0. -1.
    9900012    2    1    2    0    0  0.75597767224E+00 -0.25350916721E+01  0.40572987350E+02  0.50528862103E+02  0.30000006849E+02 0.  0.
         12    1    1    2    0    0 -0.75597767224E+00  0.25350916721E+01 -0.40572987350E+02  0.40659137897E+02  0.00000000000E+00 0. -1.
         11    1    3    3    0    0 -0.20674254358E+01  0.45695410147E+01  0.83378707301E+01  0.97301100503E+01  0.51100000000E-03 0. -1.
        -11    1    3    3    0    0 -0.98955061199E+01 -0.32681566560E+01  0.79131982827E+01  0.13085128835E+02  0.51100000000E-03 0.  1.
        -12    1    3    3    0    0  0.12718909228E+02 -0.38364760308E+01  0.24321918337E+02  0.27713623218E+02  0.00000000000E+00 0.  1.
</event>
<event>
 7    1  0.6726285E-013  0.5052887E+02  0.7816164E-02  0.1300439E+00
        -11   -1    0    0    0    0  0.00000000000E+00  0.00000000000E+00  0.45593999997E+02  0.45594000000E+02  0.51100000000E-03 0. -1.
         11   -1    0    0    0    0 -0.00000000000E+00 -0.00000000000E+00 -0.45593999997E+02  0.45594000000E+02  0.51100000000E-03 0.  1.
    9900012    2    1    2    0    0  0.35235020664E+02 -0.47383565194E+01 -0.19728309883E+02  0.50528869235E+02  0.30000028528E+02 0.  0.
         12    1    1    2    0    0 -0.35235020664E+02  0.47383565194E+01  0.19728309883E+02  0.40659130765E+02  0.00000000000E+00 0. -1.
         11    1    3    3    0    0  0.58438039416E+01  0.32625669036E+01  0.41789781089E+01  0.78903894457E+01  0.51100000000E-03 0.  1.
        -11    1    3    3    0    0 -0.17283475888E+01 -0.22986939726E+01 -0.50380263090E+01  0.58011109901E+01  0.51100000000E-03 0. -1.
        -12    1    3    3    0    0  0.31119564311E+02 -0.57022294504E+01 -0.18869261683E+02  0.36837368800E+02  0.00000000000E+00 0.  1.
</event>
<event>
 7    1  0.6726285E-013  0.5052886E+02  0.7816164E-02  0.1300439E+00
        -11   -1    0    0    0    0  0.00000000000E+00  0.00000000000E+00  0.45593999997E+02  0.45594000000E+02  0.51100000000E-03 0. -1.
         11   -1    0    0    0    0 -0.00000000000E+00 -0.00000000000E+00 -0.45593999997E+02  0.45594000000E+02  0.51100000000E-03 0.  1.
    9900012    2    1    2    0    0  0.18171853400E+02  0.11129442412E+02 -0.34627809738E+02  0.50528856482E+02  0.29999989761E+02 0.  0.
         12    1    1    2    0    0 -0.18171853400E+02 -0.11129442412E+02  0.34627809738E+02  0.40659143518E+02  0.00000000000E+00 0. -1.
         11    1    3    3    0    0  0.39480677356E+01  0.27305140026E+01 -0.67003017075E+01  0.82423897503E+01  0.51100000000E-03 0. -1.
        -11    1    3    3    0    0  0.80027197965E+01 -0.39333675227E+01 -0.27009503758E+02  0.28443420992E+02  0.51100000000E-03 0.  1.
         12    1    3    3    0    0  0.62210658674E+01  0.12332295932E+02 -0.91800427241E+00  0.13843045739E+02  0.00000000000E+00 0. -1.
</event>
<event>
 7    1  0.6726285E-013  0.5052887E+02  0.7816164E-02  0.1300439E+00
        -11   -1    0    0    0    0  0.00000000000E+00  0.00000000000E+00  0.45593999997E+02  0.45594000000E+02  0.51100000000E-03 0. -1.
         11   -1    0    0    0    0 -0.00000000000E+00 -0.00000000000E+00 -0.45593999997E+02  0.45594000000E+02  0.51100000000E-03 0.  1.
    9900012    2    1    2    0    0  0.26528073076E+02  0.29555328673E+02 -0.87125794219E+01  0.50528866287E+02  0.30000019567E+02 0.  0.
         12    1    1    2    0    0 -0.26528073076E+02 -0.29555328673E+02  0.87125794219E+01  0.40659133713E+02  0.00000000000E+00 0. -1.
         11    1    3    3    0    0 -0.21836477455E+01  0.37278113903E+01  0.57984330765E+01  0.72309557904E+01  0.51100000000E-03 0. -1.
        -11    1    3    3    0    0  0.17845294984E+02  0.81268245947E+01 -0.39714934943E+01  0.20006813636E+02  0.51100000000E-03 0.  1.
        -12    1    3    3    0    0  0.10866425838E+02  0.17700692688E+02 -0.10539519004E+02  0.23291096861E+02  0.00000000000E+00 0.  1.
</event>
<event>
 7    1  0.6726285E-013  0.5052885E+02  0.7816164E-02  0.1300439E+00
        -11   -1    0    0    0    0  0.00000000000E+00  0.00000000000E+00  0.45593999997E+02  0.45594000000E+02  0.51100000000E-03 0.  1.
         11   -1    0    0    0    0 -0.00000000000E+00 -0.00000000000E+00 -0.45593999997E+02  0.45594000000E+02  0.51100000000E-03 0. -1.
    9900012    2    1    2    0    0  0.15413664162E+02  0.37438296944E+02 -0.37362532653E+01  0.50528847163E+02  0.29999961435E+02 0.  0.
         12    1    1    2    0    0 -0.15413664162E+02 -0.37438296944E+02  0.37362532653E+01  0.40659152837E+02  0.00000000000E+00 0. -1.
         11    1    3    3    0    0  0.25354562749E+01  0.14787150805E+02 -0.62954756865E+01  0.16270260657E+02  0.51100000000E-03 0. -1.
        -11    1    3    3    0    0  0.51893851760E+01  0.19379715651E+02  0.10575580507E+02  0.22679197528E+02  0.51100000000E-03 0.  1.
         12    1    3    3    0    0  0.76888227114E+01  0.32714304886E+01 -0.80163580863E+01  0.11579388978E+02  0.00000000000E+00 0. -1.
</event>
<event>
 7    1  0.6726285E-013  0.5052886E+02  0.7816164E-02  0.1300439E+00
        -11   -1    0    0    0    0  0.00000000000E+00  0.00000000000E+00  0.45593999997E+02  0.45594000000E+02  0.51100000000E-03 0.  1.
         11   -1    0    0    0    0 -0.00000000000E+00 -0.00000000000E+00 -0.45593999997E+02  0.45594000000E+02  0.51100000000E-03 0. -1.
    9900012    2    1    2    0    0  0.13617897620E+02 -0.33820577131E+02  0.17996871771E+02  0.50528856298E+02  0.29999989202E+02 0.  0.
         12    1    1    2    0    0 -0.13617897620E+02  0.33820577131E+02 -0.17996871771E+02  0.40659143702E+02  0.00000000000E+00 0. -1.
         11    1    3    3    0    0  0.20223545862E+01 -0.15118939234E+01 -0.41727147915E+01  0.48772215759E+01  0.51100000000E-03 0. -1.
        -11    1    3    3    0    0  0.16170493620E+02 -0.31020098937E+02  0.20828429011E+02  0.40713079683E+02  0.51100000000E-03 0.  1.
         12    1    3    3    0    0 -0.45749505865E+01 -0.12885842709E+01  0.13411575523E+01  0.49385550389E+01  0.00000000000E+00 0. -1.
</event>
<event>
 7    1  0.6726285E-013  0.5052885E+02  0.7816164E-02  0.1300439E+00
        -11   -1    0    0    0    0  0.00000000000E+00  0.00000000000E+00  0.45593999997E+02  0.45594000000E+02  0.51100000000E-03 0. -1.
         11   -1    0    0    0    0 -0.00000000000E+00 -0.00000000000E+00 -0.45593999997E+02  0.45594000000E+02  0.51100000000E-03 0.  1.
    9900012    2    1    2    0    0 -0.13757186255E+02 -0.31153765688E+02 -0.22211463233E+02  0.50528851101E+02  0.29999973408E+02 0.  0.
         12    1    1    2    0    0  0.13757186255E+02  0.31153765688E+02  0.22211463233E+02  0.40659148899E+02  0.00000000000E+00 0. -1.
         11    1    3    3    0    0  0.88504057967E+01 -0.68157201290E+01 -0.73620430637E+01  0.13378467849E+02  0.51100000000E-03 0. -1.
        -11    1    3    3    0    0 -0.18334407782E+01 -0.56601772596E+01 -0.12485565260E+01  0.60793096119E+01  0.51100000000E-03 0.  1.
         12    1    3    3    0    0 -0.20774151274E+02 -0.18677868299E+02 -0.13600863643E+02  0.31071073641E+02  0.00000000000E+00 0. -1.
</event>
<event>
 7    1  0.6726285E-013  0.5052886E+02  0.7816164E-02  0.1300439E+00
        -11   -1    0    0    0    0  0.00000000000E+00  0.00000000000E+00  0.45593999997E+02  0.45594000000E+02  0.51100000000E-03 0. -1.
         11   -1    0    0    0    0 -0.00000000000E+00 -0.00000000000E+00 -0.45593999997E+02  0.45594000000E+02  0.51100000000E-03 0.  1.
    9900012    2    1    2    0    0  0.29609836365E+02 -0.10892320211E+02 -0.25647235757E+02  0.50528858948E+02  0.29999997258E+02 0.  0.
         12    1    1    2    0    0 -0.29609836365E+02  0.10892320211E+02  0.25647235757E+02  0.40659141052E+02  0.00000000000E+00 0. -1.
         11    1    3    3    0    0  0.13554686837E+02 -0.67774505414E+01 -0.86627174139E+01  0.17455831242E+02  0.51100000000E-03 0. -1.
        -11    1    3    3    0    0  0.21506125211E+02 -0.26146524429E+01 -0.94066923621E+01  0.23618545477E+02  0.51100000000E-03 0.  1.
         12    1    3    3    0    0 -0.54509756831E+01 -0.15002172270E+01 -0.75778259811E+01  0.94544822294E+01  0.00000000000E+00 0. -1.
</event>
<event>
 7    1  0.6726285E-013  0.5052886E+02  0.7816164E-02  0.1300439E+00
        -11   -1    0    0    0    0  0.00000000000E+00  0.00000000000E+00  0.45593999997E+02  0.45594000000E+02  0.51100000000E-03 0.  1.
         11   -1    0    0    0    0 -0.00000000000E+00 -0.00000000000E+00 -0.45593999997E+02  0.45594000000E+02  0.51100000000E-03 0. -1.
    9900012    2    1    2    0    0  0.27469933366E+02 -0.85644561731E+01  0.28726614505E+02  0.50528861672E+02  0.30000005539E+02 0.  0.
         12    1    1    2    0    0 -0.27469933366E+02  0.85644561731E+01 -0.28726614505E+02  0.40659138328E+02  0.00000000000E+00 0. -1.
         11    1    3    3    0    0 -0.28677070407E+01 -0.46413993929E+01 -0.26937913617E+01  0.60846400187E+01  0.51100000000E-03 0. -1.
        -11    1    3    3    0    0  0.18763371541E+01  0.15599584946E+01  0.27232198972E+01  0.36565063230E+01  0.51100000000E-03 0.  1.
        -12    1    3    3    0    0  0.28461303252E+02 -0.54830152748E+01  0.28697185969E+02  0.40787715330E+02  0.00000000000E+00 0.  1.
</event>
<event>
 7    1  0.6726285E-013  0.5052886E+02  0.7816164E-02  0.1300439E+00
        -11   -1    0    0    0    0  0.00000000000E+00  0.00000000000E+00  0.45593999997E+02  0.45594000000E+02  0.51100000000E-03 0.  1.
         11   -1    0    0    0    0 -0.00000000000E+00 -0.00000000000E+00 -0.45593999997E+02  0.45594000000E+02  0.51100000000E-03 0. -1.
    9900012    2    1    2    0    0  0.25593496070E+02 -0.20703469960E+02  0.23864307388E+02  0.50528857405E+02  0.29999992568E+02 0.  0.
         12    1    1    2    0    0 -0.25593496070E+02  0.20703469960E+02 -0.23864307388E+02  0.40659142595E+02  0.00000000000E+00 0. -1.
         11    1    3    3    0    0  0.19549384715E+01 -0.74645571543E+01  0.32658501496E+01  0.83789722161E+01  0.51100000000E-03 0. -1.
        -11    1    3    3    0    0  0.22213951706E+02 -0.19280744894E+02  0.20654992766E+02  0.35942113189E+02  0.51100000000E-03 0.  1.
        -12    1    3    3    0    0  0.14246058925E+01  0.60418320888E+01 -0.56535527048E-01  0.62077720000E+01  0.00000000000E+00 0.  1.
</event>
<event>
 7    1  0.6726285E-013  0.5052885E+02  0.7816164E-02  0.1300439E+00
        -11   -1    0    0    0    0  0.00000000000E+00  0.00000000000E+00  0.45593999997E+02  0.45594000000E+02  0.51100000000E-03 0. -1.
         11   -1    0    0    0    0 -0.00000000000E+00 -0.00000000000E+00 -0.45593999997E+02  0.45594000000E+02  0.51100000000E-03 0.  1.
    9900012    2    1    2    0    0  0.39684887620E+02 -0.25504160638E+01 -0.84717935939E+01  0.50528853253E+02  0.29999979948E+02 0.  0.
         12    1    1    2    0    0 -0.39684887620E+02  0.25504160638E+01  0.84717935939E+01  0.40659146747E+02  0.00000000000E+00 0. -1.
         11    1    3    3    0    0  0.73316455673E+01 -0.87899667995E+01 -0.63153330610E+01  0.13072871719E+02  0.51100000000E-03 0. -1.
        -11    1    3    3    0    0  0.60133197779E+00 -0.12477014850E-01 -0.49385476696E+01  0.49750386098E+01  0.51100000000E-03 0.  1.
         12    1    3    3    0    0  0.31751910075E+02  0.62520277506E+01  0.27820871367E+01  0.32480942924E+02  0.00000000000E+00 0. -1.
</event>
<event>
 7    1  0.6726285E-013  0.5052886E+02  0.7816164E-02  0.1300439E+00
        -11   -1    0    0    0    0  0.00000000000E+00  0.00000000000E+00  0.45593999997E+02  0.45594000000E+02  0.51100000000E-03 0. -1.
         11   -1    0    0    0    0 -0.00000000000E+00 -0.00000000000E+00 -0.45593999997E+02  0.45594000000E+02  0.51100000000E-03 0.  1.
    9900012    2    1    2    0    0  0.33450465814E+02  0.19846443038E+02 -0.11846977819E+02  0.50528857758E+02  0.29999993641E+02 0.  0.
         12    1    1    2    0    0 -0.33450465814E+02 -0.19846443038E+02  0.11846977819E+02  0.40659142242E+02  0.00000000000E+00 0. -1.
         11    1    3    3    0    0  0.35510682633E+01 -0.17056245631E+01  0.37850448292E+01  0.54631314812E+01  0.51100000000E-03 0. -1.
        -11    1    3    3    0    0  0.25578739810E+01  0.94198691318E+00 -0.10001741401E+02  0.10366527382E+02  0.51100000000E-03 0.  1.
         12    1    3    3    0    0  0.27341523570E+02  0.20610080687E+02 -0.56302812474E+01  0.34699198895E+02  0.00000000000E+00 0. -1.
</event>
<event>
 7    1  0.6726285E-013  0.5052886E+02  0.7816164E-02  0.1300439E+00
        -11   -1    0    0    0    0  0.00000000000E+00  0.00000000000E+00  0.45593999997E+02  0.45594000000E+02  0.51100000000E-03 0.  1.
         11   -1    0    0    0    0 -0.00000000000E+00 -0.00000000000E+00 -0.45593999997E+02  0.45594000000E+02  0.51100000000E-03 0. -1.
    9900012    2    1    2    0    0  0.16740009893E+02  0.31901476406E+02  0.18847645934E+02  0.50528857297E+02  0.29999992239E+02 0.  0.
         12    1    1    2    0    0 -0.16740009893E+02 -0.31901476406E+02 -0.18847645934E+02  0.40659142703E+02  0.00000000000E+00 0. -1.
         11    1    3    3    0    0  0.15636188344E+02  0.62671368355E+01 -0.39456394570E+00  0.16850016944E+02  0.51100000000E-03 0. -1.
        -11    1    3    3    0    0  0.46979222203E+01  0.19779822899E+02  0.11615466889E+02  0.23414331902E+02  0.51100000000E-03 0.  1.
        -12    1    3    3    0    0 -0.35941006711E+01  0.58545166716E+01  0.76267429909E+01  0.10264508451E+02  0.00000000000E+00 0.  1.
</event>
<event>
 7    1  0.6726285E-013  0.5052886E+02  0.7816164E-02  0.1300439E+00
        -11   -1    0    0    0    0  0.00000000000E+00  0.00000000000E+00  0.45593999997E+02  0.45594000000E+02  0.51100000000E-03 0.  1.
         11   -1    0    0    0    0 -0.00000000000E+00 -0.00000000000E+00 -0.45593999997E+02  0.45594000000E+02  0.51100000000E-03 0. -1.
    9900012    2    1    2    0    0 -0.12361628294E+02 -0.17998222644E+01  0.38692588035E+02  0.50528861013E+02  0.30000003536E+02 0.  0.
         12    1    1    2    0    0  0.12361628294E+02  0.17998222644E+01 -0.38692588035E+02  0.40659138987E+02  0.00000000000E+00 0. -1.
         11    1    3    3    0    0 -0.27414542534E+01 -0.43929256524E+01  0.13706190152E+02  0.14651723992E+02  0.51100000000E-03 0.  1.
        -11    1    3    3    0    0  0.45421615456E+00  0.11854898260E+02  0.94044452144E+01  0.15138973384E+02  0.51100000000E-03 0. -1.
         12    1    3    3    0    0 -0.10074390195E+02 -0.92617948718E+01  0.15581952669E+02  0.20738163637E+02  0.00000000000E+00 0. -1.
</event>
<event>
 7    1  0.6726285E-013  0.5052886E+02  0.7816164E-02  0.1300439E+00
        -11   -1    0    0    0    0  0.00000000000E+00  0.00000000000E+00  0.45593999997E+02  0.45594000000E+02  0.51100000000E-03 0. -1.
         11   -1    0    0    0    0 -0.00000000000E+00 -0.00000000000E+00 -0.45593999997E+02  0.45594000000E+02  0.51100000000E-03 0.  1.
    9900012    2    1    2    0    0  0.18446557336E+02 -0.35762072157E+02  0.58278878981E+01  0.50528861299E+02  0.30000004405E+02 0.  0.
         12    1    1    2    0    0 -0.18446557336E+02  0.35762072157E+02 -0.58278878981E+01  0.40659138701E+02  0.00000000000E+00 0. -1.
         11    1    3    3    0    0  0.15520123379E+01 -0.10100002848E+02  0.17820143387E+00  0.10220105471E+02  0.51100000000E-03 0. -1.
        -11    1    3    3    0    0  0.10957825164E+00 -0.22574840750E+02  0.55268020766E+01  0.23241793901E+02  0.51100000000E-03 0.  1.
         12    1    3    3    0    0  0.16784966747E+02 -0.30872285595E+01  0.12288438761E+00  0.17066961928E+02  0.00000000000E+00 0. -1.
</event>
<event>
 7    1  0.6726285E-013  0.5052888E+02  0.7816164E-02  0.1300439E+00
        -11   -1    0    0    0    0  0.00000000000E+00  0.00000000000E+00  0.45593999997E+02  0.45594000000E+02  0.51100000000E-03 0. -1.
         11   -1    0    0    0    0 -0.00000000000E+00 -0.00000000000E+00 -0.45593999997E+02  0.45594000000E+02  0.51100000000E-03 0.  1.
    9900012    2    1    2    0    0  0.19750583255E+02  0.35502735364E+02 -0.16231064568E+01  0.50528877631E+02  0.30000054047E+02 0.  0.
         12    1    1    2    0    0 -0.19750583255E+02 -0.35502735364E+02  0.16231064568E+01  0.40659122369E+02  0.00000000000E+00 0. -1.
         11    1    3    3    0    0  0.79744455344E+01  0.98805463441E+01  0.51070108908E+01  0.13685705613E+02  0.51100000000E-03 0. -1.
        -11    1    3    3    0    0 -0.11995943319E+00  0.12476484498E+02  0.71017255027E+01  0.14356585983E+02  0.51100000000E-03 0.  1.
        -12    1    3    3    0    0  0.11896097154E+02  0.13145704522E+02 -0.13831842850E+02  0.22486586035E+02  0.00000000000E+00 0.  1.
</event>
<event>
 7    1  0.6726285E-013  0.5052886E+02  0.7816164E-02  0.1300439E+00
        -11   -1    0    0    0    0  0.00000000000E+00  0.00000000000E+00  0.45593999997E+02  0.45594000000E+02  0.51100000000E-03 0. -1.
         11   -1    0    0    0    0 -0.00000000000E+00 -0.00000000000E+00 -0.45593999997E+02  0.45594000000E+02  0.51100000000E-03 0.  1.
    9900012    2    1    2    0    0 -0.30814364735E+02 -0.23663911660E+02 -0.11985812009E+02  0.50528862300E+02  0.30000007446E+02 0.  0.
         12    1    1    2    0    0  0.30814364735E+02  0.23663911660E+02  0.11985812009E+02  0.40659137700E+02  0.00000000000E+00 0. -1.
         11    1    3    3    0    0 -0.13889460401E+02 -0.98270724293E+01  0.59519284929E+01  0.18025368673E+02  0.51100000000E-03 0. -1.
        -11    1    3    3    0    0  0.98591053106E-01 -0.33961170843E+01  0.22753774823E+01  0.40890921234E+01  0.51100000000E-03 0.  1.
        -12    1    3    3    0    0 -0.17023495386E+02 -0.10440722146E+02 -0.20213117984E+02  0.28414401503E+02  0.00000000000E+00 0.  1.
</event>
<event>
 7    1  0.7459381E-013  0.5052886E+02  0.7816164E-02  0.1300439E+00
        -11   -1    0    0    0    0  0.00000000000E+00  0.00000000000E+00  0.45593999997E+02  0.45594000000E+02  0.51100000000E-03 0.  1.
         11   -1    0    0    0    0 -0.00000000000E+00 -0.00000000000E+00 -0.45593999997E+02  0.45594000000E+02  0.51100000000E-03 0. -1.
    9900012    2    1    2    0    0  0.11407817928E+02  0.31694031806E+02  0.22770936267E+02  0.50528862030E+02  0.30000006626E+02 0.  0.
         12    1    1    2    0    0 -0.11407817928E+02 -0.31694031806E+02 -0.22770936267E+02  0.40659137970E+02  0.00000000000E+00 0. -1.
         11    1    3    3    0    0  0.25538393714E+00 -0.34505298529E+01  0.10403585385E+01  0.36129936855E+01  0.51100000000E-03 0. -1.
        -11    1    3    3    0    0  0.24046062304E+01  0.21401898567E+02  0.21773313206E+02  0.30625162230E+02  0.51100000000E-03 0.  1.
         12    1    3    3    0    0  0.87478277603E+01  0.13742663092E+02 -0.42735476924E-01  0.16290706114E+02  0.00000000000E+00 0. -1.
</event>
<event>
 7    1  0.6726285E-013  0.5052886E+02  0.7816164E-02  0.1300439E+00
        -11   -1    0    0    0    0  0.00000000000E+00  0.00000000000E+00  0.45593999997E+02  0.45594000000E+02  0.51100000000E-03 0. -1.
         11   -1    0    0    0    0 -0.00000000000E+00 -0.00000000000E+00 -0.45593999997E+02  0.45594000000E+02  0.51100000000E-03 0.  1.
    9900012    2    1    2    0    0  0.12834726952E+02  0.17579360534E+02 -0.34342412766E+02  0.50528862684E+02  0.30000008613E+02 0.  0.
         12    1    1    2    0    0 -0.12834726952E+02 -0.17579360534E+02  0.34342412766E+02  0.40659137316E+02  0.00000000000E+00 0. -1.
         11    1    3    3    0    0 -0.35078135958E+01  0.26027088460E+01 -0.45969735608E+01  0.63412156358E+01  0.51100000000E-03 0. -1.
        -11    1    3    3    0    0  0.14144472404E+01 -0.64095372925E+01 -0.52161952010E+01  0.83840039323E+01  0.51100000000E-03 0.  1.
        -12    1    3    3    0    0  0.14928093307E+02  0.21386188981E+02 -0.24529244004E+02  0.35803643115E+02  0.00000000000E+00 0.  1.
</event>
<event>
 7    1  0.6726285E-013  0.5052888E+02  0.7816164E-02  0.1300439E+00
        -11   -1    0    0    0    0  0.00000000000E+00  0.00000000000E+00  0.45593999997E+02  0.45594000000E+02  0.51100000000E-03 0.  1.
         11   -1    0    0    0    0 -0.00000000000E+00 -0.00000000000E+00 -0.45593999997E+02  0.45594000000E+02  0.51100000000E-03 0. -1.
    9900012    2    1    2    0    0 -0.16068792737E+01 -0.27016703642E+02  0.30342701088E+02  0.50528882375E+02  0.30000068468E+02 0.  0.
         12    1    1    2    0    0  0.16068792737E+01  0.27016703642E+02 -0.30342701088E+02  0.40659117625E+02  0.00000000000E+00 0. -1.
         11    1    3    3    0    0  0.10929967078E+02 -0.71244287768E+01  0.50776148225E+01  0.14000137080E+02  0.51100000000E-03 0. -1.
        -11    1    3    3    0    0 -0.22545667775E+01 -0.14058457634E+02  0.16609231379E+02  0.21876696955E+02  0.51100000000E-03 0.  1.
        -12    1    3    3    0    0 -0.10282279574E+02 -0.58338172320E+01  0.86558548868E+01  0.14652048340E+02  0.00000000000E+00 0.  1.
</event>
<event>
 7    1  0.6726285E-013  0.5052886E+02  0.7816164E-02  0.1300439E+00
        -11   -1    0    0    0    0  0.00000000000E+00  0.00000000000E+00  0.45593999997E+02  0.45594000000E+02  0.51100000000E-03 0.  1.
         11   -1    0    0    0    0 -0.00000000000E+00 -0.00000000000E+00 -0.45593999997E+02  0.45594000000E+02  0.51100000000E-03 0. -1.
    9900012    2    1    2    0    0  0.17898336527E+02  0.31693976925E+02  0.18119242666E+02  0.50528861070E+02  0.30000003708E+02 0.  0.
         12    1    1    2    0    0 -0.17898336527E+02 -0.31693976925E+02 -0.18119242666E+02  0.40659138930E+02  0.00000000000E+00 0. -1.
         11    1    3    3    0    0  0.20463945094E+01  0.13972755245E+02 -0.32585293746E+01  0.14492882170E+02  0.51100000000E-03 0. -1.
        -11    1    3    3    0    0  0.17669647976E+02  0.19407900212E+02  0.17918709676E+02  0.31779918297E+02  0.51100000000E-03 0.  1.
        -12    1    3    3    0    0 -0.18177059587E+01 -0.16866785321E+01  0.34590623644E+01  0.42560606038E+01  0.00000000000E+00 0.  1.
</event>
<event>
 7    1  0.6726285E-013  0.5052885E+02  0.7816164E-02  0.1300439E+00
        -11   -1    0    0    0    0  0.00000000000E+00  0.00000000000E+00  0.45593999997E+02  0.45594000000E+02  0.51100000000E-03 0.  1.
         11   -1    0    0    0    0 -0.00000000000E+00 -0.00000000000E+00 -0.45593999997E+02  0.45594000000E+02  0.51100000000E-03 0. -1.
    9900012    2    1    2    0    0 -0.15551015695E+02 -0.19398247042E+02  0.32172039679E+02  0.50528853248E+02  0.29999979934E+02 0.  0.
         12    1    1    2    0    0  0.15551015695E+02  0.19398247042E+02 -0.32172039679E+02  0.40659146752E+02  0.00000000000E+00 0. -1.
         11    1    3    3    0    0 -0.38993898716E+00 -0.84865052050E+01  0.78945472489E+01  0.11597271211E+02  0.51100000000E-03 0. -1.
        -11    1    3    3    0    0  0.20682773955E+01 -0.68779606563E+01  0.19234598028E+02  0.20531777218E+02  0.51100000000E-03 0.  1.
         12    1    3    3    0    0 -0.17229354104E+02 -0.40337811808E+01  0.50428944018E+01  0.18399804819E+02  0.00000000000E+00 0. -1.
</event>
<event>
 7    1  0.6726285E-013  0.5052884E+02  0.7816164E-02  0.1300439E+00
        -11   -1    0    0    0    0  0.00000000000E+00  0.00000000000E+00  0.45593999997E+02  0.45594000000E+02  0.51100000000E-03 0.  1.
         11   -1    0    0    0    0 -0.00000000000E+00 -0.00000000000E+00 -0.45593999997E+02  0.45594000000E+02  0.51100000000E-03 0. -1.
    9900012    2    1    2    0    0 -0.78322462496E+01 -0.28604769025E+02  0.27813487495E+02  0.50528843849E+02  0.29999951363E+02 0.  0.
         12    1    1    2    0    0  0.78322462496E+01  0.28604769025E+02 -0.27813487495E+02  0.40659156151E+02  0.00000000000E+00 0. -1.
         11    1    3    3    0    0 -0.13579337009E+02 -0.11916066973E+02  0.87183190076E+01  0.20059913567E+02  0.51100000000E-03 0. -1.
        -11    1    3    3    0    0 -0.65940826254E+00  0.20558558548E+01  0.68463071172E+01  0.71786686758E+01  0.51100000000E-03 0.  1.
        -12    1    3    3    0    0  0.64064990223E+01 -0.18744557907E+02  0.12248861370E+02  0.23290261607E+02  0.00000000000E+00 0.  1.
</event>
<event>
 7    1  0.6726285E-013  0.5052886E+02  0.7816164E-02  0.1300439E+00
        -11   -1    0    0    0    0  0.00000000000E+00  0.00000000000E+00  0.45593999997E+02  0.45594000000E+02  0.51100000000E-03 0.  1.
         11   -1    0    0    0    0 -0.00000000000E+00 -0.00000000000E+00 -0.45593999997E+02  0.45594000000E+02  0.51100000000E-03 0. -1.
    9900012    2    1    2    0    0 -0.25202921076E+02  0.31745217744E+02 -0.31968052406E+01  0.50528860263E+02  0.30000001257E+02 0.  0.
         12    1    1    2    0    0  0.25202921076E+02 -0.31745217744E+02  0.31968052406E+01  0.40659139737E+02  0.00000000000E+00 0. -1.
         11    1    3    3    0    0 -0.54667732996E+01  0.14541890251E+02 -0.49250227140E+01  0.16297485431E+02  0.51100000000E-03 0.  1.
        -11    1    3    3    0    0 -0.18876757588E+02  0.85639117982E+01  0.92926692960E+01  0.22716211507E+02  0.51100000000E-03 0. -1.
         12    1    3    3    0    0 -0.85939018911E+00  0.86394156946E+01 -0.75644518225E+01  0.11515163326E+02  0.00000000000E+00 0. -1.
</event>
<event>
 7    1  0.6726285E-013  0.5052886E+02  0.7816164E-02  0.1300439E+00
        -11   -1    0    0    0    0  0.00000000000E+00  0.00000000000E+00  0.45593999997E+02  0.45594000000E+02  0.51100000000E-03 0.  1.
         11   -1    0    0    0    0 -0.00000000000E+00 -0.00000000000E+00 -0.45593999997E+02  0.45594000000E+02  0.51100000000E-03 0. -1.
    9900012    2    1    2    0    0  0.38950700265E+02 -0.58197845835E+01  0.10106361045E+02  0.50528862315E+02  0.30000007492E+02 0.  0.
         12    1    1    2    0    0 -0.38950700265E+02  0.58197845835E+01 -0.10106361045E+02  0.40659137685E+02  0.00000000000E+00 0. -1.
         11    1    3    3    0    0  0.15896344386E+01 -0.82150185583E+01  0.93111011631E-01  0.83679231285E+01  0.51100000000E-03 0. -1.
        -11    1    3    3    0    0  0.13717817489E+02 -0.58149346479E+01  0.83450231252E+01  0.17077218533E+02  0.51100000000E-03 0.  1.
        -12    1    3    3    0    0  0.23643248338E+02  0.82101686227E+01  0.16682269081E+01  0.25083720653E+02  0.00000000000E+00 0.  1.
</event>
<event>
 7    1  0.6726285E-013  0.5052886E+02  0.7816164E-02  0.1300439E+00
        -11   -1    0    0    0    0  0.00000000000E+00  0.00000000000E+00  0.45593999997E+02  0.45594000000E+02  0.51100000000E-03 0. -1.
         11   -1    0    0    0    0 -0.00000000000E+00 -0.00000000000E+00 -0.45593999997E+02  0.45594000000E+02  0.51100000000E-03 0.  1.
    9900012    2    1    2    0    0 -0.40635116198E+02 -0.19127447211E+00 -0.13844454629E+01  0.50528856581E+02  0.29999990064E+02 0.  0.
         12    1    1    2    0    0  0.40635116198E+02  0.19127447211E+00  0.13844454629E+01  0.40659143419E+02  0.00000000000E+00 0. -1.
         11    1    3    3    0    0 -0.21876367889E+01  0.63787057028E+00  0.17443190532E+01  0.28697182449E+01  0.51100000000E-03 0. -1.
        -11    1    3    3    0    0 -0.15103996176E+02 -0.33201626812E+01  0.12134890082E+02  0.19657307503E+02  0.51100000000E-03 0.  1.
        -12    1    3    3    0    0 -0.23343483233E+02  0.24910176388E+01 -0.15263654598E+02  0.28001830833E+02  0.00000000000E+00 0.  1.
</event>
<event>
 7    1  0.6726285E-013  0.5052884E+02  0.7816164E-02  0.1300439E+00
        -11   -1    0    0    0    0  0.00000000000E+00  0.00000000000E+00  0.45593999997E+02  0.45594000000E+02  0.51100000000E-03 0.  1.
         11   -1    0    0    0    0 -0.00000000000E+00 -0.00000000000E+00 -0.45593999997E+02  0.45594000000E+02  0.51100000000E-03 0. -1.
    9900012    2    1    2    0    0 -0.26439747516E+02  0.14792741260E+02  0.27116077057E+02  0.50528842635E+02  0.29999947672E+02 0.  0.
         12    1    1    2    0    0  0.26439747516E+02 -0.14792741260E+02 -0.27116077057E+02  0.40659157365E+02  0.00000000000E+00 0. -1.
         11    1    3    3    0    0 -0.12548662342E+02 -0.33706599472E+01  0.14804631816E+01  0.13077539774E+02  0.51100000000E-03 0. -1.
        -11    1    3    3    0    0 -0.13277615457E+02  0.64550998256E+01  0.18713248409E+02  0.23835877417E+02  0.51100000000E-03 0.  1.
         12    1    3    3    0    0 -0.61346971684E+00  0.11708301382E+02  0.69223654667E+01  0.13615425443E+02  0.00000000000E+00 0. -1.
</event>
<event>
 7    1  0.6726285E-013  0.5052893E+02  0.7816164E-02  0.1300439E+00
        -11   -1    0    0    0    0  0.00000000000E+00  0.00000000000E+00  0.45593999997E+02  0.45594000000E+02  0.51100000000E-03 0.  1.
         11   -1    0    0    0    0 -0.00000000000E+00 -0.00000000000E+00 -0.45593999997E+02  0.45594000000E+02  0.51100000000E-03 0. -1.
    9900012    2    1    2    0    0  0.16459844494E+02  0.34639971427E+02  0.13502071933E+02  0.50528929085E+02  0.30000210445E+02 0.  0.
         12    1    1    2    0    0 -0.16459844494E+02 -0.34639971427E+02 -0.13502071933E+02  0.40659070915E+02  0.00000000000E+00 0. -1.
         11    1    3    3    0    0  0.45115979666E+01  0.26213675027E+01  0.52883756192E+01  0.74291991995E+01  0.51100000000E-03 0. -1.
        -11    1    3    3    0    0  0.12658459563E+02  0.22615937585E+02  0.16351262657E+02  0.30644428892E+02  0.51100000000E-03 0.  1.
         12    1    3    3    0    0 -0.71021303611E+00  0.94026663392E+01 -0.81375663434E+01  0.12455300993E+02  0.00000000000E+00 0. -1.
</event>
<event>
 7    1  0.6726285E-013  0.5052885E+02  0.7816164E-02  0.1300439E+00
        -11   -1    0    0    0    0  0.00000000000E+00  0.00000000000E+00  0.45593999997E+02  0.45594000000E+02  0.51100000000E-03 0.  1.
         11   -1    0    0    0    0 -0.00000000000E+00 -0.00000000000E+00 -0.45593999997E+02  0.45594000000E+02  0.51100000000E-03 0. -1.
    9900012    2    1    2    0    0  0.22201420471E+02  0.18347494119E+02  0.28698998099E+02  0.50528854617E+02  0.29999984095E+02 0.  0.
         12    1    1    2    0    0 -0.22201420471E+02 -0.18347494119E+02 -0.28698998099E+02  0.40659145383E+02  0.00000000000E+00 0. -1.
         11    1    3    3    0    0 -0.21793112780E+01  0.27909440752E+01 -0.28722102530E+01  0.45594252353E+01  0.51100000000E-03 0. -1.
        -11    1    3    3    0    0  0.68372669351E+01  0.25605688738E+01 -0.33467206982E+00  0.73086755130E+01  0.51100000000E-03 0.  1.
        -12    1    3    3    0    0  0.17543464814E+02  0.12995981170E+02  0.31905880421E+02  0.38660753869E+02  0.00000000000E+00 0.  1.
</event>
<event>
 7    1  0.6726285E-013  0.5052886E+02  0.7816164E-02  0.1300439E+00
        -11   -1    0    0    0    0  0.00000000000E+00  0.00000000000E+00  0.45593999997E+02  0.45594000000E+02  0.51100000000E-03 0. -1.
         11   -1    0    0    0    0 -0.00000000000E+00 -0.00000000000E+00 -0.45593999997E+02  0.45594000000E+02  0.51100000000E-03 0.  1.
    9900012    2    1    2    0    0 -0.13561399157E+01 -0.86338150040E+01 -0.39708740527E+02  0.50528856487E+02  0.29999989778E+02 0.  0.
         12    1    1    2    0    0  0.13561399157E+01  0.86338150040E+01  0.39708740527E+02  0.40659143513E+02  0.00000000000E+00 0. -1.
         11    1    3    3    0    0  0.86037210539E+01 -0.50066266227E+01 -0.63043186643E+01  0.11782816310E+02  0.51100000000E-03 0. -1.
        -11    1    3    3    0    0 -0.54893523818E+01 -0.96570106663E+01 -0.13557203169E+02  0.17526796701E+02  0.51100000000E-03 0.  1.
        -12    1    3    3    0    0 -0.44705085879E+01  0.60298222850E+01 -0.19847218694E+02  0.21219243476E+02  0.00000000000E+00 0.  1.
</event>
<event>
 7    1  0.6726285E-013  0.5052886E+02  0.7816164E-02  0.1300439E+00
        -11   -1    0    0    0    0  0.00000000000E+00  0.00000000000E+00  0.45593999997E+02  0.45594000000E+02  0.51100000000E-03 0. -1.
         11   -1    0    0    0    0 -0.00000000000E+00 -0.00000000000E+00 -0.45593999997E+02  0.45594000000E+02  0.51100000000E-03 0.  1.
    9900012    2    1    2    0    0 -0.27921155216E+02  0.21741254649E+02 -0.20022293032E+02  0.50528864734E+02  0.30000014847E+02 0.  0.
         12    1    1    2    0    0  0.27921155216E+02 -0.21741254649E+02  0.20022293032E+02  0.40659135266E+02  0.00000000000E+00 0. -1.
         11    1    3    3    0    0 -0.59275496145E+01 -0.55660726977E+01 -0.57663721042E+01  0.99683527834E+01  0.51100000000E-03 0. -1.
        -11    1    3    3    0    0 -0.39099221253E+01  0.54095054904E+00  0.19702253473E+01  0.44115651081E+01  0.51100000000E-03 0.  1.
         12    1    3    3    0    0 -0.18083683476E+02  0.26766376797E+02 -0.16226146275E+02  0.36148946843E+02  0.00000000000E+00 0. -1.
</event>
<event>
 7    1  0.6726285E-013  0.5052885E+02  0.7816164E-02  0.1300439E+00
        -11   -1    0    0    0    0  0.00000000000E+00  0.00000000000E+00  0.45593999997E+02  0.45594000000E+02  0.51100000000E-03 0.  1.
         11   -1    0    0    0    0 -0.00000000000E+00 -0.00000000000E+00 -0.45593999997E+02  0.45594000000E+02  0.51100000000E-03 0. -1.
    9900012    2    1    2    0    0 -0.17027625240E+02 -0.12625499545E+02  0.34696152904E+02  0.50528852365E+02  0.29999977249E+02 0.  0.
         12    1    1    2    0    0  0.17027625240E+02  0.12625499545E+02 -0.34696152904E+02  0.40659147635E+02  0.00000000000E+00 0. -1.
         11    1    3    3    0    0 -0.91541901448E+01 -0.12716036104E+02  0.15033843318E+02  0.21714355081E+02  0.51100000000E-03 0. -1.
        -11    1    3    3    0    0 -0.37084684062E+01 -0.92136278104E+01  0.13964773737E+02  0.17136469331E+02  0.51100000000E-03 0.  1.
         12    1    3    3    0    0 -0.41649666886E+01  0.93041643690E+01  0.56975358480E+01  0.11678027953E+02  0.00000000000E+00 0. -1.
</event>
<event>
 7    1  0.6726285E-013  0.5052887E+02  0.7816164E-02  0.1300439E+00
        -11   -1    0    0    0    0  0.00000000000E+00  0.00000000000E+00  0.45593999997E+02  0.45594000000E+02  0.51100000000E-03 0.  1.
         11   -1    0    0    0    0 -0.00000000000E+00 -0.00000000000E+00 -0.45593999997E+02  0.45594000000E+02  0.51100000000E-03 0. -1.
    9900012    2    1    2    0    0  0.21928614607E+02  0.20407566751E+02  0.27492403665E+02  0.50528865988E+02  0.30000018658E+02 0.  0.
         12    1    1    2    0    0 -0.21928614607E+02 -0.20407566751E+02 -0.27492403665E+02  0.40659134012E+02  0.00000000000E+00 0. -1.
         11    1    3    3    0    0  0.84839302179E+01  0.38793092787E+01  0.98284402165E+00  0.93804101752E+01  0.51100000000E-03 0. -1.
        -11    1    3    3    0    0 -0.20422839425E+00  0.31964317640E+01 -0.40244863155E+01  0.51434789417E+01  0.51100000000E-03 0.  1.
        -12    1    3    3    0    0  0.13648912783E+02  0.13331825708E+02  0.30534045959E+02  0.36004976872E+02  0.00000000000E+00 0.  1.
</event>
<event>
 7    1  0.6726285E-013  0.5052886E+02  0.7816164E-02  0.1300439E+00
        -11   -1    0    0    0    0  0.00000000000E+00  0.00000000000E+00  0.45593999997E+02  0.45594000000E+02  0.51100000000E-03 0. -1.
         11   -1    0    0    0    0 -0.00000000000E+00 -0.00000000000E+00 -0.45593999997E+02  0.45594000000E+02  0.51100000000E-03 0.  1.
    9900012    2    1    2    0    0 -0.38161936597E+02  0.10057580056E+01 -0.13993590694E+02  0.50528861611E+02  0.30000005354E+02 0.  0.
         12    1    1    2    0    0  0.38161936597E+02 -0.10057580056E+01  0.13993590694E+02  0.40659138389E+02  0.00000000000E+00 0. -1.
         11    1    3    3    0    0 -0.99864701915E+01  0.67310210668E+01  0.42724286923E+00  0.12050675011E+02  0.51100000000E-03 0. -1.
        -11    1    3    3    0    0 -0.20811226422E+00 -0.68126311711E+01  0.36231815385E+00  0.68254325060E+01  0.51100000000E-03 0.  1.
        -12    1    3    3    0    0 -0.27967354141E+02  0.10873681100E+01 -0.14783151717E+02  0.31652754094E+02  0.00000000000E+00 0.  1.
</event>
<event>
 7    1  0.6726285E-013  0.5052886E+02  0.7816164E-02  0.1300439E+00
        -11   -1    0    0    0    0  0.00000000000E+00  0.00000000000E+00  0.45593999997E+02  0.45594000000E+02  0.51100000000E-03 0. -1.
         11   -1    0    0    0    0 -0.00000000000E+00 -0.00000000000E+00 -0.45593999997E+02  0.45594000000E+02  0.51100000000E-03 0.  1.
    9900012    2    1    2    0    0 -0.38674063061E+02  0.48696757356E+01  0.11565862023E+02  0.50528855152E+02  0.29999985720E+02 0.  0.
         12    1    1    2    0    0  0.38674063061E+02 -0.48696757356E+01 -0.11565862023E+02  0.40659144848E+02  0.00000000000E+00 0. -1.
         11    1    3    3    0    0 -0.88273859732E+01  0.51323142182E+01  0.91146650474E+00  0.10251544459E+02  0.51100000000E-03 0. -1.
        -11    1    3    3    0    0 -0.29327897303E+02 -0.12563200774E+01 -0.20969605757E+00  0.29355542459E+02  0.51100000000E-03 0.  1.
         12    1    3    3    0    0 -0.51877978463E+00  0.99368159479E+00  0.10864091576E+02  0.10921768234E+02  0.00000000000E+00 0. -1.
</event>
<event>
 7    1  0.6726285E-013  0.5052886E+02  0.7816164E-02  0.1300439E+00
        -11   -1    0    0    0    0  0.00000000000E+00  0.00000000000E+00  0.45593999997E+02  0.45594000000E+02  0.51100000000E-03 0.  1.
         11   -1    0    0    0    0 -0.00000000000E+00 -0.00000000000E+00 -0.45593999997E+02  0.45594000000E+02  0.51100000000E-03 0. -1.
    9900012    2    1    2    0    0 -0.61095962877E+01 -0.33987619670E+02  0.21463465595E+02  0.50528858187E+02  0.29999994946E+02 0.  0.
         12    1    1    2    0    0  0.61095962877E+01  0.33987619670E+02 -0.21463465595E+02  0.40659141813E+02  0.00000000000E+00 0. -1.
         11    1    3    3    0    0  0.57232774965E+01 -0.21264424335E+02  0.13579186275E+02  0.25871334480E+02  0.51100000000E-03 0. -1.
        -11    1    3    3    0    0  0.29507742085E-02 -0.10839323164E+02  0.63828799868E+01  0.12579033848E+02  0.51100000000E-03 0.  1.
         12    1    3    3    0    0 -0.11835824558E+02 -0.18838721707E+01  0.15013993328E+01  0.12078489860E+02  0.00000000000E+00 0. -1.
</event>
<event>
 7    1  0.6726285E-013  0.5052887E+02  0.7816164E-02  0.1300439E+00
        -11   -1    0    0    0    0  0.00000000000E+00  0.00000000000E+00  0.45593999997E+02  0.45594000000E+02  0.51100000000E-03 0.  1.
         11   -1    0    0    0    0 -0.00000000000E+00 -0.00000000000E+00 -0.45593999997E+02  0.45594000000E+02  0.51100000000E-03 0. -1.
    9900012    2    1    2    0    0 -0.16373744641E+02  0.14041100152E+02  0.34466116168E+02  0.50528866085E+02  0.30000018951E+02 0.  0.
         12    1    1    2    0    0  0.16373744641E+02 -0.14041100152E+02 -0.34466116168E+02  0.40659133915E+02  0.00000000000E+00 0. -1.
         11    1    3    3    0    0 -0.13737202943E+02  0.29130423335E+01  0.10045795583E+02  0.17265994599E+02  0.51100000000E-03 0. -1.
        -11    1    3    3    0    0 -0.10975559040E+02  0.43620289692E+01  0.11858778238E+02  0.16736810166E+02  0.51100000000E-03 0.  1.
         12    1    3    3    0    0  0.83390173420E+01  0.67660288491E+01  0.12561542347E+02  0.16526061320E+02  0.00000000000E+00 0. -1.
</event>
<event>
 7    1  0.6726285E-013  0.5052886E+02  0.7816164E-02  0.1300439E+00
        -11   -1    0    0    0    0  0.00000000000E+00  0.00000000000E+00  0.45593999997E+02  0.45594000000E+02  0.51100000000E-03 0.  1.
         11   -1    0    0    0    0 -0.00000000000E+00 -0.00000000000E+00 -0.45593999997E+02  0.45594000000E+02  0.51100000000E-03 0. -1.
    9900012    2    1    2    0    0 -0.10084943214E+02  0.30221803136E+02  0.25260683307E+02  0.50528860984E+02  0.30000003447E+02 0.  0.
         12    1    1    2    0    0  0.10084943214E+02 -0.30221803136E+02 -0.25260683307E+02  0.40659139016E+02  0.00000000000E+00 0. -1.
         11    1    3    3    0    0  0.79842157881E+00  0.22746671500E+01  0.12492159882E+02  0.12722643061E+02  0.51100000000E-03 0. -1.
        -11    1    3    3    0    0 -0.23400699944E+01 -0.25058353712E+01  0.33777066702E+01  0.48129036036E+01  0.51100000000E-03 0.  1.
        -12    1    3    3    0    0 -0.85432947979E+01  0.30452971357E+02  0.93908167543E+01  0.32993314320E+02  0.00000000000E+00 0.  1.
</event>
<event>
 7    1  0.6726285E-013  0.5052887E+02  0.7816164E-02  0.1300439E+00
        -11   -1    0    0    0    0  0.00000000000E+00  0.00000000000E+00  0.45593999997E+02  0.45594000000E+02  0.51100000000E-03 0.  1.
         11   -1    0    0    0    0 -0.00000000000E+00 -0.00000000000E+00 -0.45593999997E+02  0.45594000000E+02  0.51100000000E-03 0. -1.
    9900012    2    1    2    0    0 -0.25112720691E+02  0.28275167232E+02  0.14934231557E+02  0.50528867020E+02  0.30000021794E+02 0.  0.
         12    1    1    2    0    0  0.25112720691E+02 -0.28275167232E+02 -0.14934231557E+02  0.40659132980E+02  0.00000000000E+00 0. -1.
         11    1    3    3    0    0  0.49324972060E+01  0.77047721103E+00  0.22495167692E+01  0.54757181973E+01  0.51100000000E-03 0. -1.
        -11    1    3    3    0    0 -0.12867818620E+02  0.62905480277E+01 -0.13013313720E+01  0.14382114383E+02  0.51100000000E-03 0.  1.
        -12    1    3    3    0    0 -0.17177399277E+02  0.21214141993E+02  0.13986046159E+02  0.30671034440E+02  0.00000000000E+00 0.  1.
</event>
<event>
 7    1  0.6726285E-013  0.5052886E+02  0.7816164E-02  0.1300439E+00
        -11   -1    0    0    0    0  0.00000000000E+00  0.00000000000E+00  0.45593999997E+02  0.45594000000E+02  0.51100000000E-03 0.  1.
         11   -1    0    0    0    0 -0.00000000000E+00 -0.00000000000E+00 -0.45593999997E+02  0.45594000000E+02  0.51100000000E-03 0. -1.
    9900012    2    1    2    0    0  0.25071957679E+02 -0.83996010747E+01  0.30887041537E+02  0.50528859638E+02  0.29999999355E+02 0.  0.
         12    1    1    2    0    0 -0.25071957679E+02  0.83996010747E+01 -0.30887041537E+02  0.40659140362E+02  0.00000000000E+00 0. -1.
         11    1    3    3    0    0  0.55943615524E+01 -0.95624799803E+01  0.15798096101E+02  0.19295536925E+02  0.51100000000E-03 0. -1.
        -11    1    3    3    0    0  0.86071758969E+01  0.38677321550E+01  0.17401400356E+02  0.19795240932E+02  0.51100000000E-03 0.  1.
         12    1    3    3    0    0  0.10870420229E+02 -0.27048532494E+01 -0.23124549197E+01  0.11438081781E+02  0.00000000000E+00 0. -1.
</event>
<event>
 7    1  0.6726285E-013  0.5052886E+02  0.7816164E-02  0.1300439E+00
        -11   -1    0    0    0    0  0.00000000000E+00  0.00000000000E+00  0.45593999997E+02  0.45594000000E+02  0.51100000000E-03 0.  1.
         11   -1    0    0    0    0 -0.00000000000E+00 -0.00000000000E+00 -0.45593999997E+02  0.45594000000E+02  0.51100000000E-03 0. -1.
    9900012    2    1    2    0    0 -0.18766285287E+02  0.27875122112E+02  0.22890380243E+02  0.50528863217E+02  0.30000010234E+02 0.  0.
         12    1    1    2    0    0  0.18766285287E+02 -0.27875122112E+02 -0.22890380243E+02  0.40659136783E+02  0.00000000000E+00 0. -1.
         11    1    3    3    0    0 -0.15811204045E+01  0.13882301870E+02  0.58269519454E+01  0.15138415247E+02  0.51100000000E-03 0. -1.
        -11    1    3    3    0    0 -0.87588677745E+01  0.12172068425E+02 -0.13523640143E+01  0.15056756062E+02  0.51100000000E-03 0.  1.
         12    1    3    3    0    0 -0.84262971081E+01  0.18207518178E+01  0.18415792312E+02  0.20333691908E+02  0.00000000000E+00 0. -1.
</event>
<event>
 7    1  0.6726285E-013  0.5052885E+02  0.7816164E-02  0.1300439E+00
        -11   -1    0    0    0    0  0.00000000000E+00  0.00000000000E+00  0.45593999997E+02  0.45594000000E+02  0.51100000000E-03 0. -1.
         11   -1    0    0    0    0 -0.00000000000E+00 -0.00000000000E+00 -0.45593999997E+02  0.45594000000E+02  0.51100000000E-03 0.  1.
    9900012    2    1    2    0    0  0.26737975893E+01 -0.15434483134E+02 -0.37520579654E+02  0.50528851451E+02  0.29999974469E+02 0.  0.
         12    1    1    2    0    0 -0.26737975893E+01  0.15434483134E+02  0.37520579654E+02  0.40659148549E+02  0.00000000000E+00 0. -1.
         11    1    3    3    0    0 -0.95317494596E+01 -0.26233750236E+01 -0.35056913365E+01  0.10489338219E+02  0.51100000000E-03 0. -1.
        -11    1    3    3    0    0  0.46553780074E+01  0.14402353381E+01 -0.98110083435E+01  0.10954574715E+02  0.51100000000E-03 0.  1.
        -12    1    3    3    0    0  0.75501690416E+01 -0.14251343449E+02 -0.24203879974E+02  0.29084938516E+02  0.00000000000E+00 0.  1.
</event>
<event>
 7    1  0.6726285E-013  0.5052885E+02  0.7816164E-02  0.1300439E+00
        -11   -1    0    0    0    0  0.00000000000E+00  0.00000000000E+00  0.45593999997E+02  0.45594000000E+02  0.51100000000E-03 0.  1.
         11   -1    0    0    0    0 -0.00000000000E+00 -0.00000000000E+00 -0.45593999997E+02  0.45594000000E+02  0.51100000000E-03 0. -1.
    9900012    2    1    2    0    0  0.50733470932E+01 -0.19847715979E+02  0.35121153992E+02  0.50528854190E+02  0.29999982795E+02 0.  0.
         12    1    1    2    0    0 -0.50733470932E+01  0.19847715979E+02 -0.35121153992E+02  0.40659145810E+02  0.00000000000E+00 0. -1.
         11    1    3    3    0    0  0.34860023032E+00 -0.16523849394E+02  0.11440202078E+02  0.20100680207E+02  0.51100000000E-03 0. -1.
        -11    1    3    3    0    0 -0.25537288016E+01 -0.49547124185E+01  0.22114943349E+02  0.22806609252E+02  0.51100000000E-03 0.  1.
         12    1    3    3    0    0  0.72784756646E+01  0.16308458341E+01  0.15660085643E+01  0.76215647316E+01  0.00000000000E+00 0. -1.
</event>
<event>
 7    1  0.6726285E-013  0.5052885E+02  0.7816164E-02  0.1300439E+00
        -11   -1    0    0    0    0  0.00000000000E+00  0.00000000000E+00  0.45593999997E+02  0.45594000000E+02  0.51100000000E-03 0.  1.
         11   -1    0    0    0    0 -0.00000000000E+00 -0.00000000000E+00 -0.45593999997E+02  0.45594000000E+02  0.51100000000E-03 0. -1.
    9900012    2    1    2    0    0 -0.36126526101E+02  0.18589000628E+02 -0.15779426345E+01  0.50528846843E+02  0.29999960464E+02 0.  0.
         12    1    1    2    0    0  0.36126526101E+02 -0.18589000628E+02  0.15779426345E+01  0.40659153157E+02  0.00000000000E+00 0. -1.
         11    1    3    3    0    0 -0.72109798201E+01  0.38179256225E+01  0.52877506444E+01  0.97229158776E+01  0.51100000000E-03 0. -1.
        -11    1    3    3    0    0 -0.18387375181E+02  0.26857066320E+01  0.67549375360E+01  0.19772146255E+02  0.51100000000E-03 0.  1.
         12    1    3    3    0    0 -0.10528171100E+02  0.12085368373E+02 -0.13620630815E+02  0.21033784710E+02  0.00000000000E+00 0. -1.
</event>
<event>
 7    1  0.6726285E-013  0.5052886E+02  0.7816164E-02  0.1300439E+00
        -11   -1    0    0    0    0  0.00000000000E+00  0.00000000000E+00  0.45593999997E+02  0.45594000000E+02  0.51100000000E-03 0.  1.
         11   -1    0    0    0    0 -0.00000000000E+00 -0.00000000000E+00 -0.45593999997E+02  0.45594000000E+02  0.51100000000E-03 0. -1.
    9900012    2    1    2    0    0 -0.77191544380E+01 -0.23162752122E+02  0.32512575769E+02  0.50528855711E+02  0.29999987421E+02 0.  0.
         12    1    1    2    0    0  0.77191544380E+01  0.23162752122E+02 -0.32512575769E+02  0.40659144289E+02  0.00000000000E+00 0. -1.
         11    1    3    3    0    0  0.13521255339E+01  0.11073813195E+01 -0.67460619845E+00  0.18734008195E+01  0.51100000000E-03 0. -1.
        -11    1    3    3    0    0 -0.72270107403E+01  0.19078738758E+01  0.16989827971E+01  0.76652599285E+01  0.51100000000E-03 0.  1.
        -12    1    3    3    0    0 -0.18442692316E+01 -0.26178007318E+02  0.31488199171E+02  0.40990194963E+02  0.00000000000E+00 0.  1.
</event>
<event>
 7    1  0.6726285E-013  0.5052886E+02  0.7816164E-02  0.1300439E+00
        -11   -1    0    0    0    0  0.00000000000E+00  0.00000000000E+00  0.45593999997E+02  0.45594000000E+02  0.51100000000E-03 0.  1.
         11   -1    0    0    0    0 -0.00000000000E+00 -0.00000000000E+00 -0.45593999997E+02  0.45594000000E+02  0.51100000000E-03 0. -1.
    9900012    2    1    2    0    0  0.19413463226E+02 -0.22438746174E+02 -0.27799024797E+02  0.50528860019E+02  0.30000000514E+02 0.  0.
         12    1    1    2    0    0 -0.19413463226E+02  0.22438746174E+02  0.27799024797E+02  0.40659139981E+02  0.00000000000E+00 0. -1.
         11    1    3    3    0    0  0.81685564992E+00  0.46739138639E+01 -0.28541310041E+00  0.47533340782E+01  0.51100000000E-03 0. -1.
        -11    1    3    3    0    0  0.66519847823E+01  0.32416548969E+00 -0.50580514778E+01  0.83628864528E+01  0.51100000000E-03 0.  1.
         12    1    3    3    0    0  0.11944622794E+02 -0.27436825528E+02 -0.22455560219E+02  0.37412639488E+02  0.00000000000E+00 0. -1.
</event>
<event>
 7    1  0.6726285E-013  0.5052885E+02  0.7816164E-02  0.1300439E+00
        -11   -1    0    0    0    0  0.00000000000E+00  0.00000000000E+00  0.45593999997E+02  0.45594000000E+02  0.51100000000E-03 0.  1.
         11   -1    0    0    0    0 -0.00000000000E+00 -0.00000000000E+00 -0.45593999997E+02  0.45594000000E+02  0.51100000000E-03 0. -1.
    9900012    2    1    2    0    0 -0.84576384499E+00  0.17232219252E+02  0.36817136901E+02  0.50528852611E+02  0.29999977995E+02 0.  0.
         12    1    1    2    0    0  0.84576384499E+00 -0.17232219252E+02 -0.36817136901E+02  0.40659147389E+02  0.00000000000E+00 0. -1.
         11    1    3    3    0    0  0.10160122187E+02  0.69735467342E+01  0.10032136094E+02  0.15890317549E+02  0.51100000000E-03 0. -1.
        -11    1    3    3    0    0  0.94645331846E+00 -0.19818935949E+01 -0.66401779004E+00  0.22944707433E+01  0.51100000000E-03 0.  1.
        -12    1    3    3    0    0 -0.11952339351E+02  0.12240566113E+02  0.27449018597E+02  0.32344064319E+02  0.00000000000E+00 0.  1.
</event>
<event>
 7    1  0.6726285E-013  0.5052887E+02  0.7816164E-02  0.1300439E+00
        -11   -1    0    0    0    0  0.00000000000E+00  0.00000000000E+00  0.45593999997E+02  0.45594000000E+02  0.51100000000E-03 0. -1.
         11   -1    0    0    0    0 -0.00000000000E+00 -0.00000000000E+00 -0.45593999997E+02  0.45594000000E+02  0.51100000000E-03 0.  1.
    9900012    2    1    2    0    0 -0.11382516489E+02  0.16287257492E+02 -0.35472930655E+02  0.50528865141E+02  0.30000016081E+02 0.  0.
         12    1    1    2    0    0  0.11382516489E+02 -0.16287257492E+02  0.35472930655E+02  0.40659134859E+02  0.00000000000E+00 0. -1.
         11    1    3    3    0    0 -0.22122625710E+01 -0.71371308410E+00  0.26276455877E+01  0.35082778746E+01  0.51100000000E-03 0. -1.
        -11    1    3    3    0    0  0.20991893155E+00  0.24458661737E+01 -0.25469103263E+02  0.25587136388E+02  0.51100000000E-03 0.  1.
        -12    1    3    3    0    0 -0.93801728499E+01  0.14555104403E+02 -0.12631472980E+02  0.21433450878E+02  0.00000000000E+00 0.  1.
</event>
<event>
 7    1  0.6726285E-013  0.5052886E+02  0.7816164E-02  0.1300439E+00
        -11   -1    0    0    0    0  0.00000000000E+00  0.00000000000E+00  0.45593999997E+02  0.45594000000E+02  0.51100000000E-03 0.  1.
         11   -1    0    0    0    0 -0.00000000000E+00 -0.00000000000E+00 -0.45593999997E+02  0.45594000000E+02  0.51100000000E-03 0. -1.
    9900012    2    1    2    0    0  0.16520039692E+02 -0.10600681966E+02  0.35607297198E+02  0.50528858552E+02  0.29999996055E+02 0.  0.
         12    1    1    2    0    0 -0.16520039692E+02  0.10600681966E+02 -0.35607297198E+02  0.40659141448E+02  0.00000000000E+00 0. -1.
         11    1    3    3    0    0  0.61012350918E+01 -0.85137929769E+01 -0.54609786318E+00  0.10488468126E+02  0.51100000000E-03 0. -1.
        -11    1    3    3    0    0  0.47091737961E+01 -0.29225069006E+01  0.28337305558E+01  0.62247404403E+01  0.51100000000E-03 0.  1.
         12    1    3    3    0    0  0.57096308040E+01  0.83561791156E+00  0.33319664505E+02  0.33815649985E+02  0.00000000000E+00 0. -1.
</event>
<event>
 7    1  0.6726285E-013  0.5052887E+02  0.7816164E-02  0.1300439E+00
        -11   -1    0    0    0    0  0.00000000000E+00  0.00000000000E+00  0.45593999997E+02  0.45594000000E+02  0.51100000000E-03 0.  1.
         11   -1    0    0    0    0 -0.00000000000E+00 -0.00000000000E+00 -0.45593999997E+02  0.45594000000E+02  0.51100000000E-03 0. -1.
    9900012    2    1    2    0    0  0.39723139558E+02 -0.64354372653E+01  0.58157062789E+01  0.50528866848E+02  0.30000021272E+02 0.  0.
         12    1    1    2    0    0 -0.39723139558E+02  0.64354372653E+01 -0.58157062789E+01  0.40659133152E+02  0.00000000000E+00 0. -1.
         11    1    3    3    0    0 -0.23785254928E+01 -0.99783789730E+00  0.13495749480E+01  0.29110851569E+01  0.51100000000E-03 0. -1.
        -11    1    3    3    0    0  0.20091702934E+02  0.52112363327E+01  0.92151184543E+01  0.22710172154E+02  0.51100000000E-03 0.  1.
         12    1    3    3    0    0  0.22009962117E+02 -0.10648835701E+02 -0.47489871234E+01  0.24907609537E+02  0.00000000000E+00 0. -1.
</event>
<event>
 7    1  0.6726285E-013  0.5052884E+02  0.7816164E-02  0.1300439E+00
        -11   -1    0    0    0    0  0.00000000000E+00  0.00000000000E+00  0.45593999997E+02  0.45594000000E+02  0.51100000000E-03 0. -1.
         11   -1    0    0    0    0 -0.00000000000E+00 -0.00000000000E+00 -0.45593999997E+02  0.45594000000E+02  0.51100000000E-03 0.  1.
    9900012    2    1    2    0    0  0.28054066153E+02  0.28363732436E+02  0.78508125669E+01  0.50528841089E+02  0.29999942973E+02 0.  0.
         12    1    1    2    0    0 -0.28054066153E+02 -0.28363732436E+02 -0.78508125669E+01  0.40659158911E+02  0.00000000000E+00 0. -1.
         11    1    3    3    0    0  0.50446223832E+00 -0.10872539409E+01  0.55893033214E+01  0.57163725528E+01  0.51100000000E-03 0. -1.
        -11    1    3    3    0    0 -0.17612657578E+01 -0.10344260785E+01  0.14664693660E+01  0.25144834547E+01  0.51100000000E-03 0.  1.
        -12    1    3    3    0    0  0.29310869672E+02  0.30485412456E+02  0.79503987953E+00  0.42297985081E+02  0.00000000000E+00 0.  1.
</event>
<event>
 7    1  0.6726285E-013  0.5052886E+02  0.7816164E-02  0.1300439E+00
        -11   -1    0    0    0    0  0.00000000000E+00  0.00000000000E+00  0.45593999997E+02  0.45594000000E+02  0.51100000000E-03 0. -1.
         11   -1    0    0    0    0 -0.00000000000E+00 -0.00000000000E+00 -0.45593999997E+02  0.45594000000E+02  0.51100000000E-03 0.  1.
    9900012    2    1    2    0    0 -0.15405973714E+02  0.23957583083E+01 -0.37551054852E+02  0.50528863211E+02  0.30000010217E+02 0.  0.
         12    1    1    2    0    0  0.15405973714E+02 -0.23957583083E+01  0.37551054852E+02  0.40659136789E+02  0.00000000000E+00 0. -1.
         11    1    3    3    0    0  0.29271938869E+01 -0.25484973379E+01  0.13640246393E+01  0.41138626873E+01  0.51100000000E-03 0.  1.
        -11    1    3    3    0    0 -0.30405392563E+01 -0.23759975120E+00  0.11180280420E+01  0.32482794792E+01  0.51100000000E-03 0. -1.
        -12    1    3    3    0    0 -0.15292628344E+02  0.51818553974E+01 -0.40033107533E+02  0.43166721045E+02  0.00000000000E+00 0.  1.
</event>
<event>
 7    1  0.6726285E-013  0.5052888E+02  0.7816164E-02  0.1300439E+00
        -11   -1    0    0    0    0  0.00000000000E+00  0.00000000000E+00  0.45593999997E+02  0.45594000000E+02  0.51100000000E-03 0.  1.
         11   -1    0    0    0    0 -0.00000000000E+00 -0.00000000000E+00 -0.45593999997E+02  0.45594000000E+02  0.51100000000E-03 0. -1.
    9900012    2    1    2    0    0  0.37936057546E+02 -0.50035861842E+01 -0.13747147716E+02  0.50528875475E+02  0.30000047493E+02 0.  0.
         12    1    1    2    0    0 -0.37936057546E+02  0.50035861842E+01  0.13747147716E+02  0.40659124525E+02  0.00000000000E+00 0. -1.
         11    1    3    3    0    0  0.23154797114E+02 -0.26262795862E+01 -0.41026114312E+01  0.23661643955E+02  0.51100000000E-03 0. -1.
        -11    1    3    3    0    0  0.11493259051E+02  0.20323064511E+01  0.38536859977E+01  0.12291304616E+02  0.51100000000E-03 0.  1.
         12    1    3    3    0    0  0.32880013812E+01 -0.44096130491E+01 -0.13498222282E+02  0.14575926904E+02  0.00000000000E+00 0. -1.
</event>
<event>
 7    1  0.6726285E-013  0.5052883E+02  0.7816164E-02  0.1300439E+00
        -11   -1    0    0    0    0  0.00000000000E+00  0.00000000000E+00  0.45593999997E+02  0.45594000000E+02  0.51100000000E-03 0.  1.
         11   -1    0    0    0    0 -0.00000000000E+00 -0.00000000000E+00 -0.45593999997E+02  0.45594000000E+02  0.51100000000E-03 0. -1.
    9900012    2    1    2    0    0  0.12456547449E+02  0.38070739938E+02  0.69729103427E+01  0.50528827697E+02  0.29999902267E+02 0.  0.
         12    1    1    2    0    0 -0.12456547449E+02 -0.38070739938E+02 -0.69729103427E+01  0.40659172303E+02  0.00000000000E+00 0. -1.
         11    1    3    3    0    0  0.12978988671E+02  0.22707777509E+02  0.60272429071E+01  0.26840733292E+02  0.51100000000E-03 0.  1.
        -11    1    3    3    0    0  0.39664421699E+01  0.65148034195E+01 -0.74714857186E+01  0.10677004551E+02  0.51100000000E-03 0. -1.
        -12    1    3    3    0    0 -0.44888833919E+01  0.88481590089E+01  0.84171531543E+01  0.13011089853E+02  0.00000000000E+00 0.  1.
</event>
<event>
 7    1  0.6726285E-013  0.5052886E+02  0.7816164E-02  0.1300439E+00
        -11   -1    0    0    0    0  0.00000000000E+00  0.00000000000E+00  0.45593999997E+02  0.45594000000E+02  0.51100000000E-03 0.  1.
         11   -1    0    0    0    0 -0.00000000000E+00 -0.00000000000E+00 -0.45593999997E+02  0.45594000000E+02  0.51100000000E-03 0. -1.
    9900012    2    1    2    0    0 -0.29580263700E+02  0.37995209729E+01  0.27635803247E+02  0.50528856117E+02  0.29999988652E+02 0.  0.
         12    1    1    2    0    0  0.29580263700E+02 -0.37995209729E+01 -0.27635803247E+02  0.40659143883E+02  0.00000000000E+00 0. -1.
         11    1    3    3    0    0 -0.10743267254E+01 -0.32876816013E+01 -0.64962903212E+00  0.35192394583E+01  0.51100000000E-03 0. -1.
        -11    1    3    3    0    0 -0.11415189536E+02 -0.78600304032E+01  0.16091962847E+02  0.21237652851E+02  0.51100000000E-03 0.  1.
         12    1    3    3    0    0 -0.17090747439E+02  0.14947232977E+02  0.12193469433E+02  0.25771963808E+02  0.00000000000E+00 0. -1.
</event>
<event>
 7    1  0.6726285E-013  0.5052886E+02  0.7816164E-02  0.1300439E+00
        -11   -1    0    0    0    0  0.00000000000E+00  0.00000000000E+00  0.45593999997E+02  0.45594000000E+02  0.51100000000E-03 0. -1.
         11   -1    0    0    0    0 -0.00000000000E+00 -0.00000000000E+00 -0.45593999997E+02  0.45594000000E+02  0.51100000000E-03 0.  1.
    9900012    2    1    2    0    0  0.28424199853E+02 -0.97231298733E+01 -0.27398743895E+02  0.50528861312E+02  0.30000004445E+02 0.  0.
         12    1    1    2    0    0 -0.28424199853E+02  0.97231298733E+01  0.27398743895E+02  0.40659138688E+02  0.00000000000E+00 0. -1.
         11    1    3    3    0    0  0.43308715194E+01 -0.19138130679E+01 -0.12318586846E+01  0.48925049470E+01  0.51100000000E-03 0. -1.
        -11    1    3    3    0    0  0.28806714677E+02 -0.84423482389E+01 -0.15124137533E+02  0.33613086598E+02  0.51100000000E-03 0.  1.
         12    1    3    3    0    0 -0.47133863438E+01  0.63303143346E+00 -0.11042747678E+02  0.12023269767E+02  0.00000000000E+00 0. -1.
</event>
<event>
 7    1  0.6726285E-013  0.5052886E+02  0.7816164E-02  0.1300439E+00
        -11   -1    0    0    0    0  0.00000000000E+00  0.00000000000E+00  0.45593999997E+02  0.45594000000E+02  0.51100000000E-03 0.  1.
         11   -1    0    0    0    0 -0.00000000000E+00 -0.00000000000E+00 -0.45593999997E+02  0.45594000000E+02  0.51100000000E-03 0. -1.
    9900012    2    1    2    0    0  0.68246860214E+01 -0.39639175940E+02  0.59434977352E+01  0.50528858669E+02  0.29999996409E+02 0.  0.
         12    1    1    2    0    0 -0.68246860214E+01  0.39639175940E+02 -0.59434977352E+01  0.40659141331E+02  0.00000000000E+00 0. -1.
         11    1    3    3    0    0  0.11402121370E+02 -0.17687311744E+02 -0.18653808342E+01  0.21126500287E+02  0.51100000000E-03 0. -1.
        -11    1    3    3    0    0  0.66718878381E+01 -0.81933481022E+01  0.25700902098E+01  0.10874300180E+02  0.51100000000E-03 0.  1.
        -12    1    3    3    0    0 -0.11249323187E+02 -0.13758516094E+02  0.52387883596E+01  0.18528058202E+02  0.00000000000E+00 0.  1.
</event>
<event>
 7    1  0.6726285E-013  0.5052886E+02  0.7816164E-02  0.1300439E+00
        -11   -1    0    0    0    0  0.00000000000E+00  0.00000000000E+00  0.45593999997E+02  0.45594000000E+02  0.51100000000E-03 0. -1.
         11   -1    0    0    0    0 -0.00000000000E+00 -0.00000000000E+00 -0.45593999997E+02  0.45594000000E+02  0.51100000000E-03 0.  1.
    9900012    2    1    2    0    0 -0.25822316059E+02  0.30948868831E+02 -0.53423770450E+01  0.50528862269E+02  0.30000007352E+02 0.  0.
         12    1    1    2    0    0  0.25822316059E+02 -0.30948868831E+02  0.53423770450E+01  0.40659137731E+02  0.00000000000E+00 0. -1.
         11    1    3    3    0    0  0.38140895158E+01  0.10386671272E+02  0.72428407036E+00  0.11088498844E+02  0.51100000000E-03 0. -1.
        -11    1    3    3    0    0 -0.16386766490E+02  0.62102038552E+01 -0.89808176065E+01  0.19691313645E+02  0.51100000000E-03 0.  1.
         12    1    3    3    0    0 -0.13249639085E+02  0.14351993704E+02  0.29141564912E+01  0.19749049780E+02  0.00000000000E+00 0. -1.
</event>
<event>
 7    1  0.6726285E-013  0.5052886E+02  0.7816164E-02  0.1300439E+00
        -11   -1    0    0    0    0  0.00000000000E+00  0.00000000000E+00  0.45593999997E+02  0.45594000000E+02  0.51100000000E-03 0. -1.
         11   -1    0    0    0    0 -0.00000000000E+00 -0.00000000000E+00 -0.45593999997E+02  0.45594000000E+02  0.51100000000E-03 0.  1.
    9900012    2    1    2    0    0  0.37951049095E+02 -0.80359337952E+01 -0.12178143352E+02  0.50528861606E+02  0.30000005339E+02 0.  0.
         12    1    1    2    0    0 -0.37951049095E+02  0.80359337952E+01  0.12178143352E+02  0.40659138394E+02  0.00000000000E+00 0. -1.
         11    1    3    3    0    0  0.27247738318E+02 -0.12629990198E+02 -0.16293540889E+01  0.30076746680E+02  0.51100000000E-03 0. -1.
        -11    1    3    3    0    0  0.18859347442E+01 -0.43698685650E+01 -0.16082062012E+01  0.50238260899E+01  0.51100000000E-03 0.  1.
        -12    1    3    3    0    0  0.88173760333E+01  0.89639249677E+01 -0.89405830618E+01  0.15428288837E+02  0.00000000000E+00 0.  1.
</event>
<event>
 7    1  0.6726285E-013  0.5052885E+02  0.7816164E-02  0.1300439E+00
        -11   -1    0    0    0    0  0.00000000000E+00  0.00000000000E+00  0.45593999997E+02  0.45594000000E+02  0.51100000000E-03 0. -1.
         11   -1    0    0    0    0 -0.00000000000E+00 -0.00000000000E+00 -0.45593999997E+02  0.45594000000E+02  0.51100000000E-03 0.  1.
    9900012    2    1    2    0    0 -0.37822218059E+02 -0.11334035422E+02 -0.97049473718E+01  0.50528849230E+02  0.29999967721E+02 0.  0.
         12    1    1    2    0    0  0.37822218059E+02  0.11334035422E+02  0.97049473718E+01  0.40659150770E+02  0.00000000000E+00 0. -1.
         11    1    3    3    0    0  0.11829364777E+01 -0.15888963426E+01  0.23071098837E+01  0.30408364926E+01  0.51100000000E-03 0. -1.
        -11    1    3    3    0    0  0.16358694097E+01  0.24782288224E+01 -0.27552068891E+01  0.40507841321E+01  0.51100000000E-03 0.  1.
        -12    1    3    3    0    0 -0.40641023946E+02 -0.12223367902E+02 -0.92568503664E+01  0.43437228606E+02  0.00000000000E+00 0.  1.
</event>
<event>
 7    1  0.6726285E-013  0.5052886E+02  0.7816164E-02  0.1300439E+00
        -11   -1    0    0    0    0  0.00000000000E+00  0.00000000000E+00  0.45593999997E+02  0.45594000000E+02  0.51100000000E-03 0. -1.
         11   -1    0    0    0    0 -0.00000000000E+00 -0.00000000000E+00 -0.45593999997E+02  0.45594000000E+02  0.51100000000E-03 0.  1.
    9900012    2    1    2    0    0  0.21273557469E+02  0.15135782089E+02 -0.31169049317E+02  0.50528858566E+02  0.29999996097E+02 0.  0.
         12    1    1    2    0    0 -0.21273557469E+02 -0.15135782089E+02  0.31169049317E+02  0.40659141434E+02  0.00000000000E+00 0. -1.
         11    1    3    3    0    0 -0.52879484580E+00  0.91785876751E+01 -0.56001737508E+01  0.10765130840E+02  0.51100000000E-03 0. -1.
        -11    1    3    3    0    0  0.39552493045E+01  0.91927592560E+01 -0.16945914665E+02  0.19680316153E+02  0.51100000000E-03 0.  1.
        -12    1    3    3    0    0  0.17847103010E+02 -0.32355648421E+01 -0.86229609017E+01  0.20083411573E+02  0.00000000000E+00 0.  1.
</event>
<event>
 7    1  0.6726285E-013  0.5052889E+02  0.7816164E-02  0.1300439E+00
        -11   -1    0    0    0    0  0.00000000000E+00  0.00000000000E+00  0.45593999997E+02  0.45594000000E+02  0.51100000000E-03 0. -1.
         11   -1    0    0    0    0 -0.00000000000E+00 -0.00000000000E+00 -0.45593999997E+02  0.45594000000E+02  0.51100000000E-03 0.  1.
    9900012    2    1    2    0    0 -0.34922786447E+02  0.64298803767E+01 -0.19804525987E+02  0.50528885100E+02  0.30000076751E+02 0.  0.
         12    1    1    2    0    0  0.34922786447E+02 -0.64298803767E+01  0.19804525987E+02  0.40659114900E+02  0.00000000000E+00 0. -1.
         11    1    3    3    0    0 -0.35813108625E+01 -0.60475834739E+01  0.23461517828E+01  0.74096883751E+01  0.51100000000E-03 0. -1.
        -11    1    3    3    0    0 -0.13621714521E+02  0.83281174839E+01 -0.18712646253E+02  0.24598206792E+02  0.51100000000E-03 0.  1.
         12    1    3    3    0    0 -0.17719761063E+02  0.41493463666E+01 -0.34380315164E+01  0.18520989934E+02  0.00000000000E+00 0. -1.
</event>
<event>
 7    1  0.6726285E-013  0.5052887E+02  0.7816164E-02  0.1300439E+00
        -11   -1    0    0    0    0  0.00000000000E+00  0.00000000000E+00  0.45593999997E+02  0.45594000000E+02  0.51100000000E-03 0.  1.
         11   -1    0    0    0    0 -0.00000000000E+00 -0.00000000000E+00 -0.45593999997E+02  0.45594000000E+02  0.51100000000E-03 0. -1.
    9900012    2    1    2    0    0  0.13016322220E+00  0.29678541789E+02  0.27790867486E+02  0.50528866944E+02  0.30000021564E+02 0.  0.
         12    1    1    2    0    0 -0.13016322220E+00 -0.29678541789E+02 -0.27790867486E+02  0.40659133056E+02  0.00000000000E+00 0. -1.
         11    1    3    3    0    0 -0.11547632362E+02  0.16192005962E+02  0.17178200392E+02  0.26279639252E+02  0.51100000000E-03 0. -1.
        -11    1    3    3    0    0  0.81159994794E+00  0.89025671700E+01  0.92554330295E+00  0.89872702952E+01  0.51100000000E-03 0.  1.
         12    1    3    3    0    0  0.10866195636E+02  0.45839686570E+01  0.96871237912E+01  0.15261957397E+02  0.00000000000E+00 0. -1.
</event>
<event>
 7    1  0.6726285E-013  0.5052884E+02  0.7816164E-02  0.1300439E+00
        -11   -1    0    0    0    0  0.00000000000E+00  0.00000000000E+00  0.45593999997E+02  0.45594000000E+02  0.51100000000E-03 0. -1.
         11   -1    0    0    0    0 -0.00000000000E+00 -0.00000000000E+00 -0.45593999997E+02  0.45594000000E+02  0.51100000000E-03 0.  1.
    9900012    2    1    2    0    0 -0.38182748336E+02 -0.13878808180E+02 -0.16197937805E+01  0.50528839669E+02  0.29999938657E+02 0.  0.
         12    1    1    2    0    0  0.38182748336E+02  0.13878808180E+02  0.16197937805E+01  0.40659160331E+02  0.00000000000E+00 0. -1.
         11    1    3    3    0    0 -0.24813140002E+02 -0.13450986957E+02 -0.37772131190E+01  0.28476100612E+02  0.51100000000E-03 0. -1.
        -11    1    3    3    0    0 -0.38861933622E+01 -0.70467332488E+01 -0.39608310792E+01  0.89692324882E+01  0.51100000000E-03 0.  1.
         12    1    3    3    0    0 -0.94834149718E+01  0.66189120268E+01  0.61182504178E+01  0.13083506568E+02  0.00000000000E+00 0. -1.
</event>
<event>
 7    1  0.6726285E-013  0.5052886E+02  0.7816164E-02  0.1300439E+00
        -11   -1    0    0    0    0  0.00000000000E+00  0.00000000000E+00  0.45593999997E+02  0.45594000000E+02  0.51100000000E-03 0. -1.
         11   -1    0    0    0    0 -0.00000000000E+00 -0.00000000000E+00 -0.45593999997E+02  0.45594000000E+02  0.51100000000E-03 0.  1.
    9900012    2    1    2    0    0  0.18569512746E+02  0.36162621740E+02  0.77688188645E+00  0.50528861295E+02  0.30000004393E+02 0.  0.
         12    1    1    2    0    0 -0.18569512746E+02 -0.36162621740E+02 -0.77688188645E+00  0.40659138705E+02  0.00000000000E+00 0. -1.
         11    1    3    3    0    0  0.58749146470E+01  0.21381529092E+01  0.89671963750E+01  0.10931465184E+02  0.51100000000E-03 0.  1.
        -11    1    3    3    0    0 -0.14940507516E+01 -0.10461575237E+00  0.58683817464E+00  0.16085743403E+01  0.51100000000E-03 0. -1.
        -12    1    3    3    0    0  0.14188648851E+02  0.34129084583E+02 -0.87771526632E+01  0.37988821771E+02  0.00000000000E+00 0.  1.
</event>
<event>
 7    1  0.6726285E-013  0.5052886E+02  0.7816164E-02  0.1300439E+00
        -11   -1    0    0    0    0  0.00000000000E+00  0.00000000000E+00  0.45593999997E+02  0.45594000000E+02  0.51100000000E-03 0.  1.
         11   -1    0    0    0    0 -0.00000000000E+00 -0.00000000000E+00 -0.45593999997E+02  0.45594000000E+02  0.51100000000E-03 0. -1.
    9900012    2    1    2    0    0 -0.34196388972E+02 -0.20034167016E+02  0.90777113959E+01  0.50528859442E+02  0.29999998760E+02 0.  0.
         12    1    1    2    0    0  0.34196388972E+02  0.20034167016E+02 -0.90777113959E+01  0.40659140558E+02  0.00000000000E+00 0. -1.
         11    1    3    3    0    0  0.76534154464E+00  0.17395979558E+01  0.52394790421E+01  0.55735168091E+01  0.51100000000E-03 0. -1.
        -11    1    3    3    0    0 -0.22968321521E+02 -0.42552926080E+01  0.41366865125E+01  0.23722636536E+02  0.51100000000E-03 0.  1.
         12    1    3    3    0    0 -0.11993408996E+02 -0.17518472364E+02 -0.29845415867E+00  0.21232706097E+02  0.00000000000E+00 0. -1.
</event>
<event>
 7    1  0.6726285E-013  0.5052885E+02  0.7816164E-02  0.1300439E+00
        -11   -1    0    0    0    0  0.00000000000E+00  0.00000000000E+00  0.45593999997E+02  0.45594000000E+02  0.51100000000E-03 0.  1.
         11   -1    0    0    0    0 -0.00000000000E+00 -0.00000000000E+00 -0.45593999997E+02  0.45594000000E+02  0.51100000000E-03 0. -1.
    9900012    2    1    2    0    0 -0.19755736061E+02  0.29287807401E+02  0.20127137337E+02  0.50528850636E+02  0.29999971992E+02 0.  0.
         12    1    1    2    0    0  0.19755736061E+02 -0.29287807401E+02 -0.20127137337E+02  0.40659149364E+02  0.00000000000E+00 0. -1.
         11    1    3    3    0    0  0.23287793630E+01  0.15224343053E+01  0.58444741003E+01  0.64729357564E+01  0.51100000000E-03 0. -1.
        -11    1    3    3    0    0 -0.64052394497E+01 -0.27414832921E+01  0.48275576458E+01  0.84763279864E+01  0.51100000000E-03 0.  1.
        -12    1    3    3    0    0 -0.15679275974E+02  0.30506856388E+02  0.94551055907E+01  0.35579586893E+02  0.00000000000E+00 0.  1.
</event>
<event>
 7    1  0.6726285E-013  0.5052886E+02  0.7816164E-02  0.1300439E+00
        -11   -1    0    0    0    0  0.00000000000E+00  0.00000000000E+00  0.45593999997E+02  0.45594000000E+02  0.51100000000E-03 0.  1.
         11   -1    0    0    0    0 -0.00000000000E+00 -0.00000000000E+00 -0.45593999997E+02  0.45594000000E+02  0.51100000000E-03 0. -1.
    9900012    2    1    2    0    0 -0.32661187262E+02  0.18430411077E+02  0.15707729124E+02  0.50528856378E+02  0.29999989447E+02 0.  0.
         12    1    1    2    0    0  0.32661187262E+02 -0.18430411077E+02 -0.15707729124E+02  0.40659143622E+02  0.00000000000E+00 0. -1.
         11    1    3    3    0    0 -0.53541759143E+01  0.94377803242E+01  0.11324361803E+02  0.15683751710E+02  0.51100000000E-03 0.  1.
        -11    1    3    3    0    0  0.17753852149E+01  0.44425502080E+01 -0.10841091694E+01  0.49054600155E+01  0.51100000000E-03 0. -1.
        -12    1    3    3    0    0 -0.29082396562E+02  0.45500805452E+01  0.54674764904E+01  0.29939644653E+02  0.00000000000E+00 0.  1.
</event>
<event>
 7    1  0.6726285E-013  0.5052884E+02  0.7816164E-02  0.1300439E+00
        -11   -1    0    0    0    0  0.00000000000E+00  0.00000000000E+00  0.45593999997E+02  0.45594000000E+02  0.51100000000E-03 0.  1.
         11   -1    0    0    0    0 -0.00000000000E+00 -0.00000000000E+00 -0.45593999997E+02  0.45594000000E+02  0.51100000000E-03 0. -1.
    9900012    2    1    2    0    0  0.27038668623E+02  0.28544006913E+02 -0.10359390186E+02  0.50528844862E+02  0.29999954442E+02 0.  0.
         12    1    1    2    0    0 -0.27038668623E+02 -0.28544006913E+02  0.10359390186E+02  0.40659155138E+02  0.00000000000E+00 0. -1.
         11    1    3    3    0    0  0.26663884648E+02  0.18044972838E+02 -0.24291864764E+01  0.32287532213E+02  0.51100000000E-03 0. -1.
        -11    1    3    3    0    0  0.43011992348E+01  0.61715480305E+01  0.97991373545E+00  0.75860761359E+01  0.51100000000E-03 0.  1.
         12    1    3    3    0    0 -0.39264152600E+01  0.43274860443E+01 -0.89101174449E+01  0.10655236513E+02  0.00000000000E+00 0. -1.
</event>
<event>
 7    1  0.6726285E-013  0.5052887E+02  0.7816164E-02  0.1300439E+00
        -11   -1    0    0    0    0  0.00000000000E+00  0.00000000000E+00  0.45593999997E+02  0.45594000000E+02  0.51100000000E-03 0.  1.
         11   -1    0    0    0    0 -0.00000000000E+00 -0.00000000000E+00 -0.45593999997E+02  0.45594000000E+02  0.51100000000E-03 0. -1.
    9900012    2    1    2    0    0 -0.27174979005E+01  0.14191216439E+02  0.38005122549E+02  0.50528871150E+02  0.30000034348E+02 0.  0.
         12    1    1    2    0    0  0.27174979005E+01 -0.14191216439E+02 -0.38005122549E+02  0.40659128850E+02  0.00000000000E+00 0. -1.
         11    1    3    3    0    0 -0.64682881208E+01  0.90723467185E+01  0.34463481669E+01  0.11662913107E+02  0.51100000000E-03 0. -1.
        -11    1    3    3    0    0 -0.65048217862E+01  0.20970894689E+01  0.10369444631E+02  0.12419173601E+02  0.51100000000E-03 0.  1.
        -12    1    3    3    0    0  0.10255612006E+02  0.30217802515E+01  0.24189329751E+02  0.26446784442E+02  0.00000000000E+00 0.  1.
</event>
<event>
 7    1  0.6726285E-013  0.5052886E+02  0.7816164E-02  0.1300439E+00
        -11   -1    0    0    0    0  0.00000000000E+00  0.00000000000E+00  0.45593999997E+02  0.45594000000E+02  0.51100000000E-03 0.  1.
         11   -1    0    0    0    0 -0.00000000000E+00 -0.00000000000E+00 -0.45593999997E+02  0.45594000000E+02  0.51100000000E-03 0. -1.
    9900012    2    1    2    0    0 -0.73344507550E+01  0.38385464531E+02  0.11221742904E+02  0.50528861188E+02  0.30000004067E+02 0.  0.
         12    1    1    2    0    0  0.73344507550E+01 -0.38385464531E+02 -0.11221742904E+02  0.40659138812E+02  0.00000000000E+00 0. -1.
         11    1    3    3    0    0 -0.11871081496E+02  0.19854921135E+02  0.74192185362E+01  0.24293729090E+02  0.51100000000E-03 0. -1.
        -11    1    3    3    0    0 -0.66314021659E+01  0.53503122838E+01  0.26412715204E+01  0.89206306798E+01  0.51100000000E-03 0.  1.
         12    1    3    3    0    0  0.11168032907E+02  0.13180231112E+02  0.11612528476E+01  0.17314501418E+02  0.00000000000E+00 0. -1.
</event>
<event>
 7    1  0.6726285E-013  0.5052885E+02  0.7816164E-02  0.1300439E+00
        -11   -1    0    0    0    0  0.00000000000E+00  0.00000000000E+00  0.45593999997E+02  0.45594000000E+02  0.51100000000E-03 0.  1.
         11   -1    0    0    0    0 -0.00000000000E+00 -0.00000000000E+00 -0.45593999997E+02  0.45594000000E+02  0.51100000000E-03 0. -1.
    9900012    2    1    2    0    0  0.39488195446E+02 -0.28188884719E+01  0.92683731327E+01  0.50528850324E+02  0.29999971046E+02 0.  0.
         12    1    1    2    0    0 -0.39488195446E+02  0.28188884719E+01 -0.92683731327E+01  0.40659149676E+02  0.00000000000E+00 0. -1.
         11    1    3    3    0    0  0.14217382440E+02  0.71724912794E+01  0.11248902022E+02  0.19496573842E+02  0.51100000000E-03 0. -1.
        -11    1    3    3    0    0  0.67723250584E+00 -0.57022375751E+01  0.11980020585E+01  0.58659497461E+01  0.51100000000E-03 0.  1.
         12    1    3    3    0    0  0.24593580500E+02 -0.42891421761E+01 -0.31785309477E+01  0.25166326737E+02  0.00000000000E+00 0. -1.
</event>
<event>
 7    1  0.6726285E-013  0.5052886E+02  0.7816164E-02  0.1300439E+00
        -11   -1    0    0    0    0  0.00000000000E+00  0.00000000000E+00  0.45593999997E+02  0.45594000000E+02  0.51100000000E-03 0.  1.
         11   -1    0    0    0    0 -0.00000000000E+00 -0.00000000000E+00 -0.45593999997E+02  0.45594000000E+02  0.51100000000E-03 0. -1.
    9900012    2    1    2    0    0 -0.40174858425E+02  0.26019627418E+01  0.56899932281E+01  0.50528862251E+02  0.30000007299E+02 0.  0.
         12    1    1    2    0    0  0.40174858425E+02 -0.26019627418E+01 -0.56899932281E+01  0.40659137749E+02  0.00000000000E+00 0. -1.
         11    1    3    3    0    0 -0.88704942403E+01  0.22863587838E+01  0.11815818024E+02  0.14950808018E+02  0.51100000000E-03 0. -1.
        -11    1    3    3    0    0 -0.27335323671E+02 -0.80785413751E+00  0.97656363305E+00  0.27364689388E+02  0.51100000000E-03 0.  1.
        -12    1    3    3    0    0 -0.39690405134E+01  0.11234580955E+01 -0.71023884288E+01  0.82133648454E+01  0.00000000000E+00 0.  1.
</event>
<event>
 7    1  0.6726285E-013  0.5052886E+02  0.7816164E-02  0.1300439E+00
        -11   -1    0    0    0    0  0.00000000000E+00  0.00000000000E+00  0.45593999997E+02  0.45594000000E+02  0.51100000000E-03 0. -1.
         11   -1    0    0    0    0 -0.00000000000E+00 -0.00000000000E+00 -0.45593999997E+02  0.45594000000E+02  0.51100000000E-03 0.  1.
    9900012    2    1    2    0    0 -0.25416180732E+02 -0.18002669840E+02 -0.26135935391E+02  0.50528862243E+02  0.30000007274E+02 0.  0.
         12    1    1    2    0    0  0.25416180732E+02  0.18002669840E+02  0.26135935391E+02  0.40659137757E+02  0.00000000000E+00 0. -1.
         11    1    3    3    0    0  0.41499385293E+01 -0.41288393279E+01 -0.11217472458E+01  0.59605051076E+01  0.51100000000E-03 0. -1.
        -11    1    3    3    0    0 -0.59293599297E+01 -0.34702747036E+01 -0.15661206864E+02  0.17101857104E+02  0.51100000000E-03 0.  1.
         12    1    3    3    0    0 -0.23636759332E+02 -0.10403555808E+02 -0.93529812814E+01  0.27466500032E+02  0.00000000000E+00 0. -1.
</event>
<event>
 7    1  0.6726285E-013  0.5052888E+02  0.7816164E-02  0.1300439E+00
        -11   -1    0    0    0    0  0.00000000000E+00  0.00000000000E+00  0.45593999997E+02  0.45594000000E+02  0.51100000000E-03 0. -1.
         11   -1    0    0    0    0 -0.00000000000E+00 -0.00000000000E+00 -0.45593999997E+02  0.45594000000E+02  0.51100000000E-03 0.  1.
    9900012    2    1    2    0    0 -0.33820731897E+02  0.16331525492E+02 -0.15575733186E+02  0.50528879311E+02  0.30000059153E+02 0.  0.
         12    1    1    2    0    0  0.33820731897E+02 -0.16331525492E+02  0.15575733186E+02  0.40659120689E+02  0.00000000000E+00 0. -1.
         11    1    3    3    0    0 -0.36949217994E+01  0.27502483633E+01 -0.87063555948E+01  0.98497178217E+01  0.51100000000E-03 0. -1.
        -11    1    3    3    0    0 -0.17331622741E+02  0.90670698978E+01 -0.15188358206E+02  0.24764553875E+02  0.51100000000E-03 0.  1.
         12    1    3    3    0    0 -0.12794187357E+02  0.45142072310E+01  0.83189806148E+01  0.15914607614E+02  0.00000000000E+00 0. -1.
</event>
<event>
 7    1  0.6726285E-013  0.5052886E+02  0.7816164E-02  0.1300439E+00
        -11   -1    0    0    0    0  0.00000000000E+00  0.00000000000E+00  0.45593999997E+02  0.45594000000E+02  0.51100000000E-03 0. -1.
         11   -1    0    0    0    0 -0.00000000000E+00 -0.00000000000E+00 -0.45593999997E+02  0.45594000000E+02  0.51100000000E-03 0.  1.
    9900012    2    1    2    0    0  0.15387123163E+02 -0.36386989887E+02  0.96119082477E+01  0.50528863604E+02  0.30000011411E+02 0.  0.
         12    1    1    2    0    0 -0.15387123163E+02  0.36386989887E+02 -0.96119082477E+01  0.40659136396E+02  0.00000000000E+00 0. -1.
         11    1    3    3    0    0 -0.48822882119E+01 -0.69334345735E+01  0.32460386421E+01  0.90799790912E+01  0.51100000000E-03 0. -1.
        -11    1    3    3    0    0  0.12760197867E+01  0.18828581174E+01  0.41578079819E+01  0.47392772299E+01  0.51100000000E-03 0.  1.
        -12    1    3    3    0    0  0.18993391588E+02 -0.31336413431E+02  0.22080616236E+01  0.36709607283E+02  0.00000000000E+00 0.  1.
</event>
<event>
 7    1  0.6726285E-013  0.5052886E+02  0.7816164E-02  0.1300439E+00
        -11   -1    0    0    0    0  0.00000000000E+00  0.00000000000E+00  0.45593999997E+02  0.45594000000E+02  0.51100000000E-03 0. -1.
         11   -1    0    0    0    0 -0.00000000000E+00 -0.00000000000E+00 -0.45593999997E+02  0.45594000000E+02  0.51100000000E-03 0.  1.
    9900012    2    1    2    0    0  0.40429341369E+02  0.41339138472E+01  0.12427794569E+01  0.50528863413E+02  0.30000010831E+02 0.  0.
         12    1    1    2    0    0 -0.40429341369E+02 -0.41339138472E+01 -0.12427794569E+01  0.40659136587E+02  0.00000000000E+00 0. -1.
         11    1    3    3    0    0  0.82644518299E+01  0.44668270954E+01  0.18690969117E+01  0.95784775343E+01  0.51100000000E-03 0.  1.
        -11    1    3    3    0    0  0.24974352721E+02  0.10758235205E+02 -0.35183299561E+01  0.27419638300E+02  0.51100000000E-03 0. -1.
         12    1    3    3    0    0  0.71905368181E+01 -0.11091148453E+02  0.28920125013E+01  0.13530747579E+02  0.00000000000E+00 0. -1.
</event>
<event>
 7    1  0.6726285E-013  0.5052888E+02  0.7816164E-02  0.1300439E+00
        -11   -1    0    0    0    0  0.00000000000E+00  0.00000000000E+00  0.45593999997E+02  0.45594000000E+02  0.51100000000E-03 0. -1.
         11   -1    0    0    0    0 -0.00000000000E+00 -0.00000000000E+00 -0.45593999997E+02  0.45594000000E+02  0.51100000000E-03 0.  1.
    9900012    2    1    2    0    0 -0.39832956346E+02  0.35285553633E+01  0.73518068160E+01  0.50528878297E+02  0.30000056070E+02 0.  0.
         12    1    1    2    0    0  0.39832956346E+02 -0.35285553633E+01 -0.73518068160E+01  0.40659121703E+02  0.00000000000E+00 0. -1.
         11    1    3    3    0    0 -0.18627254033E+01 -0.24641955254E+01  0.17433978186E+01  0.35470328065E+01  0.51100000000E-03 0. -1.
        -11    1    3    3    0    0 -0.15302671055E+02  0.38735973926E+01  0.15533122881E+02  0.22146205202E+02  0.51100000000E-03 0.  1.
        -12    1    3    3    0    0 -0.22667559888E+02  0.21191534960E+01 -0.99247138835E+01  0.24835640288E+02  0.00000000000E+00 0.  1.
</event>
<event>
 7    1  0.6726285E-013  0.5052885E+02  0.7816164E-02  0.1300439E+00
        -11   -1    0    0    0    0  0.00000000000E+00  0.00000000000E+00  0.45593999997E+02  0.45594000000E+02  0.51100000000E-03 0. -1.
         11   -1    0    0    0    0 -0.00000000000E+00 -0.00000000000E+00 -0.45593999997E+02  0.45594000000E+02  0.51100000000E-03 0.  1.
    9900012    2    1    2    0    0 -0.24894774763E+02 -0.26145974566E+02 -0.18703056333E+02  0.50528854502E+02  0.29999983743E+02 0.  0.
         12    1    1    2    0    0  0.24894774763E+02  0.26145974566E+02  0.18703056333E+02  0.40659145498E+02  0.00000000000E+00 0. -1.
         11    1    3    3    0    0 -0.94826111968E+00 -0.71598916203E+01 -0.14604458126E+02  0.16292742083E+02  0.51100000000E-03 0. -1.
        -11    1    3    3    0    0  0.14092628661E+01  0.73867654386E+00 -0.11768465890E+01  0.19790485131E+01  0.51100000000E-03 0.  1.
         12    1    3    3    0    0 -0.25355776509E+02 -0.19724759489E+02 -0.29217516177E+01  0.32257063905E+02  0.00000000000E+00 0. -1.
</event>
<event>
 7    1  0.6726285E-013  0.5052889E+02  0.7816164E-02  0.1300439E+00
        -11   -1    0    0    0    0  0.00000000000E+00  0.00000000000E+00  0.45593999997E+02  0.45594000000E+02  0.51100000000E-03 0.  1.
         11   -1    0    0    0    0 -0.00000000000E+00 -0.00000000000E+00 -0.45593999997E+02  0.45594000000E+02  0.51100000000E-03 0. -1.
    9900012    2    1    2    0    0 -0.19625183538E+02 -0.11125888471E+01  0.35591819089E+02  0.50528889472E+02  0.30000090039E+02 0.  0.
         12    1    1    2    0    0  0.19625183538E+02  0.11125888471E+01 -0.35591819089E+02  0.40659110528E+02  0.00000000000E+00 0. -1.
         11    1    3    3    0    0 -0.10586971491E+01  0.74693576430E+00  0.42552792901E+01  0.44481630801E+01  0.51100000000E-03 0.  1.
        -11    1    3    3    0    0  0.29776143027E+01  0.91073474135E+01  0.80474312233E+01  0.12512837944E+02  0.51100000000E-03 0. -1.
         12    1    3    3    0    0 -0.21544100692E+02 -0.10966872025E+02  0.23289108576E+02  0.33567888448E+02  0.00000000000E+00 0. -1.
</event>
<event>
 7    1  0.6726285E-013  0.5052886E+02  0.7816164E-02  0.1300439E+00
        -11   -1    0    0    0    0  0.00000000000E+00  0.00000000000E+00  0.45593999997E+02  0.45594000000E+02  0.51100000000E-03 0. -1.
         11   -1    0    0    0    0 -0.00000000000E+00 -0.00000000000E+00 -0.45593999997E+02  0.45594000000E+02  0.51100000000E-03 0.  1.
    9900012    2    1    2    0    0 -0.39663905928E+02 -0.29424994319E+01 -0.84428489485E+01  0.50528862839E+02  0.30000009084E+02 0.  0.
         12    1    1    2    0    0  0.39663905928E+02  0.29424994319E+01  0.84428489485E+01  0.40659137161E+02  0.00000000000E+00 0. -1.
         11    1    3    3    0    0 -0.40335951026E+01  0.56340574867E+01  0.18741854083E+01  0.71780961557E+01  0.51100000000E-03 0. -1.
        -11    1    3    3    0    0 -0.49473356503E+01 -0.80398269628E+01 -0.83450651554E+01  0.12599803980E+02  0.51100000000E-03 0.  1.
         12    1    3    3    0    0 -0.30682975175E+02 -0.53672995585E+00 -0.19719692013E+01  0.30750962703E+02  0.00000000000E+00 0. -1.
</event>
<event>
 7    1  0.6726285E-013  0.5052897E+02  0.7816164E-02  0.1300438E+00
        -11   -1    0    0    0    0  0.00000000000E+00  0.00000000000E+00  0.45593999997E+02  0.45594000000E+02  0.51100000000E-03 0.  1.
         11   -1    0    0    0    0 -0.00000000000E+00 -0.00000000000E+00 -0.45593999997E+02  0.45594000000E+02  0.51100000000E-03 0. -1.
    9900012    2    1    2    0    0  0.85170296782E+01 -0.17009165864E+02  0.35934734174E+02  0.50528971014E+02  0.30000337892E+02 0.  0.
         12    1    1    2    0    0 -0.85170296782E+01  0.17009165864E+02 -0.35934734174E+02  0.40659028986E+02  0.00000000000E+00 0. -1.
         11    1    3    3    0    0  0.22825651301E+01 -0.45117304924E+01 -0.31600523452E+01  0.59625285487E+01  0.51100000000E-03 0. -1.
        -11    1    3    3    0    0 -0.40279833097E+00  0.31784524833E+01  0.20664221622E+01  0.38124673766E+01  0.51100000000E-03 0.  1.
         12    1    3    3    0    0  0.66372628791E+01 -0.15675887855E+02  0.37028364357E+02  0.40753975089E+02  0.00000000000E+00 0. -1.
</event>
<event>
 7    1  0.6726285E-013  0.5052886E+02  0.7816164E-02  0.1300439E+00
        -11   -1    0    0    0    0  0.00000000000E+00  0.00000000000E+00  0.45593999997E+02  0.45594000000E+02  0.51100000000E-03 0.  1.
         11   -1    0    0    0    0 -0.00000000000E+00 -0.00000000000E+00 -0.45593999997E+02  0.45594000000E+02  0.51100000000E-03 0. -1.
    9900012    2    1    2    0    0  0.24530867555E+02 -0.29303400926E+02  0.13882106416E+02  0.50528860223E+02  0.30000001134E+02 0.  0.
         12    1    1    2    0    0 -0.24530867555E+02  0.29303400926E+02 -0.13882106416E+02  0.40659139777E+02  0.00000000000E+00 0. -1.
         11    1    3    3    0    0 -0.86072195456E-01  0.30530676498E+01 -0.22816020232E+01  0.38123927592E+01  0.51100000000E-03 0. -1.
        -11    1    3    3    0    0  0.21241808890E+01 -0.15215741377E+02  0.77772985790E+01  0.17219677801E+02  0.51100000000E-03 0.  1.
        -12    1    3    3    0    0  0.22492758861E+02 -0.17140727199E+02  0.83864098601E+01  0.29496789663E+02  0.00000000000E+00 0.  1.
</event>
<event>
 7    1  0.6726285E-013  0.5052884E+02  0.7816164E-02  0.1300439E+00
        -11   -1    0    0    0    0  0.00000000000E+00  0.00000000000E+00  0.45593999997E+02  0.45594000000E+02  0.51100000000E-03 0.  1.
         11   -1    0    0    0    0 -0.00000000000E+00 -0.00000000000E+00 -0.45593999997E+02  0.45594000000E+02  0.51100000000E-03 0. -1.
    9900012    2    1    2    0    0  0.28324228868E+02  0.71610827061E+01  0.28277622078E+02  0.50528844121E+02  0.29999952189E+02 0.  0.
         12    1    1    2    0    0 -0.28324228868E+02 -0.71610827061E+01 -0.28277622078E+02  0.40659155879E+02  0.00000000000E+00 0. -1.
         11    1    3    3    0    0  0.28655292856E+01  0.59419701452E+01 -0.21282673036E+00  0.66002699014E+01  0.51100000000E-03 0. -1.
        -11    1    3    3    0    0  0.27504892412E+02 -0.39706602620E+01  0.24736162794E+02  0.37204341138E+02  0.51100000000E-03 0.  1.
         12    1    3    3    0    0 -0.20461928300E+01  0.51897728230E+01  0.37542860139E+01  0.67242330808E+01  0.00000000000E+00 0. -1.
</event>
<event>
 7    1  0.6726285E-013  0.5052886E+02  0.7816164E-02  0.1300439E+00
        -11   -1    0    0    0    0  0.00000000000E+00  0.00000000000E+00  0.45593999997E+02  0.45594000000E+02  0.51100000000E-03 0.  1.
         11   -1    0    0    0    0 -0.00000000000E+00 -0.00000000000E+00 -0.45593999997E+02  0.45594000000E+02  0.51100000000E-03 0. -1.
    9900012    2    1    2    0    0  0.35405067753E+02 -0.18924187671E+02  0.64437592282E+01  0.50528859151E+02  0.29999997875E+02 0.  0.
         12    1    1    2    0    0 -0.35405067753E+02  0.18924187671E+02 -0.64437592282E+01  0.40659140849E+02  0.00000000000E+00 0. -1.
         11    1    3    3    0    0  0.43077341182E+01  0.63568265955E+01  0.63789121470E+01  0.99828021135E+01  0.51100000000E-03 0. -1.
        -11    1    3    3    0    0  0.50506363450E+01 -0.14846084658E+01 -0.10464025710E+00  0.52653527546E+01  0.51100000000E-03 0.  1.
         12    1    3    3    0    0  0.26046697290E+02 -0.23796405801E+02  0.16948733836E+00  0.35280704283E+02  0.00000000000E+00 0. -1.
</event>
<event>
 7    1  0.6726285E-013  0.5052881E+02  0.7816164E-02  0.1300439E+00
        -11   -1    0    0    0    0  0.00000000000E+00  0.00000000000E+00  0.45593999997E+02  0.45594000000E+02  0.51100000000E-03 0. -1.
         11   -1    0    0    0    0 -0.00000000000E+00 -0.00000000000E+00 -0.45593999997E+02  0.45594000000E+02  0.51100000000E-03 0.  1.
    9900012    2    1    2    0    0  0.27828435182E+02  0.27601662701E+02 -0.10811861257E+02  0.50528807529E+02  0.29999840966E+02 0.  0.
         12    1    1    2    0    0 -0.27828435182E+02 -0.27601662701E+02  0.10811861257E+02  0.40659192471E+02  0.00000000000E+00 0. -1.
         11    1    3    3    0    0  0.12601726123E+02  0.90386817550E+01  0.83008920334E+01  0.17589942523E+02  0.51100000000E-03 0. -1.
        -11    1    3    3    0    0  0.28184409443E+01  0.11174739056E+02 -0.44369348675E+01  0.12349283121E+02  0.51100000000E-03 0.  1.
        -12    1    3    3    0    0  0.12408268115E+02  0.73882418895E+01 -0.14675818423E+02  0.20589581885E+02  0.00000000000E+00 0.  1.
</event>
<event>
 7    1  0.6726285E-013  0.5052886E+02  0.7816164E-02  0.1300439E+00
        -11   -1    0    0    0    0  0.00000000000E+00  0.00000000000E+00  0.45593999997E+02  0.45594000000E+02  0.51100000000E-03 0.  1.
         11   -1    0    0    0    0 -0.00000000000E+00 -0.00000000000E+00 -0.45593999997E+02  0.45594000000E+02  0.51100000000E-03 0. -1.
    9900012    2    1    2    0    0  0.70938685412E-02 -0.22805417842E+02  0.33661230315E+02  0.50528861303E+02  0.30000004415E+02 0.  0.
         12    1    1    2    0    0 -0.70938685412E-02  0.22805417842E+02 -0.33661230315E+02  0.40659138697E+02  0.00000000000E+00 0. -1.
         11    1    3    3    0    0 -0.27258767839E+01 -0.41193677535E+01  0.60037100737E+01  0.77745822935E+01  0.51100000000E-03 0. -1.
        -11    1    3    3    0    0  0.74894416676E+01 -0.17260292532E+02  0.31352460073E+02  0.36564821723E+02  0.51100000000E-03 0.  1.
         12    1    3    3    0    0 -0.47564710151E+01 -0.14257575574E+01 -0.36949398317E+01  0.61894572856E+01  0.00000000000E+00 0. -1.
</event>
<event>
 7    1  0.6726285E-013  0.5052886E+02  0.7816164E-02  0.1300439E+00
        -11   -1    0    0    0    0  0.00000000000E+00  0.00000000000E+00  0.45593999997E+02  0.45594000000E+02  0.51100000000E-03 0.  1.
         11   -1    0    0    0    0 -0.00000000000E+00 -0.00000000000E+00 -0.45593999997E+02  0.45594000000E+02  0.51100000000E-03 0. -1.
    9900012    2    1    2    0    0  0.88105978924E+01  0.20326778241E+02  0.34093418153E+02  0.50528859451E+02  0.29999998786E+02 0.  0.
         12    1    1    2    0    0 -0.88105978924E+01 -0.20326778241E+02 -0.34093418153E+02  0.40659140549E+02  0.00000000000E+00 0. -1.
         11    1    3    3    0    0  0.18845831619E+01 -0.57847952402E+01  0.32375624160E+01  0.68918299692E+01  0.51100000000E-03 0. -1.
        -11    1    3    3    0    0 -0.17133603637E+01 -0.68299944278E+00  0.53110881120E+01  0.56222548119E+01  0.51100000000E-03 0.  1.
        -12    1    3    3    0    0  0.86393750943E+01  0.26794572924E+02  0.25544767624E+02  0.38014774670E+02  0.00000000000E+00 0.  1.
</event>
<event>
 7    1  0.9303929E-013  0.5052886E+02  0.7816164E-02  0.1300439E+00
        -11   -1    0    0    0    0  0.00000000000E+00  0.00000000000E+00  0.45593999997E+02  0.45594000000E+02  0.51100000000E-03 0.  1.
         11   -1    0    0    0    0 -0.00000000000E+00 -0.00000000000E+00 -0.45593999997E+02  0.45594000000E+02  0.51100000000E-03 0. -1.
    9900012    2    1    2    0    0  0.86731230811E+01 -0.37894265689E+02  0.11915005000E+02  0.50528858590E+02  0.29999996170E+02 0.  0.
         12    1    1    2    0    0 -0.86731230811E+01  0.37894265689E+02 -0.11915005000E+02  0.40659141410E+02  0.00000000000E+00 0. -1.
         11    1    3    3    0    0  0.68000511951E+01 -0.91480805482E+01  0.66687247419E+00  0.11418090608E+02  0.51100000000E-03 0. -1.
        -11    1    3    3    0    0  0.10881245354E+02 -0.20862074267E+02  0.13203997178E+02  0.26980978205E+02  0.51100000000E-03 0.  1.
         12    1    3    3    0    0 -0.90081734680E+01 -0.78841108737E+01 -0.19558646524E+01  0.12129789777E+02  0.00000000000E+00 0. -1.
</event>
<event>
 7    1  0.6726285E-013  0.5052887E+02  0.7816164E-02  0.1300439E+00
        -11   -1    0    0    0    0  0.00000000000E+00  0.00000000000E+00  0.45593999997E+02  0.45594000000E+02  0.51100000000E-03 0. -1.
         11   -1    0    0    0    0 -0.00000000000E+00 -0.00000000000E+00 -0.45593999997E+02  0.45594000000E+02  0.51100000000E-03 0.  1.
    9900012    2    1    2    0    0 -0.32687786958E+02  0.11349736146E+02 -0.21350810710E+02  0.50528867634E+02  0.30000023660E+02 0.  0.
         12    1    1    2    0    0  0.32687786958E+02 -0.11349736146E+02  0.21350810710E+02  0.40659132366E+02  0.00000000000E+00 0. -1.
         11    1    3    3    0    0 -0.14795133854E+02  0.12742863896E+02 -0.13223819923E+02  0.23582747500E+02  0.51100000000E-03 0. -1.
        -11    1    3    3    0    0 -0.85715811373E+01  0.85040106387E+01 -0.32722703824E+01  0.12509914222E+02  0.51100000000E-03 0.  1.
         12    1    3    3    0    0 -0.93210719673E+01 -0.98971383892E+01 -0.48547204043E+01  0.14436205911E+02  0.00000000000E+00 0. -1.
</event>
<event>
 7    1  0.6726285E-013  0.5052886E+02  0.7816164E-02  0.1300439E+00
        -11   -1    0    0    0    0  0.00000000000E+00  0.00000000000E+00  0.45593999997E+02  0.45594000000E+02  0.51100000000E-03 0.  1.
         11   -1    0    0    0    0 -0.00000000000E+00 -0.00000000000E+00 -0.45593999997E+02  0.45594000000E+02  0.51100000000E-03 0. -1.
    9900012    2    1    2    0    0 -0.50246305988E+01 -0.36037398942E+02  0.18144557533E+02  0.50528855848E+02  0.29999987834E+02 0.  0.
         12    1    1    2    0    0  0.50246305988E+01  0.36037398942E+02 -0.18144557533E+02  0.40659144152E+02  0.00000000000E+00 0. -1.
         11    1    3    3    0    0 -0.38414063452E+01 -0.91400505318E+01  0.60255510727E+01  0.11601904689E+02  0.51100000000E-03 0. -1.
        -11    1    3    3    0    0 -0.10581780997E+02 -0.26092153479E+01  0.26544974364E+01  0.11217328144E+02  0.51100000000E-03 0.  1.
         12    1    3    3    0    0  0.93985567433E+01 -0.24288133062E+02  0.94645090236E+01  0.27709623014E+02  0.00000000000E+00 0. -1.
</event>
<event>
 7    1  0.6726285E-013  0.5052885E+02  0.7816164E-02  0.1300439E+00
        -11   -1    0    0    0    0  0.00000000000E+00  0.00000000000E+00  0.45593999997E+02  0.45594000000E+02  0.51100000000E-03 0. -1.
         11   -1    0    0    0    0 -0.00000000000E+00 -0.00000000000E+00 -0.45593999997E+02  0.45594000000E+02  0.51100000000E-03 0.  1.
    9900012    2    1    2    0    0  0.31366746697E+02 -0.16681849871E+02 -0.19773961178E+02  0.50528850303E+02  0.29999970980E+02 0.  0.
         12    1    1    2    0    0 -0.31366746697E+02  0.16681849871E+02  0.19773961178E+02  0.40659149697E+02  0.00000000000E+00 0. -1.
         11    1    3    3    0    0  0.24146800575E+01 -0.46430669739E+01 -0.32632886937E+01  0.61674795553E+01  0.51100000000E-03 0. -1.
        -11    1    3    3    0    0  0.17207933037E+02 -0.12750843125E+02 -0.22580744968E+02  0.31122130445E+02  0.51100000000E-03 0.  1.
        -12    1    3    3    0    0  0.11744133602E+02  0.71206022889E+00  0.60700724845E+01  0.13239240303E+02  0.00000000000E+00 0.  1.
</event>
<event>
 7    1  0.6726285E-013  0.5052886E+02  0.7816164E-02  0.1300439E+00
        -11   -1    0    0    0    0  0.00000000000E+00  0.00000000000E+00  0.45593999997E+02  0.45594000000E+02  0.51100000000E-03 0. -1.
         11   -1    0    0    0    0 -0.00000000000E+00 -0.00000000000E+00 -0.45593999997E+02  0.45594000000E+02  0.51100000000E-03 0.  1.
    9900012    2    1    2    0    0  0.10129325959E+02 -0.33272086277E+02  0.21060160262E+02  0.50528864251E+02  0.30000013376E+02 0.  0.
         12    1    1    2    0    0 -0.10129325959E+02  0.33272086277E+02 -0.21060160262E+02  0.40659135749E+02  0.00000000000E+00 0. -1.
         11    1    3    3    0    0 -0.11423299147E+00  0.16219007887E+01  0.15894264571E+01  0.22737387863E+01  0.51100000000E-03 0. -1.
        -11    1    3    3    0    0  0.35956203534E+00 -0.10564217128E+02  0.19287013058E+02  0.21993654570E+02  0.51100000000E-03 0.  1.
        -12    1    3    3    0    0  0.98839969153E+01 -0.24329769937E+02  0.18372074752E+00  0.26261470894E+02  0.00000000000E+00 0.  1.
</event>
<event>
 7    1  0.6726285E-013  0.5052887E+02  0.7816164E-02  0.1300439E+00
        -11   -1    0    0    0    0  0.00000000000E+00  0.00000000000E+00  0.45593999997E+02  0.45594000000E+02  0.51100000000E-03 0.  1.
         11   -1    0    0    0    0 -0.00000000000E+00 -0.00000000000E+00 -0.45593999997E+02  0.45594000000E+02  0.51100000000E-03 0. -1.
    9900012    2    1    2    0    0 -0.18083824518E+02  0.28796061424E+02  0.22291867231E+02  0.50528865635E+02  0.30000017583E+02 0.  0.
         12    1    1    2    0    0  0.18083824518E+02 -0.28796061424E+02 -0.22291867231E+02  0.40659134365E+02  0.00000000000E+00 0. -1.
         11    1    3    3    0    0  0.50541319281E+01  0.68750730830E+01 -0.57684967745E+00  0.85524052321E+01  0.51100000000E-03 0. -1.
        -11    1    3    3    0    0 -0.12833274103E+02  0.15208717131E+02  0.54114368994E+01  0.20622358026E+02  0.51100000000E-03 0.  1.
        -12    1    3    3    0    0 -0.10304682342E+02  0.67122712094E+01  0.17457280009E+02  0.21354102376E+02  0.00000000000E+00 0.  1.
</event>
<event>
 7    1  0.6726285E-013  0.5052885E+02  0.7816164E-02  0.1300439E+00
        -11   -1    0    0    0    0  0.00000000000E+00  0.00000000000E+00  0.45593999997E+02  0.45594000000E+02  0.51100000000E-03 0.  1.
         11   -1    0    0    0    0 -0.00000000000E+00 -0.00000000000E+00 -0.45593999997E+02  0.45594000000E+02  0.51100000000E-03 0. -1.
    9900012    2    1    2    0    0  0.12237322288E+01 -0.13271489147E+02  0.38412711290E+02  0.50528851787E+02  0.29999975492E+02 0.  0.
         12    1    1    2    0    0 -0.12237322288E+01  0.13271489147E+02 -0.38412711290E+02  0.40659148213E+02  0.00000000000E+00 0. -1.
         11    1    3    3    0    0  0.64500408506E+00 -0.76763424467E+01  0.25075252612E+02  0.26231861494E+02  0.51100000000E-03 0. -1.
        -11    1    3    3    0    0  0.67306148337E+01 -0.32678915113E+01  0.15632458090E+02  0.17330725235E+02  0.51100000000E-03 0.  1.
         12    1    3    3    0    0 -0.61518866900E+01 -0.23272551887E+01 -0.22949994118E+01  0.69662650581E+01  0.00000000000E+00 0. -1.
</event>
<event>
 7    1  0.6726285E-013  0.5052886E+02  0.7816164E-02  0.1300439E+00
        -11   -1    0    0    0    0  0.00000000000E+00  0.00000000000E+00  0.45593999997E+02  0.45594000000E+02  0.51100000000E-03 0.  1.
         11   -1    0    0    0    0 -0.00000000000E+00 -0.00000000000E+00 -0.45593999997E+02  0.45594000000E+02  0.51100000000E-03 0. -1.
    9900012    2    1    2    0    0  0.21345170933E+02 -0.31724660853E+02 -0.13823721313E+02  0.50528859584E+02  0.29999999192E+02 0.  0.
         12    1    1    2    0    0 -0.21345170933E+02  0.31724660853E+02  0.13823721313E+02  0.40659140416E+02  0.00000000000E+00 0. -1.
         11    1    3    3    0    0  0.54854376591E+01 -0.91831847267E+01 -0.67747366075E+01  0.12661673049E+02  0.51100000000E-03 0. -1.
        -11    1    3    3    0    0  0.15418418731E+01 -0.21926665434E+02 -0.82679467814E+01  0.23484353890E+02  0.51100000000E-03 0.  1.
        -12    1    3    3    0    0  0.14317891401E+02 -0.61481069274E+00  0.12189620758E+01  0.14382832645E+02  0.00000000000E+00 0.  1.
</event>
<event>
 7    1  0.6726285E-013  0.5052886E+02  0.7816164E-02  0.1300439E+00
        -11   -1    0    0    0    0  0.00000000000E+00  0.00000000000E+00  0.45593999997E+02  0.45594000000E+02  0.51100000000E-03 0.  1.
         11   -1    0    0    0    0 -0.00000000000E+00 -0.00000000000E+00 -0.45593999997E+02  0.45594000000E+02  0.51100000000E-03 0. -1.
    9900012    2    1    2    0    0 -0.32197710163E+02  0.45561827980E+01  0.24407258360E+02  0.50528860780E+02  0.30000002827E+02 0.  0.
         12    1    1    2    0    0  0.32197710163E+02 -0.45561827980E+01 -0.24407258360E+02  0.40659139220E+02  0.00000000000E+00 0. -1.
         11    1    3    3    0    0 -0.83676419913E+01 -0.91961095498E+01  0.14840935198E+02  0.19360764994E+02  0.51100000000E-03 0. -1.
        -11    1    3    3    0    0 -0.20197039541E+01 -0.16631861358E+01 -0.42803257558E+00  0.26511515104E+01  0.51100000000E-03 0.  1.
        -12    1    3    3    0    0 -0.21810364218E+02  0.15415478484E+02  0.99943557377E+01  0.28516944275E+02  0.00000000000E+00 0.  1.
</event>
<event>
 7    1  0.6726285E-013  0.5052890E+02  0.7816164E-02  0.1300439E+00
        -11   -1    0    0    0    0  0.00000000000E+00  0.00000000000E+00  0.45593999997E+02  0.45594000000E+02  0.51100000000E-03 0.  1.
         11   -1    0    0    0    0 -0.00000000000E+00 -0.00000000000E+00 -0.45593999997E+02  0.45594000000E+02  0.51100000000E-03 0. -1.
    9900012    2    1    2    0    0  0.28859688868E+02 -0.77577049779E+01  0.27569883051E+02  0.50528904098E+02  0.30000134497E+02 0.  0.
         12    1    1    2    0    0 -0.28859688868E+02  0.77577049779E+01 -0.27569883051E+02  0.40659095902E+02  0.00000000000E+00 0. -1.
         11    1    3    3    0    0 -0.44224393017E+01 -0.20981042830E+00 -0.10547365563E+01  0.45513140144E+01  0.51100000000E-03 0. -1.
        -11    1    3    3    0    0  0.37394292728E+01 -0.45209430183E+01  0.23318517494E+01  0.63134610083E+01  0.51100000000E-03 0.  1.
        -12    1    3    3    0    0  0.29542698897E+02 -0.30269515313E+01  0.26292767858E+02  0.39664129076E+02  0.00000000000E+00 0.  1.
</event>
<event>
 7    1  0.6726285E-013  0.5052884E+02  0.7816164E-02  0.1300439E+00
        -11   -1    0    0    0    0  0.00000000000E+00  0.00000000000E+00  0.45593999997E+02  0.45594000000E+02  0.51100000000E-03 0.  1.
         11   -1    0    0    0    0 -0.00000000000E+00 -0.00000000000E+00 -0.45593999997E+02  0.45594000000E+02  0.51100000000E-03 0. -1.
    9900012    2    1    2    0    0 -0.58441212758E+01 -0.20872455890E+02  0.34399909997E+02  0.50528843883E+02  0.29999951467E+02 0.  0.
         12    1    1    2    0    0  0.58441212758E+01  0.20872455890E+02 -0.34399909997E+02  0.40659156117E+02  0.00000000000E+00 0. -1.
         11    1    3    3    0    0  0.38314534631E+01 -0.11881140524E+02  0.78123330421E+01  0.14726645362E+02  0.51100000000E-03 0. -1.
        -11    1    3    3    0    0 -0.22571187861E+01  0.64000536757E+01  0.60989807871E+01  0.91242993797E+01  0.51100000000E-03 0.  1.
         12    1    3    3    0    0 -0.74184559527E+01 -0.15391369041E+02  0.20488596168E+02  0.26677899142E+02  0.00000000000E+00 0. -1.
</event>
<event>
 7    1  0.6726285E-013  0.5052886E+02  0.7816164E-02  0.1300439E+00
        -11   -1    0    0    0    0  0.00000000000E+00  0.00000000000E+00  0.45593999997E+02  0.45594000000E+02  0.51100000000E-03 0.  1.
         11   -1    0    0    0    0 -0.00000000000E+00 -0.00000000000E+00 -0.45593999997E+02  0.45594000000E+02  0.51100000000E-03 0. -1.
    9900012    2    1    2    0    0  0.74817617383E+01  0.34565600649E+02  0.20060112769E+02  0.50528860422E+02  0.30000001738E+02 0.  0.
         12    1    1    2    0    0 -0.74817617383E+01 -0.34565600649E+02 -0.20060112769E+02  0.40659139578E+02  0.00000000000E+00 0. -1.
         11    1    3    3    0    0  0.27864936675E+01  0.21463125259E+02  0.20848418273E+02  0.30051403255E+02  0.51100000000E-03 0.  1.
        -11    1    3    3    0    0 -0.12578876877E+01  0.10763467502E+01  0.54379801220E+01  0.56844025042E+01  0.51100000000E-03 0. -1.
         12    1    3    3    0    0  0.59531557584E+01  0.12026128640E+02 -0.62262856264E+01  0.14793054662E+02  0.00000000000E+00 0. -1.
</event>
<event>
 7    1  0.6726285E-013  0.5052885E+02  0.7816164E-02  0.1300439E+00
        -11   -1    0    0    0    0  0.00000000000E+00  0.00000000000E+00  0.45593999997E+02  0.45594000000E+02  0.51100000000E-03 0.  1.
         11   -1    0    0    0    0 -0.00000000000E+00 -0.00000000000E+00 -0.45593999997E+02  0.45594000000E+02  0.51100000000E-03 0. -1.
    9900012    2    1    2    0    0  0.90606245123E+01  0.36250087213E+02  0.16031292745E+02  0.50528854822E+02  0.29999984718E+02 0.  0.
         12    1    1    2    0    0 -0.90606245123E+01 -0.36250087213E+02 -0.16031292745E+02  0.40659145178E+02  0.00000000000E+00 0. -1.
         11    1    3    3    0    0  0.92311613113E+00  0.21596739433E+02  0.16924896452E+02  0.27454023707E+02  0.51100000000E-03 0. -1.
        -11    1    3    3    0    0  0.67838581968E+01  0.62561686831E+01  0.69125253583E+01  0.11530107793E+02  0.51100000000E-03 0.  1.
        -12    1    3    3    0    0  0.13536501844E+01  0.83971790967E+01 -0.78061290653E+01  0.11544723322E+02  0.00000000000E+00 0.  1.
</event>
<event>
 7    1  0.6726285E-013  0.5052890E+02  0.7816164E-02  0.1300439E+00
        -11   -1    0    0    0    0  0.00000000000E+00  0.00000000000E+00  0.45593999997E+02  0.45594000000E+02  0.51100000000E-03 0.  1.
         11   -1    0    0    0    0 -0.00000000000E+00 -0.00000000000E+00 -0.45593999997E+02  0.45594000000E+02  0.51100000000E-03 0. -1.
    9900012    2    1    2    0    0  0.79875731827E+01  0.23090944680E+02  0.32498759890E+02  0.50528899592E+02  0.30000120801E+02 0.  0.
         12    1    1    2    0    0 -0.79875731827E+01 -0.23090944680E+02 -0.32498759890E+02  0.40659100408E+02  0.00000000000E+00 0. -1.
         11    1    3    3    0    0  0.37447411850E+01 -0.49816560271E+00  0.18506107827E+01  0.42066632906E+01  0.51100000000E-03 0. -1.
        -11    1    3    3    0    0 -0.58470611511E+01 -0.86018796441E+00  0.13668935083E+02  0.14891871407E+02  0.51100000000E-03 0.  1.
         12    1    3    3    0    0  0.10089893149E+02  0.24449298247E+02  0.16979214025E+02  0.31430364895E+02  0.00000000000E+00 0. -1.
</event>
<event>
 7    1  0.9937288E-013  0.5052886E+02  0.7816164E-02  0.1300439E+00
        -11   -1    0    0    0    0  0.00000000000E+00  0.00000000000E+00  0.45593999997E+02  0.45594000000E+02  0.51100000000E-03 0. -1.
         11   -1    0    0    0    0 -0.00000000000E+00 -0.00000000000E+00 -0.45593999997E+02  0.45594000000E+02  0.51100000000E-03 0.  1.
    9900012    2    1    2    0    0  0.27083849898E+02 -0.78114816581E+01 -0.29302072471E+02  0.50528860535E+02  0.30000002081E+02 0.  0.
         12    1    1    2    0    0 -0.27083849898E+02  0.78114816581E+01  0.29302072471E+02  0.40659139465E+02  0.00000000000E+00 0. -1.
         11    1    3    3    0    0 -0.65412466490E+00 -0.31613583073E+01 -0.51333552851E+01  0.60641076977E+01  0.51100000000E-03 0. -1.
        -11    1    3    3    0    0  0.97789812599E+01 -0.79965696782E+00 -0.24183002420E+02  0.26097615447E+02  0.51100000000E-03 0.  1.
         12    1    3    3    0    0  0.17958993303E+02 -0.38504663830E+01  0.14285234134E-01  0.18367137390E+02  0.00000000000E+00 0. -1.
</event>
<event>
 7    1  0.6726285E-013  0.5052888E+02  0.7816164E-02  0.1300439E+00
        -11   -1    0    0    0    0  0.00000000000E+00  0.00000000000E+00  0.45593999997E+02  0.45594000000E+02  0.51100000000E-03 0.  1.
         11   -1    0    0    0    0 -0.00000000000E+00 -0.00000000000E+00 -0.45593999997E+02  0.45594000000E+02  0.51100000000E-03 0. -1.
    9900012    2    1    2    0    0  0.17380016630E+02 -0.99593862570E+01  0.35382331112E+02  0.50528884077E+02  0.30000073641E+02 0.  0.
         12    1    1    2    0    0 -0.17380016630E+02  0.99593862570E+01 -0.35382331112E+02  0.40659115923E+02  0.00000000000E+00 0. -1.
         11    1    3    3    0    0 -0.16384504498E+01  0.27917628927E+01 -0.16815457483E+01  0.36477467415E+01  0.51100000000E-03 0. -1.
        -11    1    3    3    0    0 -0.86009800604E+00 -0.55729600960E+01  0.20831783718E+01  0.60114295472E+01  0.51100000000E-03 0.  1.
        -12    1    3    3    0    0  0.19878565086E+02 -0.71781890538E+01  0.34980698489E+02  0.40869707789E+02  0.00000000000E+00 0.  1.
</event>
<event>
 7    1  0.6726285E-013  0.5052885E+02  0.7816164E-02  0.1300439E+00
        -11   -1    0    0    0    0  0.00000000000E+00  0.00000000000E+00  0.45593999997E+02  0.45594000000E+02  0.51100000000E-03 0.  1.
         11   -1    0    0    0    0 -0.00000000000E+00 -0.00000000000E+00 -0.45593999997E+02  0.45594000000E+02  0.51100000000E-03 0. -1.
    9900012    2    1    2    0    0  0.27694062653E+02 -0.18043655257E+02  0.23677672081E+02  0.50528846584E+02  0.29999959678E+02 0.  0.
         12    1    1    2    0    0 -0.27694062653E+02  0.18043655257E+02 -0.23677672081E+02  0.40659153416E+02  0.00000000000E+00 0. -1.
         11    1    3    3    0    0  0.88185090112E+00 -0.44832605045E+01 -0.26337658073E+01  0.52738987810E+01  0.51100000000E-03 0. -1.
        -11    1    3    3    0    0  0.12610007785E+02 -0.12247864281E+01 -0.29180381973E+00  0.12672708782E+02  0.51100000000E-03 0.  1.
        -12    1    3    3    0    0  0.14202203967E+02 -0.12335608325E+02  0.26603241708E+02  0.32582239021E+02  0.00000000000E+00 0.  1.
</event>
<event>
 7    1  0.6726285E-013  0.5052885E+02  0.7816164E-02  0.1300439E+00
        -11   -1    0    0    0    0  0.00000000000E+00  0.00000000000E+00  0.45593999997E+02  0.45594000000E+02  0.51100000000E-03 0. -1.
         11   -1    0    0    0    0 -0.00000000000E+00 -0.00000000000E+00 -0.45593999997E+02  0.45594000000E+02  0.51100000000E-03 0.  1.
    9900012    2    1    2    0    0  0.19240335826E+02 -0.30888074306E+02 -0.18135676901E+02  0.50528850553E+02  0.29999971742E+02 0.  0.
         12    1    1    2    0    0 -0.19240335826E+02  0.30888074306E+02  0.18135676901E+02  0.40659149447E+02  0.00000000000E+00 0. -1.
         11    1    3    3    0    0  0.13857514788E+02 -0.11063601430E+02 -0.83527597832E+01  0.19601086423E+02  0.51100000000E-03 0. -1.
        -11    1    3    3    0    0  0.11710453741E+02 -0.10925167377E+02 -0.11709555988E+02  0.19839549156E+02  0.51100000000E-03 0.  1.
         12    1    3    3    0    0 -0.63276327020E+01 -0.88993054992E+01  0.19266388701E+01  0.11088214974E+02  0.00000000000E+00 0. -1.
</event>
<event>
 7    1  0.8692945E-013  0.5052885E+02  0.7816164E-02  0.1300439E+00
        -11   -1    0    0    0    0  0.00000000000E+00  0.00000000000E+00  0.45593999997E+02  0.45594000000E+02  0.51100000000E-03 0. -1.
         11   -1    0    0    0    0 -0.00000000000E+00 -0.00000000000E+00 -0.45593999997E+02  0.45594000000E+02  0.51100000000E-03 0.  1.
    9900012    2    1    2    0    0 -0.65359353400E+00 -0.38881362045E+02 -0.11873459271E+02  0.50528849320E+02  0.29999967992E+02 0.  0.
         12    1    1    2    0    0  0.65359353400E+00  0.38881362045E+02  0.11873459271E+02  0.40659150680E+02  0.00000000000E+00 0. -1.
         11    1    3    3    0    0 -0.72410560779E+01 -0.14146959121E+02 -0.14369198657E+02  0.21425293832E+02  0.51100000000E-03 0. -1.
        -11    1    3    3    0    0 -0.26722445402E+01 -0.85268540686E+01 -0.33504795656E+01  0.95432617469E+01  0.51100000000E-03 0.  1.
         12    1    3    3    0    0  0.92597070841E+01 -0.16207548855E+02  0.58462189516E+01  0.19560293740E+02  0.00000000000E+00 0. -1.
</event>
<event>
 7    1  0.6726285E-013  0.5052886E+02  0.7816164E-02  0.1300439E+00
        -11   -1    0    0    0    0  0.00000000000E+00  0.00000000000E+00  0.45593999997E+02  0.45594000000E+02  0.51100000000E-03 0.  1.
         11   -1    0    0    0    0 -0.00000000000E+00 -0.00000000000E+00 -0.45593999997E+02  0.45594000000E+02  0.51100000000E-03 0. -1.
    9900012    2    1    2    0    0 -0.13991481579E+02  0.33535493076E+02  0.18242124868E+02  0.50528856228E+02  0.29999988990E+02 0.  0.
         12    1    1    2    0    0  0.13991481579E+02 -0.33535493076E+02 -0.18242124868E+02  0.40659143772E+02  0.00000000000E+00 0. -1.
         11    1    3    3    0    0 -0.94877810477E+01  0.93306232127E+01  0.12452840227E+01  0.13365225449E+02  0.51100000000E-03 0. -1.
        -11    1    3    3    0    0 -0.36243913568E+01  0.72205957999E+01 -0.48916084537E+01  0.94446307465E+01  0.51100000000E-03 0.  1.
        -12    1    3    3    0    0 -0.87930917447E+00  0.16984274063E+02  0.21888449299E+02  0.27719000032E+02  0.00000000000E+00 0.  1.
</event>
<event>
 7    1  0.6726285E-013  0.5052886E+02  0.7816164E-02  0.1300439E+00
        -11   -1    0    0    0    0  0.00000000000E+00  0.00000000000E+00  0.45593999997E+02  0.45594000000E+02  0.51100000000E-03 0.  1.
         11   -1    0    0    0    0 -0.00000000000E+00 -0.00000000000E+00 -0.45593999997E+02  0.45594000000E+02  0.51100000000E-03 0. -1.
    9900012    2    1    2    0    0  0.15237577890E+02 -0.31886041265E+02  0.20106269422E+02  0.50528862311E+02  0.30000007481E+02 0.  0.
         12    1    1    2    0    0 -0.15237577890E+02  0.31886041265E+02 -0.20106269422E+02  0.40659137689E+02  0.00000000000E+00 0. -1.
         11    1    3    3    0    0  0.11855150392E+02 -0.27948195003E+02  0.82915721197E+01  0.31470563440E+02  0.51100000000E-03 0. -1.
        -11    1    3    3    0    0  0.41247993800E+00 -0.80446357170E+01  0.24660631138E+01  0.84242371204E+01  0.51100000000E-03 0.  1.
         12    1    3    3    0    0  0.29699475598E+01  0.41067894544E+01  0.93486341888E+01  0.10634061751E+02  0.00000000000E+00 0. -1.
</event>
<event>
 7    1  0.6726285E-013  0.5052886E+02  0.7816164E-02  0.1300439E+00
        -11   -1    0    0    0    0  0.00000000000E+00  0.00000000000E+00  0.45593999997E+02  0.45594000000E+02  0.51100000000E-03 0.  1.
         11   -1    0    0    0    0 -0.00000000000E+00 -0.00000000000E+00 -0.45593999997E+02  0.45594000000E+02  0.51100000000E-03 0. -1.
    9900012    2    1    2    0    0  0.32777249622E+02 -0.12078312655E+02  0.20807020662E+02  0.50528857876E+02  0.29999994001E+02 0.  0.
         12    1    1    2    0    0 -0.32777249622E+02  0.12078312655E+02 -0.20807020662E+02  0.40659142124E+02  0.00000000000E+00 0. -1.
         11    1    3    3    0    0  0.30175882788E+01  0.12600868393E+01  0.38349778157E+00  0.32925261840E+01  0.51100000000E-03 0. -1.
        -11    1    3    3    0    0  0.15855415582E+02 -0.23338168842E+01 -0.45023284590E+01  0.16646677336E+02  0.51100000000E-03 0.  1.
         12    1    3    3    0    0  0.13904245762E+02 -0.11004582610E+02  0.24925851340E+02  0.30589654356E+02  0.00000000000E+00 0. -1.
</event>
<event>
 7    1  0.6726285E-013  0.5052886E+02  0.7816164E-02  0.1300439E+00
        -11   -1    0    0    0    0  0.00000000000E+00  0.00000000000E+00  0.45593999997E+02  0.45594000000E+02  0.51100000000E-03 0.  1.
         11   -1    0    0    0    0 -0.00000000000E+00 -0.00000000000E+00 -0.45593999997E+02  0.45594000000E+02  0.51100000000E-03 0. -1.
    9900012    2    1    2    0    0  0.56592034506E+00  0.11497571827E+02  0.38995532248E+02  0.50528856390E+02  0.29999989484E+02 0.  0.
         12    1    1    2    0    0 -0.56592034506E+00 -0.11497571827E+02 -0.38995532248E+02  0.40659143610E+02  0.00000000000E+00 0. -1.
         11    1    3    3    0    0  0.73522732110E+01  0.41134025375E+01  0.39843727734E+01  0.93194006493E+01  0.51100000000E-03 0. -1.
        -11    1    3    3    0    0  0.35288270610E+01  0.90641421738E+01  0.24619598060E+02  0.26471416711E+02  0.51100000000E-03 0.  1.
         12    1    3    3    0    0 -0.10315179927E+02 -0.16799728840E+01  0.10391561415E+02  0.14738039030E+02  0.00000000000E+00 0. -1.
</event>
<event>
 7    1  0.6726285E-013  0.5052886E+02  0.7816164E-02  0.1300439E+00
        -11   -1    0    0    0    0  0.00000000000E+00  0.00000000000E+00  0.45593999997E+02  0.45594000000E+02  0.51100000000E-03 0. -1.
         11   -1    0    0    0    0 -0.00000000000E+00 -0.00000000000E+00 -0.45593999997E+02  0.45594000000E+02  0.51100000000E-03 0.  1.
    9900012    2    1    2    0    0  0.14231748403E+02 -0.29822540573E+02 -0.23690487626E+02  0.50528858435E+02  0.29999995699E+02 0.  0.
         12    1    1    2    0    0 -0.14231748403E+02  0.29822540573E+02  0.23690487626E+02  0.40659141565E+02  0.00000000000E+00 0. -1.
         11    1    3    3    0    0  0.40630152125E+01 -0.10792551749E+01 -0.93952222214E+01  0.10292865743E+02  0.51100000000E-03 0. -1.
        -11    1    3    3    0    0  0.24423042145E+00 -0.41634332455E+01 -0.13048566093E+02  0.13698864998E+02  0.51100000000E-03 0.  1.
         12    1    3    3    0    0  0.99245027694E+01 -0.24579852153E+02 -0.12466993112E+01  0.26537127694E+02  0.00000000000E+00 0. -1.
</event>
<event>
 7    1  0.6726285E-013  0.5052886E+02  0.7816164E-02  0.1300439E+00
        -11   -1    0    0    0    0  0.00000000000E+00  0.00000000000E+00  0.45593999997E+02  0.45594000000E+02  0.51100000000E-03 0.  1.
         11   -1    0    0    0    0 -0.00000000000E+00 -0.00000000000E+00 -0.45593999997E+02  0.45594000000E+02  0.51100000000E-03 0. -1.
    9900012    2    1    2    0    0  0.29037066997E+02  0.34024159937E+01  0.28256649890E+02  0.50528856411E+02  0.29999989548E+02 0.  0.
         12    1    1    2    0    0 -0.29037066997E+02 -0.34024159937E+01 -0.28256649890E+02  0.40659143589E+02  0.00000000000E+00 0. -1.
         11    1    3    3    0    0  0.17664161069E+01  0.10504997898E+02  0.83611296731E+01  0.13541923658E+02  0.51100000000E-03 0. -1.
        -11    1    3    3    0    0  0.76513979446E+01  0.38355909408E+01  0.72031363633E+01  0.11186635871E+02  0.51100000000E-03 0.  1.
         12    1    3    3    0    0  0.19619252946E+02 -0.10938172845E+02  0.12692383853E+02  0.25800296882E+02  0.00000000000E+00 0. -1.
</event>
<event>
 7    1  0.6726285E-013  0.5052887E+02  0.7816164E-02  0.1300439E+00
        -11   -1    0    0    0    0  0.00000000000E+00  0.00000000000E+00  0.45593999997E+02  0.45594000000E+02  0.51100000000E-03 0. -1.
         11   -1    0    0    0    0 -0.00000000000E+00 -0.00000000000E+00 -0.45593999997E+02  0.45594000000E+02  0.51100000000E-03 0.  1.
    9900012    2    1    2    0    0  0.18296508023E+02 -0.10726462750E+02 -0.34689278432E+02  0.50528865146E+02  0.30000016097E+02 0.  0.
         12    1    1    2    0    0 -0.18296508023E+02  0.10726462750E+02  0.34689278432E+02  0.40659134854E+02  0.00000000000E+00 0. -1.
         11    1    3    3    0    0  0.27777930673E+01 -0.76962030168E+01 -0.63070036798E+01  0.10330826244E+02  0.51100000000E-03 0. -1.
        -11    1    3    3    0    0  0.10900357175E+02  0.90140260487E+01 -0.85132436529E+01  0.16508960291E+02  0.51100000000E-03 0.  1.
         12    1    3    3    0    0  0.46183577806E+01 -0.12044285782E+02 -0.19869031100E+02  0.23689078611E+02  0.00000000000E+00 0. -1.
</event>
<event>
 7    1  0.6726285E-013  0.5052886E+02  0.7816164E-02  0.1300439E+00
        -11   -1    0    0    0    0  0.00000000000E+00  0.00000000000E+00  0.45593999997E+02  0.45594000000E+02  0.51100000000E-03 0.  1.
         11   -1    0    0    0    0 -0.00000000000E+00 -0.00000000000E+00 -0.45593999997E+02  0.45594000000E+02  0.51100000000E-03 0. -1.
    9900012    2    1    2    0    0  0.36114769575E+02 -0.14592551262E+02  0.11659616096E+02  0.50528858576E+02  0.29999996129E+02 0.  0.
         12    1    1    2    0    0 -0.36114769575E+02  0.14592551262E+02 -0.11659616096E+02  0.40659141424E+02  0.00000000000E+00 0. -1.
         11    1    3    3    0    0  0.61561979050E+00 -0.43163907825E+01 -0.22876821411E+01  0.49237898974E+01  0.51100000000E-03 0. -1.
        -11    1    3    3    0    0  0.26752297854E+01  0.58079566260E+01 -0.23136781189E+00  0.63986518814E+01  0.51100000000E-03 0.  1.
        -12    1    3    3    0    0  0.32823919999E+02 -0.16084117105E+02  0.14178666049E+02  0.39206416798E+02  0.00000000000E+00 0.  1.
</event>
<event>
 7    1  0.6726285E-013  0.5052886E+02  0.7816164E-02  0.1300439E+00
        -11   -1    0    0    0    0  0.00000000000E+00  0.00000000000E+00  0.45593999997E+02  0.45594000000E+02  0.51100000000E-03 0.  1.
         11   -1    0    0    0    0 -0.00000000000E+00 -0.00000000000E+00 -0.45593999997E+02  0.45594000000E+02  0.51100000000E-03 0. -1.
    9900012    2    1    2    0    0 -0.29922634062E+02 -0.24206285337E+02  0.13109449650E+02  0.50528856512E+02  0.29999989853E+02 0.  0.
         12    1    1    2    0    0  0.29922634062E+02  0.24206285337E+02 -0.13109449650E+02  0.40659143488E+02  0.00000000000E+00 0. -1.
         11    1    3    3    0    0 -0.20442739511E+02 -0.10155162549E+02  0.92063596720E+01  0.24612801217E+02  0.51100000000E-03 0. -1.
        -11    1    3    3    0    0 -0.80220466455E+01 -0.63277608873E+01 -0.70653430991E+01  0.12422272884E+02  0.51100000000E-03 0.  1.
         12    1    3    3    0    0 -0.14578479063E+01 -0.77233619009E+01  0.10968433077E+02  0.13493782411E+02  0.00000000000E+00 0. -1.
</event>
<event>
 7    1  0.6726285E-013  0.5052887E+02  0.7816164E-02  0.1300439E+00
        -11   -1    0    0    0    0  0.00000000000E+00  0.00000000000E+00  0.45593999997E+02  0.45594000000E+02  0.51100000000E-03 0.  1.
         11   -1    0    0    0    0 -0.00000000000E+00 -0.00000000000E+00 -0.45593999997E+02  0.45594000000E+02  0.51100000000E-03 0. -1.
    9900012    2    1    2    0    0 -0.98729799992E+01 -0.11524510413E+02  0.37721013784E+02  0.50528868735E+02  0.30000027008E+02 0.  0.
         12    1    1    2    0    0  0.98729799992E+01  0.11524510413E+02 -0.37721013784E+02  0.40659131265E+02  0.00000000000E+00 0. -1.
         11    1    3    3    0    0 -0.36698936284E+01  0.51755452365E+01  0.75675182512E+01  0.98753086271E+01  0.51100000000E-03 0. -1.
        -11    1    3    3    0    0 -0.13743666135E+02 -0.89291057994E+01  0.19340531938E+02  0.25351005209E+02  0.51100000000E-03 0.  1.
         12    1    3    3    0    0  0.75405797641E+01 -0.77709498497E+01  0.10812963595E+02  0.15302554899E+02  0.00000000000E+00 0. -1.
</event>
<event>
 7    1  0.6726285E-013  0.5052883E+02  0.7816164E-02  0.1300439E+00
        -11   -1    0    0    0    0  0.00000000000E+00  0.00000000000E+00  0.45593999997E+02  0.45594000000E+02  0.51100000000E-03 0. -1.
         11   -1    0    0    0    0 -0.00000000000E+00 -0.00000000000E+00 -0.45593999997E+02  0.45594000000E+02  0.51100000000E-03 0.  1.
    9900012    2    1    2    0    0  0.93097752735E+01  0.34572642037E+02 -0.19267288833E+02  0.50528832374E+02  0.29999916483E+02 0.  0.
         12    1    1    2    0    0 -0.93097752735E+01 -0.34572642037E+02  0.19267288833E+02  0.40659167626E+02  0.00000000000E+00 0. -1.
         11    1    3    3    0    0  0.32385678605E+00  0.20430500348E+02 -0.17644230967E+02  0.26996835266E+02  0.51100000000E-03 0. -1.
        -11    1    3    3    0    0  0.87001557497E+01  0.17417854895E+02  0.73824490807E+00  0.19483823675E+02  0.51100000000E-03 0.  1.
         12    1    3    3    0    0  0.28576273772E+00 -0.32757132058E+01 -0.23613027746E+01  0.40481734328E+01  0.00000000000E+00 0. -1.
</event>
<event>
 7    1  0.6726285E-013  0.5052888E+02  0.7816164E-02  0.1300439E+00
        -11   -1    0    0    0    0  0.00000000000E+00  0.00000000000E+00  0.45593999997E+02  0.45594000000E+02  0.51100000000E-03 0.  1.
         11   -1    0    0    0    0 -0.00000000000E+00 -0.00000000000E+00 -0.45593999997E+02  0.45594000000E+02  0.51100000000E-03 0. -1.
    9900012    2    1    2    0    0  0.18613252721E+02 -0.50102194915E+01  0.35799566113E+02  0.50528875439E+02  0.30000047384E+02 0.  0.
         12    1    1    2    0    0 -0.18613252721E+02  0.50102194915E+01 -0.35799566113E+02  0.40659124561E+02  0.00000000000E+00 0. -1.
         11    1    3    3    0    0  0.16080531437E+02 -0.72797177831E+01  0.48659343510E+01  0.18309972683E+02  0.51100000000E-03 0. -1.
        -11    1    3    3    0    0  0.22308130078E+01 -0.27253729310E+01  0.18193999878E+02  0.18531751566E+02  0.51100000000E-03 0.  1.
        -12    1    3    3    0    0  0.30190827641E+00  0.49948712226E+01  0.12739631884E+02  0.13687151189E+02  0.00000000000E+00 0.  1.
</event>
<event>
 7    1  0.6726285E-013  0.5052885E+02  0.7816164E-02  0.1300439E+00
        -11   -1    0    0    0    0  0.00000000000E+00  0.00000000000E+00  0.45593999997E+02  0.45594000000E+02  0.51100000000E-03 0. -1.
         11   -1    0    0    0    0 -0.00000000000E+00 -0.00000000000E+00 -0.45593999997E+02  0.45594000000E+02  0.51100000000E-03 0.  1.
    9900012    2    1    2    0    0 -0.35950137138E+02 -0.11082366018E+02 -0.15425156645E+02  0.50528847840E+02  0.29999963496E+02 0.  0.
         12    1    1    2    0    0  0.35950137138E+02  0.11082366018E+02  0.15425156645E+02  0.40659152160E+02  0.00000000000E+00 0. -1.
         11    1    3    3    0    0 -0.54909687937E+01 -0.21910806875E+01 -0.34816738588E+01  0.68610222265E+01  0.51100000000E-03 0. -1.
        -11    1    3    3    0    0 -0.26259549912E+02  0.27205535394E+01 -0.15756410070E+02  0.30744590284E+02  0.51100000000E-03 0.  1.
         12    1    3    3    0    0 -0.41996184319E+01 -0.11611838870E+02  0.38129272841E+01  0.12923235330E+02  0.00000000000E+00 0. -1.
</event>
<event>
 7    1  0.6726285E-013  0.5052886E+02  0.7816164E-02  0.1300439E+00
        -11   -1    0    0    0    0  0.00000000000E+00  0.00000000000E+00  0.45593999997E+02  0.45594000000E+02  0.51100000000E-03 0. -1.
         11   -1    0    0    0    0 -0.00000000000E+00 -0.00000000000E+00 -0.45593999997E+02  0.45594000000E+02  0.51100000000E-03 0.  1.
    9900012    2    1    2    0    0 -0.12000564806E+02  0.38232139129E+02  0.68888024857E+01  0.50528860588E+02  0.30000002244E+02 0.  0.
         12    1    1    2    0    0  0.12000564806E+02 -0.38232139129E+02 -0.68888024857E+01  0.40659139412E+02  0.00000000000E+00 0. -1.
         11    1    3    3    0    0 -0.10753512522E+01  0.33625502017E+00  0.14481135036E+01  0.18347971917E+01  0.51100000000E-03 0. -1.
        -11    1    3    3    0    0 -0.11367083857E+02  0.17789129475E+02  0.15516426109E+02  0.26199679432E+02  0.51100000000E-03 0.  1.
         12    1    3    3    0    0  0.44187030311E+00  0.20106754634E+02 -0.10075737127E+02  0.22494383964E+02  0.00000000000E+00 0. -1.
</event>
<event>
 7    1  0.6726285E-013  0.5052886E+02  0.7816164E-02  0.1300439E+00
        -11   -1    0    0    0    0  0.00000000000E+00  0.00000000000E+00  0.45593999997E+02  0.45594000000E+02  0.51100000000E-03 0.  1.
         11   -1    0    0    0    0 -0.00000000000E+00 -0.00000000000E+00 -0.45593999997E+02  0.45594000000E+02  0.51100000000E-03 0. -1.
    9900012    2    1    2    0    0 -0.14980051687E+02 -0.33105188617E+02  0.18243094822E+02  0.50528856249E+02  0.29999989054E+02 0.  0.
         12    1    1    2    0    0  0.14980051687E+02  0.33105188617E+02 -0.18243094822E+02  0.40659143751E+02  0.00000000000E+00 0. -1.
         11    1    3    3    0    0 -0.42427222666E+01  0.89481018241E+00 -0.31551256683E+01  0.53624803718E+01  0.51100000000E-03 0.  1.
        -11    1    3    3    0    0 -0.70837270238E+01 -0.17536302102E+01  0.45645220083E+01  0.86075123519E+01  0.51100000000E-03 0. -1.
        -12    1    3    3    0    0 -0.36536023965E+01 -0.32246368589E+02  0.16833698482E+02  0.36558863525E+02  0.00000000000E+00 0.  1.
</event>
<event>
 7    1  0.6726285E-013  0.5052886E+02  0.7816164E-02  0.1300439E+00
        -11   -1    0    0    0    0  0.00000000000E+00  0.00000000000E+00  0.45593999997E+02  0.45594000000E+02  0.51100000000E-03 0.  1.
         11   -1    0    0    0    0 -0.00000000000E+00 -0.00000000000E+00 -0.45593999997E+02  0.45594000000E+02  0.51100000000E-03 0. -1.
    9900012    2    1    2    0    0 -0.28722518823E+02  0.28099849949E+02  0.62113415860E+01  0.50528863032E+02  0.30000009671E+02 0.  0.
         12    1    1    2    0    0  0.28722518823E+02 -0.28099849949E+02 -0.62113415860E+01  0.40659136968E+02  0.00000000000E+00 0. -1.
         11    1    3    3    0    0  0.51893628697E+00  0.17221819234E+01  0.47839839511E+01  0.51109400460E+01  0.51100000000E-03 0. -1.
        -11    1    3    3    0    0 -0.17486673195E+01  0.68528322346E+01  0.84033225811E+01  0.10983395545E+02  0.51100000000E-03 0.  1.
        -12    1    3    3    0    0 -0.27492787790E+02  0.19524835791E+02 -0.69759649462E+01  0.34434527441E+02  0.00000000000E+00 0.  1.
</event>
<event>
 7    1  0.6726285E-013  0.5052880E+02  0.7816164E-02  0.1300439E+00
        -11   -1    0    0    0    0  0.00000000000E+00  0.00000000000E+00  0.45593999997E+02  0.45594000000E+02  0.51100000000E-03 0.  1.
         11   -1    0    0    0    0 -0.00000000000E+00 -0.00000000000E+00 -0.45593999997E+02  0.45594000000E+02  0.51100000000E-03 0. -1.
    9900012    2    1    2    0    0  0.28030713650E+02 -0.26743916272E+02  0.12337435330E+02  0.50528803306E+02  0.29999828129E+02 0.  0.
         12    1    1    2    0    0 -0.28030713650E+02  0.26743916272E+02 -0.12337435330E+02  0.40659196694E+02  0.00000000000E+00 0. -1.
         11    1    3    3    0    0  0.66623644414E+01  0.45223373731E+01 -0.28256422485E+01  0.85336328515E+01  0.51100000000E-03 0. -1.
        -11    1    3    3    0    0  0.12832239272E+02 -0.10210873470E+02  0.53858431244E+01  0.17260811342E+02  0.51100000000E-03 0.  1.
        -12    1    3    3    0    0  0.85361099364E+01 -0.21055380175E+02  0.97772344540E+01  0.24734359113E+02  0.00000000000E+00 0.  1.
</event>
<event>
 7    1  0.6726285E-013  0.5052884E+02  0.7816164E-02  0.1300439E+00
        -11   -1    0    0    0    0  0.00000000000E+00  0.00000000000E+00  0.45593999997E+02  0.45594000000E+02  0.51100000000E-03 0.  1.
         11   -1    0    0    0    0 -0.00000000000E+00 -0.00000000000E+00 -0.45593999997E+02  0.45594000000E+02  0.51100000000E-03 0. -1.
    9900012    2    1    2    0    0 -0.20263267412E+02 -0.24120165278E+02  0.25705739977E+02  0.50528838092E+02  0.29999933866E+02 0.  0.
         12    1    1    2    0    0  0.20263267412E+02  0.24120165278E+02 -0.25705739977E+02  0.40659161908E+02  0.00000000000E+00 0. -1.
         11    1    3    3    0    0 -0.30675680540E+01 -0.87673290337E+01  0.10772591712E+02  0.14224090994E+02  0.51100000000E-03 0. -1.
        -11    1    3    3    0    0 -0.79344143271E+01 -0.90712573797E+01  0.20519782257E+02  0.23797144898E+02  0.51100000000E-03 0.  1.
         12    1    3    3    0    0 -0.92612850312E+01 -0.62815788647E+01 -0.55866339914E+01  0.12507602201E+02  0.00000000000E+00 0. -1.
</event>
<event>
 7    1  0.6726285E-013  0.5052886E+02  0.7816164E-02  0.1300439E+00
        -11   -1    0    0    0    0  0.00000000000E+00  0.00000000000E+00  0.45593999997E+02  0.45594000000E+02  0.51100000000E-03 0.  1.
         11   -1    0    0    0    0 -0.00000000000E+00 -0.00000000000E+00 -0.45593999997E+02  0.45594000000E+02  0.51100000000E-03 0. -1.
    9900012    2    1    2    0    0  0.38305710342E+02 -0.66948670893E+01  0.11875064739E+02  0.50528857698E+02  0.29999993459E+02 0.  0.
         12    1    1    2    0    0 -0.38305710342E+02  0.66948670893E+01 -0.11875064739E+02  0.40659142302E+02  0.00000000000E+00 0. -1.
         11    1    3    3    0    0  0.10663240057E+02 -0.21685213110E+00 -0.28298744573E+00  0.10669198447E+02  0.51100000000E-03 0. -1.
        -11    1    3    3    0    0  0.13278963191E+02 -0.29679859443E+01 -0.72841230763E+01  0.15433672708E+02  0.51100000000E-03 0.  1.
        -12    1    3    3    0    0  0.14363507094E+02 -0.35100290140E+01  0.19442175261E+02  0.24425986543E+02  0.00000000000E+00 0.  1.
</event>
<event>
 7    1  0.6726285E-013  0.5052886E+02  0.7816164E-02  0.1300439E+00
        -11   -1    0    0    0    0  0.00000000000E+00  0.00000000000E+00  0.45593999997E+02  0.45594000000E+02  0.51100000000E-03 0. -1.
         11   -1    0    0    0    0 -0.00000000000E+00 -0.00000000000E+00 -0.45593999997E+02  0.45594000000E+02  0.51100000000E-03 0.  1.
    9900012    2    1    2    0    0  0.80195692235E+01 -0.39417330660E+02 -0.59267148913E+01  0.50528863311E+02  0.30000010520E+02 0.  0.
         12    1    1    2    0    0 -0.80195692235E+01  0.39417330660E+02  0.59267148913E+01  0.40659136689E+02  0.00000000000E+00 0. -1.
         11    1    3    3    0    0  0.33612640082E+01 -0.80162724906E+01 -0.27409517415E+01  0.91143588412E+01  0.51100000000E-03 0. -1.
        -11    1    3    3    0    0  0.26501054753E+01 -0.16144457180E+02 -0.14857951672E+02  0.22100345807E+02  0.51100000000E-03 0.  1.
         12    1    3    3    0    0  0.20081997400E+01 -0.15256600989E+02  0.11672188522E+02  0.19314158662E+02  0.00000000000E+00 0. -1.
</event>
<event>
 7    1  0.6726285E-013  0.5052886E+02  0.7816164E-02  0.1300439E+00
        -11   -1    0    0    0    0  0.00000000000E+00  0.00000000000E+00  0.45593999997E+02  0.45594000000E+02  0.51100000000E-03 0.  1.
         11   -1    0    0    0    0 -0.00000000000E+00 -0.00000000000E+00 -0.45593999997E+02  0.45594000000E+02  0.51100000000E-03 0. -1.
    9900012    2    1    2    0    0 -0.12328176216E+02 -0.10313708105E+02  0.37347141171E+02  0.50528862560E+02  0.30000008239E+02 0.  0.
         12    1    1    2    0    0  0.12328176216E+02  0.10313708105E+02 -0.37347141171E+02  0.40659137440E+02  0.00000000000E+00 0. -1.
         11    1    3    3    0    0  0.12251535336E+00 -0.54574236869E+01  0.15380731773E+02  0.16320704441E+02  0.51100000000E-03 0. -1.
        -11    1    3    3    0    0 -0.12829078692E+02 -0.87439976380E+01  0.24885798697E+02  0.29331650684E+02  0.51100000000E-03 0.  1.
         12    1    3    3    0    0  0.37838712234E+00  0.38877132196E+01 -0.29193892993E+01  0.48765074359E+01  0.00000000000E+00 0. -1.
</event>
<event>
 7    1  0.6726285E-013  0.5052886E+02  0.7816164E-02  0.1300439E+00
        -11   -1    0    0    0    0  0.00000000000E+00  0.00000000000E+00  0.45593999997E+02  0.45594000000E+02  0.51100000000E-03 0.  1.
         11   -1    0    0    0    0 -0.00000000000E+00 -0.00000000000E+00 -0.45593999997E+02  0.45594000000E+02  0.51100000000E-03 0. -1.
    9900012    2    1    2    0    0 -0.24100745858E+02  0.64894208780E+01  0.32096844713E+02  0.50528856197E+02  0.29999988896E+02 0.  0.
         12    1    1    2    0    0  0.24100745858E+02 -0.64894208780E+01 -0.32096844713E+02  0.40659143803E+02  0.00000000000E+00 0. -1.
         11    1    3    3    0    0 -0.70557984812E+01  0.14815697065E+02  0.17757089379E+02  0.24178573060E+02  0.51100000000E-03 0. -1.
        -11    1    3    3    0    0 -0.88734094437E+01  0.42841575705E+00  0.10543615884E+02  0.13787268453E+02  0.51100000000E-03 0.  1.
         12    1    3    3    0    0 -0.81715379332E+01 -0.87546919439E+01  0.37961394498E+01  0.12563014684E+02  0.00000000000E+00 0. -1.
</event>
<event>
 7    1  0.6726285E-013  0.5052887E+02  0.7816164E-02  0.1300439E+00
        -11   -1    0    0    0    0  0.00000000000E+00  0.00000000000E+00  0.45593999997E+02  0.45594000000E+02  0.51100000000E-03 0.  1.
         11   -1    0    0    0    0 -0.00000000000E+00 -0.00000000000E+00 -0.45593999997E+02  0.45594000000E+02  0.51100000000E-03 0. -1.
    9900012    2    1    2    0    0 -0.57007017417E+00  0.33963740785E+02  0.22345115741E+02  0.50528869837E+02  0.30000030357E+02 0.  0.
         12    1    1    2    0    0  0.57007017417E+00 -0.33963740785E+02 -0.22345115741E+02  0.40659130163E+02  0.00000000000E+00 0. -1.
         11    1    3    3    0    0  0.46269289229E+01 -0.18722495367E+01  0.70938673404E+01  0.86739116718E+01  0.51100000000E-03 0. -1.
        -11    1    3    3    0    0  0.42395584618E+01  0.45317384037E+01  0.34118109651E+01  0.70817344792E+01  0.51100000000E-03 0.  1.
        -12    1    3    3    0    0 -0.94365575590E+01  0.31304251918E+02  0.11839437435E+02  0.34773223686E+02  0.00000000000E+00 0.  1.
</event>
<event>
 7    1  0.6726285E-013  0.5052889E+02  0.7816164E-02  0.1300439E+00
        -11   -1    0    0    0    0  0.00000000000E+00  0.00000000000E+00  0.45593999997E+02  0.45594000000E+02  0.51100000000E-03 0.  1.
         11   -1    0    0    0    0 -0.00000000000E+00 -0.00000000000E+00 -0.45593999997E+02  0.45594000000E+02  0.51100000000E-03 0. -1.
    9900012    2    1    2    0    0 -0.18971892599E+02 -0.24917998618E+02  0.25929207078E+02  0.50528891013E+02  0.30000094723E+02 0.  0.
         12    1    1    2    0    0  0.18971892599E+02  0.24917998618E+02 -0.25929207078E+02  0.40659108987E+02  0.00000000000E+00 0. -1.
         11    1    3    3    0    0 -0.59876498409E+01 -0.59665595266E+01  0.23879948573E+01  0.87837522108E+01  0.51100000000E-03 0.  1.
        -11    1    3    3    0    0 -0.11042637812E+02  0.25774958571E+00 -0.32109399554E+00  0.11050311594E+02  0.51100000000E-03 0. -1.
         12    1    3    3    0    0 -0.19416049461E+01 -0.19209188677E+02  0.23862306216E+02  0.30694827208E+02  0.00000000000E+00 0. -1.
</event>
<event>
 7    1  0.6726285E-013  0.5052886E+02  0.7816164E-02  0.1300439E+00
        -11   -1    0    0    0    0  0.00000000000E+00  0.00000000000E+00  0.45593999997E+02  0.45594000000E+02  0.51100000000E-03 0.  1.
         11   -1    0    0    0    0 -0.00000000000E+00 -0.00000000000E+00 -0.45593999997E+02  0.45594000000E+02  0.51100000000E-03 0. -1.
    9900012    2    1    2    0    0 -0.39305241974E+02  0.10394179284E+02 -0.47380981622E+00  0.50528861970E+02  0.30000006444E+02 0.  0.
         12    1    1    2    0    0  0.39305241974E+02 -0.10394179284E+02  0.47380981622E+00  0.40659138030E+02  0.00000000000E+00 0. -1.
         11    1    3    3    0    0 -0.11843924682E+02 -0.42905911380E+01 -0.93815611342E+01  0.15706731480E+02  0.51100000000E-03 0. -1.
        -11    1    3    3    0    0 -0.33668875683E+01  0.20830433532E+01  0.63870863513E+01  0.75146439589E+01  0.51100000000E-03 0.  1.
        -12    1    3    3    0    0 -0.24094429723E+02  0.12601727069E+02  0.25206649667E+01  0.27307486531E+02  0.00000000000E+00 0.  1.
</event>
<event>
 7    1  0.6726285E-013  0.5052886E+02  0.7816164E-02  0.1300439E+00
        -11   -1    0    0    0    0  0.00000000000E+00  0.00000000000E+00  0.45593999997E+02  0.45594000000E+02  0.51100000000E-03 0. -1.
         11   -1    0    0    0    0 -0.00000000000E+00 -0.00000000000E+00 -0.45593999997E+02  0.45594000000E+02  0.51100000000E-03 0.  1.
    9900012    2    1    2    0    0  0.20321706409E+02  0.29376146601E+02 -0.19422552400E+02  0.50528864714E+02  0.30000014785E+02 0.  0.
         12    1    1    2    0    0 -0.20321706409E+02 -0.29376146601E+02  0.19422552400E+02  0.40659135286E+02  0.00000000000E+00 0. -1.
         11    1    3    3    0    0  0.47257631541E+01  0.17446981339E+02 -0.25082515771E+01  0.18248871786E+02  0.51100000000E-03 0. -1.
        -11    1    3    3    0    0 -0.21344488753E+01  0.59985668326E+01 -0.10930698182E+02  0.12649855298E+02  0.51100000000E-03 0.  1.
        -12    1    3    3    0    0  0.17730392130E+02  0.59305984293E+01 -0.59836026403E+01  0.19630137630E+02  0.00000000000E+00 0.  1.
</event>
<event>
 7    1  0.6726285E-013  0.5052882E+02  0.7816164E-02  0.1300439E+00
        -11   -1    0    0    0    0  0.00000000000E+00  0.00000000000E+00  0.45593999997E+02  0.45594000000E+02  0.51100000000E-03 0.  1.
         11   -1    0    0    0    0 -0.00000000000E+00 -0.00000000000E+00 -0.45593999997E+02  0.45594000000E+02  0.51100000000E-03 0. -1.
    9900012    2    1    2    0    0 -0.26815384562E+01  0.17834313100E+02  0.36440572573E+02  0.50528822664E+02  0.29999886968E+02 0.  0.
         12    1    1    2    0    0  0.26815384562E+01 -0.17834313100E+02 -0.36440572573E+02  0.40659177336E+02  0.00000000000E+00 0. -1.
         11    1    3    3    0    0  0.90622275239E+01  0.14092173367E+02  0.26671497278E+02  0.31497334573E+02  0.51100000000E-03 0. -1.
        -11    1    3    3    0    0  0.12173240692E+00  0.34010946473E+01  0.53992032246E+01  0.63822926367E+01  0.51100000000E-03 0.  1.
        -12    1    3    3    0    0 -0.11865498387E+02  0.34104508640E+00  0.43698720698E+01  0.12649195454E+02  0.00000000000E+00 0.  1.
</event>
<event>
 7    1  0.6726285E-013  0.5052890E+02  0.7816164E-02  0.1300439E+00
        -11   -1    0    0    0    0  0.00000000000E+00  0.00000000000E+00  0.45593999997E+02  0.45594000000E+02  0.51100000000E-03 0. -1.
         11   -1    0    0    0    0 -0.00000000000E+00 -0.00000000000E+00 -0.45593999997E+02  0.45594000000E+02  0.51100000000E-03 0.  1.
    9900012    2    1    2    0    0 -0.10348173774E+02  0.38006639771E+02  0.10078326001E+02  0.50528904804E+02  0.30000136643E+02 0.  0.
         12    1    1    2    0    0  0.10348173774E+02 -0.38006639771E+02 -0.10078326001E+02  0.40659095196E+02  0.00000000000E+00 0. -1.
         11    1    3    3    0    0 -0.84579048839E+01  0.90195875207E+01  0.59168402753E+01  0.13707593267E+02  0.51100000000E-03 0. -1.
        -11    1    3    3    0    0 -0.39994955239E+01  0.24959083577E+02  0.11827969018E+02  0.27907932005E+02  0.51100000000E-03 0.  1.
        -12    1    3    3    0    0  0.21092266339E+01  0.40279686735E+01 -0.76664832915E+01  0.89133795323E+01  0.00000000000E+00 0.  1.
</event>
<event>
 7    1  0.6726285E-013  0.5052885E+02  0.7816164E-02  0.1300439E+00
        -11   -1    0    0    0    0  0.00000000000E+00  0.00000000000E+00  0.45593999997E+02  0.45594000000E+02  0.51100000000E-03 0.  1.
         11   -1    0    0    0    0 -0.00000000000E+00 -0.00000000000E+00 -0.45593999997E+02  0.45594000000E+02  0.51100000000E-03 0. -1.
    9900012    2    1    2    0    0 -0.39775475763E+01  0.16753603255E+02  0.36832894036E+02  0.50528853553E+02  0.29999980859E+02 0.  0.
         12    1    1    2    0    0  0.39775475763E+01 -0.16753603255E+02 -0.36832894036E+02  0.40659146447E+02  0.00000000000E+00 0. -1.
         11    1    3    3    0    0 -0.38874808136E+01  0.10779116340E+01  0.35253629961E+00  0.40495286973E+01  0.51100000000E-03 0. -1.
        -11    1    3    3    0    0 -0.11002850394E+02  0.12612670133E+02  0.16470925352E+02  0.23482622232E+02  0.51100000000E-03 0.  1.
         12    1    3    3    0    0  0.10912783631E+02  0.30630214887E+01  0.20009432384E+02  0.22996702624E+02  0.00000000000E+00 0. -1.
</event>
<event>
 7    1  0.6726285E-013  0.5052888E+02  0.7816164E-02  0.1300439E+00
        -11   -1    0    0    0    0  0.00000000000E+00  0.00000000000E+00  0.45593999997E+02  0.45594000000E+02  0.51100000000E-03 0. -1.
         11   -1    0    0    0    0 -0.00000000000E+00 -0.00000000000E+00 -0.45593999997E+02  0.45594000000E+02  0.51100000000E-03 0.  1.
    9900012    2    1    2    0    0  0.28511595796E+02 -0.23730348861E+02 -0.16647036802E+02  0.50528875733E+02  0.30000048277E+02 0.  0.
         12    1    1    2    0    0 -0.28511595796E+02  0.23730348861E+02  0.16647036802E+02  0.40659124267E+02  0.00000000000E+00 0. -1.
         11    1    3    3    0    0  0.26134346365E+02 -0.14238681963E+02 -0.10159212332E+02  0.31447634560E+02  0.51100000000E-03 0. -1.
        -11    1    3    3    0    0  0.33282690853E+01 -0.90820834195E+01  0.25348422383E+01  0.99993519678E+01  0.51100000000E-03 0.  1.
        -12    1    3    3    0    0 -0.95101965395E+00 -0.40958347881E+00 -0.90226667080E+01  0.90818892050E+01  0.00000000000E+00 0.  1.
</event>
<event>
 7    1  0.6726285E-013  0.5052882E+02  0.7816164E-02  0.1300439E+00
        -11   -1    0    0    0    0  0.00000000000E+00  0.00000000000E+00  0.45593999997E+02  0.45594000000E+02  0.51100000000E-03 0.  1.
         11   -1    0    0    0    0 -0.00000000000E+00 -0.00000000000E+00 -0.45593999997E+02  0.45594000000E+02  0.51100000000E-03 0. -1.
    9900012    2    1    2    0    0  0.48199041095E+01  0.16777499600E+02  0.36721286697E+02  0.50528820653E+02  0.29999880857E+02 0.  0.
         12    1    1    2    0    0 -0.48199041095E+01 -0.16777499600E+02 -0.36721286697E+02  0.40659179347E+02  0.00000000000E+00 0. -1.
         11    1    3    3    0    0 -0.70221419391E+00  0.62534876443E+01  0.27681442424E+02  0.28387699227E+02  0.51100000000E-03 0. -1.
        -11    1    3    3    0    0  0.12169291945E+01 -0.22618758861E+01  0.82346006753E+01  0.86258708390E+01  0.51100000000E-03 0.  1.
         12    1    3    3    0    0  0.43051891090E+01  0.12785887842E+02  0.80524359789E+00  0.13515250587E+02  0.00000000000E+00 0. -1.
</event>
<event>
 7    1  0.6726285E-013  0.5052886E+02  0.7816164E-02  0.1300439E+00
        -11   -1    0    0    0    0  0.00000000000E+00  0.00000000000E+00  0.45593999997E+02  0.45594000000E+02  0.51100000000E-03 0. -1.
         11   -1    0    0    0    0 -0.00000000000E+00 -0.00000000000E+00 -0.45593999997E+02  0.45594000000E+02  0.51100000000E-03 0.  1.
    9900012    2    1    2    0    0  0.15687660416E+02 -0.19589181009E+02 -0.31989483926E+02  0.50528858545E+02  0.29999996035E+02 0.  0.
         12    1    1    2    0    0 -0.15687660416E+02  0.19589181009E+02  0.31989483926E+02  0.40659141455E+02  0.00000000000E+00 0. -1.
         11    1    3    3    0    0 -0.57692342476E+00  0.10420130333E+01 -0.20282959642E+01  0.23521514787E+01  0.51100000000E-03 0. -1.
        -11    1    3    3    0    0 -0.47533226433E+01 -0.15288899735E+02 -0.11780008086E+02  0.19877452604E+02  0.51100000000E-03 0.  1.
         12    1    3    3    0    0  0.21017906484E+02 -0.53422943078E+01 -0.18181179876E+02  0.28299254463E+02  0.00000000000E+00 0. -1.
</event>
<event>
 7    1  0.6726285E-013  0.5052886E+02  0.7816164E-02  0.1300439E+00
        -11   -1    0    0    0    0  0.00000000000E+00  0.00000000000E+00  0.45593999997E+02  0.45594000000E+02  0.51100000000E-03 0. -1.
         11   -1    0    0    0    0 -0.00000000000E+00 -0.00000000000E+00 -0.45593999997E+02  0.45594000000E+02  0.51100000000E-03 0.  1.
    9900012    2    1    2    0    0 -0.37454092859E+02 -0.27319178577E+01 -0.15585022065E+02  0.50528863759E+02  0.30000011882E+02 0.  0.
         12    1    1    2    0    0  0.37454092859E+02  0.27319178577E+01  0.15585022065E+02  0.40659136241E+02  0.00000000000E+00 0. -1.
         11    1    3    3    0    0 -0.19003448941E+02 -0.10650046791E+02 -0.59096302854E+01  0.22571625964E+02  0.51100000000E-03 0. -1.
        -11    1    3    3    0    0 -0.12242601988E+02  0.27574294859E+01 -0.13998132428E+02  0.18799798737E+02  0.51100000000E-03 0.  1.
        -12    1    3    3    0    0 -0.62080419301E+01  0.51606994472E+01  0.43227406482E+01  0.91574390580E+01  0.00000000000E+00 0.  1.
</event>
<event>
 7    1  0.6726285E-013  0.5052886E+02  0.7816164E-02  0.1300439E+00
        -11   -1    0    0    0    0  0.00000000000E+00  0.00000000000E+00  0.45593999997E+02  0.45594000000E+02  0.51100000000E-03 0.  1.
         11   -1    0    0    0    0 -0.00000000000E+00 -0.00000000000E+00 -0.45593999997E+02  0.45594000000E+02  0.51100000000E-03 0. -1.
    9900012    2    1    2    0    0 -0.10940217091E+01 -0.89370594173E+01  0.39649689162E+02  0.50528858775E+02  0.29999996732E+02 0.  0.
         12    1    1    2    0    0  0.10940217091E+01  0.89370594173E+01 -0.39649689162E+02  0.40659141225E+02  0.00000000000E+00 0. -1.
         11    1    3    3    0    0 -0.77766746597E+01 -0.48558138545E+01  0.14248369619E+02  0.16943188425E+02  0.51100000000E-03 0. -1.
        -11    1    3    3    0    0 -0.20253129374E+01 -0.72218229015E+00  0.24060598445E+02  0.24156486449E+02  0.51100000000E-03 0.  1.
         12    1    3    3    0    0  0.87079658880E+01 -0.33590632726E+01  0.13407210983E+01  0.94291839011E+01  0.00000000000E+00 0. -1.
</event>
<event>
 7    1  0.6726285E-013  0.5052886E+02  0.7816164E-02  0.1300439E+00
        -11   -1    0    0    0    0  0.00000000000E+00  0.00000000000E+00  0.45593999997E+02  0.45594000000E+02  0.51100000000E-03 0. -1.
         11   -1    0    0    0    0 -0.00000000000E+00 -0.00000000000E+00 -0.45593999997E+02  0.45594000000E+02  0.51100000000E-03 0.  1.
    9900012    2    1    2    0    0  0.17564858180E+02 -0.28450986607E+01 -0.36558815686E+02  0.50528857933E+02  0.29999994172E+02 0.  0.
         12    1    1    2    0    0 -0.17564858180E+02  0.28450986607E+01  0.36558815686E+02  0.40659142067E+02  0.00000000000E+00 0. -1.
         11    1    3    3    0    0 -0.63882567774E+00 -0.64405060488E+01 -0.78087982894E+01  0.10142265398E+02  0.51100000000E-03 0. -1.
        -11    1    3    3    0    0  0.56518692049E+01 -0.45146675578E+01 -0.23434357803E+02  0.24525394483E+02  0.51100000000E-03 0.  1.
        -12    1    3    3    0    0  0.12551814653E+02  0.81100749459E+01 -0.53156595940E+01  0.15861198052E+02  0.00000000000E+00 0.  1.
</event>
<event>
 7    1  0.6726285E-013  0.5052887E+02  0.7816164E-02  0.1300439E+00
        -11   -1    0    0    0    0  0.00000000000E+00  0.00000000000E+00  0.45593999997E+02  0.45594000000E+02  0.51100000000E-03 0.  1.
         11   -1    0    0    0    0 -0.00000000000E+00 -0.00000000000E+00 -0.45593999997E+02  0.45594000000E+02  0.51100000000E-03 0. -1.
    9900012    2    1    2    0    0 -0.14375374145E+02 -0.27180880757E+02  0.26602871923E+02  0.50528874885E+02  0.30000045702E+02 0.  0.
         12    1    1    2    0    0  0.14375374145E+02  0.27180880757E+02 -0.26602871923E+02  0.40659125115E+02  0.00000000000E+00 0. -1.
         11    1    3    3    0    0 -0.44449879238E+01  0.69428520120E+00 -0.16791205381E+01  0.48020199527E+01  0.51100000000E-03 0. -1.
        -11    1    3    3    0    0 -0.11802764838E+02 -0.18072466213E+02  0.78150049630E+01  0.22956341078E+02  0.51100000000E-03 0.  1.
         12    1    3    3    0    0  0.18723786168E+01 -0.98026997453E+01  0.20466987498E+02  0.22770513855E+02  0.00000000000E+00 0. -1.
</event>
<event>
 7    1  0.6726285E-013  0.5052890E+02  0.7816164E-02  0.1300439E+00
        -11   -1    0    0    0    0  0.00000000000E+00  0.00000000000E+00  0.45593999997E+02  0.45594000000E+02  0.51100000000E-03 0.  1.
         11   -1    0    0    0    0 -0.00000000000E+00 -0.00000000000E+00 -0.45593999997E+02  0.45594000000E+02  0.51100000000E-03 0. -1.
    9900012    2    1    2    0    0  0.11537276247E+02  0.25814502513E+02  0.29217551624E+02  0.50528897623E+02  0.30000114815E+02 0.  0.
         12    1    1    2    0    0 -0.11537276247E+02 -0.25814502513E+02 -0.29217551624E+02  0.40659102377E+02  0.00000000000E+00 0. -1.
         11    1    3    3    0    0 -0.28017341510E+01  0.99189104461E+01  0.56797946015E+01  0.11768371411E+02  0.51100000000E-03 0. -1.
        -11    1    3    3    0    0 -0.13956981216E+01  0.13968055848E+02  0.64390502273E+01  0.15443960811E+02  0.51100000000E-03 0.  1.
        -12    1    3    3    0    0  0.15734708520E+02  0.19275362190E+01  0.17098706795E+02  0.23316565402E+02  0.00000000000E+00 0.  1.
</event>
<event>
 7    1  0.6726285E-013  0.5052886E+02  0.7816164E-02  0.1300439E+00
        -11   -1    0    0    0    0  0.00000000000E+00  0.00000000000E+00  0.45593999997E+02  0.45594000000E+02  0.51100000000E-03 0. -1.
         11   -1    0    0    0    0 -0.00000000000E+00 -0.00000000000E+00 -0.45593999997E+02  0.45594000000E+02  0.51100000000E-03 0.  1.
    9900012    2    1    2    0    0 -0.19838565707E+02  0.33293906861E+02  0.12292791607E+02  0.50528860205E+02  0.30000001080E+02 0.  0.
         12    1    1    2    0    0  0.19838565707E+02 -0.33293906861E+02 -0.12292791607E+02  0.40659139795E+02  0.00000000000E+00 0. -1.
         11    1    3    3    0    0 -0.78542985943E+01  0.11508868740E+01  0.23987996909E+01  0.82926948107E+01  0.51100000000E-03 0. -1.
        -11    1    3    3    0    0 -0.10934133969E+02  0.87485641451E+01 -0.45475786589E+01  0.14723217453E+02  0.51100000000E-03 0.  1.
        -12    1    3    3    0    0 -0.10501331436E+01  0.23394455842E+02  0.14441570575E+02  0.27512947941E+02  0.00000000000E+00 0.  1.
</event>
<event>
 7    1  0.6726285E-013  0.5052885E+02  0.7816164E-02  0.1300439E+00
        -11   -1    0    0    0    0  0.00000000000E+00  0.00000000000E+00  0.45593999997E+02  0.45594000000E+02  0.51100000000E-03 0.  1.
         11   -1    0    0    0    0 -0.00000000000E+00 -0.00000000000E+00 -0.45593999997E+02  0.45594000000E+02  0.51100000000E-03 0. -1.
    9900012    2    1    2    0    0 -0.37149788515E+02  0.16465546697E+02 -0.13946728309E+01  0.50528854324E+02  0.29999983204E+02 0.  0.
         12    1    1    2    0    0  0.37149788515E+02 -0.16465546697E+02  0.13946728309E+01  0.40659145676E+02  0.00000000000E+00 0. -1.
         11    1    3    3    0    0 -0.12828753101E+02  0.93096253316E+01 -0.70656669558E+01  0.17354240972E+02  0.51100000000E-03 0. -1.
        -11    1    3    3    0    0 -0.25896368676E+02  0.50027180958E+01 -0.57632686688E+00  0.26381456591E+02  0.51100000000E-03 0.  1.
         12    1    3    3    0    0  0.15753332612E+01  0.21532032698E+01  0.62473209918E+01  0.67931567610E+01  0.00000000000E+00 0. -1.
</event>
<event>
 7    1  0.6726285E-013  0.5052886E+02  0.7816164E-02  0.1300439E+00
        -11   -1    0    0    0    0  0.00000000000E+00  0.00000000000E+00  0.45593999997E+02  0.45594000000E+02  0.51100000000E-03 0.  1.
         11   -1    0    0    0    0 -0.00000000000E+00 -0.00000000000E+00 -0.45593999997E+02  0.45594000000E+02  0.51100000000E-03 0. -1.
    9900012    2    1    2    0    0 -0.19613046922E+00  0.12789370233E+02  0.38594802988E+02  0.50528864793E+02  0.30000015023E+02 0.  0.
         12    1    1    2    0    0  0.19613046922E+00 -0.12789370233E+02 -0.38594802988E+02  0.40659135207E+02  0.00000000000E+00 0. -1.
         11    1    3    3    0    0  0.62073709706E+01  0.20151931386E+01  0.11697843109E+02  0.13395222708E+02  0.51100000000E-03 0. -1.
        -11    1    3    3    0    0  0.78153495837E+01  0.63350974225E+01  0.15042048932E+02  0.18096308596E+02  0.51100000000E-03 0.  1.
        -12    1    3    3    0    0 -0.14218851024E+02  0.44390796721E+01  0.11854910948E+02  0.19037333488E+02  0.00000000000E+00 0.  1.
</event>
<event>
 7    1  0.6726285E-013  0.5052886E+02  0.7816164E-02  0.1300439E+00
        -11   -1    0    0    0    0  0.00000000000E+00  0.00000000000E+00  0.45593999997E+02  0.45594000000E+02  0.51100000000E-03 0.  1.
         11   -1    0    0    0    0 -0.00000000000E+00 -0.00000000000E+00 -0.45593999997E+02  0.45594000000E+02  0.51100000000E-03 0. -1.
    9900012    2    1    2    0    0  0.50406635163E+01 -0.22035492228E+02  0.33796365815E+02  0.50528861437E+02  0.30000004824E+02 0.  0.
         12    1    1    2    0    0 -0.50406635163E+01  0.22035492228E+02 -0.33796365815E+02  0.40659138563E+02  0.00000000000E+00 0. -1.
         11    1    3    3    0    0  0.10810534640E+01 -0.28478994105E+01 -0.12491215443E+01  0.32923414978E+01  0.51100000000E-03 0.  1.
        -11    1    3    3    0    0  0.23145761190E+01 -0.23027279729E+02  0.36142820912E+02  0.42917553263E+02  0.51100000000E-03 0. -1.
         12    1    3    3    0    0  0.16450339333E+01  0.38396869122E+01 -0.10973335528E+01  0.43189666763E+01  0.00000000000E+00 0. -1.
</event>
<event>
 7    1  0.6726285E-013  0.5052886E+02  0.7816164E-02  0.1300439E+00
        -11   -1    0    0    0    0  0.00000000000E+00  0.00000000000E+00  0.45593999997E+02  0.45594000000E+02  0.51100000000E-03 0.  1.
         11   -1    0    0    0    0 -0.00000000000E+00 -0.00000000000E+00 -0.45593999997E+02  0.45594000000E+02  0.51100000000E-03 0. -1.
    9900012    2    1    2    0    0 -0.28418243634E+02  0.28911880151E+02  0.31100830662E+01  0.50528855865E+02  0.29999987888E+02 0.  0.
         12    1    1    2    0    0  0.28418243634E+02 -0.28911880151E+02 -0.31100830662E+01  0.40659144135E+02  0.00000000000E+00 0. -1.
         11    1    3    3    0    0 -0.11729899460E+02  0.10135857995E+02  0.33872021944E+01  0.15868185076E+02  0.51100000000E-03 0. -1.
        -11    1    3    3    0    0 -0.20008865461E+02  0.13890180933E+02  0.69468437521E+01  0.25328846435E+02  0.51100000000E-03 0.  1.
         12    1    3    3    0    0  0.33205212869E+01  0.48858412234E+01 -0.72239628803E+01  0.93318243539E+01  0.00000000000E+00 0. -1.
</event>
<event>
 7    1  0.6726285E-013  0.5052888E+02  0.7816164E-02  0.1300439E+00
        -11   -1    0    0    0    0  0.00000000000E+00  0.00000000000E+00  0.45593999997E+02  0.45594000000E+02  0.51100000000E-03 0. -1.
         11   -1    0    0    0    0 -0.00000000000E+00 -0.00000000000E+00 -0.45593999997E+02  0.45594000000E+02  0.51100000000E-03 0.  1.
    9900012    2    1    2    0    0 -0.67060346126E+01  0.34381027462E+02 -0.20643114948E+02  0.50528878707E+02  0.30000057317E+02 0.  0.
         12    1    1    2    0    0  0.67060346126E+01 -0.34381027462E+02  0.20643114948E+02  0.40659121293E+02  0.00000000000E+00 0. -1.
         11    1    3    3    0    0  0.37316254092E-01  0.34026822693E+00 -0.85806422827E+01  0.85874674505E+01  0.51100000000E-03 0. -1.
        -11    1    3    3    0    0 -0.45942397144E+01  0.10395040855E+02 -0.14101058212E+02  0.18110873968E+02  0.51100000000E-03 0.  1.
        -12    1    3    3    0    0 -0.21491111523E+01  0.23645718379E+02  0.20385855459E+01  0.23830537288E+02  0.00000000000E+00 0.  1.
</event>
<event>
 7    1  0.6726285E-013  0.5052899E+02  0.7816164E-02  0.1300438E+00
        -11   -1    0    0    0    0  0.00000000000E+00  0.00000000000E+00  0.45593999997E+02  0.45594000000E+02  0.51100000000E-03 0.  1.
         11   -1    0    0    0    0 -0.00000000000E+00 -0.00000000000E+00 -0.45593999997E+02  0.45594000000E+02  0.51100000000E-03 0. -1.
    9900012    2    1    2    0    0  0.19388992018E+02 -0.58146469174E+01  0.35262043825E+02  0.50528992819E+02  0.30000404171E+02 0.  0.
         12    1    1    2    0    0 -0.19388992018E+02  0.58146469174E+01 -0.35262043825E+02  0.40659007181E+02  0.00000000000E+00 0. -1.
         11    1    3    3    0    0  0.13605505072E+02  0.62747249539E+01  0.89380372817E+01  0.17446215986E+02  0.51100000000E-03 0. -1.
        -11    1    3    3    0    0  0.46812423985E+01  0.25142842821E+01  0.57584368949E+01  0.78355122091E+01  0.51100000000E-03 0.  1.
         12    1    3    3    0    0  0.11022445473E+01 -0.14603656153E+02  0.20565569648E+02  0.25247264625E+02  0.00000000000E+00 0. -1.
</event>
<event>
 7    1  0.6726285E-013  0.5052885E+02  0.7816164E-02  0.1300439E+00
        -11   -1    0    0    0    0  0.00000000000E+00  0.00000000000E+00  0.45593999997E+02  0.45594000000E+02  0.51100000000E-03 0.  1.
         11   -1    0    0    0    0 -0.00000000000E+00 -0.00000000000E+00 -0.45593999997E+02  0.45594000000E+02  0.51100000000E-03 0. -1.
    9900012    2    1    2    0    0  0.17189461321E+01  0.28946388260E+02  0.28501203294E+02  0.50528846562E+02  0.29999959610E+02 0.  0.
         12    1    1    2    0    0 -0.17189461321E+01 -0.28946388260E+02 -0.28501203294E+02  0.40659153438E+02  0.00000000000E+00 0. -1.
         11    1    3    3    0    0 -0.16517445014E+01  0.11470556948E+02  0.48572258682E+01  0.12565611007E+02  0.51100000000E-03 0. -1.
        -11    1    3    3    0    0  0.78098074468E+01  0.33853234299E+01 -0.16505858826E+01  0.86705213856E+01  0.51100000000E-03 0.  1.
         12    1    3    3    0    0 -0.44391168133E+01  0.14090507882E+02  0.25294563308E+02  0.29292714169E+02  0.00000000000E+00 0. -1.
</event>
<event>
 7    1  0.6726285E-013  0.5052885E+02  0.7816164E-02  0.1300439E+00
        -11   -1    0    0    0    0  0.00000000000E+00  0.00000000000E+00  0.45593999997E+02  0.45594000000E+02  0.51100000000E-03 0.  1.
         11   -1    0    0    0    0 -0.00000000000E+00 -0.00000000000E+00 -0.45593999997E+02  0.45594000000E+02  0.51100000000E-03 0. -1.
    9900012    2    1    2    0    0 -0.14449749627E+02  0.30742814808E+02  0.22343907482E+02  0.50528854311E+02  0.29999983165E+02 0.  0.
         12    1    1    2    0    0  0.14449749627E+02 -0.30742814808E+02 -0.22343907482E+02  0.40659145689E+02  0.00000000000E+00 0. -1.
         11    1    3    3    0    0 -0.32368451137E+01  0.26880982087E+00  0.54226623647E+01  0.63209724246E+01  0.51100000000E-03 0. -1.
        -11    1    3    3    0    0  0.36627266258E+01  0.20153516618E+01  0.10714987771E+02  0.11501659526E+02  0.51100000000E-03 0.  1.
         12    1    3    3    0    0 -0.14875631139E+02  0.28458653325E+02  0.62062573460E+01  0.32706222361E+02  0.00000000000E+00 0. -1.
</event>
<event>
 7    1  0.6726285E-013  0.5052887E+02  0.7816164E-02  0.1300439E+00
        -11   -1    0    0    0    0  0.00000000000E+00  0.00000000000E+00  0.45593999997E+02  0.45594000000E+02  0.51100000000E-03 0. -1.
         11   -1    0    0    0    0 -0.00000000000E+00 -0.00000000000E+00 -0.45593999997E+02  0.45594000000E+02  0.51100000000E-03 0.  1.
    9900012    2    1    2    0    0 -0.13043177858E+01 -0.32816822885E+02 -0.23969145473E+02  0.50528867646E+02  0.30000023696E+02 0.  0.
         12    1    1    2    0    0  0.13043177858E+01  0.32816822885E+02  0.23969145473E+02  0.40659132354E+02  0.00000000000E+00 0. -1.
         11    1    3    3    0    0  0.72381000277E+00 -0.17789175745E+02 -0.61076493765E+01  0.18822381778E+02  0.51100000000E-03 0. -1.
        -11    1    3    3    0    0 -0.59901800486E+01 -0.17649106023E+02 -0.19212450642E+02  0.26767358113E+02  0.51100000000E-03 0.  1.
         12    1    3    3    0    0  0.39620522600E+01  0.26214588839E+01  0.13509545460E+01  0.49391277546E+01  0.00000000000E+00 0. -1.
</event>
<event>
 7    1  0.6726285E-013  0.5052886E+02  0.7816164E-02  0.1300439E+00
        -11   -1    0    0    0    0  0.00000000000E+00  0.00000000000E+00  0.45593999997E+02  0.45594000000E+02  0.51100000000E-03 0.  1.
         11   -1    0    0    0    0 -0.00000000000E+00 -0.00000000000E+00 -0.45593999997E+02  0.45594000000E+02  0.51100000000E-03 0. -1.
    9900012    2    1    2    0    0  0.25354437757E+01  0.37326736586E+02  0.15920172760E+02  0.50528860314E+02  0.30000001410E+02 0.  0.
         12    1    1    2    0    0 -0.25354437757E+01 -0.37326736586E+02 -0.15920172760E+02  0.40659139686E+02  0.00000000000E+00 0. -1.
         11    1    3    3    0    0 -0.63725149169E+01  0.12444151834E+02  0.15923789392E+02  0.21190397120E+02  0.51100000000E-03 0. -1.
        -11    1    3    3    0    0 -0.21017605191E+01  0.72796722387E+01  0.33896072529E+01  0.83006302636E+01  0.51100000000E-03 0.  1.
         12    1    3    3    0    0  0.11009719212E+02  0.17602912513E+02 -0.33932238847E+01  0.21037832930E+02  0.00000000000E+00 0. -1.
</event>
<event>
 7    1  0.6726285E-013  0.5052886E+02  0.7816164E-02  0.1300439E+00
        -11   -1    0    0    0    0  0.00000000000E+00  0.00000000000E+00  0.45593999997E+02  0.45594000000E+02  0.51100000000E-03 0.  1.
         11   -1    0    0    0    0 -0.00000000000E+00 -0.00000000000E+00 -0.45593999997E+02  0.45594000000E+02  0.51100000000E-03 0. -1.
    9900012    2    1    2    0    0  0.27225116626E+02 -0.30112906678E+02  0.22740906310E+01  0.50528860657E+02  0.30000002453E+02 0.  0.
         12    1    1    2    0    0 -0.27225116626E+02  0.30112906678E+02 -0.22740906310E+01  0.40659139343E+02  0.00000000000E+00 0. -1.
         11    1    3    3    0    0  0.43966978889E+01  0.15157564762E+01  0.49020863424E+01  0.67571385061E+01  0.51100000000E-03 0. -1.
        -11    1    3    3    0    0  0.18554538198E+02 -0.26263610745E+02  0.60390550797E+01  0.32718776316E+02  0.51100000000E-03 0.  1.
         12    1    3    3    0    0  0.42738805393E+01 -0.53650524099E+01 -0.86670507910E+01  0.11052945835E+02  0.00000000000E+00 0. -1.
</event>
<event>
 7    1  0.6726285E-013  0.5052885E+02  0.7816164E-02  0.1300439E+00
        -11   -1    0    0    0    0  0.00000000000E+00  0.00000000000E+00  0.45593999997E+02  0.45594000000E+02  0.51100000000E-03 0.  1.
         11   -1    0    0    0    0 -0.00000000000E+00 -0.00000000000E+00 -0.45593999997E+02  0.45594000000E+02  0.51100000000E-03 0. -1.
    9900012    2    1    2    0    0 -0.24082725091E+02 -0.30404608606E+02 -0.12196253036E+02  0.50528850225E+02  0.29999970744E+02 0.  0.
         12    1    1    2    0    0  0.24082725091E+02  0.30404608606E+02  0.12196253036E+02  0.40659149775E+02  0.00000000000E+00 0. -1.
         11    1    3    3    0    0 -0.51125929844E+01 -0.11778909340E+02  0.31886779231E-01  0.12840651436E+02  0.51100000000E-03 0. -1.
        -11    1    3    3    0    0  0.64790722789E+00 -0.44106563537E+01  0.59250840216E+01  0.74148698013E+01  0.51100000000E-03 0.  1.
         12    1    3    3    0    0 -0.19618039335E+02 -0.14215042911E+02 -0.18153223837E+02  0.30273328988E+02  0.00000000000E+00 0. -1.
</event>
<event>
 7    1  0.6726285E-013  0.5052886E+02  0.7816164E-02  0.1300439E+00
        -11   -1    0    0    0    0  0.00000000000E+00  0.00000000000E+00  0.45593999997E+02  0.45594000000E+02  0.51100000000E-03 0. -1.
         11   -1    0    0    0    0 -0.00000000000E+00 -0.00000000000E+00 -0.45593999997E+02  0.45594000000E+02  0.51100000000E-03 0.  1.
    9900012    2    1    2    0    0 -0.25242410643E+02 -0.12924361683E+01 -0.31848332276E+02  0.50528856439E+02  0.29999989633E+02 0.  0.
         12    1    1    2    0    0  0.25242410643E+02  0.12924361683E+01  0.31848332276E+02  0.40659143561E+02  0.00000000000E+00 0. -1.
         11    1    3    3    0    0 -0.12207704881E+02  0.68444714155E+01 -0.22349785517E+02  0.26370205922E+02  0.51100000000E-03 0. -1.
        -11    1    3    3    0    0  0.46645510414E+00 -0.42635265812E+01 -0.91536295117E+01  0.10108618737E+02  0.51100000000E-03 0.  1.
         12    1    3    3    0    0 -0.13501160866E+02 -0.38733810027E+01 -0.34491724693E+00  0.14050031781E+02  0.00000000000E+00 0. -1.
</event>
<event>
 7    1  0.6726285E-013  0.5052887E+02  0.7816164E-02  0.1300439E+00
        -11   -1    0    0    0    0  0.00000000000E+00  0.00000000000E+00  0.45593999997E+02  0.45594000000E+02  0.51100000000E-03 0. -1.
         11   -1    0    0    0    0 -0.00000000000E+00 -0.00000000000E+00 -0.45593999997E+02  0.45594000000E+02  0.51100000000E-03 0.  1.
    9900012    2    1    2    0    0 -0.36364538422E+02  0.91594177686E+01 -0.15712744690E+02  0.50528868993E+02  0.30000027791E+02 0.  0.
         12    1    1    2    0    0  0.36364538422E+02 -0.91594177686E+01  0.15712744690E+02  0.40659131007E+02  0.00000000000E+00 0. -1.
         11    1    3    3    0    0 -0.81219906850E+01  0.10810744578E+02 -0.49955192488E+01  0.14415066557E+02  0.51100000000E-03 0. -1.
        -11    1    3    3    0    0 -0.34523312252E+01  0.44084220085E+01 -0.89183027022E+01  0.10530379805E+02  0.51100000000E-03 0.  1.
        -12    1    3    3    0    0 -0.24790216512E+02 -0.60597488182E+01 -0.17989227394E+01  0.25583422630E+02  0.00000000000E+00 0.  1.
</event>
<event>
 7    1  0.6726285E-013  0.5052887E+02  0.7816164E-02  0.1300439E+00
        -11   -1    0    0    0    0  0.00000000000E+00  0.00000000000E+00  0.45593999997E+02  0.45594000000E+02  0.51100000000E-03 0.  1.
         11   -1    0    0    0    0 -0.00000000000E+00 -0.00000000000E+00 -0.45593999997E+02  0.45594000000E+02  0.51100000000E-03 0. -1.
    9900012    2    1    2    0    0 -0.23368064343E+02 -0.32181736847E+02  0.84518901446E+01  0.50528867390E+02  0.30000022917E+02 0.  0.
         12    1    1    2    0    0  0.23368064343E+02  0.32181736847E+02 -0.84518901446E+01  0.40659132610E+02  0.00000000000E+00 0. -1.
         11    1    3    3    0    0 -0.14342412341E+02 -0.11268106592E+02 -0.73619380133E+01  0.19669091222E+02  0.51100000000E-03 0. -1.
        -11    1    3    3    0    0 -0.95920471186E+01 -0.10062112310E+02  0.33025535420E+01  0.14288468505E+02  0.51100000000E-03 0.  1.
        -12    1    3    3    0    0  0.56639511597E+00 -0.10851517945E+02  0.12511274616E+02  0.16571307663E+02  0.00000000000E+00 0.  1.
</event>
<event>
 7    1  0.6726285E-013  0.5052887E+02  0.7816164E-02  0.1300439E+00
        -11   -1    0    0    0    0  0.00000000000E+00  0.00000000000E+00  0.45593999997E+02  0.45594000000E+02  0.51100000000E-03 0. -1.
         11   -1    0    0    0    0 -0.00000000000E+00 -0.00000000000E+00 -0.45593999997E+02  0.45594000000E+02  0.51100000000E-03 0.  1.
    9900012    2    1    2    0    0 -0.99161395035E+01  0.27873672273E+01 -0.39332759444E+02  0.50528865673E+02  0.30000017699E+02 0.  0.
         12    1    1    2    0    0  0.99161395035E+01 -0.27873672273E+01  0.39332759444E+02  0.40659134327E+02  0.00000000000E+00 0. -1.
         11    1    3    3    0    0 -0.46447158585E+01  0.11458060800E+02 -0.54178204476E+01  0.13498641463E+02  0.51100000000E-03 0. -1.
        -11    1    3    3    0    0  0.13858366735E+01  0.19066172868E+01 -0.59328507282E+01  0.63839212705E+01  0.51100000000E-03 0.  1.
        -12    1    3    3    0    0 -0.66572603185E+01 -0.10577310859E+02 -0.27982088269E+02  0.30646302939E+02  0.00000000000E+00 0.  1.
</event>
<event>
 7    1  0.6726285E-013  0.5052886E+02  0.7816164E-02  0.1300439E+00
        -11   -1    0    0    0    0  0.00000000000E+00  0.00000000000E+00  0.45593999997E+02  0.45594000000E+02  0.51100000000E-03 0.  1.
         11   -1    0    0    0    0 -0.00000000000E+00 -0.00000000000E+00 -0.45593999997E+02  0.45594000000E+02  0.51100000000E-03 0. -1.
    9900012    2    1    2    0    0  0.11988692752E+02 -0.32564975392E+02  0.21188663023E+02  0.50528858139E+02  0.29999994800E+02 0.  0.
         12    1    1    2    0    0 -0.11988692752E+02  0.32564975392E+02 -0.21188663023E+02  0.40659141861E+02  0.00000000000E+00 0. -1.
         11    1    3    3    0    0  0.23702477799E+01 -0.16094419283E+02  0.63654704599E+01  0.17469047513E+02  0.51100000000E-03 0.  1.
        -11    1    3    3    0    0  0.10288010230E+02 -0.10157405499E+02 -0.24440140410E+01  0.14662511581E+02  0.51100000000E-03 0. -1.
        -12    1    3    3    0    0 -0.66956525832E+00 -0.63131506108E+01  0.17267206604E+02  0.18397299045E+02  0.00000000000E+00 0.  1.
</event>
<event>
 7    1  0.6726285E-013  0.5052885E+02  0.7816164E-02  0.1300439E+00
        -11   -1    0    0    0    0  0.00000000000E+00  0.00000000000E+00  0.45593999997E+02  0.45594000000E+02  0.51100000000E-03 0.  1.
         11   -1    0    0    0    0 -0.00000000000E+00 -0.00000000000E+00 -0.45593999997E+02  0.45594000000E+02  0.51100000000E-03 0. -1.
    9900012    2    1    2    0    0  0.90195899867E+01  0.16316348569E+02  0.36132946842E+02  0.50528854883E+02  0.29999984902E+02 0.  0.
         12    1    1    2    0    0 -0.90195899867E+01 -0.16316348569E+02 -0.36132946842E+02  0.40659145117E+02  0.00000000000E+00 0. -1.
         11    1    3    3    0    0 -0.17596597275E+01 -0.35559388265E+01  0.14711448691E+01  0.42314738309E+01  0.51100000000E-03 0. -1.
        -11    1    3    3    0    0 -0.23146485655E+01  0.16574815814E+02  0.23073163200E+02  0.28503560788E+02  0.51100000000E-03 0.  1.
         12    1    3    3    0    0  0.13093898280E+02  0.32974715815E+01  0.11588638773E+02  0.17793820264E+02  0.00000000000E+00 0. -1.
</event>
<event>
 7    1  0.6726285E-013  0.5052885E+02  0.7816164E-02  0.1300439E+00
        -11   -1    0    0    0    0  0.00000000000E+00  0.00000000000E+00  0.45593999997E+02  0.45594000000E+02  0.51100000000E-03 0.  1.
         11   -1    0    0    0    0 -0.00000000000E+00 -0.00000000000E+00 -0.45593999997E+02  0.45594000000E+02  0.51100000000E-03 0. -1.
    9900012    2    1    2    0    0 -0.24063730954E+02 -0.32615758930E+02  0.32117937594E+01  0.50528849774E+02  0.29999969373E+02 0.  0.
         12    1    1    2    0    0  0.24063730954E+02  0.32615758930E+02 -0.32117937594E+01  0.40659150226E+02  0.00000000000E+00 0. -1.
         11    1    3    3    0    0 -0.10964597760E+02 -0.18394997238E+02 -0.90892827519E+01  0.23263993394E+02  0.51100000000E-03 0. -1.
        -11    1    3    3    0    0  0.26381749119E+01 -0.44153650557E+01  0.54597159025E+01  0.75009275052E+01  0.51100000000E-03 0.  1.
        -12    1    3    3    0    0 -0.15737308105E+02 -0.98053966359E+01  0.68413606088E+01  0.19763928875E+02  0.00000000000E+00 0.  1.
</event>
<event>
 7    1  0.6726285E-013  0.5052885E+02  0.7816164E-02  0.1300439E+00
        -11   -1    0    0    0    0  0.00000000000E+00  0.00000000000E+00  0.45593999997E+02  0.45594000000E+02  0.51100000000E-03 0.  1.
         11   -1    0    0    0    0 -0.00000000000E+00 -0.00000000000E+00 -0.45593999997E+02  0.45594000000E+02  0.51100000000E-03 0. -1.
    9900012    2    1    2    0    0 -0.39260519410E+02  0.59228208491E+01  0.87577415942E+01  0.50528853071E+02  0.29999979394E+02 0.  0.
         12    1    1    2    0    0  0.39260519410E+02 -0.59228208491E+01 -0.87577415942E+01  0.40659146929E+02  0.00000000000E+00 0. -1.
         11    1    3    3    0    0 -0.19147412670E+01  0.35190470565E+01  0.72407817533E+01  0.82751946784E+01  0.51100000000E-03 0. -1.
        -11    1    3    3    0    0 -0.85468038899E+00 -0.21708863487E+01  0.47936398211E+01  0.53312483624E+01  0.51100000000E-03 0.  1.
        -12    1    3    3    0    0 -0.36491097754E+02  0.45746601412E+01 -0.32766799801E+01  0.36922410030E+02  0.00000000000E+00 0.  1.
</event>
<event>
 7    1  0.6911338E-013  0.5052886E+02  0.7816164E-02  0.1300439E+00
        -11   -1    0    0    0    0  0.00000000000E+00  0.00000000000E+00  0.45593999997E+02  0.45594000000E+02  0.51100000000E-03 0. -1.
         11   -1    0    0    0    0 -0.00000000000E+00 -0.00000000000E+00 -0.45593999997E+02  0.45594000000E+02  0.51100000000E-03 0.  1.
    9900012    2    1    2    0    0 -0.74747949085E+00  0.14940651026E+02 -0.37807189241E+02  0.50528864040E+02  0.30000012737E+02 0.  0.
         12    1    1    2    0    0  0.74747949085E+00 -0.14940651026E+02  0.37807189241E+02  0.40659135960E+02  0.00000000000E+00 0. -1.
         11    1    3    3    0    0 -0.44253798839E+01  0.58669345212E+01 -0.75350221794E+01  0.10525277540E+02  0.51100000000E-03 0. -1.
        -11    1    3    3    0    0  0.27881612277E+01  0.16801339519E+02 -0.14301978448E+02  0.22239726627E+02  0.51100000000E-03 0.  1.
         12    1    3    3    0    0  0.88973916533E+00 -0.77276230143E+01 -0.15970188614E+02  0.17763859873E+02  0.00000000000E+00 0. -1.
</event>
<event>
 7    1  0.6726285E-013  0.5052885E+02  0.7816164E-02  0.1300439E+00
        -11   -1    0    0    0    0  0.00000000000E+00  0.00000000000E+00  0.45593999997E+02  0.45594000000E+02  0.51100000000E-03 0.  1.
         11   -1    0    0    0    0 -0.00000000000E+00 -0.00000000000E+00 -0.45593999997E+02  0.45594000000E+02  0.51100000000E-03 0. -1.
    9900012    2    1    2    0    0  0.40591043847E+02  0.21883096797E+01 -0.86332136798E+00  0.50528845266E+02  0.29999955671E+02 0.  0.
         12    1    1    2    0    0 -0.40591043847E+02 -0.21883096797E+01  0.86332136798E+00  0.40659154734E+02  0.00000000000E+00 0. -1.
         11    1    3    3    0    0  0.16909631827E+02  0.43341376570E+01  0.53489037244E+01  0.18257359313E+02  0.51100000000E-03 0. -1.
        -11    1    3    3    0    0  0.13208853182E+02  0.62549391723E+01  0.42838875481E+01  0.15229896888E+02  0.51100000000E-03 0.  1.
         12    1    3    3    0    0  0.10472558839E+02 -0.84007671497E+01 -0.10496112640E+02  0.17041589066E+02  0.00000000000E+00 0. -1.
</event>
<event>
 7    1  0.6752921E-013  0.5052885E+02  0.7816164E-02  0.1300439E+00
        -11   -1    0    0    0    0  0.00000000000E+00  0.00000000000E+00  0.45593999997E+02  0.45594000000E+02  0.51100000000E-03 0. -1.
         11   -1    0    0    0    0 -0.00000000000E+00 -0.00000000000E+00 -0.45593999997E+02  0.45594000000E+02  0.51100000000E-03 0.  1.
    9900012    2    1    2    0    0  0.12200637113E+02 -0.14474251076E+02 -0.35983421376E+02  0.50528854607E+02  0.29999984064E+02 0.  0.
         12    1    1    2    0    0 -0.12200637113E+02  0.14474251076E+02  0.35983421376E+02  0.40659145393E+02  0.00000000000E+00 0. -1.
         11    1    3    3    0    0  0.57849244931E+01  0.38370781478E+01 -0.68759812450E+01  0.97707542414E+01  0.51100000000E-03 0. -1.
        -11    1    3    3    0    0  0.72878659746E+01 -0.18874161923E+02 -0.31902123817E+02  0.37776877625E+02  0.51100000000E-03 0.  1.
         12    1    3    3    0    0 -0.87215335467E+00  0.56283269948E+00  0.27946836866E+01  0.29812227408E+01  0.00000000000E+00 0. -1.
</event>
<event>
 7    1  0.6726285E-013  0.5052886E+02  0.7816164E-02  0.1300439E+00
        -11   -1    0    0    0    0  0.00000000000E+00  0.00000000000E+00  0.45593999997E+02  0.45594000000E+02  0.51100000000E-03 0.  1.
         11   -1    0    0    0    0 -0.00000000000E+00 -0.00000000000E+00 -0.45593999997E+02  0.45594000000E+02  0.51100000000E-03 0. -1.
    9900012    2    1    2    0    0 -0.29861667689E+01 -0.27294407707E+02  0.29987726051E+02  0.50528860834E+02  0.30000002990E+02 0.  0.
         12    1    1    2    0    0  0.29861667689E+01  0.27294407707E+02 -0.29987726051E+02  0.40659139166E+02  0.00000000000E+00 0. -1.
         11    1    3    3    0    0  0.18840662812E+01 -0.10560227874E+02 -0.29164207061E+01  0.11116367595E+02  0.51100000000E-03 0. -1.
        -11    1    3    3    0    0 -0.99792470573E+00 -0.13451433131E+02  0.12512218043E+02  0.18398165877E+02  0.51100000000E-03 0.  1.
        -12    1    3    3    0    0 -0.38723083444E+01 -0.32827467015E+01  0.20391928714E+02  0.21014327362E+02  0.00000000000E+00 0.  1.
</event>
<event>
 7    1  0.6726285E-013  0.5052886E+02  0.7816164E-02  0.1300439E+00
        -11   -1    0    0    0    0  0.00000000000E+00  0.00000000000E+00  0.45593999997E+02  0.45594000000E+02  0.51100000000E-03 0. -1.
         11   -1    0    0    0    0 -0.00000000000E+00 -0.00000000000E+00 -0.45593999997E+02  0.45594000000E+02  0.51100000000E-03 0.  1.
    9900012    2    1    2    0    0  0.40572060883E+02 -0.26547592551E+01 -0.16063994416E+00  0.50528859869E+02  0.30000000059E+02 0.  0.
         12    1    1    2    0    0 -0.40572060883E+02  0.26547592551E+01  0.16063994416E+00  0.40659140131E+02  0.00000000000E+00 0. -1.
         11    1    3    3    0    0  0.89142807599E+01 -0.70430625842E+01  0.43347793005E+01  0.12159746867E+02  0.51100000000E-03 0. -1.
        -11    1    3    3    0    0  0.79217238860E+01  0.56208090950E+01  0.69944815949E+01  0.11969543736E+02  0.51100000000E-03 0.  1.
        -12    1    3    3    0    0  0.23736056237E+02 -0.12325057659E+01 -0.11489900839E+02  0.26399569266E+02  0.00000000000E+00 0.  1.
</event>
<event>
 7    1  0.6726285E-013  0.5052887E+02  0.7816164E-02  0.1300439E+00
        -11   -1    0    0    0    0  0.00000000000E+00  0.00000000000E+00  0.45593999997E+02  0.45594000000E+02  0.51100000000E-03 0. -1.
         11   -1    0    0    0    0 -0.00000000000E+00 -0.00000000000E+00 -0.45593999997E+02  0.45594000000E+02  0.51100000000E-03 0.  1.
    9900012    2    1    2    0    0  0.37293428647E+00  0.38000462764E+02 -0.14456520916E+02  0.50528865143E+02  0.30000016090E+02 0.  0.
         12    1    1    2    0    0 -0.37293428647E+00 -0.38000462764E+02  0.14456520916E+02  0.40659134857E+02  0.00000000000E+00 0. -1.
         11    1    3    3    0    0 -0.55520581102E+01  0.22245815020E+02 -0.49283164267E+00  0.22933480295E+02  0.51100000000E-03 0. -1.
        -11    1    3    3    0    0  0.72486263494E-01  0.15733760539E+02 -0.14898740222E+02  0.21668616370E+02  0.51100000000E-03 0.  1.
        -12    1    3    3    0    0  0.58525061332E+01  0.20887205652E-01  0.93505094819E+00  0.59267684779E+01  0.00000000000E+00 0.  1.
</event>
<event>
 7    1  0.6726285E-013  0.5052887E+02  0.7816164E-02  0.1300439E+00
        -11   -1    0    0    0    0  0.00000000000E+00  0.00000000000E+00  0.45593999997E+02  0.45594000000E+02  0.51100000000E-03 0. -1.
         11   -1    0    0    0    0 -0.00000000000E+00 -0.00000000000E+00 -0.45593999997E+02  0.45594000000E+02  0.51100000000E-03 0.  1.
    9900012    2    1    2    0    0 -0.16742694169E+02  0.13277675024E+01 -0.37028148791E+02  0.50528873380E+02  0.30000041126E+02 0.  0.
         12    1    1    2    0    0  0.16742694169E+02 -0.13277675024E+01  0.37028148791E+02  0.40659126620E+02  0.00000000000E+00 0. -1.
         11    1    3    3    0    0 -0.19103683896E+02  0.79680444957E+00 -0.16945683830E+02  0.25548812819E+02  0.51100000000E-03 0. -1.
        -11    1    3    3    0    0  0.40895425315E+00 -0.58040927745E+01 -0.16389816948E+02  0.17391976206E+02  0.51100000000E-03 0.  1.
        -12    1    3    3    0    0  0.19520354739E+01  0.63350558273E+01 -0.36926480134E+01  0.75880843549E+01  0.00000000000E+00 0.  1.
</event>
<event>
 7    1  0.6726285E-013  0.5052885E+02  0.7816164E-02  0.1300439E+00
        -11   -1    0    0    0    0  0.00000000000E+00  0.00000000000E+00  0.45593999997E+02  0.45594000000E+02  0.51100000000E-03 0. -1.
         11   -1    0    0    0    0 -0.00000000000E+00 -0.00000000000E+00 -0.45593999997E+02  0.45594000000E+02  0.51100000000E-03 0.  1.
    9900012    2    1    2    0    0  0.17845011107E+02 -0.36046778318E+02 -0.59457155408E+01  0.50528853651E+02  0.29999981158E+02 0.  0.
         12    1    1    2    0    0 -0.17845011107E+02  0.36046778318E+02  0.59457155408E+01  0.40659146349E+02  0.00000000000E+00 0. -1.
         11    1    3    3    0    0 -0.14426483268E+01  0.13351302828E+00 -0.56976371748E+01  0.58789565027E+01  0.51100000000E-03 0. -1.
        -11    1    3    3    0    0  0.36700567948E+01 -0.25298785244E+02  0.91297255830E+00  0.25579901698E+02  0.51100000000E-03 0.  1.
        -12    1    3    3    0    0  0.15617602639E+02 -0.10881506102E+02 -0.11610509243E+01  0.19069995451E+02  0.00000000000E+00 0.  1.
</event>
<event>
 7    1  0.6726285E-013  0.5052886E+02  0.7816164E-02  0.1300439E+00
        -11   -1    0    0    0    0  0.00000000000E+00  0.00000000000E+00  0.45593999997E+02  0.45594000000E+02  0.51100000000E-03 0.  1.
         11   -1    0    0    0    0 -0.00000000000E+00 -0.00000000000E+00 -0.45593999997E+02  0.45594000000E+02  0.51100000000E-03 0. -1.
    9900012    2    1    2    0    0  0.12017810525E+02  0.10851668791E+02  0.37295837921E+02  0.50528855744E+02  0.29999987520E+02 0.  0.
         12    1    1    2    0    0 -0.12017810525E+02 -0.10851668791E+02 -0.37295837921E+02  0.40659144256E+02  0.00000000000E+00 0. -1.
         11    1    3    3    0    0  0.35628116432E+00  0.15350091255E+01  0.88989089868E+01  0.90373541870E+01  0.51100000000E-03 0. -1.
        -11    1    3    3    0    0  0.93055336347E+01 -0.74936774756E+01  0.17940234297E+02  0.21554585713E+02  0.51100000000E-03 0.  1.
         12    1    3    3    0    0  0.23559957263E+01  0.16810337141E+02  0.10456694637E+02  0.19936915845E+02  0.00000000000E+00 0. -1.
</event>
<event>
 7    1  0.6726285E-013  0.5052887E+02  0.7816164E-02  0.1300439E+00
        -11   -1    0    0    0    0  0.00000000000E+00  0.00000000000E+00  0.45593999997E+02  0.45594000000E+02  0.51100000000E-03 0.  1.
         11   -1    0    0    0    0 -0.00000000000E+00 -0.00000000000E+00 -0.45593999997E+02  0.45594000000E+02  0.51100000000E-03 0. -1.
    9900012    2    1    2    0    0  0.58754471967E+01  0.34391740424E+02  0.20877080263E+02  0.50528866100E+02  0.30000018999E+02 0.  0.
         12    1    1    2    0    0 -0.58754471967E+01 -0.34391740424E+02 -0.20877080263E+02  0.40659133900E+02  0.00000000000E+00 0. -1.
         11    1    3    3    0    0  0.26435869525E+01  0.19991010184E+02  0.56127560287E+01  0.20931604588E+02  0.51100000000E-03 0. -1.
        -11    1    3    3    0    0  0.11931556668E+02  0.10150218250E+02  0.98353825718E+01  0.18496586865E+02  0.51100000000E-03 0.  1.
         12    1    3    3    0    0 -0.86996964242E+01  0.42505119909E+01  0.54289416625E+01  0.11100674648E+02  0.00000000000E+00 0. -1.
</event>
<event>
 7    1  0.6726285E-013  0.5052886E+02  0.7816164E-02  0.1300439E+00
        -11   -1    0    0    0    0  0.00000000000E+00  0.00000000000E+00  0.45593999997E+02  0.45594000000E+02  0.51100000000E-03 0. -1.
         11   -1    0    0    0    0 -0.00000000000E+00 -0.00000000000E+00 -0.45593999997E+02  0.45594000000E+02  0.51100000000E-03 0.  1.
    9900012    2    1    2    0    0  0.50013135547E+01  0.36710750495E+02 -0.16747336474E+02  0.50528860583E+02  0.30000002227E+02 0.  0.
         12    1    1    2    0    0 -0.50013135547E+01 -0.36710750495E+02  0.16747336474E+02  0.40659139417E+02  0.00000000000E+00 0. -1.
         11    1    3    3    0    0  0.53103045666E+01 -0.27385252736E+01  0.20325533954E+00  0.59783081435E+01  0.51100000000E-03 0. -1.
        -11    1    3    3    0    0  0.35487032301E+01  0.22123259445E+02 -0.44590629534E+01  0.22845462258E+02  0.51100000000E-03 0.  1.
        -12    1    3    3    0    0 -0.38576942420E+01  0.17326016324E+02 -0.12491528860E+02  0.21705090182E+02  0.00000000000E+00 0.  1.
</event>
<event>
 7    1  0.6726285E-013  0.5052886E+02  0.7816164E-02  0.1300439E+00
        -11   -1    0    0    0    0  0.00000000000E+00  0.00000000000E+00  0.45593999997E+02  0.45594000000E+02  0.51100000000E-03 0.  1.
         11   -1    0    0    0    0 -0.00000000000E+00 -0.00000000000E+00 -0.45593999997E+02  0.45594000000E+02  0.51100000000E-03 0. -1.
    9900012    2    1    2    0    0  0.43288345445E+01 -0.27565561154E+02  0.29573070775E+02  0.50528862216E+02  0.30000007193E+02 0.  0.
         12    1    1    2    0    0 -0.43288345445E+01  0.27565561154E+02 -0.29573070775E+02  0.40659137784E+02  0.00000000000E+00 0. -1.
         11    1    3    3    0    0  0.51666145050E+01 -0.12218117623E+02  0.17895961894E+02  0.22276484374E+02  0.51100000000E-03 0.  1.
        -11    1    3    3    0    0  0.66262820601E+01  0.18019440261E+01  0.17891995993E+01  0.70961857135E+01  0.51100000000E-03 0. -1.
         12    1    3    3    0    0 -0.74640620206E+01 -0.17149387557E+02  0.98879092818E+01  0.21156192129E+02  0.00000000000E+00 0. -1.
</event>
<event>
 7    1  0.6726285E-013  0.5052886E+02  0.7816164E-02  0.1300439E+00
        -11   -1    0    0    0    0  0.00000000000E+00  0.00000000000E+00  0.45593999997E+02  0.45594000000E+02  0.51100000000E-03 0. -1.
         11   -1    0    0    0    0 -0.00000000000E+00 -0.00000000000E+00 -0.45593999997E+02  0.45594000000E+02  0.51100000000E-03 0.  1.
    9900012    2    1    2    0    0  0.10798860541E+02  0.33494707731E+02 -0.20363080065E+02  0.50528857551E+02  0.29999993012E+02 0.  0.
         12    1    1    2    0    0 -0.10798860541E+02 -0.33494707731E+02  0.20363080065E+02  0.40659142449E+02  0.00000000000E+00 0. -1.
         11    1    3    3    0    0 -0.62625531374E+01  0.17248052137E+02 -0.51729235340E+01  0.19064994426E+02  0.51100000000E-03 0. -1.
        -11    1    3    3    0    0 -0.13648033819E+01  0.62091570633E+01 -0.52536539788E+01  0.82472540944E+01  0.51100000000E-03 0.  1.
        -12    1    3    3    0    0  0.18426217061E+02  0.10037498531E+02 -0.99365025521E+01  0.23216609031E+02  0.00000000000E+00 0.  1.
</event>
<event>
 7    1  0.6726285E-013  0.5052885E+02  0.7816164E-02  0.1300439E+00
        -11   -1    0    0    0    0  0.00000000000E+00  0.00000000000E+00  0.45593999997E+02  0.45594000000E+02  0.51100000000E-03 0.  1.
         11   -1    0    0    0    0 -0.00000000000E+00 -0.00000000000E+00 -0.45593999997E+02  0.45594000000E+02  0.51100000000E-03 0. -1.
    9900012    2    1    2    0    0 -0.20150401583E+02  0.33121974433E+02  0.12249994373E+02  0.50528852980E+02  0.29999979118E+02 0.  0.
         12    1    1    2    0    0  0.20150401583E+02 -0.33121974433E+02 -0.12249994373E+02  0.40659147020E+02  0.00000000000E+00 0. -1.
         11    1    3    3    0    0 -0.46086094385E+01  0.69913753580E+01 -0.36051945887E+01  0.91167998023E+01  0.51100000000E-03 0. -1.
        -11    1    3    3    0    0  0.27336205773E+00  0.18612154740E+02  0.13317382719E+01  0.18661740486E+02  0.51100000000E-03 0.  1.
        -12    1    3    3    0    0 -0.15815154202E+02  0.75184443347E+01  0.14523450690E+02  0.22750312692E+02  0.00000000000E+00 0.  1.
</event>
<event>
 7    1  0.6726285E-013  0.5052885E+02  0.7816164E-02  0.1300439E+00
        -11   -1    0    0    0    0  0.00000000000E+00  0.00000000000E+00  0.45593999997E+02  0.45594000000E+02  0.51100000000E-03 0.  1.
         11   -1    0    0    0    0 -0.00000000000E+00 -0.00000000000E+00 -0.45593999997E+02  0.45594000000E+02  0.51100000000E-03 0. -1.
    9900012    2    1    2    0    0 -0.48215161289E+01 -0.32961807406E+02  0.23311764754E+02  0.50528854150E+02  0.29999982675E+02 0.  0.
         12    1    1    2    0    0  0.48215161289E+01  0.32961807406E+02 -0.23311764754E+02  0.40659145850E+02  0.00000000000E+00 0. -1.
         11    1    3    3    0    0  0.41175014348E+01 -0.63299785168E+01 -0.14014693587E+00  0.75526212346E+01  0.51100000000E-03 0. -1.
        -11    1    3    3    0    0 -0.25041466973E+01 -0.13303447616E+01 -0.41225283449E+01  0.50035795269E+01  0.51100000000E-03 0.  1.
        -12    1    3    3    0    0 -0.64348708664E+01 -0.25301484128E+02  0.27574440035E+02  0.37972653389E+02  0.00000000000E+00 0.  1.
</event>
<event>
 7    1  0.6726285E-013  0.5052886E+02  0.7816164E-02  0.1300439E+00
        -11   -1    0    0    0    0  0.00000000000E+00  0.00000000000E+00  0.45593999997E+02  0.45594000000E+02  0.51100000000E-03 0.  1.
         11   -1    0    0    0    0 -0.00000000000E+00 -0.00000000000E+00 -0.45593999997E+02  0.45594000000E+02  0.51100000000E-03 0. -1.
    9900012    2    1    2    0    0 -0.22332254707E+02 -0.20820151033E+02  0.26850654905E+02  0.50528856401E+02  0.29999989518E+02 0.  0.
         12    1    1    2    0    0  0.22332254707E+02  0.20820151033E+02 -0.26850654905E+02  0.40659143599E+02  0.00000000000E+00 0. -1.
         11    1    3    3    0    0 -0.71942420270E+00 -0.67772167827E+01 -0.23685323491E+01  0.72151357751E+01  0.51100000000E-03 0. -1.
        -11    1    3    3    0    0 -0.10533456321E+02 -0.47020329309E+01  0.98444426386E+00  0.11577216700E+02  0.51100000000E-03 0.  1.
        -12    1    3    3    0    0 -0.11079374184E+02 -0.93409013196E+01  0.28234742990E+02  0.31736503926E+02  0.00000000000E+00 0.  1.
</event>
<event>
 7    1  0.6726285E-013  0.5052887E+02  0.7816164E-02  0.1300439E+00
        -11   -1    0    0    0    0  0.00000000000E+00  0.00000000000E+00  0.45593999997E+02  0.45594000000E+02  0.51100000000E-03 0.  1.
         11   -1    0    0    0    0 -0.00000000000E+00 -0.00000000000E+00 -0.45593999997E+02  0.45594000000E+02  0.51100000000E-03 0. -1.
    9900012    2    1    2    0    0  0.63401082763E+01 -0.69175033188E+01  0.39561544217E+02  0.50528873030E+02  0.30000040063E+02 0.  0.
         12    1    1    2    0    0 -0.63401082763E+01  0.69175033188E+01 -0.39561544217E+02  0.40659126970E+02  0.00000000000E+00 0. -1.
         11    1    3    3    0    0  0.21735351186E+01 -0.10669075871E+01 -0.31493572281E+01  0.39725304181E+01  0.51100000000E-03 0. -1.
        -11    1    3    3    0    0 -0.40238315518E+01 -0.25455726837E-01  0.17632789593E+01  0.43932927629E+01  0.51100000000E-03 0.  1.
        -12    1    3    3    0    0  0.81904047095E+01 -0.58251400048E+01  0.40947622486E+02  0.42163049849E+02  0.00000000000E+00 0.  1.
</event>
<event>
 7    1  0.6726285E-013  0.5052886E+02  0.7816164E-02  0.1300439E+00
        -11   -1    0    0    0    0  0.00000000000E+00  0.00000000000E+00  0.45593999997E+02  0.45594000000E+02  0.51100000000E-03 0.  1.
         11   -1    0    0    0    0 -0.00000000000E+00 -0.00000000000E+00 -0.45593999997E+02  0.45594000000E+02  0.51100000000E-03 0. -1.
    9900012    2    1    2    0    0  0.68621566522E+01 -0.34883467003E+02  0.19728663174E+02  0.50528860625E+02  0.30000002355E+02 0.  0.
         12    1    1    2    0    0 -0.68621566522E+01  0.34883467003E+02 -0.19728663174E+02  0.40659139375E+02  0.00000000000E+00 0. -1.
         11    1    3    3    0    0  0.60102599971E+01 -0.81324614719E+00 -0.16704360147E+01  0.62908625219E+01  0.51100000000E-03 0. -1.
        -11    1    3    3    0    0  0.87485092281E+01 -0.20312667984E+02  0.81512662012E+01  0.23570830179E+02  0.51100000000E-03 0.  1.
         12    1    3    3    0    0 -0.78966125730E+01 -0.13757552872E+02  0.13247832988E+02  0.20667167924E+02  0.00000000000E+00 0. -1.
</event>
<event>
 7    1  0.6726285E-013  0.5052886E+02  0.7816164E-02  0.1300439E+00
        -11   -1    0    0    0    0  0.00000000000E+00  0.00000000000E+00  0.45593999997E+02  0.45594000000E+02  0.51100000000E-03 0. -1.
         11   -1    0    0    0    0 -0.00000000000E+00 -0.00000000000E+00 -0.45593999997E+02  0.45594000000E+02  0.51100000000E-03 0.  1.
    9900012    2    1    2    0    0 -0.40280987010E+02  0.50562623802E+01 -0.22453667128E+01  0.50528863568E+02  0.30000011300E+02 0.  0.
         12    1    1    2    0    0  0.40280987010E+02 -0.50562623802E+01  0.22453667128E+01  0.40659136432E+02  0.00000000000E+00 0. -1.
         11    1    3    3    0    0 -0.31496736871E+02 -0.52154516907E+01  0.12567945776E+01  0.31950350589E+02  0.51100000000E-03 0.  1.
        -11    1    3    3    0    0 -0.21720131542E-01  0.33044183818E+01  0.39349502407E+01  0.51384322769E+01  0.51100000000E-03 0. -1.
        -12    1    3    3    0    0 -0.87625300071E+01  0.69672956891E+01 -0.74371115311E+01  0.13440080702E+02  0.00000000000E+00 0.  1.
</event>
<event>
 7    1  0.6726285E-013  0.5052885E+02  0.7816164E-02  0.1300439E+00
        -11   -1    0    0    0    0  0.00000000000E+00  0.00000000000E+00  0.45593999997E+02  0.45594000000E+02  0.51100000000E-03 0.  1.
         11   -1    0    0    0    0 -0.00000000000E+00 -0.00000000000E+00 -0.45593999997E+02  0.45594000000E+02  0.51100000000E-03 0. -1.
    9900012    2    1    2    0    0 -0.15088544003E+02 -0.65436199258E+00  0.37750158814E+02  0.50528845554E+02  0.29999956546E+02 0.  0.
         12    1    1    2    0    0  0.15088544003E+02  0.65436199258E+00 -0.37750158814E+02  0.40659154446E+02  0.00000000000E+00 0. -1.
         11    1    3    3    0    0 -0.44208699817E+01 -0.19774585542E+01  0.63683105883E+01  0.80006133352E+01  0.51100000000E-03 0. -1.
        -11    1    3    3    0    0 -0.75889508552E+01 -0.11891489809E+02  0.21611522101E+02  0.25808091614E+02  0.51100000000E-03 0.  1.
         12    1    3    3    0    0 -0.30787231661E+01  0.13214586370E+02  0.97703261250E+01  0.16720140605E+02  0.00000000000E+00 0. -1.
</event>
<event>
 7    1  0.1112253E-012  0.5052885E+02  0.7816164E-02  0.1300439E+00
        -11   -1    0    0    0    0  0.00000000000E+00  0.00000000000E+00  0.45593999997E+02  0.45594000000E+02  0.51100000000E-03 0. -1.
         11   -1    0    0    0    0 -0.00000000000E+00 -0.00000000000E+00 -0.45593999997E+02  0.45594000000E+02  0.51100000000E-03 0.  1.
    9900012    2    1    2    0    0  0.40408481366E+02 -0.14367976336E+00 -0.45056207558E+01  0.50528848157E+02  0.29999964457E+02 0.  0.
         12    1    1    2    0    0 -0.40408481366E+02  0.14367976336E+00  0.45056207558E+01  0.40659151843E+02  0.00000000000E+00 0. -1.
         11    1    3    3    0    0  0.71328446455E+01 -0.80508787813E+01 -0.19621661680E+01  0.10933627862E+02  0.51100000000E-03 0. -1.
        -11    1    3    3    0    0  0.22660587837E+02 -0.44724982294E+01 -0.29317098202E+01  0.23283049720E+02  0.51100000000E-03 0.  1.
         12    1    3    3    0    0  0.10615048883E+02  0.12379697247E+02  0.38825523232E+00  0.16312170575E+02  0.00000000000E+00 0. -1.
</event>
<event>
 7    1  0.6726285E-013  0.5052884E+02  0.7816164E-02  0.1300439E+00
        -11   -1    0    0    0    0  0.00000000000E+00  0.00000000000E+00  0.45593999997E+02  0.45594000000E+02  0.51100000000E-03 0. -1.
         11   -1    0    0    0    0 -0.00000000000E+00 -0.00000000000E+00 -0.45593999997E+02  0.45594000000E+02  0.51100000000E-03 0.  1.
    9900012    2    1    2    0    0  0.28271593772E+02 -0.76491447323E+01 -0.28202392305E+02  0.50528839147E+02  0.29999937072E+02 0.  0.
         12    1    1    2    0    0 -0.28271593772E+02  0.76491447323E+01  0.28202392305E+02  0.40659160853E+02  0.00000000000E+00 0. -1.
         11    1    3    3    0    0  0.21318543139E+02  0.10282133550E+01 -0.16945258191E+02  0.27252142662E+02  0.51100000000E-03 0. -1.
        -11    1    3    3    0    0  0.12516328790E+02 -0.53400720216E+01 -0.93646012073E+01  0.16518795707E+02  0.51100000000E-03 0.  1.
         12    1    3    3    0    0 -0.55632781564E+01 -0.33372860657E+01 -0.18925329064E+01  0.67579007785E+01  0.00000000000E+00 0. -1.
</event>
<event>
 7    1  0.6726285E-013  0.5052887E+02  0.7816164E-02  0.1300439E+00
        -11   -1    0    0    0    0  0.00000000000E+00  0.00000000000E+00  0.45593999997E+02  0.45594000000E+02  0.51100000000E-03 0. -1.
         11   -1    0    0    0    0 -0.00000000000E+00 -0.00000000000E+00 -0.45593999997E+02  0.45594000000E+02  0.51100000000E-03 0.  1.
    9900012    2    1    2    0    0 -0.47857397629E+01  0.79914236028E+01 -0.39577757794E+02  0.50528867344E+02  0.30000022780E+02 0.  0.
         12    1    1    2    0    0  0.47857397629E+01 -0.79914236028E+01  0.39577757794E+02  0.40659132656E+02  0.00000000000E+00 0. -1.
         11    1    3    3    0    0 -0.70797483057E+01  0.39745253308E+01 -0.16294852768E+02  0.18205546261E+02  0.51100000000E-03 0.  1.
        -11    1    3    3    0    0  0.78944852536E+01  0.88544181311E+01 -0.21736728089E+02  0.24763056478E+02  0.51100000000E-03 0. -1.
         12    1    3    3    0    0 -0.56004767108E+01 -0.48375198591E+01 -0.15461769371E+01  0.75602646049E+01  0.00000000000E+00 0. -1.
</event>
<event>
 7    1  0.6726285E-013  0.5052885E+02  0.7816164E-02  0.1300439E+00
        -11   -1    0    0    0    0  0.00000000000E+00  0.00000000000E+00  0.45593999997E+02  0.45594000000E+02  0.51100000000E-03 0.  1.
         11   -1    0    0    0    0 -0.00000000000E+00 -0.00000000000E+00 -0.45593999997E+02  0.45594000000E+02  0.51100000000E-03 0. -1.
    9900012    2    1    2    0    0  0.29890823219E+02 -0.95872658345E+01  0.25841616356E+02  0.50528854476E+02  0.29999983665E+02 0.  0.
         12    1    1    2    0    0 -0.29890823219E+02  0.95872658345E+01 -0.25841616356E+02  0.40659145524E+02  0.00000000000E+00 0. -1.
         11    1    3    3    0    0  0.92891407250E+01 -0.53989569808E+01  0.14987573037E+02  0.18440830179E+02  0.51100000000E-03 0. -1.
        -11    1    3    3    0    0  0.16713696127E+02 -0.10465440571E+02  0.13873154292E+02  0.24110941393E+02  0.51100000000E-03 0.  1.
         12    1    3    3    0    0  0.38879863670E+01  0.62771317176E+01 -0.30191109733E+01  0.79770829041E+01  0.00000000000E+00 0. -1.
</event>
<event>
 7    1  0.6726285E-013  0.5052885E+02  0.7816164E-02  0.1300439E+00
        -11   -1    0    0    0    0  0.00000000000E+00  0.00000000000E+00  0.45593999997E+02  0.45594000000E+02  0.51100000000E-03 0.  1.
         11   -1    0    0    0    0 -0.00000000000E+00 -0.00000000000E+00 -0.45593999997E+02  0.45594000000E+02  0.51100000000E-03 0. -1.
    9900012    2    1    2    0    0 -0.11424751313E+02 -0.23774545991E+02  0.30942089027E+02  0.50528845397E+02  0.29999956070E+02 0.  0.
         12    1    1    2    0    0  0.11424751313E+02  0.23774545991E+02 -0.30942089027E+02  0.40659154603E+02  0.00000000000E+00 0. -1.
         11    1    3    3    0    0  0.37542548020E+01 -0.32246454766E+01  0.10887962413E+01  0.50673706283E+01  0.51100000000E-03 0. -1.
        -11    1    3    3    0    0  0.30626112358E+01  0.20052212179E+01 -0.23319794673E+00  0.36680895924E+01  0.51100000000E-03 0.  1.
        -12    1    3    3    0    0 -0.18241617351E+02 -0.22555121732E+02  0.30086490732E+02  0.41793385177E+02  0.00000000000E+00 0.  1.
</event>
<event>
 7    1  0.6726285E-013  0.5052884E+02  0.7816164E-02  0.1300439E+00
        -11   -1    0    0    0    0  0.00000000000E+00  0.00000000000E+00  0.45593999997E+02  0.45594000000E+02  0.51100000000E-03 0.  1.
         11   -1    0    0    0    0 -0.00000000000E+00 -0.00000000000E+00 -0.45593999997E+02  0.45594000000E+02  0.51100000000E-03 0. -1.
    9900012    2    1    2    0    0 -0.25615569207E+02  0.19932795593E+02  0.24488639074E+02  0.50528841504E+02  0.29999944235E+02 0.  0.
         12    1    1    2    0    0  0.25615569207E+02 -0.19932795593E+02 -0.24488639074E+02  0.40659158496E+02  0.00000000000E+00 0. -1.
         11    1    3    3    0    0 -0.12969592277E+02  0.97481487387E+01  0.23082939481E+01  0.16387951333E+02  0.51100000000E-03 0.  1.
        -11    1    3    3    0    0 -0.51046220239E+01 -0.59371194245E+01  0.43933141198E+01  0.89781825713E+01  0.51100000000E-03 0. -1.
        -12    1    3    3    0    0 -0.75413549052E+01  0.16121766279E+02  0.17787031006E+02  0.25162707600E+02  0.00000000000E+00 0.  1.
</event>
<event>
 7    1  0.6726285E-013  0.5052885E+02  0.7816164E-02  0.1300439E+00
        -11   -1    0    0    0    0  0.00000000000E+00  0.00000000000E+00  0.45593999997E+02  0.45594000000E+02  0.51100000000E-03 0. -1.
         11   -1    0    0    0    0 -0.00000000000E+00 -0.00000000000E+00 -0.45593999997E+02  0.45594000000E+02  0.51100000000E-03 0.  1.
    9900012    2    1    2    0    0 -0.29369422460E+02 -0.41602224822E+01 -0.27808195805E+02  0.50528853666E+02  0.29999981202E+02 0.  0.
         12    1    1    2    0    0  0.29369422460E+02  0.41602224822E+01  0.27808195805E+02  0.40659146334E+02  0.00000000000E+00 0. -1.
         11    1    3    3    0    0 -0.49666697460E+01 -0.42620541516E+01  0.22623348703E+01  0.69246713484E+01  0.51100000000E-03 0. -1.
        -11    1    3    3    0    0 -0.35497186633E+01  0.16437195678E+01  0.26842084898E+01  0.47441850811E+01  0.51100000000E-03 0.  1.
        -12    1    3    3    0    0 -0.20853034050E+02 -0.15418878984E+01 -0.32754739165E+02  0.38859997236E+02  0.00000000000E+00 0.  1.
</event>
<event>
 7    1  0.6726285E-013  0.5052886E+02  0.7816164E-02  0.1300439E+00
        -11   -1    0    0    0    0  0.00000000000E+00  0.00000000000E+00  0.45593999997E+02  0.45594000000E+02  0.51100000000E-03 0.  1.
         11   -1    0    0    0    0 -0.00000000000E+00 -0.00000000000E+00 -0.45593999997E+02  0.45594000000E+02  0.51100000000E-03 0. -1.
    9900012    2    1    2    0    0 -0.40066981108E+02 -0.60268274887E+01  0.33882162592E+01  0.50528860386E+02  0.30000001630E+02 0.  0.
         12    1    1    2    0    0  0.40066981108E+02  0.60268274887E+01 -0.33882162592E+01  0.40659139614E+02  0.00000000000E+00 0. -1.
         11    1    3    3    0    0 -0.16505195917E+02  0.17085723893E+01  0.94816119510E+01  0.19111297113E+02  0.51100000000E-03 0. -1.
        -11    1    3    3    0    0 -0.18689068452E+02 -0.81830611848E+00  0.30567075713E+01  0.18955061750E+02  0.51100000000E-03 0.  1.
         12    1    3    3    0    0 -0.48727167391E+01 -0.69170937596E+01 -0.91501032630E+01  0.12462501523E+02  0.00000000000E+00 0. -1.
</event>
<event>
 7    1  0.6726285E-013  0.5052886E+02  0.7816164E-02  0.1300439E+00
        -11   -1    0    0    0    0  0.00000000000E+00  0.00000000000E+00  0.45593999997E+02  0.45594000000E+02  0.51100000000E-03 0. -1.
         11   -1    0    0    0    0 -0.00000000000E+00 -0.00000000000E+00 -0.45593999997E+02  0.45594000000E+02  0.51100000000E-03 0.  1.
    9900012    2    1    2    0    0  0.19899922873E+02 -0.34695824162E+02 -0.73046869132E+01  0.50528860861E+02  0.30000003072E+02 0.  0.
         12    1    1    2    0    0 -0.19899922873E+02  0.34695824162E+02  0.73046869132E+01  0.40659139139E+02  0.00000000000E+00 0. -1.
         11    1    3    3    0    0  0.52269586880E+01 -0.28978648290E+01  0.10896362631E+01  0.60750329332E+01  0.51100000000E-03 0. -1.
        -11    1    3    3    0    0 -0.11469576747E+01  0.41821990262E+01 -0.51174365575E+00  0.43667130009E+01  0.51100000000E-03 0.  1.
        -12    1    3    3    0    0  0.15819921859E+02 -0.35980158360E+02 -0.78825795206E+01  0.40087114926E+02  0.00000000000E+00 0.  1.
</event>
<event>
 7    1  0.6726285E-013  0.5052886E+02  0.7816164E-02  0.1300439E+00
        -11   -1    0    0    0    0  0.00000000000E+00  0.00000000000E+00  0.45593999997E+02  0.45594000000E+02  0.51100000000E-03 0.  1.
         11   -1    0    0    0    0 -0.00000000000E+00 -0.00000000000E+00 -0.45593999997E+02  0.45594000000E+02  0.51100000000E-03 0. -1.
    9900012    2    1    2    0    0 -0.60405270925E+01  0.14131253461E+02  0.37642862396E+02  0.50528863495E+02  0.30000011080E+02 0.  0.
         12    1    1    2    0    0  0.60405270925E+01 -0.14131253461E+02 -0.37642862396E+02  0.40659136505E+02  0.00000000000E+00 0. -1.
         11    1    3    3    0    0 -0.30577930416E+01  0.67326827094E+01  0.28145907633E+01  0.79120816589E+01  0.51100000000E-03 0. -1.
        -11    1    3    3    0    0 -0.29486905869E+01 -0.79697341673E+01  0.78523143362E+01  0.11570232477E+02  0.51100000000E-03 0.  1.
         12    1    3    3    0    0 -0.34043464023E-01  0.15368304919E+02  0.26975957297E+02  0.31046549359E+02  0.00000000000E+00 0. -1.
</event>
<event>
 7    1  0.6726285E-013  0.5052886E+02  0.7816164E-02  0.1300439E+00
        -11   -1    0    0    0    0  0.00000000000E+00  0.00000000000E+00  0.45593999997E+02  0.45594000000E+02  0.51100000000E-03 0.  1.
         11   -1    0    0    0    0 -0.00000000000E+00 -0.00000000000E+00 -0.45593999997E+02  0.45594000000E+02  0.51100000000E-03 0. -1.
    9900012    2    1    2    0    0  0.35776598575E+02  0.38318963007E+01  0.18934551751E+02  0.50528859762E+02  0.29999999734E+02 0.  0.
         12    1    1    2    0    0 -0.35776598575E+02 -0.38318963007E+01 -0.18934551751E+02  0.40659140238E+02  0.00000000000E+00 0. -1.
         11    1    3    3    0    0  0.52063658391E+01 -0.25684788459E+01 -0.12199944033E+01  0.59322605672E+01  0.51100000000E-03 0. -1.
        -11    1    3    3    0    0  0.11392190397E+01 -0.70528047926E+01  0.57709427799E+01  0.91838802417E+01  0.51100000000E-03 0.  1.
        -12    1    3    3    0    0  0.29431013696E+02  0.13453179939E+02  0.14383603375E+02  0.35412718954E+02  0.00000000000E+00 0.  1.
</event>
<event>
 7    1  0.6726285E-013  0.5052888E+02  0.7816164E-02  0.1300439E+00
        -11   -1    0    0    0    0  0.00000000000E+00  0.00000000000E+00  0.45593999997E+02  0.45594000000E+02  0.51100000000E-03 0. -1.
         11   -1    0    0    0    0 -0.00000000000E+00 -0.00000000000E+00 -0.45593999997E+02  0.45594000000E+02  0.51100000000E-03 0.  1.
    9900012    2    1    2    0    0 -0.34941243101E+02  0.11255900989E+02 -0.17480785785E+02  0.50528884808E+02  0.30000075863E+02 0.  0.
         12    1    1    2    0    0  0.34941243101E+02 -0.11255900989E+02  0.17480785785E+02  0.40659115192E+02  0.00000000000E+00 0. -1.
         11    1    3    3    0    0 -0.80196772114E+00  0.58964247258E+01 -0.41259282610E+01  0.72411505334E+01  0.51100000000E-03 0. -1.
        -11    1    3    3    0    0 -0.70322284012E+00  0.74032187780E+01 -0.42866912983E+01  0.85835827710E+01  0.51100000000E-03 0.  1.
        -12    1    3    3    0    0 -0.33436052540E+02 -0.20437425145E+01 -0.90681662258E+01  0.34704151504E+02  0.00000000000E+00 0.  1.
</event>
<event>
 7    1  0.6726285E-013  0.5052886E+02  0.7816164E-02  0.1300439E+00
        -11   -1    0    0    0    0  0.00000000000E+00  0.00000000000E+00  0.45593999997E+02  0.45594000000E+02  0.51100000000E-03 0.  1.
         11   -1    0    0    0    0 -0.00000000000E+00 -0.00000000000E+00 -0.45593999997E+02  0.45594000000E+02  0.51100000000E-03 0. -1.
    9900012    2    1    2    0    0 -0.35816148782E+02 -0.12616585000E+02  0.14532420222E+02  0.50528856279E+02  0.29999989145E+02 0.  0.
         12    1    1    2    0    0  0.35816148782E+02  0.12616585000E+02 -0.14532420222E+02  0.40659143721E+02  0.00000000000E+00 0. -1.
         11    1    3    3    0    0 -0.20080437299E+02 -0.16344413481E+01 -0.22616574835E+01  0.20273392796E+02  0.51100000000E-03 0. -1.
        -11    1    3    3    0    0 -0.10895551621E+02  0.17707039693E+01  0.45983600924E+01  0.11957982835E+02  0.51100000000E-03 0.  1.
        -12    1    3    3    0    0 -0.48401598615E+01 -0.12752847621E+02  0.12195717613E+02  0.18297480647E+02  0.00000000000E+00 0.  1.
</event>
<event>
 7    1  0.6726285E-013  0.5052886E+02  0.7816164E-02  0.1300439E+00
        -11   -1    0    0    0    0  0.00000000000E+00  0.00000000000E+00  0.45593999997E+02  0.45594000000E+02  0.51100000000E-03 0.  1.
         11   -1    0    0    0    0 -0.00000000000E+00 -0.00000000000E+00 -0.45593999997E+02  0.45594000000E+02  0.51100000000E-03 0. -1.
    9900012    2    1    2    0    0 -0.32937098398E+02 -0.16799342586E+02  0.16914344536E+02  0.50528863102E+02  0.30000009885E+02 0.  0.
         12    1    1    2    0    0  0.32937098398E+02  0.16799342586E+02 -0.16914344536E+02  0.40659136898E+02  0.00000000000E+00 0. -1.
         11    1    3    3    0    0 -0.19955294686E+01 -0.36697175529E+01  0.25082311025E+01  0.48723904096E+01  0.51100000000E-03 0. -1.
        -11    1    3    3    0    0 -0.19222439121E+02 -0.41850841366E+01  0.21630810419E+02  0.29238827860E+02  0.51100000000E-03 0.  1.
         12    1    3    3    0    0 -0.11719129809E+02 -0.89445408966E+01 -0.72246969853E+01  0.16417644833E+02  0.00000000000E+00 0. -1.
</event>
<event>
 7    1  0.6726285E-013  0.5052886E+02  0.7816164E-02  0.1300439E+00
        -11   -1    0    0    0    0  0.00000000000E+00  0.00000000000E+00  0.45593999997E+02  0.45594000000E+02  0.51100000000E-03 0.  1.
         11   -1    0    0    0    0 -0.00000000000E+00 -0.00000000000E+00 -0.45593999997E+02  0.45594000000E+02  0.51100000000E-03 0. -1.
    9900012    2    1    2    0    0 -0.35692059400E+02  0.13002269687E+02  0.14497712258E+02  0.50528858569E+02  0.29999996106E+02 0.  0.
         12    1    1    2    0    0  0.35692059400E+02 -0.13002269687E+02 -0.14497712258E+02  0.40659141431E+02  0.00000000000E+00 0. -1.
         11    1    3    3    0    0 -0.13728990003E+02  0.39876804095E+01  0.52005957107E+01  0.15212920744E+02  0.51100000000E-03 0. -1.
        -11    1    3    3    0    0 -0.27386907503E+02  0.72096727327E+01  0.71399307576E+01  0.29206175631E+02  0.51100000000E-03 0.  1.
         12    1    3    3    0    0  0.54238381063E+01  0.18049165450E+01  0.21571857899E+01  0.61097621942E+01  0.00000000000E+00 0. -1.
</event>
<event>
 7    1  0.6726285E-013  0.5052886E+02  0.7816164E-02  0.1300439E+00
        -11   -1    0    0    0    0  0.00000000000E+00  0.00000000000E+00  0.45593999997E+02  0.45594000000E+02  0.51100000000E-03 0. -1.
         11   -1    0    0    0    0 -0.00000000000E+00 -0.00000000000E+00 -0.45593999997E+02  0.45594000000E+02  0.51100000000E-03 0.  1.
    9900012    2    1    2    0    0 -0.26775517952E+02  0.99656078262E+00 -0.30581767860E+02  0.50528855636E+02  0.29999987192E+02 0.  0.
         12    1    1    2    0    0  0.26775517952E+02 -0.99656078262E+00  0.30581767860E+02  0.40659144364E+02  0.00000000000E+00 0. -1.
         11    1    3    3    0    0 -0.12961991987E+02  0.68171716038E+01 -0.83031223210E+01  0.16835346907E+02  0.51100000000E-03 0. -1.
        -11    1    3    3    0    0 -0.16147384184E+02  0.22469027069E+01 -0.11148446251E+02  0.19750302323E+02  0.51100000000E-03 0.  1.
         12    1    3    3    0    0  0.23338582192E+01 -0.80675135282E+01 -0.11130199288E+02  0.13943206407E+02  0.00000000000E+00 0. -1.
</event>
<event>
 7    1  0.6726285E-013  0.5052887E+02  0.7816164E-02  0.1300439E+00
        -11   -1    0    0    0    0  0.00000000000E+00  0.00000000000E+00  0.45593999997E+02  0.45594000000E+02  0.51100000000E-03 0.  1.
         11   -1    0    0    0    0 -0.00000000000E+00 -0.00000000000E+00 -0.45593999997E+02  0.45594000000E+02  0.51100000000E-03 0. -1.
    9900012    2    1    2    0    0  0.72209335948E-01  0.39366583999E+02  0.10170150565E+02  0.50528866802E+02  0.30000021131E+02 0.  0.
         12    1    1    2    0    0 -0.72209335948E-01 -0.39366583999E+02 -0.10170150565E+02  0.40659133198E+02  0.00000000000E+00 0. -1.
         11    1    3    3    0    0  0.73103885606E+00  0.10742360544E+01  0.32359124117E+01  0.34870518073E+01  0.51100000000E-03 0. -1.
        -11    1    3    3    0    0 -0.27326449323E+01 -0.27830778547E+01  0.43359249811E+01  0.58320765062E+01  0.51100000000E-03 0.  1.
        -12    1    3    3    0    0  0.20738154122E+01  0.41075425799E+02  0.25983131719E+01  0.41209738488E+02  0.00000000000E+00 0.  1.
</event>
<event>
 7    1  0.6726285E-013  0.5052886E+02  0.7816164E-02  0.1300439E+00
        -11   -1    0    0    0    0  0.00000000000E+00  0.00000000000E+00  0.45593999997E+02  0.45594000000E+02  0.51100000000E-03 0.  1.
         11   -1    0    0    0    0 -0.00000000000E+00 -0.00000000000E+00 -0.45593999997E+02  0.45594000000E+02  0.51100000000E-03 0. -1.
    9900012    2    1    2    0    0  0.32796517971E+02  0.38976851109E+01  0.23714176708E+02  0.50528859365E+02  0.29999998526E+02 0.  0.
         12    1    1    2    0    0 -0.32796517971E+02 -0.38976851109E+01 -0.23714176708E+02  0.40659140635E+02  0.00000000000E+00 0. -1.
         11    1    3    3    0    0 -0.15451526197E+01  0.21037967992E+01  0.43981511235E+01  0.51144101475E+01  0.51100000000E-03 0. -1.
        -11    1    3    3    0    0 -0.29195566373E+01 -0.46654810460E+00  0.42091746048E+01  0.51437952144E+01  0.51100000000E-03 0.  1.
        -12    1    3    3    0    0  0.37261227228E+02  0.22604364163E+01  0.15106850980E+02  0.40270654003E+02  0.00000000000E+00 0.  1.
</event>
<event>
 7    1  0.6726285E-013  0.5052885E+02  0.7816164E-02  0.1300439E+00
        -11   -1    0    0    0    0  0.00000000000E+00  0.00000000000E+00  0.45593999997E+02  0.45594000000E+02  0.51100000000E-03 0.  1.
         11   -1    0    0    0    0 -0.00000000000E+00 -0.00000000000E+00 -0.45593999997E+02  0.45594000000E+02  0.51100000000E-03 0. -1.
    9900012    2    1    2    0    0  0.77679975960E+01 -0.16957360040E+02  0.36128557345E+02  0.50528849713E+02  0.29999969188E+02 0.  0.
         12    1    1    2    0    0 -0.77679975960E+01  0.16957360040E+02 -0.36128557345E+02  0.40659150287E+02  0.00000000000E+00 0. -1.
         11    1    3    3    0    0 -0.45937769703E+01 -0.27931704664E+00  0.15217854655E+02  0.15898550419E+02  0.51100000000E-03 0. -1.
        -11    1    3    3    0    0 -0.10759338099E+01  0.43947057728E+00  0.10396969429E+02  0.10461727464E+02  0.51100000000E-03 0.  1.
         12    1    3    3    0    0  0.13437708376E+02 -0.17117513571E+02  0.10513733262E+02  0.24168571831E+02  0.00000000000E+00 0. -1.
</event>
<event>
 7    1  0.6726285E-013  0.5052885E+02  0.7816164E-02  0.1300439E+00
        -11   -1    0    0    0    0  0.00000000000E+00  0.00000000000E+00  0.45593999997E+02  0.45594000000E+02  0.51100000000E-03 0.  1.
         11   -1    0    0    0    0 -0.00000000000E+00 -0.00000000000E+00 -0.45593999997E+02  0.45594000000E+02  0.51100000000E-03 0. -1.
    9900012    2    1    2    0    0 -0.11270780388E+02 -0.38505026619E+02  0.65953786277E+01  0.50528848697E+02  0.29999966098E+02 0.  0.
         12    1    1    2    0    0  0.11270780388E+02  0.38505026619E+02 -0.65953786277E+01  0.40659151303E+02  0.00000000000E+00 0. -1.
         11    1    3    3    0    0 -0.11493906080E+02 -0.24650235250E+02  0.53111476239E+00  0.27203419969E+02  0.51100000000E-03 0. -1.
        -11    1    3    3    0    0 -0.84064783501E+01 -0.95976723440E+01  0.21563763854E+01  0.12939634927E+02  0.51100000000E-03 0.  1.
         12    1    3    3    0    0  0.86296040419E+01 -0.42571190247E+01  0.39078874799E+01  0.10385793800E+02  0.00000000000E+00 0. -1.
</event>
<event>
 7    1  0.6726285E-013  0.5052889E+02  0.7816164E-02  0.1300439E+00
        -11   -1    0    0    0    0  0.00000000000E+00  0.00000000000E+00  0.45593999997E+02  0.45594000000E+02  0.51100000000E-03 0.  1.
         11   -1    0    0    0    0 -0.00000000000E+00 -0.00000000000E+00 -0.45593999997E+02  0.45594000000E+02  0.51100000000E-03 0. -1.
    9900012    2    1    2    0    0 -0.26806134009E+01  0.24692998159E+02  0.32190575695E+02  0.50528892658E+02  0.30000099723E+02 0.  0.
         12    1    1    2    0    0  0.26806134009E+01 -0.24692998159E+02 -0.32190575695E+02  0.40659107342E+02  0.00000000000E+00 0. -1.
         11    1    3    3    0    0 -0.21484909190E+01  0.45084410288E+00 -0.25476848335E+01  0.33630301672E+01  0.51100000000E-03 0. -1.
        -11    1    3    3    0    0 -0.63993010979E+01  0.13264265722E+02  0.61020659365E+01  0.15941361568E+02  0.51100000000E-03 0.  1.
         12    1    3    3    0    0  0.58671786160E+01  0.10977888334E+02  0.28636194592E+02  0.31224500923E+02  0.00000000000E+00 0. -1.
</event>
<event>
 7    1  0.6726285E-013  0.5052886E+02  0.7816164E-02  0.1300439E+00
        -11   -1    0    0    0    0  0.00000000000E+00  0.00000000000E+00  0.45593999997E+02  0.45594000000E+02  0.51100000000E-03 0.  1.
         11   -1    0    0    0    0 -0.00000000000E+00 -0.00000000000E+00 -0.45593999997E+02  0.45594000000E+02  0.51100000000E-03 0. -1.
    9900012    2    1    2    0    0  0.32640062471E+00 -0.28706952238E+02  0.28791840454E+02  0.50528859319E+02  0.29999998385E+02 0.  0.
         12    1    1    2    0    0 -0.32640062471E+00  0.28706952238E+02 -0.28791840454E+02  0.40659140681E+02  0.00000000000E+00 0. -1.
         11    1    3    3    0    0 -0.23360089473E+01 -0.42751262379E+01  0.10878432063E+02  0.11919476774E+02  0.51100000000E-03 0. -1.
        -11    1    3    3    0    0 -0.67925914631E+01 -0.20654750758E+01  0.11464659478E+02  0.13484950993E+02  0.51100000000E-03 0.  1.
         12    1    3    3    0    0  0.94550010351E+01 -0.22366350925E+02  0.64487489133E+01  0.25124431552E+02  0.00000000000E+00 0. -1.
</event>
<event>
 7    1  0.6726285E-013  0.5052886E+02  0.7816164E-02  0.1300439E+00
        -11   -1    0    0    0    0  0.00000000000E+00  0.00000000000E+00  0.45593999997E+02  0.45594000000E+02  0.51100000000E-03 0.  1.
         11   -1    0    0    0    0 -0.00000000000E+00 -0.00000000000E+00 -0.45593999997E+02  0.45594000000E+02  0.51100000000E-03 0. -1.
    9900012    2    1    2    0    0  0.26228063558E+02 -0.24081873734E+02  0.19629506739E+02  0.50528862093E+02  0.30000006818E+02 0.  0.
         12    1    1    2    0    0 -0.26228063558E+02  0.24081873734E+02 -0.19629506739E+02  0.40659137907E+02  0.00000000000E+00 0. -1.
         11    1    3    3    0    0  0.42090924944E+01  0.58214857877E+01  0.68143081896E+01  0.99015631477E+01  0.51100000000E-03 0. -1.
        -11    1    3    3    0    0  0.16068406603E+02 -0.13544024690E+02  0.86653775147E+01  0.22731543355E+02  0.51100000000E-03 0.  1.
        -12    1    3    3    0    0  0.59505644611E+01 -0.16359334832E+02  0.41498210345E+01  0.17895755591E+02  0.00000000000E+00 0.  1.
</event>
<event>
 7    1  0.6726285E-013  0.5052886E+02  0.7816164E-02  0.1300439E+00
        -11   -1    0    0    0    0  0.00000000000E+00  0.00000000000E+00  0.45593999997E+02  0.45594000000E+02  0.51100000000E-03 0.  1.
         11   -1    0    0    0    0 -0.00000000000E+00 -0.00000000000E+00 -0.45593999997E+02  0.45594000000E+02  0.51100000000E-03 0. -1.
    9900012    2    1    2    0    0 -0.16047851479E+02  0.21203359009E+02  0.30757920170E+02  0.50528860516E+02  0.30000002025E+02 0.  0.
         12    1    1    2    0    0  0.16047851479E+02 -0.21203359009E+02 -0.30757920170E+02  0.40659139484E+02  0.00000000000E+00 0. -1.
         11    1    3    3    0    0 -0.65369767789E-01 -0.23009697537E+01  0.10392528987E+02  0.10644406701E+02  0.51100000000E-03 0. -1.
        -11    1    3    3    0    0 -0.19185839991E+02  0.12686368540E+02  0.14113875026E+02  0.26985956929E+02  0.51100000000E-03 0.  1.
        -12    1    3    3    0    0  0.32033582791E+01  0.10817960223E+02  0.62515161566E+01  0.12898496886E+02  0.00000000000E+00 0.  1.
</event>
<event>
 7    1  0.6726285E-013  0.5052883E+02  0.7816164E-02  0.1300439E+00
        -11   -1    0    0    0    0  0.00000000000E+00  0.00000000000E+00  0.45593999997E+02  0.45594000000E+02  0.51100000000E-03 0.  1.
         11   -1    0    0    0    0 -0.00000000000E+00 -0.00000000000E+00 -0.45593999997E+02  0.45594000000E+02  0.51100000000E-03 0. -1.
    9900012    2    1    2    0    0  0.87758455677E+01  0.23507460022E+02  0.31992994360E+02  0.50528833380E+02  0.29999919543E+02 0.  0.
         12    1    1    2    0    0 -0.87758455677E+01 -0.23507460022E+02 -0.31992994360E+02  0.40659166620E+02  0.00000000000E+00 0. -1.
         11    1    3    3    0    0 -0.67803273288E+01 -0.22369026226E+00  0.76297974755E+01  0.10209636908E+02  0.51100000000E-03 0. -1.
        -11    1    3    3    0    0 -0.96857745936E-01  0.10469744156E+02  0.13564243716E+02  0.17135157775E+02  0.51100000000E-03 0.  1.
        -12    1    3    3    0    0  0.15653030642E+02  0.13261406128E+02  0.10798953168E+02  0.23184038697E+02  0.00000000000E+00 0.  1.
</event>
<event>
 7    1  0.6726285E-013  0.5052886E+02  0.7816164E-02  0.1300439E+00
        -11   -1    0    0    0    0  0.00000000000E+00  0.00000000000E+00  0.45593999997E+02  0.45594000000E+02  0.51100000000E-03 0.  1.
         11   -1    0    0    0    0 -0.00000000000E+00 -0.00000000000E+00 -0.45593999997E+02  0.45594000000E+02  0.51100000000E-03 0. -1.
    9900012    2    1    2    0    0  0.29854954812E+02 -0.27048113750E+02 -0.54997252263E+01  0.50528858816E+02  0.29999996858E+02 0.  0.
         12    1    1    2    0    0 -0.29854954812E+02  0.27048113750E+02  0.54997252263E+01  0.40659141184E+02  0.00000000000E+00 0. -1.
         11    1    3    3    0    0  0.13475245325E+02 -0.11373076490E+02 -0.53520148238E+01  0.18427511181E+02  0.51100000000E-03 0.  1.
        -11    1    3    3    0    0  0.11644674172E+02 -0.21365198168E+02 -0.21655262571E+01  0.24428664179E+02  0.51100000000E-03 0. -1.
        -12    1    3    3    0    0  0.47350353153E+01  0.56901609078E+01  0.20178158546E+01  0.76726834561E+01  0.00000000000E+00 0.  1.
</event>
<event>
 7    1  0.6726285E-013  0.5052890E+02  0.7816164E-02  0.1300439E+00
        -11   -1    0    0    0    0  0.00000000000E+00  0.00000000000E+00  0.45593999997E+02  0.45594000000E+02  0.51100000000E-03 0.  1.
         11   -1    0    0    0    0 -0.00000000000E+00 -0.00000000000E+00 -0.45593999997E+02  0.45594000000E+02  0.51100000000E-03 0. -1.
    9900012    2    1    2    0    0  0.30772927244E+02 -0.14137103534E+02  0.22501805842E+02  0.50528904909E+02  0.30000136961E+02 0.  0.
         12    1    1    2    0    0 -0.30772927244E+02  0.14137103534E+02 -0.22501805842E+02  0.40659095091E+02  0.00000000000E+00 0. -1.
         11    1    3    3    0    0  0.10083044635E+01 -0.11703402936E+02 -0.10852395651E+01  0.11796781907E+02  0.51100000000E-03 0. -1.
        -11    1    3    3    0    0  0.28329407958E+00  0.88569422397E+00  0.14215258907E+01  0.16986600345E+01  0.51100000000E-03 0.  1.
         12    1    3    3    0    0  0.29481328701E+02 -0.33193948215E+01  0.22165519516E+02  0.37033462968E+02  0.00000000000E+00 0. -1.
</event>
<event>
 7    1  0.6726285E-013  0.5052890E+02  0.7816164E-02  0.1300439E+00
        -11   -1    0    0    0    0  0.00000000000E+00  0.00000000000E+00  0.45593999997E+02  0.45594000000E+02  0.51100000000E-03 0.  1.
         11   -1    0    0    0    0 -0.00000000000E+00 -0.00000000000E+00 -0.45593999997E+02  0.45594000000E+02  0.51100000000E-03 0. -1.
    9900012    2    1    2    0    0 -0.34056262894E+02 -0.14253362929E+02  0.17034516922E+02  0.50528903061E+02  0.30000131345E+02 0.  0.
         12    1    1    2    0    0  0.34056262894E+02  0.14253362929E+02 -0.17034516922E+02  0.40659096939E+02  0.00000000000E+00 0. -1.
         11    1    3    3    0    0 -0.63515301113E+01  0.54771532395E+01 -0.13255329689E+01  0.84910647316E+01  0.51100000000E-03 0. -1.
        -11    1    3    3    0    0 -0.46066614954E+01 -0.99752861085E+01  0.11793250898E+02  0.16118574071E+02  0.51100000000E-03 0.  1.
        -12    1    3    3    0    0 -0.23098071287E+02 -0.97552300602E+01  0.65667989934E+01  0.25919264259E+02  0.00000000000E+00 0.  1.
</event>
<event>
 7    1  0.6726285E-013  0.5052886E+02  0.7816164E-02  0.1300439E+00
        -11   -1    0    0    0    0  0.00000000000E+00  0.00000000000E+00  0.45593999997E+02  0.45594000000E+02  0.51100000000E-03 0.  1.
         11   -1    0    0    0    0 -0.00000000000E+00 -0.00000000000E+00 -0.45593999997E+02  0.45594000000E+02  0.51100000000E-03 0. -1.
    9900012    2    1    2    0    0 -0.27806885282E+01 -0.37913869582E+02 -0.14421244826E+02  0.50528855423E+02  0.29999986545E+02 0.  0.
         12    1    1    2    0    0  0.27806885282E+01  0.37913869582E+02  0.14421244826E+02  0.40659144577E+02  0.00000000000E+00 0. -1.
         11    1    3    3    0    0 -0.15579980896E+01 -0.24069959622E+01 -0.24811074704E+01  0.37916859245E+01  0.51100000000E-03 0. -1.
        -11    1    3    3    0    0  0.91247244397E+01 -0.32437039259E+02 -0.54247375522E+01  0.34129897301E+02  0.51100000000E-03 0.  1.
        -12    1    3    3    0    0 -0.10347414878E+02 -0.30698343602E+01 -0.65153998038E+01  0.12607272198E+02  0.00000000000E+00 0.  1.
</event>
<event>
 7    1  0.6726285E-013  0.5052886E+02  0.7816164E-02  0.1300439E+00
        -11   -1    0    0    0    0  0.00000000000E+00  0.00000000000E+00  0.45593999997E+02  0.45594000000E+02  0.51100000000E-03 0.  1.
         11   -1    0    0    0    0 -0.00000000000E+00 -0.00000000000E+00 -0.45593999997E+02  0.45594000000E+02  0.51100000000E-03 0. -1.
    9900012    2    1    2    0    0 -0.59546703588E+01 -0.23143010973E+02  0.32895418708E+02  0.50528860462E+02  0.30000001860E+02 0.  0.
         12    1    1    2    0    0  0.59546703588E+01  0.23143010973E+02 -0.32895418708E+02  0.40659139538E+02  0.00000000000E+00 0. -1.
         11    1    3    3    0    0 -0.58641589140E+00 -0.27103106112E+01  0.60555007285E+01  0.66602369733E+01  0.51100000000E-03 0.  1.
        -11    1    3    3    0    0 -0.13829483070E+02 -0.57345474089E+01  0.21284168332E+02  0.26022210856E+02  0.51100000000E-03 0. -1.
         12    1    3    3    0    0  0.84612286029E+01 -0.14698152953E+02  0.55557496475E+01  0.17846412633E+02  0.00000000000E+00 0. -1.
</event>
<event>
 7    1  0.6726285E-013  0.5052887E+02  0.7816164E-02  0.1300439E+00
        -11   -1    0    0    0    0  0.00000000000E+00  0.00000000000E+00  0.45593999997E+02  0.45594000000E+02  0.51100000000E-03 0.  1.
         11   -1    0    0    0    0 -0.00000000000E+00 -0.00000000000E+00 -0.45593999997E+02  0.45594000000E+02  0.51100000000E-03 0. -1.
    9900012    2    1    2    0    0 -0.27054997516E+02 -0.50476416363E+01  0.29928475208E+02  0.50528865664E+02  0.30000017673E+02 0.  0.
         12    1    1    2    0    0  0.27054997516E+02  0.50476416363E+01 -0.29928475208E+02  0.40659134336E+02  0.00000000000E+00 0. -1.
         11    1    3    3    0    0 -0.18894972119E+02 -0.97135484918E+01  0.13385763031E+02  0.25110787481E+02  0.51100000000E-03 0. -1.
        -11    1    3    3    0    0 -0.38149378292E+01 -0.32524877617E+01  0.15542088791E+02  0.16330613937E+02  0.51100000000E-03 0.  1.
         12    1    3    3    0    0 -0.43450875676E+01  0.79183946172E+01  0.10006233846E+01  0.90874642471E+01  0.00000000000E+00 0. -1.
</event>
<event>
 7    1  0.6726285E-013  0.5052886E+02  0.7816164E-02  0.1300439E+00
        -11   -1    0    0    0    0  0.00000000000E+00  0.00000000000E+00  0.45593999997E+02  0.45594000000E+02  0.51100000000E-03 0. -1.
         11   -1    0    0    0    0 -0.00000000000E+00 -0.00000000000E+00 -0.45593999997E+02  0.45594000000E+02  0.51100000000E-03 0.  1.
    9900012    2    1    2    0    0 -0.29654252384E+02  0.14856662963E+02  0.23517449388E+02  0.50528861488E+02  0.30000004979E+02 0.  0.
         12    1    1    2    0    0  0.29654252384E+02 -0.14856662963E+02 -0.23517449388E+02  0.40659138512E+02  0.00000000000E+00 0. -1.
         11    1    3    3    0    0 -0.11313116380E+02  0.67123577053E+01  0.55468133645E+01  0.14276186009E+02  0.51100000000E-03 0. -1.
        -11    1    3    3    0    0 -0.23747692569E+02  0.39305544574E+01  0.10962364795E+02  0.26449491543E+02  0.51100000000E-03 0.  1.
         12    1    3    3    0    0  0.54065565651E+01  0.42137507999E+01  0.70082712282E+01  0.98031839370E+01  0.00000000000E+00 0. -1.
</event>
<event>
 7    1  0.6726285E-013  0.5052885E+02  0.7816164E-02  0.1300439E+00
        -11   -1    0    0    0    0  0.00000000000E+00  0.00000000000E+00  0.45593999997E+02  0.45594000000E+02  0.51100000000E-03 0. -1.
         11   -1    0    0    0    0 -0.00000000000E+00 -0.00000000000E+00 -0.45593999997E+02  0.45594000000E+02  0.51100000000E-03 0.  1.
    9900012    2    1    2    0    0 -0.26719737617E+02 -0.14138872489E+02 -0.27190330438E+02  0.50528853883E+02  0.29999981864E+02 0.  0.
         12    1    1    2    0    0  0.26719737617E+02  0.14138872489E+02  0.27190330438E+02  0.40659146117E+02  0.00000000000E+00 0. -1.
         11    1    3    3    0    0  0.57890103360E+00 -0.51879035606E+01  0.11184308398E+01  0.53385726150E+01  0.51100000000E-03 0. -1.
        -11    1    3    3    0    0 -0.12844821036E+02 -0.47302129469E+01 -0.65610666825E+00  0.13703824947E+02  0.51100000000E-03 0.  1.
        -12    1    3    3    0    0 -0.14453817615E+02 -0.42207559818E+01 -0.27652654610E+02  0.31486456321E+02  0.00000000000E+00 0.  1.
</event>
<event>
 7    1  0.6726285E-013  0.5052892E+02  0.7816164E-02  0.1300439E+00
        -11   -1    0    0    0    0  0.00000000000E+00  0.00000000000E+00  0.45593999997E+02  0.45594000000E+02  0.51100000000E-03 0. -1.
         11   -1    0    0    0    0 -0.00000000000E+00 -0.00000000000E+00 -0.45593999997E+02  0.45594000000E+02  0.51100000000E-03 0.  1.
    9900012    2    1    2    0    0 -0.30237905132E+02 -0.16488329396E+01 -0.27131376944E+02  0.50528915263E+02  0.30000168432E+02 0.  0.
         12    1    1    2    0    0  0.30237905132E+02  0.16488329396E+01  0.27131376944E+02  0.40659084737E+02  0.00000000000E+00 0. -1.
         11    1    3    3    0    0 -0.12964937492E+01 -0.76435840556E+00  0.32302657960E+00  0.15393135633E+01  0.51100000000E-03 0. -1.
        -11    1    3    3    0    0 -0.21736709031E+02  0.12610191249E+02 -0.15023005017E+02  0.29277843548E+02  0.51100000000E-03 0.  1.
         12    1    3    3    0    0 -0.72047023517E+01 -0.13494665783E+02 -0.12431398507E+02  0.19711758151E+02  0.00000000000E+00 0. -1.
</event>
<event>
 7    1  0.6726285E-013  0.5052886E+02  0.7816164E-02  0.1300439E+00
        -11   -1    0    0    0    0  0.00000000000E+00  0.00000000000E+00  0.45593999997E+02  0.45594000000E+02  0.51100000000E-03 0. -1.
         11   -1    0    0    0    0 -0.00000000000E+00 -0.00000000000E+00 -0.45593999997E+02  0.45594000000E+02  0.51100000000E-03 0.  1.
    9900012    2    1    2    0    0  0.31341871998E+02  0.13760275586E+02 -0.21943288341E+02  0.50528855545E+02  0.29999986915E+02 0.  0.
         12    1    1    2    0    0 -0.31341871998E+02 -0.13760275586E+02  0.21943288341E+02  0.40659144455E+02  0.00000000000E+00 0. -1.
         11    1    3    3    0    0  0.99658190796E+01 -0.23112709768E+00 -0.41411828141E+01  0.10794459923E+02  0.51100000000E-03 0. -1.
        -11    1    3    3    0    0  0.21305794820E+02  0.21901271832E-01 -0.84341660972E+01  0.22914461168E+02  0.51100000000E-03 0.  1.
         12    1    3    3    0    0  0.70258098477E-01  0.13969501412E+02 -0.93679394297E+01  0.16819934455E+02  0.00000000000E+00 0. -1.
</event>
<event>
 7    1  0.6726285E-013  0.5052886E+02  0.7816164E-02  0.1300439E+00
        -11   -1    0    0    0    0  0.00000000000E+00  0.00000000000E+00  0.45593999997E+02  0.45594000000E+02  0.51100000000E-03 0.  1.
         11   -1    0    0    0    0 -0.00000000000E+00 -0.00000000000E+00 -0.45593999997E+02  0.45594000000E+02  0.51100000000E-03 0. -1.
    9900012    2    1    2    0    0 -0.50021013926E+01  0.54361795229E+01  0.39982404667E+02  0.50528858973E+02  0.29999997333E+02 0.  0.
         12    1    1    2    0    0  0.50021013926E+01 -0.54361795229E+01 -0.39982404667E+02  0.40659141027E+02  0.00000000000E+00 0. -1.
         11    1    3    3    0    0 -0.47949428339E+01 -0.70928602293E+01  0.36583132209E+01  0.93103919840E+01  0.51100000000E-03 0. -1.
        -11    1    3    3    0    0  0.19153739393E+01  0.51448393709E+01  0.16924331073E+01  0.57447680166E+01  0.51100000000E-03 0.  1.
        -12    1    3    3    0    0 -0.21225324980E+01  0.73842003813E+01  0.34631658339E+02  0.35473698972E+02  0.00000000000E+00 0.  1.
</event>
<event>
 7    1  0.6726285E-013  0.5052887E+02  0.7816164E-02  0.1300439E+00
        -11   -1    0    0    0    0  0.00000000000E+00  0.00000000000E+00  0.45593999997E+02  0.45594000000E+02  0.51100000000E-03 0. -1.
         11   -1    0    0    0    0 -0.00000000000E+00 -0.00000000000E+00 -0.45593999997E+02  0.45594000000E+02  0.51100000000E-03 0.  1.
    9900012    2    1    2    0    0 -0.35502417337E+02 -0.11723332792E+02 -0.15978327736E+02  0.50528866638E+02  0.30000020633E+02 0.  0.
         12    1    1    2    0    0  0.35502417337E+02  0.11723332792E+02  0.15978327736E+02  0.40659133362E+02  0.00000000000E+00 0. -1.
         11    1    3    3    0    0 -0.27024968582E+02 -0.55387160159E+00 -0.19611800868E+02  0.33395784677E+02  0.51100000000E-03 0.  1.
        -11    1    3    3    0    0 -0.10692155324E+01  0.63804823668E+00  0.29215232417E+01  0.31757874173E+01  0.51100000000E-03 0. -1.
        -12    1    3    3    0    0 -0.74082332220E+01 -0.11807509427E+02  0.71194989039E+00  0.13957294544E+02  0.00000000000E+00 0.  1.
</event>
<event>
 7    1  0.6726285E-013  0.5052881E+02  0.7816164E-02  0.1300439E+00
        -11   -1    0    0    0    0  0.00000000000E+00  0.00000000000E+00  0.45593999997E+02  0.45594000000E+02  0.51100000000E-03 0. -1.
         11   -1    0    0    0    0 -0.00000000000E+00 -0.00000000000E+00 -0.45593999997E+02  0.45594000000E+02  0.51100000000E-03 0.  1.
    9900012    2    1    2    0    0 -0.19212009805E+02 -0.28444650257E+02 -0.21793814092E+02  0.50528809383E+02  0.29999846599E+02 0.  0.
         12    1    1    2    0    0  0.19212009805E+02  0.28444650257E+02  0.21793814092E+02  0.40659190617E+02  0.00000000000E+00 0. -1.
         11    1    3    3    0    0  0.33513135714E+01 -0.26964030374E+01 -0.13016320129E+00  0.43033515675E+01  0.51100000000E-03 0. -1.
        -11    1    3    3    0    0  0.29066640792E+01  0.16042833793E+01 -0.28842183419E+01  0.43978559475E+01  0.51100000000E-03 0.  1.
        -12    1    3    3    0    0 -0.25469987456E+02 -0.27352530599E+02 -0.18779432549E+02  0.41827601868E+02  0.00000000000E+00 0.  1.
</event>
<event>
 7    1  0.6726285E-013  0.5052884E+02  0.7816164E-02  0.1300439E+00
        -11   -1    0    0    0    0  0.00000000000E+00  0.00000000000E+00  0.45593999997E+02  0.45594000000E+02  0.51100000000E-03 0.  1.
         11   -1    0    0    0    0 -0.00000000000E+00 -0.00000000000E+00 -0.45593999997E+02  0.45594000000E+02  0.51100000000E-03 0. -1.
    9900012    2    1    2    0    0  0.11527670712E+02  0.95512057076E+01  0.37802841414E+02  0.50528836931E+02  0.29999930335E+02 0.  0.
         12    1    1    2    0    0 -0.11527670712E+02 -0.95512057076E+01 -0.37802841414E+02  0.40659163069E+02  0.00000000000E+00 0. -1.
         11    1    3    3    0    0  0.24562037110E+01 -0.57640267926E+01  0.15597937094E+02  0.16809300502E+02  0.51100000000E-03 0. -1.
        -11    1    3    3    0    0 -0.40039791004E+01  0.99195953026E+01  0.13034326678E+02  0.16861906529E+02  0.51100000000E-03 0.  1.
        -12    1    3    3    0    0  0.13075446102E+02  0.53956371975E+01  0.91705776426E+01  0.16857629899E+02  0.00000000000E+00 0.  1.
</event>
<event>
 7    1  0.6726285E-013  0.5052888E+02  0.7816164E-02  0.1300439E+00
        -11   -1    0    0    0    0  0.00000000000E+00  0.00000000000E+00  0.45593999997E+02  0.45594000000E+02  0.51100000000E-03 0.  1.
         11   -1    0    0    0    0 -0.00000000000E+00 -0.00000000000E+00 -0.45593999997E+02  0.45594000000E+02  0.51100000000E-03 0. -1.
    9900012    2    1    2    0    0 -0.35867977335E+01  0.69962453739E+00  0.40494555920E+02  0.50528884766E+02  0.30000075735E+02 0.  0.
         12    1    1    2    0    0  0.35867977335E+01 -0.69962453739E+00 -0.40494555920E+02  0.40659115234E+02  0.00000000000E+00 0. -1.
         11    1    3    3    0    0  0.24601252460E+01 -0.13596982267E+01  0.47603092751E+01  0.55282492844E+01  0.51100000000E-03 0. -1.
        -11    1    3    3    0    0  0.20570392157E+01 -0.82192253247E+01  0.18446509590E+01  0.86712059539E+01  0.51100000000E-03 0.  1.
        -12    1    3    3    0    0 -0.81039621952E+01  0.10278548089E+02  0.33889595686E+02  0.36329429528E+02  0.00000000000E+00 0.  1.
</event>
<event>
 7    1  0.6726285E-013  0.5052887E+02  0.7816164E-02  0.1300439E+00
        -11   -1    0    0    0    0  0.00000000000E+00  0.00000000000E+00  0.45593999997E+02  0.45594000000E+02  0.51100000000E-03 0.  1.
         11   -1    0    0    0    0 -0.00000000000E+00 -0.00000000000E+00 -0.45593999997E+02  0.45594000000E+02  0.51100000000E-03 0. -1.
    9900012    2    1    2    0    0  0.31335913322E+02 -0.45029703118E+01  0.25513700653E+02  0.50528866630E+02  0.30000020608E+02 0.  0.
         12    1    1    2    0    0 -0.31335913322E+02  0.45029703118E+01 -0.25513700653E+02  0.40659133370E+02  0.00000000000E+00 0. -1.
         11    1    3    3    0    0 -0.24724144663E+01 -0.38535523633E+01  0.25790714380E+01  0.52549318600E+01  0.51100000000E-03 0. -1.
        -11    1    3    3    0    0  0.19175405283E+02 -0.58341024718E+01  0.34125616557E+01  0.20331711603E+02  0.51100000000E-03 0.  1.
         12    1    3    3    0    0  0.14632922506E+02  0.51846845233E+01  0.19522067560E+02  0.24942223166E+02  0.00000000000E+00 0. -1.
</event>
<event>
 7    1  0.6726285E-013  0.5052887E+02  0.7816164E-02  0.1300439E+00
        -11   -1    0    0    0    0  0.00000000000E+00  0.00000000000E+00  0.45593999997E+02  0.45594000000E+02  0.51100000000E-03 0.  1.
         11   -1    0    0    0    0 -0.00000000000E+00 -0.00000000000E+00 -0.45593999997E+02  0.45594000000E+02  0.51100000000E-03 0. -1.
    9900012    2    1    2    0    0  0.39701037389E+01  0.40105257293E+02  0.53825086419E+01  0.50528870822E+02  0.30000033351E+02 0.  0.
         12    1    1    2    0    0 -0.39701037389E+01 -0.40105257293E+02 -0.53825086419E+01  0.40659129178E+02  0.00000000000E+00 0. -1.
         11    1    3    3    0    0  0.16905582084E+01  0.27530618941E+02 -0.90206406182E+01  0.29020077942E+02  0.51100000000E-03 0. -1.
        -11    1    3    3    0    0  0.21040059884E+01  0.34338885159E+01 -0.46573868261E+00  0.40540528265E+01  0.51100000000E-03 0.  1.
        -12    1    3    3    0    0  0.17553954203E+00  0.91407498357E+01  0.14868887943E+02  0.17454740054E+02  0.00000000000E+00 0.  1.
</event>
<event>
 7    1  0.6726285E-013  0.5052890E+02  0.7816164E-02  0.1300439E+00
        -11   -1    0    0    0    0  0.00000000000E+00  0.00000000000E+00  0.45593999997E+02  0.45594000000E+02  0.51100000000E-03 0.  1.
         11   -1    0    0    0    0 -0.00000000000E+00 -0.00000000000E+00 -0.45593999997E+02  0.45594000000E+02  0.51100000000E-03 0. -1.
    9900012    2    1    2    0    0 -0.36546667349E+02  0.44773949260E+01  0.17246924741E+02  0.50528900494E+02  0.30000123540E+02 0.  0.
         12    1    1    2    0    0  0.36546667349E+02 -0.44773949260E+01 -0.17246924741E+02  0.40659099506E+02  0.00000000000E+00 0. -1.
         11    1    3    3    0    0 -0.19876915702E+02  0.81558790684E+01  0.12130353289E+02  0.24672973319E+02  0.51100000000E-03 0. -1.
        -11    1    3    3    0    0 -0.10832681713E+02  0.71205016102E+01  0.38064572092E+01  0.13510649615E+02  0.51100000000E-03 0.  1.
         12    1    3    3    0    0 -0.58370699338E+01 -0.10798985753E+02  0.13101142435E+01  0.12345277560E+02  0.00000000000E+00 0. -1.
</event>
<event>
 7    1  0.6726285E-013  0.5052886E+02  0.7816164E-02  0.1300439E+00
        -11   -1    0    0    0    0  0.00000000000E+00  0.00000000000E+00  0.45593999997E+02  0.45594000000E+02  0.51100000000E-03 0. -1.
         11   -1    0    0    0    0 -0.00000000000E+00 -0.00000000000E+00 -0.45593999997E+02  0.45594000000E+02  0.51100000000E-03 0.  1.
    9900012    2    1    2    0    0 -0.12189704407E+02 -0.28512631127E+02 -0.26298413020E+02  0.50528861363E+02  0.30000004599E+02 0.  0.
         12    1    1    2    0    0  0.12189704407E+02  0.28512631127E+02  0.26298413020E+02  0.40659138637E+02  0.00000000000E+00 0. -1.
         11    1    3    3    0    0 -0.43041760813E+00  0.14010625454E+01  0.45254533570E+01  0.47568859479E+01  0.51100000000E-03 0. -1.
        -11    1    3    3    0    0 -0.11184011126E+01 -0.12158897956E+02 -0.64992066351E+01  0.13832183764E+02  0.51100000000E-03 0.  1.
        -12    1    3    3    0    0 -0.10640885686E+02 -0.17754795717E+02 -0.24324659742E+02  0.31939791651E+02  0.00000000000E+00 0.  1.
</event>
<event>
 7    1  0.6726285E-013  0.5052887E+02  0.7816164E-02  0.1300439E+00
        -11   -1    0    0    0    0  0.00000000000E+00  0.00000000000E+00  0.45593999997E+02  0.45594000000E+02  0.51100000000E-03 0.  1.
         11   -1    0    0    0    0 -0.00000000000E+00 -0.00000000000E+00 -0.45593999997E+02  0.45594000000E+02  0.51100000000E-03 0. -1.
    9900012    2    1    2    0    0  0.14093619168E+02  0.17976428300E+02  0.33636038075E+02  0.50528866548E+02  0.30000020359E+02 0.  0.
         12    1    1    2    0    0 -0.14093619168E+02 -0.17976428300E+02 -0.33636038075E+02  0.40659133452E+02  0.00000000000E+00 0. -1.
         11    1    3    3    0    0  0.14491856765E+01 -0.33985536128E+01 -0.16087461494E+01  0.40296861191E+01  0.51100000000E-03 0. -1.
        -11    1    3    3    0    0  0.14178584887E+02  0.10712248962E+02  0.29101369563E+02  0.34098009589E+02  0.51100000000E-03 0.  1.
         12    1    3    3    0    0 -0.15341513954E+01  0.10662732951E+02  0.61434146610E+01  0.12401170839E+02  0.00000000000E+00 0. -1.
</event>
<event>
 7    1  0.6726285E-013  0.5052886E+02  0.7816164E-02  0.1300439E+00
        -11   -1    0    0    0    0  0.00000000000E+00  0.00000000000E+00  0.45593999997E+02  0.45594000000E+02  0.51100000000E-03 0.  1.
         11   -1    0    0    0    0 -0.00000000000E+00 -0.00000000000E+00 -0.45593999997E+02  0.45594000000E+02  0.51100000000E-03 0. -1.
    9900012    2    1    2    0    0 -0.72094485002E+00  0.17080481192E+02  0.36890421988E+02  0.50528857932E+02  0.29999994171E+02 0.  0.
         12    1    1    2    0    0  0.72094485002E+00 -0.17080481192E+02 -0.36890421988E+02  0.40659142068E+02  0.00000000000E+00 0. -1.
         11    1    3    3    0    0  0.77404985071E+01  0.22784081694E+01  0.29896637237E+01  0.86049143149E+01  0.51100000000E-03 0. -1.
        -11    1    3    3    0    0  0.48952268717E+01  0.86948870261E+01  0.13706255680E+02  0.16953635349E+02  0.51100000000E-03 0.  1.
        -12    1    3    3    0    0 -0.13356670229E+02  0.61071859964E+01  0.20194502584E+02  0.24970308269E+02  0.00000000000E+00 0.  1.
</event>
<event>
 7    1  0.6726285E-013  0.5052882E+02  0.7816164E-02  0.1300439E+00
        -11   -1    0    0    0    0  0.00000000000E+00  0.00000000000E+00  0.45593999997E+02  0.45594000000E+02  0.51100000000E-03 0. -1.
         11   -1    0    0    0    0 -0.00000000000E+00 -0.00000000000E+00 -0.45593999997E+02  0.45594000000E+02  0.51100000000E-03 0.  1.
    9900012    2    1    2    0    0  0.24009462876E+02  0.14110770398E+02 -0.29624326065E+02  0.50528820918E+02  0.29999881662E+02 0.  0.
         12    1    1    2    0    0 -0.24009462876E+02 -0.14110770398E+02  0.29624326065E+02  0.40659179082E+02  0.00000000000E+00 0. -1.
         11    1    3    3    0    0  0.34999030956E+01  0.12642410988E+02 -0.13420418017E+02  0.18766659194E+02  0.51100000000E-03 0. -1.
        -11    1    3    3    0    0  0.72003524300E+00  0.53318030483E+01 -0.87373285841E+01  0.10260969035E+02  0.51100000000E-03 0.  1.
        -12    1    3    3    0    0  0.19789524537E+02 -0.38634436383E+01 -0.74665794636E+01  0.21501192689E+02  0.00000000000E+00 0.  1.
</event>
<event>
 7    1  0.6726285E-013  0.5052879E+02  0.7816164E-02  0.1300439E+00
        -11   -1    0    0    0    0  0.00000000000E+00  0.00000000000E+00  0.45593999997E+02  0.45594000000E+02  0.51100000000E-03 0. -1.
         11   -1    0    0    0    0 -0.00000000000E+00 -0.00000000000E+00 -0.45593999997E+02  0.45594000000E+02  0.51100000000E-03 0.  1.
    9900012    2    1    2    0    0  0.73724034975E+01 -0.39641553649E+02  0.52312661133E+01  0.50528791275E+02  0.29999791558E+02 0.  0.
         12    1    1    2    0    0 -0.73724034975E+01  0.39641553649E+02 -0.52312661133E+01  0.40659208725E+02  0.00000000000E+00 0. -1.
         11    1    3    3    0    0  0.52320073757E+01 -0.24880268136E+01  0.59684542014E+01  0.83178497474E+01  0.51100000000E-03 0. -1.
        -11    1    3    3    0    0  0.10306828206E+01 -0.44469823234E+01  0.72107840475E+01  0.85342466394E+01  0.51100000000E-03 0.  1.
        -12    1    3    3    0    0  0.11097133012E+01 -0.32706544512E+02 -0.79479721356E+01  0.33676694888E+02  0.00000000000E+00 0.  1.
</event>
<event>
 7    1  0.6726285E-013  0.5052886E+02  0.7816164E-02  0.1300439E+00
        -11   -1    0    0    0    0  0.00000000000E+00  0.00000000000E+00  0.45593999997E+02  0.45594000000E+02  0.51100000000E-03 0.  1.
         11   -1    0    0    0    0 -0.00000000000E+00 -0.00000000000E+00 -0.45593999997E+02  0.45594000000E+02  0.51100000000E-03 0. -1.
    9900012    2    1    2    0    0  0.40265435991E+02  0.10559498624E+01  0.55448675253E+01  0.50528856852E+02  0.29999990888E+02 0.  0.
         12    1    1    2    0    0 -0.40265435991E+02 -0.10559498624E+01 -0.55448675253E+01  0.40659143148E+02  0.00000000000E+00 0. -1.
         11    1    3    3    0    0  0.19167676806E+02  0.11403257846E+02  0.49530345842E+01  0.22846590018E+02  0.51100000000E-03 0. -1.
        -11    1    3    3    0    0  0.14214219841E+02 -0.60876356395E+01  0.73651003858E+01  0.17127406614E+02  0.51100000000E-03 0.  1.
        -12    1    3    3    0    0  0.68835393442E+01 -0.42596723438E+01 -0.67732674447E+01  0.10554860220E+02  0.00000000000E+00 0.  1.
</event>
<event>
 7    1  0.6726285E-013  0.5052886E+02  0.7816164E-02  0.1300439E+00
        -11   -1    0    0    0    0  0.00000000000E+00  0.00000000000E+00  0.45593999997E+02  0.45594000000E+02  0.51100000000E-03 0.  1.
         11   -1    0    0    0    0 -0.00000000000E+00 -0.00000000000E+00 -0.45593999997E+02  0.45594000000E+02  0.51100000000E-03 0. -1.
    9900012    2    1    2    0    0  0.21499499116E+01 -0.18893847373E+02  0.35938362708E+02  0.50528859978E+02  0.30000000390E+02 0.  0.
         12    1    1    2    0    0 -0.21499499116E+01  0.18893847373E+02 -0.35938362708E+02  0.40659140022E+02  0.00000000000E+00 0. -1.
         11    1    3    3    0    0 -0.19348401062E+01 -0.45262901958E+01  0.13185956988E+02  0.14074813360E+02  0.51100000000E-03 0. -1.
        -11    1    3    3    0    0  0.13811973751E+02 -0.42846578318E+01  0.12054200640E+02  0.18826382152E+02  0.51100000000E-03 0.  1.
         12    1    3    3    0    0 -0.97271837327E+01 -0.10082899345E+02  0.10698205081E+02  0.17627664466E+02  0.00000000000E+00 0. -1.
</event>
<event>
 7    1  0.6726285E-013  0.5052888E+02  0.7816164E-02  0.1300439E+00
        -11   -1    0    0    0    0  0.00000000000E+00  0.00000000000E+00  0.45593999997E+02  0.45594000000E+02  0.51100000000E-03 0.  1.
         11   -1    0    0    0    0 -0.00000000000E+00 -0.00000000000E+00 -0.45593999997E+02  0.45594000000E+02  0.51100000000E-03 0. -1.
    9900012    2    1    2    0    0 -0.51042082820E+00  0.39348252869E+02  0.10228337632E+02  0.50528875268E+02  0.30000046865E+02 0.  0.
         12    1    1    2    0    0  0.51042082820E+00 -0.39348252869E+02 -0.10228337632E+02  0.40659124732E+02  0.00000000000E+00 0. -1.
         11    1    3    3    0    0 -0.65762191222E+01  0.12265506388E+02  0.95107165980E+01  0.16856542806E+02  0.51100000000E-03 0. -1.
        -11    1    3    3    0    0 -0.33846326267E+01  0.22926120400E+02 -0.10479534025E+01  0.23198296084E+02  0.51100000000E-03 0.  1.
         12    1    3    3    0    0  0.94504309207E+01  0.41566260804E+01  0.17655744368E+01  0.10474036378E+02  0.00000000000E+00 0. -1.
</event>
<event>
 7    1  0.6726285E-013  0.5052886E+02  0.7816164E-02  0.1300439E+00
        -11   -1    0    0    0    0  0.00000000000E+00  0.00000000000E+00  0.45593999997E+02  0.45594000000E+02  0.51100000000E-03 0.  1.
         11   -1    0    0    0    0 -0.00000000000E+00 -0.00000000000E+00 -0.45593999997E+02  0.45594000000E+02  0.51100000000E-03 0. -1.
    9900012    2    1    2    0    0  0.19432167875E+02  0.67833970695E+01  0.35064824364E+02  0.50528861645E+02  0.30000005456E+02 0.  0.
         12    1    1    2    0    0 -0.19432167875E+02 -0.67833970695E+01 -0.35064824364E+02  0.40659138355E+02  0.00000000000E+00 0. -1.
         11    1    3    3    0    0  0.39894663888E+01 -0.25187073329E+01 -0.31653157917E+01  0.56814569451E+01  0.51100000000E-03 0. -1.
        -11    1    3    3    0    0  0.29677806176E+01 -0.40845217407E+01  0.66561770696E+01  0.83543840639E+01  0.51100000000E-03 0.  1.
        -12    1    3    3    0    0  0.12474920868E+02  0.13386626143E+02  0.31573963086E+02  0.36493020636E+02  0.00000000000E+00 0.  1.
</event>
<event>
 7    1  0.6726285E-013  0.5052886E+02  0.7816164E-02  0.1300439E+00
        -11   -1    0    0    0    0  0.00000000000E+00  0.00000000000E+00  0.45593999997E+02  0.45594000000E+02  0.51100000000E-03 0.  1.
         11   -1    0    0    0    0 -0.00000000000E+00 -0.00000000000E+00 -0.45593999997E+02  0.45594000000E+02  0.51100000000E-03 0. -1.
    9900012    2    1    2    0    0  0.12952293689E+02  0.25937419435E+02  0.28507088755E+02  0.50528858985E+02  0.29999997371E+02 0.  0.
         12    1    1    2    0    0 -0.12952293689E+02 -0.25937419435E+02 -0.28507088755E+02  0.40659141015E+02  0.00000000000E+00 0. -1.
         11    1    3    3    0    0 -0.28095111007E+01  0.29242153119E+00  0.49765185938E+01  0.57222897998E+01  0.51100000000E-03 0. -1.
        -11    1    3    3    0    0 -0.49104071695E+01  0.10106839319E+02  0.12159350499E+02  0.16556270849E+02  0.51100000000E-03 0.  1.
        -12    1    3    3    0    0  0.20672211959E+02  0.15538158585E+02  0.11371219662E+02  0.28250298337E+02  0.00000000000E+00 0.  1.
</event>
<event>
 7    1  0.6726285E-013  0.5052885E+02  0.7816164E-02  0.1300439E+00
        -11   -1    0    0    0    0  0.00000000000E+00  0.00000000000E+00  0.45593999997E+02  0.45594000000E+02  0.51100000000E-03 0.  1.
         11   -1    0    0    0    0 -0.00000000000E+00 -0.00000000000E+00 -0.45593999997E+02  0.45594000000E+02  0.51100000000E-03 0. -1.
    9900012    2    1    2    0    0 -0.33979907994E+02  0.17760193542E+02  0.13531722088E+02  0.50528854355E+02  0.29999983296E+02 0.  0.
         12    1    1    2    0    0  0.33979907994E+02 -0.17760193542E+02 -0.13531722088E+02  0.40659145645E+02  0.00000000000E+00 0. -1.
         11    1    3    3    0    0 -0.49914759866E+01  0.72214154051E+01  0.53730776288E+01  0.10292406737E+02  0.51100000000E-03 0. -1.
        -11    1    3    3    0    0 -0.53685318564E+01  0.68319148181E+01  0.13198731527E+02  0.15801984323E+02  0.51100000000E-03 0.  1.
        -12    1    3    3    0    0 -0.23619900151E+02  0.37068633190E+01 -0.50400870675E+01  0.24434463294E+02  0.00000000000E+00 0.  1.
</event>
<event>
 7    1  0.6726285E-013  0.5052886E+02  0.7816164E-02  0.1300439E+00
        -11   -1    0    0    0    0  0.00000000000E+00  0.00000000000E+00  0.45593999997E+02  0.45594000000E+02  0.51100000000E-03 0. -1.
         11   -1    0    0    0    0 -0.00000000000E+00 -0.00000000000E+00 -0.45593999997E+02  0.45594000000E+02  0.51100000000E-03 0.  1.
    9900012    2    1    2    0    0  0.12266619958E+01  0.32150537235E+02 -0.24859682990E+02  0.50528861021E+02  0.30000003561E+02 0.  0.
         12    1    1    2    0    0 -0.12266619958E+01 -0.32150537235E+02  0.24859682990E+02  0.40659138979E+02  0.00000000000E+00 0. -1.
         11    1    3    3    0    0  0.21072924331E+00  0.16260281918E+02 -0.23614586659E+01  0.16432214159E+02  0.51100000000E-03 0. -1.
        -11    1    3    3    0    0 -0.74353127332E+01  0.44561129375E+00 -0.36158793336E+01  0.82799171784E+01  0.51100000000E-03 0.  1.
         12    1    3    3    0    0  0.84512454857E+01  0.15444644022E+02 -0.18882344990E+02  0.25816729684E+02  0.00000000000E+00 0. -1.
</event>
<event>
 7    1  0.6726285E-013  0.5052886E+02  0.7816164E-02  0.1300439E+00
        -11   -1    0    0    0    0  0.00000000000E+00  0.00000000000E+00  0.45593999997E+02  0.45594000000E+02  0.51100000000E-03 0.  1.
         11   -1    0    0    0    0 -0.00000000000E+00 -0.00000000000E+00 -0.45593999997E+02  0.45594000000E+02  0.51100000000E-03 0. -1.
    9900012    2    1    2    0    0  0.23424814134E+02 -0.21278902116E+02 -0.25527481268E+02  0.50528857211E+02  0.29999991979E+02 0.  0.
         12    1    1    2    0    0 -0.23424814134E+02  0.21278902116E+02  0.25527481268E+02  0.40659142789E+02  0.00000000000E+00 0. -1.
         11    1    3    3    0    0 -0.44220937852E+00 -0.47641084526E+01 -0.71239095168E+00  0.48373318691E+01  0.51100000000E-03 0. -1.
        -11    1    3    3    0    0  0.42980102974E+01 -0.14895023919E+02 -0.20655782480E+01  0.15639732857E+02  0.51100000000E-03 0.  1.
         12    1    3    3    0    0  0.19569013215E+02 -0.16197697438E+01 -0.22749512068E+02  0.30051792485E+02  0.00000000000E+00 0. -1.
</event>
<event>
 7    1  0.6726285E-013  0.5052886E+02  0.7816164E-02  0.1300439E+00
        -11   -1    0    0    0    0  0.00000000000E+00  0.00000000000E+00  0.45593999997E+02  0.45594000000E+02  0.51100000000E-03 0. -1.
         11   -1    0    0    0    0 -0.00000000000E+00 -0.00000000000E+00 -0.45593999997E+02  0.45594000000E+02  0.51100000000E-03 0.  1.
    9900012    2    1    2    0    0 -0.37743748322E+02 -0.37379103654E+01 -0.14649343626E+02  0.50528858593E+02  0.29999996179E+02 0.  0.
         12    1    1    2    0    0  0.37743748322E+02  0.37379103654E+01  0.14649343626E+02  0.40659141407E+02  0.00000000000E+00 0. -1.
         11    1    3    3    0    0  0.75838199075E+00  0.17342259921E+01 -0.15553659718E+01  0.24498666500E+01  0.51100000000E-03 0. -1.
        -11    1    3    3    0    0 -0.11703627331E+02 -0.86228895098E+01 -0.15176580955E+02  0.21015654307E+02  0.51100000000E-03 0.  1.
        -12    1    3    3    0    0 -0.26798502982E+02  0.31507531522E+01  0.20826033012E+01  0.27063337636E+02  0.00000000000E+00 0.  1.
</event>
<event>
 7    1  0.6726285E-013  0.5052886E+02  0.7816164E-02  0.1300439E+00
        -11   -1    0    0    0    0  0.00000000000E+00  0.00000000000E+00  0.45593999997E+02  0.45594000000E+02  0.51100000000E-03 0. -1.
         11   -1    0    0    0    0 -0.00000000000E+00 -0.00000000000E+00 -0.45593999997E+02  0.45594000000E+02  0.51100000000E-03 0.  1.
    9900012    2    1    2    0    0  0.30617434344E+02  0.23458096288E+02 -0.12862971731E+02  0.50528860695E+02  0.30000002570E+02 0.  0.
         12    1    1    2    0    0 -0.30617434344E+02 -0.23458096288E+02  0.12862971731E+02  0.40659139305E+02  0.00000000000E+00 0. -1.
         11    1    3    3    0    0  0.63269985880E+01  0.19581874647E+01 -0.20433385129E+01  0.69311356803E+01  0.51100000000E-03 0. -1.
        -11    1    3    3    0    0  0.19072196494E+02  0.18514990017E+01 -0.12994174831E+02  0.23152220356E+02  0.51100000000E-03 0.  1.
         12    1    3    3    0    0  0.52182392619E+01  0.19648409822E+02  0.21745416129E+01  0.20445504659E+02  0.00000000000E+00 0. -1.
</event>
<event>
 7    1  0.6726285E-013  0.5052885E+02  0.7816164E-02  0.1300439E+00
        -11   -1    0    0    0    0  0.00000000000E+00  0.00000000000E+00  0.45593999997E+02  0.45594000000E+02  0.51100000000E-03 0. -1.
         11   -1    0    0    0    0 -0.00000000000E+00 -0.00000000000E+00 -0.45593999997E+02  0.45594000000E+02  0.51100000000E-03 0.  1.
    9900012    2    1    2    0    0  0.26155682818E+02 -0.24621572584E+02  0.19047960074E+02  0.50528851421E+02  0.29999974380E+02 0.  0.
         12    1    1    2    0    0 -0.26155682818E+02  0.24621572584E+02 -0.19047960074E+02  0.40659148579E+02  0.00000000000E+00 0. -1.
         11    1    3    3    0    0  0.96903086567E+01 -0.10817459900E+02  0.12917393380E+02  0.19436526762E+02  0.51100000000E-03 0. -1.
        -11    1    3    3    0    0  0.10773134626E+02  0.30376697635E+01  0.71557832702E+01  0.13285070633E+02  0.51100000000E-03 0.  1.
        -12    1    3    3    0    0  0.56922395349E+01 -0.16841782447E+02 -0.10252165766E+01  0.17807254026E+02  0.00000000000E+00 0.  1.
</event>
<event>
 7    1  0.6726285E-013  0.5052886E+02  0.7816164E-02  0.1300439E+00
        -11   -1    0    0    0    0  0.00000000000E+00  0.00000000000E+00  0.45593999997E+02  0.45594000000E+02  0.51100000000E-03 0. -1.
         11   -1    0    0    0    0 -0.00000000000E+00 -0.00000000000E+00 -0.45593999997E+02  0.45594000000E+02  0.51100000000E-03 0.  1.
    9900012    2    1    2    0    0 -0.39198682864E+02  0.10687697756E+02 -0.15497587545E+01  0.50528863588E+02  0.30000011361E+02 0.  0.
         12    1    1    2    0    0  0.39198682864E+02 -0.10687697756E+02  0.15497587545E+01  0.40659136412E+02  0.00000000000E+00 0. -1.
         11    1    3    3    0    0 -0.38120943742E+02  0.13328157351E+02  0.10476553400E+00  0.40383871858E+02  0.51100000000E-03 0. -1.
        -11    1    3    3    0    0 -0.32116814175E+01  0.16457490615E+01  0.19960517108E+01  0.41240283940E+01  0.51100000000E-03 0.  1.
        -12    1    3    3    0    0  0.21339422952E+01 -0.42862086567E+01 -0.36505759993E+01  0.60209633361E+01  0.00000000000E+00 0.  1.
</event>
<event>
 7    1  0.6726285E-013  0.5052886E+02  0.7816164E-02  0.1300439E+00
        -11   -1    0    0    0    0  0.00000000000E+00  0.00000000000E+00  0.45593999997E+02  0.45594000000E+02  0.51100000000E-03 0.  1.
         11   -1    0    0    0    0 -0.00000000000E+00 -0.00000000000E+00 -0.45593999997E+02  0.45594000000E+02  0.51100000000E-03 0. -1.
    9900012    2    1    2    0    0  0.13788887027E+02  0.15349390234E+02  0.35034679198E+02  0.50528856717E+02  0.29999990476E+02 0.  0.
         12    1    1    2    0    0 -0.13788887027E+02 -0.15349390234E+02 -0.35034679198E+02  0.40659143283E+02  0.00000000000E+00 0. -1.
         11    1    3    3    0    0 -0.12733446380E+01  0.15845600252E+01  0.15841985375E+01  0.25771927184E+01  0.51100000000E-03 0. -1.
        -11    1    3    3    0    0  0.35239411807E+01 -0.36716675760E+01 -0.30164669458E+01  0.59159426409E+01  0.51100000000E-03 0.  1.
         12    1    3    3    0    0  0.11538290485E+02  0.17436497784E+02  0.36466947607E+02  0.42035721357E+02  0.00000000000E+00 0. -1.
</event>
<event>
 7    1  0.6726285E-013  0.5052886E+02  0.7816164E-02  0.1300439E+00
        -11   -1    0    0    0    0  0.00000000000E+00  0.00000000000E+00  0.45593999997E+02  0.45594000000E+02  0.51100000000E-03 0.  1.
         11   -1    0    0    0    0 -0.00000000000E+00 -0.00000000000E+00 -0.45593999997E+02  0.45594000000E+02  0.51100000000E-03 0. -1.
    9900012    2    1    2    0    0  0.22032347149E+02 -0.11646863439E+02  0.32126188128E+02  0.50528859423E+02  0.29999998701E+02 0.  0.
         12    1    1    2    0    0 -0.22032347149E+02  0.11646863439E+02 -0.32126188128E+02  0.40659140577E+02  0.00000000000E+00 0. -1.
         11    1    3    3    0    0  0.14711380349E+02 -0.64904179305E+01  0.42305230065E+01  0.16626712298E+02  0.51100000000E-03 0. -1.
        -11    1    3    3    0    0  0.23655779267E+01 -0.12798258840E+01 -0.19999457683E+01  0.33516707115E+01  0.51100000000E-03 0.  1.
        -12    1    3    3    0    0  0.49553888736E+01 -0.38766196244E+01  0.29895610890E+02  0.30550476413E+02  0.00000000000E+00 0.  1.
</event>
<event>
 7    1  0.6726285E-013  0.5052883E+02  0.7816164E-02  0.1300439E+00
        -11   -1    0    0    0    0  0.00000000000E+00  0.00000000000E+00  0.45593999997E+02  0.45594000000E+02  0.51100000000E-03 0.  1.
         11   -1    0    0    0    0 -0.00000000000E+00 -0.00000000000E+00 -0.45593999997E+02  0.45594000000E+02  0.51100000000E-03 0. -1.
    9900012    2    1    2    0    0 -0.19802647438E+02  0.34277829938E+02  0.92765296101E+01  0.50528825483E+02  0.29999895538E+02 0.  0.
         12    1    1    2    0    0  0.19802647438E+02 -0.34277829938E+02 -0.92765296101E+01  0.40659174517E+02  0.00000000000E+00 0. -1.
         11    1    3    3    0    0  0.30232705612E+01  0.98736431606E+01 -0.38076070181E+01  0.11005765108E+02  0.51100000000E-03 0. -1.
        -11    1    3    3    0    0 -0.10557276197E+02  0.12928464030E+01  0.94380670359E+00  0.10677935376E+02  0.51100000000E-03 0.  1.
        -12    1    3    3    0    0 -0.12268641802E+02  0.23111340374E+02  0.12140329925E+02  0.28845124999E+02  0.00000000000E+00 0.  1.
</event>
<event>
 7    1  0.6726285E-013  0.5052885E+02  0.7816164E-02  0.1300439E+00
        -11   -1    0    0    0    0  0.00000000000E+00  0.00000000000E+00  0.45593999997E+02  0.45594000000E+02  0.51100000000E-03 0.  1.
         11   -1    0    0    0    0 -0.00000000000E+00 -0.00000000000E+00 -0.45593999997E+02  0.45594000000E+02  0.51100000000E-03 0. -1.
    9900012    2    1    2    0    0  0.20291711463E+02  0.26628435232E+02  0.23072481461E+02  0.50528849520E+02  0.29999968601E+02 0.  0.
         12    1    1    2    0    0 -0.20291711463E+02 -0.26628435232E+02 -0.23072481461E+02  0.40659150480E+02  0.00000000000E+00 0. -1.
         11    1    3    3    0    0 -0.10535485861E+01  0.14159572900E+01 -0.17892226827E+01  0.25132086543E+01  0.51100000000E-03 0. -1.
        -11    1    3    3    0    0  0.87770832254E+01 -0.15173959846E+01 -0.72562425199E+00  0.89367897668E+01  0.51100000000E-03 0.  1.
        -12    1    3    3    0    0  0.12568176824E+02  0.26729873926E+02  0.25587328396E+02  0.39078851099E+02  0.00000000000E+00 0.  1.
</event>
<event>
 7    1  0.6726285E-013  0.5052885E+02  0.7816164E-02  0.1300439E+00
        -11   -1    0    0    0    0  0.00000000000E+00  0.00000000000E+00  0.45593999997E+02  0.45594000000E+02  0.51100000000E-03 0.  1.
         11   -1    0    0    0    0 -0.00000000000E+00 -0.00000000000E+00 -0.45593999997E+02  0.45594000000E+02  0.51100000000E-03 0. -1.
    9900012    2    1    2    0    0 -0.40593267235E+02  0.14237285083E+01  0.18237487775E+01  0.50528850879E+02  0.29999972731E+02 0.  0.
         12    1    1    2    0    0  0.40593267235E+02 -0.14237285083E+01 -0.18237487775E+01  0.40659149121E+02  0.00000000000E+00 0. -1.
         11    1    3    3    0    0  0.49590146453E+00 -0.58887869013E+00 -0.16491308493E+01  0.18199805476E+01  0.51100000000E-03 0. -1.
        -11    1    3    3    0    0 -0.24989211730E+02  0.32468182888E+01 -0.10553843257E+02  0.27320068441E+02  0.51100000000E-03 0.  1.
         12    1    3    3    0    0 -0.16099956970E+02 -0.12342110904E+01  0.14026722884E+02  0.21388801890E+02  0.00000000000E+00 0. -1.
</event>
<event>
 7    1  0.6726285E-013  0.5052886E+02  0.7816164E-02  0.1300439E+00
        -11   -1    0    0    0    0  0.00000000000E+00  0.00000000000E+00  0.45593999997E+02  0.45594000000E+02  0.51100000000E-03 0. -1.
         11   -1    0    0    0    0 -0.00000000000E+00 -0.00000000000E+00 -0.45593999997E+02  0.45594000000E+02  0.51100000000E-03 0.  1.
    9900012    2    1    2    0    0 -0.11933776360E+02 -0.19940850377E+02 -0.33363354977E+02  0.50528856043E+02  0.29999988428E+02 0.  0.
         12    1    1    2    0    0  0.11933776360E+02  0.19940850377E+02  0.33363354977E+02  0.40659143957E+02  0.00000000000E+00 0. -1.
         11    1    3    3    0    0  0.48040434431E+01 -0.22724467540E+01 -0.65176698046E-01  0.53147997061E+01  0.51100000000E-03 0. -1.
        -11    1    3    3    0    0 -0.32305920279E+01 -0.16045148379E+02 -0.13630238918E+02  0.21299458317E+02  0.51100000000E-03 0.  1.
        -12    1    3    3    0    0 -0.13507227776E+02 -0.16232552442E+01 -0.19667939361E+02  0.23914598020E+02  0.00000000000E+00 0.  1.
</event>
<event>
 7    1  0.6726285E-013  0.5052887E+02  0.7816164E-02  0.1300439E+00
        -11   -1    0    0    0    0  0.00000000000E+00  0.00000000000E+00  0.45593999997E+02  0.45594000000E+02  0.51100000000E-03 0.  1.
         11   -1    0    0    0    0 -0.00000000000E+00 -0.00000000000E+00 -0.45593999997E+02  0.45594000000E+02  0.51100000000E-03 0. -1.
    9900012    2    1    2    0    0  0.46551481602E+01  0.33256218670E+02  0.22924193360E+02  0.50528866637E+02  0.30000020629E+02 0.  0.
         12    1    1    2    0    0 -0.46551481602E+01 -0.33256218670E+02 -0.22924193360E+02  0.40659133363E+02  0.00000000000E+00 0. -1.
         11    1    3    3    0    0 -0.47357827109E+01  0.34647093869E+01 -0.29346330176E+01  0.65607865557E+01  0.51100000000E-03 0. -1.
        -11    1    3    3    0    0  0.22876154305E+01 -0.14643161619E+01 -0.10593127040E+00  0.27182030600E+01  0.51100000000E-03 0.  1.
        -12    1    3    3    0    0  0.71033154406E+01  0.31255825445E+02  0.25964757648E+02  0.41249877021E+02  0.00000000000E+00 0.  1.
</event>
<event>
 7    1  0.6726285E-013  0.5052886E+02  0.7816164E-02  0.1300439E+00
        -11   -1    0    0    0    0  0.00000000000E+00  0.00000000000E+00  0.45593999997E+02  0.45594000000E+02  0.51100000000E-03 0. -1.
         11   -1    0    0    0    0 -0.00000000000E+00 -0.00000000000E+00 -0.45593999997E+02  0.45594000000E+02  0.51100000000E-03 0.  1.
    9900012    2    1    2    0    0  0.18317936158E+02 -0.26162277696E+02 -0.25162560468E+02  0.50528855780E+02  0.29999987629E+02 0.  0.
         12    1    1    2    0    0 -0.18317936158E+02  0.26162277696E+02  0.25162560468E+02  0.40659144220E+02  0.00000000000E+00 0. -1.
         11    1    3    3    0    0  0.65268502879E+01 -0.87255670414E+01 -0.22316834892E+02  0.24834983687E+02  0.51100000000E-03 0. -1.
        -11    1    3    3    0    0  0.38602793122E+01 -0.10581385257E+02 -0.81908086130E+01  0.13926837987E+02  0.51100000000E-03 0.  1.
         12    1    3    3    0    0  0.79308065583E+01 -0.68553253981E+01  0.53450830367E+01  0.11767034106E+02  0.00000000000E+00 0. -1.
</event>
<event>
 7    1  0.6726285E-013  0.5052887E+02  0.7816164E-02  0.1300439E+00
        -11   -1    0    0    0    0  0.00000000000E+00  0.00000000000E+00  0.45593999997E+02  0.45594000000E+02  0.51100000000E-03 0. -1.
         11   -1    0    0    0    0 -0.00000000000E+00 -0.00000000000E+00 -0.45593999997E+02  0.45594000000E+02  0.51100000000E-03 0.  1.
    9900012    2    1    2    0    0  0.37411924689E+01  0.40670326617E+01 -0.40281852263E+02  0.50528869445E+02  0.30000029165E+02 0.  0.
         12    1    1    2    0    0 -0.37411924689E+01 -0.40670326617E+01  0.40281852263E+02  0.40659130555E+02  0.00000000000E+00 0. -1.
         11    1    3    3    0    0 -0.75945087281E+00 -0.66329564275E+00 -0.20108610904E+02  0.20133875918E+02  0.51100000000E-03 0. -1.
        -11    1    3    3    0    0  0.94393835233E+01  0.45900745214E+01 -0.22579178366E+02  0.24899599221E+02  0.51100000000E-03 0.  1.
         12    1    3    3    0    0 -0.49387401815E+01  0.14025378302E+00  0.24059370067E+01  0.54953943066E+01  0.00000000000E+00 0. -1.
</event>
<event>
 7    1  0.6726285E-013  0.5052886E+02  0.7816164E-02  0.1300439E+00
        -11   -1    0    0    0    0  0.00000000000E+00  0.00000000000E+00  0.45593999997E+02  0.45594000000E+02  0.51100000000E-03 0.  1.
         11   -1    0    0    0    0 -0.00000000000E+00 -0.00000000000E+00 -0.45593999997E+02  0.45594000000E+02  0.51100000000E-03 0. -1.
    9900012    2    1    2    0    0  0.33217588170E+02  0.22607840698E+02  0.62163643654E+01  0.50528858214E+02  0.29999995027E+02 0.  0.
         12    1    1    2    0    0 -0.33217588170E+02 -0.22607840698E+02 -0.62163643654E+01  0.40659141786E+02  0.00000000000E+00 0. -1.
         11    1    3    3    0    0 -0.55045820615E+00  0.52995153933E+01  0.17833449947E+01  0.56185574013E+01  0.51100000000E-03 0. -1.
        -11    1    3    3    0    0  0.60558505714E+01  0.14835603979E+02  0.58334323680E+01  0.17052782911E+02  0.51100000000E-03 0.  1.
         12    1    3    3    0    0  0.27712195805E+02  0.24727213261E+01 -0.14004129973E+01  0.27857517902E+02  0.00000000000E+00 0. -1.
</event>
<event>
 7    1  0.6726285E-013  0.5052886E+02  0.7816164E-02  0.1300439E+00
        -11   -1    0    0    0    0  0.00000000000E+00  0.00000000000E+00  0.45593999997E+02  0.45594000000E+02  0.51100000000E-03 0. -1.
         11   -1    0    0    0    0 -0.00000000000E+00 -0.00000000000E+00 -0.45593999997E+02  0.45594000000E+02  0.51100000000E-03 0.  1.
    9900012    2    1    2    0    0 -0.35611299151E+02  0.13512860965E+02 -0.14226850325E+02  0.50528864386E+02  0.30000013788E+02 0.  0.
         12    1    1    2    0    0  0.35611299151E+02 -0.13512860965E+02  0.14226850325E+02  0.40659135614E+02  0.00000000000E+00 0. -1.
         11    1    3    3    0    0  0.20015542527E+00 -0.33177031213E+01 -0.23580367137E+01  0.40752366311E+01  0.51100000000E-03 0. -1.
        -11    1    3    3    0    0 -0.17884267321E+02  0.18114803567E+02 -0.12727116318E+02  0.28460017848E+02  0.51100000000E-03 0.  1.
         12    1    3    3    0    0 -0.17927187256E+02 -0.12842394814E+01  0.85830270606E+00  0.17993609907E+02  0.00000000000E+00 0. -1.
</event>
<event>
 7    1  0.6726285E-013  0.5052886E+02  0.7816164E-02  0.1300439E+00
        -11   -1    0    0    0    0  0.00000000000E+00  0.00000000000E+00  0.45593999997E+02  0.45594000000E+02  0.51100000000E-03 0.  1.
         11   -1    0    0    0    0 -0.00000000000E+00 -0.00000000000E+00 -0.45593999997E+02  0.45594000000E+02  0.51100000000E-03 0. -1.
    9900012    2    1    2    0    0 -0.36639932910E+02  0.17335304770E+02  0.31887734090E+01  0.50528858949E+02  0.29999997262E+02 0.  0.
         12    1    1    2    0    0  0.36639932910E+02 -0.17335304770E+02 -0.31887734090E+01  0.40659141051E+02  0.00000000000E+00 0. -1.
         11    1    3    3    0    0 -0.17008327116E+02  0.12477621693E+02  0.47340995083E+01  0.21619110361E+02  0.51100000000E-03 0.  1.
        -11    1    3    3    0    0 -0.20741263242E+02 -0.27755258730E+01  0.49148425529E+00  0.20931915865E+02  0.51100000000E-03 0. -1.
        -12    1    3    3    0    0  0.11096574482E+01  0.76332089504E+01 -0.20368103546E+01  0.79778327228E+01  0.00000000000E+00 0.  1.
</event>
<event>
 7    1  0.6726285E-013  0.5052886E+02  0.7816164E-02  0.1300439E+00
        -11   -1    0    0    0    0  0.00000000000E+00  0.00000000000E+00  0.45593999997E+02  0.45594000000E+02  0.51100000000E-03 0.  1.
         11   -1    0    0    0    0 -0.00000000000E+00 -0.00000000000E+00 -0.45593999997E+02  0.45594000000E+02  0.51100000000E-03 0. -1.
    9900012    2    1    2    0    0  0.29585519648E+02 -0.25643596935E+02  0.10966713230E+02  0.50528857908E+02  0.29999994096E+02 0.  0.
         12    1    1    2    0    0 -0.29585519648E+02  0.25643596935E+02 -0.10966713230E+02  0.40659142092E+02  0.00000000000E+00 0. -1.
         11    1    3    3    0    0 -0.23281694106E+01 -0.76243728128E+01  0.30930814955E+01  0.85509407080E+01  0.51100000000E-03 0. -1.
        -11    1    3    3    0    0  0.92122476301E+01 -0.15965274442E+02  0.38842804614E+01  0.18837280307E+02  0.51100000000E-03 0.  1.
        -12    1    3    3    0    0  0.22701441428E+02 -0.20539496808E+01  0.39893512733E+01  0.23140636893E+02  0.00000000000E+00 0.  1.
</event>
<event>
 7    1  0.6726285E-013  0.5052886E+02  0.7816164E-02  0.1300439E+00
        -11   -1    0    0    0    0  0.00000000000E+00  0.00000000000E+00  0.45593999997E+02  0.45594000000E+02  0.51100000000E-03 0. -1.
         11   -1    0    0    0    0 -0.00000000000E+00 -0.00000000000E+00 -0.45593999997E+02  0.45594000000E+02  0.51100000000E-03 0.  1.
    9900012    2    1    2    0    0  0.17016752616E+02  0.29160700894E+02 -0.22655001667E+02  0.50528862690E+02  0.30000008633E+02 0.  0.
         12    1    1    2    0    0 -0.17016752616E+02 -0.29160700894E+02  0.22655001667E+02  0.40659137310E+02  0.00000000000E+00 0. -1.
         11    1    3    3    0    0  0.54928777095E+01  0.25660261290E+01 -0.16018946185E+02  0.17127837948E+02  0.51100000000E-03 0.  1.
        -11    1    3    3    0    0 -0.20468060170E+01 -0.76065846940E+00 -0.69895030323E+00  0.22927162855E+01  0.51100000000E-03 0. -1.
        -12    1    3    3    0    0  0.13570680924E+02  0.27355333235E+02 -0.59371051784E+01  0.31108308456E+02  0.00000000000E+00 0.  1.
</event>
<event>
 7    1  0.6726285E-013  0.5052889E+02  0.7816164E-02  0.1300439E+00
        -11   -1    0    0    0    0  0.00000000000E+00  0.00000000000E+00  0.45593999997E+02  0.45594000000E+02  0.51100000000E-03 0.  1.
         11   -1    0    0    0    0 -0.00000000000E+00 -0.00000000000E+00 -0.45593999997E+02  0.45594000000E+02  0.51100000000E-03 0. -1.
    9900012    2    1    2    0    0  0.37560775297E+02  0.11959003110E+02  0.99666406599E+01  0.50528886355E+02  0.30000080566E+02 0.  0.
         12    1    1    2    0    0 -0.37560775297E+02 -0.11959003110E+02 -0.99666406599E+01  0.40659113645E+02  0.00000000000E+00 0. -1.
         11    1    3    3    0    0  0.20269480017E+02  0.99723007257E+00  0.13358697612E+02  0.24296112654E+02  0.51100000000E-03 0. -1.
        -11    1    3    3    0    0  0.10966300501E+02  0.63142963165E+01  0.59901457990E+01  0.14000426122E+02  0.51100000000E-03 0.  1.
         12    1    3    3    0    0  0.63249947801E+01  0.46474767205E+01 -0.93822027509E+01  0.12232347579E+02  0.00000000000E+00 0. -1.
</event>
<event>
 7    1  0.6726285E-013  0.5052885E+02  0.7816164E-02  0.1300439E+00
        -11   -1    0    0    0    0  0.00000000000E+00  0.00000000000E+00  0.45593999997E+02  0.45594000000E+02  0.51100000000E-03 0.  1.
         11   -1    0    0    0    0 -0.00000000000E+00 -0.00000000000E+00 -0.45593999997E+02  0.45594000000E+02  0.51100000000E-03 0. -1.
    9900012    2    1    2    0    0 -0.20978624474E+02 -0.34648406086E+02  0.35428214604E+01  0.50528852037E+02  0.29999976252E+02 0.  0.
         12    1    1    2    0    0  0.20978624474E+02  0.34648406086E+02 -0.35428214604E+01  0.40659147963E+02  0.00000000000E+00 0. -1.
         11    1    3    3    0    0 -0.25442677212E+01  0.10425519000E-01  0.61983374201E+01  0.67002085014E+01  0.51100000000E-03 0. -1.
        -11    1    3    3    0    0 -0.28700201438E+01  0.22784772369E+01 -0.13826229979E+00  0.36670956995E+01  0.51100000000E-03 0.  1.
        -12    1    3    3    0    0 -0.15564336609E+02 -0.36937308842E+02 -0.25172536599E+01  0.40161547836E+02  0.00000000000E+00 0.  1.
</event>
<event>
 7    1  0.6726285E-013  0.5052886E+02  0.7816164E-02  0.1300439E+00
        -11   -1    0    0    0    0  0.00000000000E+00  0.00000000000E+00  0.45593999997E+02  0.45594000000E+02  0.51100000000E-03 0. -1.
         11   -1    0    0    0    0 -0.00000000000E+00 -0.00000000000E+00 -0.45593999997E+02  0.45594000000E+02  0.51100000000E-03 0.  1.
    9900012    2    1    2    0    0 -0.28470284342E+02  0.81040534889E+01 -0.27873519299E+02  0.50528857712E+02  0.29999993502E+02 0.  0.
         12    1    1    2    0    0  0.28470284342E+02 -0.81040534889E+01  0.27873519299E+02  0.40659142288E+02  0.00000000000E+00 0. -1.
         11    1    3    3    0    0 -0.41924664718E+01  0.24816930140E+01 -0.42684922287E+01  0.64773143741E+01  0.51100000000E-03 0. -1.
        -11    1    3    3    0    0 -0.10918683653E+02  0.11517792837E+02 -0.24753503839E+02  0.29404305078E+02  0.51100000000E-03 0.  1.
         12    1    3    3    0    0 -0.13359134217E+02 -0.58954323623E+01  0.11484767684E+01  0.14647238260E+02  0.00000000000E+00 0. -1.
</event>
<event>
 7    1  0.6726285E-013  0.5052884E+02  0.7816164E-02  0.1300439E+00
        -11   -1    0    0    0    0  0.00000000000E+00  0.00000000000E+00  0.45593999997E+02  0.45594000000E+02  0.51100000000E-03 0. -1.
         11   -1    0    0    0    0 -0.00000000000E+00 -0.00000000000E+00 -0.45593999997E+02  0.45594000000E+02  0.51100000000E-03 0.  1.
    9900012    2    1    2    0    0 -0.26269221536E+02  0.27840073725E+02 -0.13712232334E+02  0.50528843335E+02  0.29999949802E+02 0.  0.
         12    1    1    2    0    0  0.26269221536E+02 -0.27840073725E+02  0.13712232334E+02  0.40659156665E+02  0.00000000000E+00 0. -1.
         11    1    3    3    0    0  0.12054324878E+01  0.27815854021E+00 -0.25173901376E+01  0.28049408233E+01  0.51100000000E-03 0. -1.
        -11    1    3    3    0    0  0.29048356787E+01 -0.12751135320E+01 -0.41902114188E+01  0.52556499917E+01  0.51100000000E-03 0.  1.
        -12    1    3    3    0    0 -0.30379489703E+02  0.28837028716E+02 -0.70046307773E+01  0.42468252520E+02  0.00000000000E+00 0.  1.
</event>
<event>
 7    1  0.6726285E-013  0.5052883E+02  0.7816164E-02  0.1300439E+00
        -11   -1    0    0    0    0  0.00000000000E+00  0.00000000000E+00  0.45593999997E+02  0.45594000000E+02  0.51100000000E-03 0.  1.
         11   -1    0    0    0    0 -0.00000000000E+00 -0.00000000000E+00 -0.45593999997E+02  0.45594000000E+02  0.51100000000E-03 0. -1.
    9900012    2    1    2    0    0 -0.37706325341E+00  0.37719134244E+02  0.15175397991E+02  0.50528831674E+02  0.29999914355E+02 0.  0.
         12    1    1    2    0    0  0.37706325341E+00 -0.37719134244E+02 -0.15175397991E+02  0.40659168326E+02  0.00000000000E+00 0. -1.
         11    1    3    3    0    0 -0.49354232506E+01 -0.20396711978E+01  0.69530683990E+00  0.53853610018E+01  0.51100000000E-03 0. -1.
        -11    1    3    3    0    0  0.71883426919E+01  0.10240882694E+02  0.89704739628E+00  0.12544028193E+02  0.51100000000E-03 0.  1.
        -12    1    3    3    0    0 -0.26299826947E+01  0.29517922747E+02  0.13583043755E+02  0.32599442479E+02  0.00000000000E+00 0.  1.
</event>
<event>
 7    1  0.6726285E-013  0.5052886E+02  0.7816164E-02  0.1300439E+00
        -11   -1    0    0    0    0  0.00000000000E+00  0.00000000000E+00  0.45593999997E+02  0.45594000000E+02  0.51100000000E-03 0. -1.
         11   -1    0    0    0    0 -0.00000000000E+00 -0.00000000000E+00 -0.45593999997E+02  0.45594000000E+02  0.51100000000E-03 0.  1.
    9900012    2    1    2    0    0  0.18576512170E+02  0.23368379391E+02 -0.27604301745E+02  0.50528862840E+02  0.30000009089E+02 0.  0.
         12    1    1    2    0    0 -0.18576512170E+02 -0.23368379391E+02  0.27604301745E+02  0.40659137160E+02  0.00000000000E+00 0. -1.
         11    1    3    3    0    0 -0.27680629546E+00  0.31787177392E+00  0.26125113113E+01  0.26462954866E+01  0.51100000000E-03 0. -1.
        -11    1    3    3    0    0  0.44209715098E+00  0.77331187844E+01  0.17482610924E+01  0.79405914851E+01  0.51100000000E-03 0.  1.
        -12    1    3    3    0    0  0.18411221315E+02  0.15317388833E+02 -0.31965074148E+02  0.39941975868E+02  0.00000000000E+00 0.  1.
</event>
<event>
 7    1  0.6726285E-013  0.5052886E+02  0.7816164E-02  0.1300439E+00
        -11   -1    0    0    0    0  0.00000000000E+00  0.00000000000E+00  0.45593999997E+02  0.45594000000E+02  0.51100000000E-03 0.  1.
         11   -1    0    0    0    0 -0.00000000000E+00 -0.00000000000E+00 -0.45593999997E+02  0.45594000000E+02  0.51100000000E-03 0. -1.
    9900012    2    1    2    0    0  0.13775311679E+02  0.37514821869E+02  0.74862978343E+01  0.50528859245E+02  0.29999998160E+02 0.  0.
         12    1    1    2    0    0 -0.13775311679E+02 -0.37514821869E+02 -0.74862978343E+01  0.40659140755E+02  0.00000000000E+00 0. -1.
         11    1    3    3    0    0  0.57972148230E+01  0.83100336199E+01 -0.45475804631E+01  0.11106072519E+02  0.51100000000E-03 0. -1.
        -11    1    3    3    0    0  0.14340307168E+02  0.12384061989E+02  0.26313479139E+01  0.19129385591E+02  0.51100000000E-03 0.  1.
         12    1    3    3    0    0 -0.63622103120E+01  0.16820726260E+02  0.94025303835E+01  0.20293401134E+02  0.00000000000E+00 0. -1.
</event>
<event>
 7    1  0.6726285E-013  0.5052885E+02  0.7816164E-02  0.1300439E+00
        -11   -1    0    0    0    0  0.00000000000E+00  0.00000000000E+00  0.45593999997E+02  0.45594000000E+02  0.51100000000E-03 0.  1.
         11   -1    0    0    0    0 -0.00000000000E+00 -0.00000000000E+00 -0.45593999997E+02  0.45594000000E+02  0.51100000000E-03 0. -1.
    9900012    2    1    2    0    0  0.36641017271E+02 -0.12135919286E+02  0.12779732363E+02  0.50528852900E+02  0.29999978876E+02 0.  0.
         12    1    1    2    0    0 -0.36641017271E+02  0.12135919286E+02 -0.12779732363E+02  0.40659147100E+02  0.00000000000E+00 0. -1.
         11    1    3    3    0    0  0.14740884441E+02  0.44604336056E+01 -0.76496702060E+00  0.15419932453E+02  0.51100000000E-03 0. -1.
        -11    1    3    3    0    0 -0.11218403807E+01 -0.34865975474E+01  0.68742593989E+01  0.77891161784E+01  0.51100000000E-03 0.  1.
        -12    1    3    3    0    0  0.23021973211E+02 -0.13109755344E+02  0.66704399848E+01  0.27319804269E+02  0.00000000000E+00 0.  1.
</event>
<event>
 7    1  0.6726285E-013  0.5052893E+02  0.7816164E-02  0.1300439E+00
        -11   -1    0    0    0    0  0.00000000000E+00  0.00000000000E+00  0.45593999997E+02  0.45594000000E+02  0.51100000000E-03 0. -1.
         11   -1    0    0    0    0 -0.00000000000E+00 -0.00000000000E+00 -0.45593999997E+02  0.45594000000E+02  0.51100000000E-03 0.  1.
    9900012    2    1    2    0    0  0.34199874806E+02 -0.20689183390E+02  0.74488952671E+01  0.50528932293E+02  0.30000220198E+02 0.  0.
         12    1    1    2    0    0 -0.34199874806E+02  0.20689183390E+02 -0.74488952671E+01  0.40659067707E+02  0.00000000000E+00 0. -1.
         11    1    3    3    0    0 -0.84434286286E+00  0.28771611039E+01 -0.22308855898E+01  0.37373549021E+01  0.51100000000E-03 0. -1.
        -11    1    3    3    0    0  0.39364848699E+00  0.39963308935E+00  0.42791249531E+01  0.43157359005E+01  0.51100000000E-03 0.  1.
        -12    1    3    3    0    0  0.34650569182E+02 -0.23965977583E+02  0.54006559038E+01  0.42475841491E+02  0.00000000000E+00 0.  1.
</event>
<event>
 7    1  0.6726285E-013  0.5052887E+02  0.7816164E-02  0.1300439E+00
        -11   -1    0    0    0    0  0.00000000000E+00  0.00000000000E+00  0.45593999997E+02  0.45594000000E+02  0.51100000000E-03 0.  1.
         11   -1    0    0    0    0 -0.00000000000E+00 -0.00000000000E+00 -0.45593999997E+02  0.45594000000E+02  0.51100000000E-03 0. -1.
    9900012    2    1    2    0    0 -0.40525767155E+02  0.92449621446E+00  0.31579453458E+01  0.50528866764E+02  0.30000021015E+02 0.  0.
         12    1    1    2    0    0  0.40525767155E+02 -0.92449621446E+00 -0.31579453458E+01  0.40659133236E+02  0.00000000000E+00 0. -1.
         11    1    3    3    0    0 -0.28368989582E+02  0.67994953390E+01 -0.26921506816E+00  0.29173707062E+02  0.51100000000E-03 0. -1.
        -11    1    3    3    0    0 -0.11210049314E+02 -0.57629103772E-01 -0.39741457115E+01  0.11893795069E+02  0.51100000000E-03 0.  1.
        -12    1    3    3    0    0 -0.94672825890E+00 -0.58173700207E+01  0.74013061254E+01  0.94613646329E+01  0.00000000000E+00 0.  1.
</event>
<event>
 7    1  0.6726285E-013  0.5052886E+02  0.7816164E-02  0.1300439E+00
        -11   -1    0    0    0    0  0.00000000000E+00  0.00000000000E+00  0.45593999997E+02  0.45594000000E+02  0.51100000000E-03 0. -1.
         11   -1    0    0    0    0 -0.00000000000E+00 -0.00000000000E+00 -0.45593999997E+02  0.45594000000E+02  0.51100000000E-03 0.  1.
    9900012    2    1    2    0    0 -0.30113749368E+02  0.25050733913E+02 -0.10899023140E+02  0.50528857412E+02  0.29999992590E+02 0.  0.
         12    1    1    2    0    0  0.30113749368E+02 -0.25050733913E+02  0.10899023140E+02  0.40659142588E+02  0.00000000000E+00 0. -1.
         11    1    3    3    0    0 -0.17830315526E+02  0.17829294609E+02  0.24665938917E+01  0.25335508357E+02  0.51100000000E-03 0. -1.
        -11    1    3    3    0    0 -0.10494892841E+02  0.23577379111E+01  0.10854774883E+00  0.10757020344E+02  0.51100000000E-03 0.  1.
         12    1    3    3    0    0 -0.17885410016E+01  0.48637013922E+01 -0.13474164780E+02  0.14436328712E+02  0.00000000000E+00 0. -1.
</event>
<event>
 7    1  0.6726285E-013  0.5052886E+02  0.7816164E-02  0.1300439E+00
        -11   -1    0    0    0    0  0.00000000000E+00  0.00000000000E+00  0.45593999997E+02  0.45594000000E+02  0.51100000000E-03 0. -1.
         11   -1    0    0    0    0 -0.00000000000E+00 -0.00000000000E+00 -0.45593999997E+02  0.45594000000E+02  0.51100000000E-03 0.  1.
    9900012    2    1    2    0    0 -0.16477133739E+02  0.16349211589E+02 -0.33382228048E+02  0.50528858282E+02  0.29999995233E+02 0.  0.
         12    1    1    2    0    0  0.16477133739E+02 -0.16349211589E+02  0.33382228048E+02  0.40659141718E+02  0.00000000000E+00 0. -1.
         11    1    3    3    0    0 -0.60356180063E+01 -0.19768714886E+01 -0.22903686808E+02  0.23767952693E+02  0.51100000000E-03 0. -1.
        -11    1    3    3    0    0 -0.47590959761E+01  0.15378430523E+00  0.49126087479E+00  0.47868550876E+01  0.51100000000E-03 0.  1.
        -12    1    3    3    0    0 -0.56824197564E+01  0.18172298772E+02 -0.10969802115E+02  0.21974050501E+02  0.00000000000E+00 0.  1.
</event>
<event>
 7    1  0.6726285E-013  0.5052885E+02  0.7816164E-02  0.1300439E+00
        -11   -1    0    0    0    0  0.00000000000E+00  0.00000000000E+00  0.45593999997E+02  0.45594000000E+02  0.51100000000E-03 0.  1.
         11   -1    0    0    0    0 -0.00000000000E+00 -0.00000000000E+00 -0.45593999997E+02  0.45594000000E+02  0.51100000000E-03 0. -1.
    9900012    2    1    2    0    0  0.11370562478E+02  0.11490200839E+01  0.39019947982E+02  0.50528852459E+02  0.29999977535E+02 0.  0.
         12    1    1    2    0    0 -0.11370562478E+02 -0.11490200839E+01 -0.39019947982E+02  0.40659147541E+02  0.00000000000E+00 0. -1.
         11    1    3    3    0    0 -0.47495658854E+01  0.62452525438E+01  0.10066839422E+02  0.12763338578E+02  0.51100000000E-03 0. -1.
        -11    1    3    3    0    0 -0.30098206828E+01  0.21320812358E+01  0.32208929153E+01  0.48968298287E+01  0.51100000000E-03 0.  1.
        -12    1    3    3    0    0  0.19129949047E+02 -0.72283136957E+01  0.25732215644E+02  0.32868684053E+02  0.00000000000E+00 0.  1.
</event>
<event>
 7    1  0.6726285E-013  0.5052886E+02  0.7816164E-02  0.1300439E+00
        -11   -1    0    0    0    0  0.00000000000E+00  0.00000000000E+00  0.45593999997E+02  0.45594000000E+02  0.51100000000E-03 0.  1.
         11   -1    0    0    0    0 -0.00000000000E+00 -0.00000000000E+00 -0.45593999997E+02  0.45594000000E+02  0.51100000000E-03 0. -1.
    9900012    2    1    2    0    0 -0.36159635130E+02 -0.14644531948E+02  0.11453550863E+02  0.50528863805E+02  0.30000012022E+02 0.  0.
         12    1    1    2    0    0  0.36159635130E+02  0.14644531948E+02 -0.11453550863E+02  0.40659136195E+02  0.00000000000E+00 0. -1.
         11    1    3    3    0    0 -0.21661799422E+02 -0.10594157175E+02  0.10813346941E+02  0.26427224462E+02  0.51100000000E-03 0. -1.
        -11    1    3    3    0    0 -0.18984756057E+02 -0.32757647398E+01 -0.92324724631E+00  0.19287404774E+02  0.51100000000E-03 0.  1.
         12    1    3    3    0    0  0.44869203494E+01 -0.77461003377E+00  0.15634511679E+01  0.48142345685E+01  0.00000000000E+00 0. -1.
</event>
<event>
 7    1  0.6726285E-013  0.5052887E+02  0.7816164E-02  0.1300439E+00
        -11   -1    0    0    0    0  0.00000000000E+00  0.00000000000E+00  0.45593999997E+02  0.45594000000E+02  0.51100000000E-03 0.  1.
         11   -1    0    0    0    0 -0.00000000000E+00 -0.00000000000E+00 -0.45593999997E+02  0.45594000000E+02  0.51100000000E-03 0. -1.
    9900012    2    1    2    0    0  0.18266908843E+02  0.15454950532E+02  0.32872932658E+02  0.50528866264E+02  0.30000019497E+02 0.  0.
         12    1    1    2    0    0 -0.18266908843E+02 -0.15454950532E+02 -0.32872932658E+02  0.40659133736E+02  0.00000000000E+00 0. -1.
         11    1    3    3    0    0  0.56019483266E+01 -0.43015935865E+01 -0.49796851454E-01  0.70631446555E+01  0.51100000000E-03 0. -1.
        -11    1    3    3    0    0 -0.20680954109E+01  0.39335497780E+01  0.14154401397E+02  0.14835663505E+02  0.51100000000E-03 0.  1.
         12    1    3    3    0    0  0.14733055927E+02  0.15822994340E+02  0.18768328113E+02  0.28630058103E+02  0.00000000000E+00 0. -1.
</event>
<event>
 7    1  0.6726285E-013  0.5052886E+02  0.7816164E-02  0.1300439E+00
        -11   -1    0    0    0    0  0.00000000000E+00  0.00000000000E+00  0.45593999997E+02  0.45594000000E+02  0.51100000000E-03 0.  1.
         11   -1    0    0    0    0 -0.00000000000E+00 -0.00000000000E+00 -0.45593999997E+02  0.45594000000E+02  0.51100000000E-03 0. -1.
    9900012    2    1    2    0    0 -0.35754432364E+02  0.19130908655E+02  0.29656120071E+01  0.50528856450E+02  0.29999989665E+02 0.  0.
         12    1    1    2    0    0  0.35754432364E+02 -0.19130908655E+02 -0.29656120071E+01  0.40659143550E+02  0.00000000000E+00 0. -1.
         11    1    3    3    0    0 -0.65612295332E+01 -0.14331748317E+01  0.30177814528E+01  0.73627935082E+01  0.51100000000E-03 0. -1.
        -11    1    3    3    0    0 -0.29103375159E+02  0.14267454874E+02  0.75643319915E+01  0.33283416786E+02  0.51100000000E-03 0.  1.
        -12    1    3    3    0    0 -0.89827672407E-01  0.62966286130E+01 -0.76165014372E+01  0.98826461559E+01  0.00000000000E+00 0.  1.
</event>
<event>
 7    1  0.6726285E-013  0.5052886E+02  0.7816164E-02  0.1300439E+00
        -11   -1    0    0    0    0  0.00000000000E+00  0.00000000000E+00  0.45593999997E+02  0.45594000000E+02  0.51100000000E-03 0. -1.
         11   -1    0    0    0    0 -0.00000000000E+00 -0.00000000000E+00 -0.45593999997E+02  0.45594000000E+02  0.51100000000E-03 0.  1.
    9900012    2    1    2    0    0 -0.26906280887E+01  0.39666330499E+02 -0.85151698445E+01  0.50528863607E+02  0.30000011419E+02 0.  0.
         12    1    1    2    0    0  0.26906280887E+01 -0.39666330499E+02  0.85151698445E+01  0.40659136393E+02  0.00000000000E+00 0. -1.
         11    1    3    3    0    0 -0.73869624415E+00 -0.39358440046E+01 -0.31676105990E+01  0.51059080816E+01  0.51100000000E-03 0. -1.
        -11    1    3    3    0    0  0.31383081154E+01  0.39571725968E+01  0.27985525404E+00  0.50583111818E+01  0.51100000000E-03 0.  1.
         12    1    3    3    0    0 -0.50902399600E+01  0.39645001907E+02 -0.56274144996E+01  0.40364644343E+02  0.00000000000E+00 0. -1.
</event>
<event>
 7    1  0.6726285E-013  0.5052885E+02  0.7816164E-02  0.1300439E+00
        -11   -1    0    0    0    0  0.00000000000E+00  0.00000000000E+00  0.45593999997E+02  0.45594000000E+02  0.51100000000E-03 0.  1.
         11   -1    0    0    0    0 -0.00000000000E+00 -0.00000000000E+00 -0.45593999997E+02  0.45594000000E+02  0.51100000000E-03 0. -1.
    9900012    2    1    2    0    0 -0.18771892831E+02 -0.30907479060E+02 -0.18587905295E+02  0.50528850408E+02  0.29999971301E+02 0.  0.
         12    1    1    2    0    0  0.18771892831E+02  0.30907479060E+02  0.18587905295E+02  0.40659149592E+02  0.00000000000E+00 0. -1.
         11    1    3    3    0    0 -0.40447006309E+01 -0.10107011124E+02  0.17784350988E+01  0.11030598747E+02  0.51100000000E-03 0. -1.
        -11    1    3    3    0    0 -0.15666986097E+02 -0.15329030307E+02 -0.40846781579E+01  0.22296148085E+02  0.51100000000E-03 0.  1.
         12    1    3    3    0    0  0.93979389650E+00 -0.54714376285E+01 -0.16281662236E+02  0.17202103576E+02  0.00000000000E+00 0. -1.
</event>
<event>
 7    1  0.6726285E-013  0.5052886E+02  0.7816164E-02  0.1300439E+00
        -11   -1    0    0    0    0  0.00000000000E+00  0.00000000000E+00  0.45593999997E+02  0.45594000000E+02  0.51100000000E-03 0. -1.
         11   -1    0    0    0    0 -0.00000000000E+00 -0.00000000000E+00 -0.45593999997E+02  0.45594000000E+02  0.51100000000E-03 0.  1.
    9900012    2    1    2    0    0  0.17828683710E+02 -0.32289257266E+02 -0.17108700118E+02  0.50528859363E+02  0.29999998520E+02 0.  0.
         12    1    1    2    0    0 -0.17828683710E+02  0.32289257266E+02  0.17108700118E+02  0.40659140637E+02  0.00000000000E+00 0. -1.
         11    1    3    3    0    0  0.76546256427E+01 -0.44813746405E+01 -0.44163959313E+01  0.99086106838E+01  0.51100000000E-03 0. -1.
        -11    1    3    3    0    0  0.16589823335E+02 -0.26647349381E+02 -0.74685345535E+01  0.32265809705E+02  0.51100000000E-03 0.  1.
        -12    1    3    3    0    0 -0.64157652681E+01 -0.11605332445E+01 -0.52237696332E+01  0.83544389738E+01  0.00000000000E+00 0.  1.
</event>
<event>
 7    1  0.6726285E-013  0.5052885E+02  0.7816164E-02  0.1300439E+00
        -11   -1    0    0    0    0  0.00000000000E+00  0.00000000000E+00  0.45593999997E+02  0.45594000000E+02  0.51100000000E-03 0.  1.
         11   -1    0    0    0    0 -0.00000000000E+00 -0.00000000000E+00 -0.45593999997E+02  0.45594000000E+02  0.51100000000E-03 0. -1.
    9900012    2    1    2    0    0  0.13802089177E+02  0.23554933603E+01  0.38172251270E+02  0.50528846275E+02  0.29999958738E+02 0.  0.
         12    1    1    2    0    0 -0.13802089177E+02 -0.23554933603E+01 -0.38172251270E+02  0.40659153725E+02  0.00000000000E+00 0. -1.
         11    1    3    3    0    0  0.57488698846E+00  0.18887601105E+01  0.54984151795E+00  0.20494476720E+01  0.51100000000E-03 0. -1.
        -11    1    3    3    0    0  0.20862406947E+02  0.24839206172E+01  0.33571818397E+02  0.39604000758E+02  0.51100000000E-03 0.  1.
        -12    1    3    3    0    0 -0.76352047591E+01 -0.20171873674E+01  0.40505913548E+01  0.88753978453E+01  0.00000000000E+00 0.  1.
</event>
<event>
 7    1  0.6726285E-013  0.5052887E+02  0.7816164E-02  0.1300439E+00
        -11   -1    0    0    0    0  0.00000000000E+00  0.00000000000E+00  0.45593999997E+02  0.45594000000E+02  0.51100000000E-03 0.  1.
         11   -1    0    0    0    0 -0.00000000000E+00 -0.00000000000E+00 -0.45593999997E+02  0.45594000000E+02  0.51100000000E-03 0. -1.
    9900012    2    1    2    0    0 -0.23062788272E+02  0.10094978715E+02  0.31927483333E+02  0.50528868306E+02  0.30000025702E+02 0.  0.
         12    1    1    2    0    0  0.23062788272E+02 -0.10094978715E+02 -0.31927483333E+02  0.40659131694E+02  0.00000000000E+00 0. -1.
         11    1    3    3    0    0 -0.24587572843E+01  0.51080137528E+00  0.57613117705E-01  0.25119165911E+01  0.51100000000E-03 0. -1.
        -11    1    3    3    0    0 -0.20276940145E+02  0.43454126997E+01  0.59544031237E+01  0.21575259674E+02  0.51100000000E-03 0.  1.
         12    1    3    3    0    0 -0.32709084216E+00  0.52387646399E+01  0.25915467092E+02  0.26441692041E+02  0.00000000000E+00 0. -1.
</event>
<event>
 7    1  0.6726285E-013  0.5052888E+02  0.7816164E-02  0.1300439E+00
        -11   -1    0    0    0    0  0.00000000000E+00  0.00000000000E+00  0.45593999997E+02  0.45594000000E+02  0.51100000000E-03 0.  1.
         11   -1    0    0    0    0 -0.00000000000E+00 -0.00000000000E+00 -0.45593999997E+02  0.45594000000E+02  0.51100000000E-03 0. -1.
    9900012    2    1    2    0    0  0.68506521158E+01 -0.28541362369E+02  0.28135802442E+02  0.50528878276E+02  0.30000056008E+02 0.  0.
         12    1    1    2    0    0 -0.68506521158E+01  0.28541362369E+02 -0.28135802442E+02  0.40659121724E+02  0.00000000000E+00 0. -1.
         11    1    3    3    0    0  0.92873316840E+01 -0.18940219133E+02  0.69419196622E+01  0.22207581576E+02  0.51100000000E-03 0. -1.
        -11    1    3    3    0    0  0.12025707926E+01 -0.88547790088E+01  0.25244092283E+01  0.92857918358E+01  0.51100000000E-03 0.  1.
         12    1    3    3    0    0 -0.36392503608E+01 -0.74636422779E+00  0.18669473552E+02  0.19035504864E+02  0.00000000000E+00 0. -1.
</event>
<event>
 7    1  0.6726285E-013  0.5052886E+02  0.7816164E-02  0.1300439E+00
        -11   -1    0    0    0    0  0.00000000000E+00  0.00000000000E+00  0.45593999997E+02  0.45594000000E+02  0.51100000000E-03 0.  1.
         11   -1    0    0    0    0 -0.00000000000E+00 -0.00000000000E+00 -0.45593999997E+02  0.45594000000E+02  0.51100000000E-03 0. -1.
    9900012    2    1    2    0    0  0.11637267148E+02 -0.29394764374E+02  0.25567312591E+02  0.50528860408E+02  0.30000001697E+02 0.  0.
         12    1    1    2    0    0 -0.11637267148E+02  0.29394764374E+02 -0.25567312591E+02  0.40659139592E+02  0.00000000000E+00 0. -1.
         11    1    3    3    0    0  0.99991020363E+00 -0.75186966754E+01  0.90449441634E+01  0.11804305795E+02  0.51100000000E-03 0.  1.
        -11    1    3    3    0    0  0.13910670332E+01  0.56301430459E+01  0.12512149395E+01  0.59328843991E+01  0.51100000000E-03 0. -1.
         12    1    3    3    0    0  0.92462899109E+01 -0.27506210744E+02  0.15271153488E+02  0.32791670214E+02  0.00000000000E+00 0. -1.
</event>
<event>
 7    1  0.6726285E-013  0.5052884E+02  0.7816164E-02  0.1300439E+00
        -11   -1    0    0    0    0  0.00000000000E+00  0.00000000000E+00  0.45593999997E+02  0.45594000000E+02  0.51100000000E-03 0.  1.
         11   -1    0    0    0    0 -0.00000000000E+00 -0.00000000000E+00 -0.45593999997E+02  0.45594000000E+02  0.51100000000E-03 0. -1.
    9900012    2    1    2    0    0 -0.36500672677E+02  0.10393747314E+02  0.14588962012E+02  0.50528844799E+02  0.29999954251E+02 0.  0.
         12    1    1    2    0    0  0.36500672677E+02 -0.10393747314E+02 -0.14588962012E+02  0.40659155201E+02  0.00000000000E+00 0. -1.
         11    1    3    3    0    0 -0.91233612105E+01  0.12985450336E+02  0.78981648473E+01  0.17726777722E+02  0.51100000000E-03 0. -1.
        -11    1    3    3    0    0 -0.72406435383E+01  0.33715439316E+01  0.85726307191E+01  0.11716835112E+02  0.51100000000E-03 0.  1.
         12    1    3    3    0    0 -0.20136667928E+02 -0.59632469539E+01 -0.18818335543E+01  0.21085231965E+02  0.00000000000E+00 0. -1.
</event>
<event>
 7    1  0.6726285E-013  0.5052886E+02  0.7816164E-02  0.1300439E+00
        -11   -1    0    0    0    0  0.00000000000E+00  0.00000000000E+00  0.45593999997E+02  0.45594000000E+02  0.51100000000E-03 0. -1.
         11   -1    0    0    0    0 -0.00000000000E+00 -0.00000000000E+00 -0.45593999997E+02  0.45594000000E+02  0.51100000000E-03 0.  1.
    9900012    2    1    2    0    0  0.26424754889E+01  0.25533005752E+02 -0.31531711444E+02  0.50528857289E+02  0.29999992216E+02 0.  0.
         12    1    1    2    0    0 -0.26424754889E+01 -0.25533005752E+02  0.31531711444E+02  0.40659142711E+02  0.00000000000E+00 0. -1.
         11    1    3    3    0    0 -0.41153788126E+01  0.19234279650E+02 -0.69228711790E+01  0.20852338048E+02  0.51100000000E-03 0. -1.
        -11    1    3    3    0    0 -0.34123577176E+01  0.42084742613E+01 -0.44908773157E+01  0.70372878388E+01  0.51100000000E-03 0.  1.
        -12    1    3    3    0    0  0.10170212019E+02  0.20902518401E+01 -0.20117962949E+02  0.22639231402E+02  0.00000000000E+00 0.  1.
</event>
<event>
 7    1  0.6726285E-013  0.5052889E+02  0.7816164E-02  0.1300439E+00
        -11   -1    0    0    0    0  0.00000000000E+00  0.00000000000E+00  0.45593999997E+02  0.45594000000E+02  0.51100000000E-03 0.  1.
         11   -1    0    0    0    0 -0.00000000000E+00 -0.00000000000E+00 -0.45593999997E+02  0.45594000000E+02  0.51100000000E-03 0. -1.
    9900012    2    1    2    0    0  0.17945111660E+02 -0.42513247888E+01  0.36236201749E+02  0.50528891400E+02  0.30000095899E+02 0.  0.
         12    1    1    2    0    0 -0.17945111660E+02  0.42513247888E+01 -0.36236201749E+02  0.40659108600E+02  0.00000000000E+00 0. -1.
         11    1    3    3    0    0 -0.70440666369E+01 -0.19087228178E+01  0.85236277629E+01  0.11221155381E+02  0.51100000000E-03 0.  1.
        -11    1    3    3    0    0 -0.13372014154E+01 -0.65401301757E+00  0.12794843114E+01  0.19628858899E+01  0.51100000000E-03 0. -1.
         12    1    3    3    0    0  0.26326379712E+02 -0.16885889534E+01  0.26433089675E+02  0.37344850129E+02  0.00000000000E+00 0. -1.
</event>
<event>
 7    1  0.6726285E-013  0.5052887E+02  0.7816164E-02  0.1300439E+00
        -11   -1    0    0    0    0  0.00000000000E+00  0.00000000000E+00  0.45593999997E+02  0.45594000000E+02  0.51100000000E-03 0.  1.
         11   -1    0    0    0    0 -0.00000000000E+00 -0.00000000000E+00 -0.45593999997E+02  0.45594000000E+02  0.51100000000E-03 0. -1.
    9900012    2    1    2    0    0 -0.10751191615E+02  0.19504564307E+02  0.34016889672E+02  0.50528869010E+02  0.30000027842E+02 0.  0.
         12    1    1    2    0    0  0.10751191615E+02 -0.19504564307E+02 -0.34016889672E+02  0.40659130990E+02  0.00000000000E+00 0. -1.
         11    1    3    3    0    0  0.22157995778E+01  0.51509820765E+01 -0.20591935437E+00  0.56111306493E+01  0.51100000000E-03 0. -1.
        -11    1    3    3    0    0 -0.63795770754E+01 -0.50848169074E+01  0.13344318871E+02  0.15640499130E+02  0.51100000000E-03 0.  1.
        -12    1    3    3    0    0 -0.65874141178E+01  0.19438399138E+02  0.20878490155E+02  0.29277239231E+02  0.00000000000E+00 0.  1.
</event>
<event>
 7    1  0.6726285E-013  0.5052900E+02  0.7816164E-02  0.1300438E+00
        -11   -1    0    0    0    0  0.00000000000E+00  0.00000000000E+00  0.45593999997E+02  0.45594000000E+02  0.51100000000E-03 0.  1.
         11   -1    0    0    0    0 -0.00000000000E+00 -0.00000000000E+00 -0.45593999997E+02  0.45594000000E+02  0.51100000000E-03 0. -1.
    9900012    2    1    2    0    0 -0.19988289863E+01  0.23630365738E+02 -0.33026727987E+02  0.50529000212E+02  0.30000426643E+02 0.  0.
         12    1    1    2    0    0  0.19988289863E+01 -0.23630365738E+02  0.33026727987E+02  0.40658999788E+02  0.00000000000E+00 0. -1.
         11    1    3    3    0    0 -0.41479621472E+01  0.70326214754E+01 -0.13875518888E+02  0.16099483826E+02  0.51100000000E-03 0. -1.
        -11    1    3    3    0    0 -0.80089807524E+01  0.10025377684E+02 -0.13453015874E+01  0.12902007868E+02  0.51100000000E-03 0.  1.
         12    1    3    3    0    0  0.10158113913E+02  0.65723665785E+01 -0.17805907511E+02  0.21527508519E+02  0.00000000000E+00 0. -1.
</event>
<event>
 7    1  0.6726285E-013  0.5052886E+02  0.7816164E-02  0.1300439E+00
        -11   -1    0    0    0    0  0.00000000000E+00  0.00000000000E+00  0.45593999997E+02  0.45594000000E+02  0.51100000000E-03 0.  1.
         11   -1    0    0    0    0 -0.00000000000E+00 -0.00000000000E+00 -0.45593999997E+02  0.45594000000E+02  0.51100000000E-03 0. -1.
    9900012    2    1    2    0    0  0.34508566372E+02  0.89482550539E+01  0.19551295511E+02  0.50528861080E+02  0.30000003740E+02 0.  0.
         12    1    1    2    0    0 -0.34508566372E+02 -0.89482550539E+01 -0.19551295511E+02  0.40659138920E+02  0.00000000000E+00 0. -1.
         11    1    3    3    0    0  0.36199250305E+00 -0.10993279009E+01 -0.26351239438E+01  0.28780963963E+01  0.51100000000E-03 0. -1.
        -11    1    3    3    0    0  0.16626079431E+02 -0.61648539835E+01  0.56456541712E+01  0.18609281372E+02  0.51100000000E-03 0.  1.
        -12    1    3    3    0    0  0.17520494437E+02  0.16212436938E+02  0.16540765284E+02  0.29041483312E+02  0.00000000000E+00 0.  1.
</event>
<event>
 7    1  0.6726285E-013  0.5052885E+02  0.7816164E-02  0.1300439E+00
        -11   -1    0    0    0    0  0.00000000000E+00  0.00000000000E+00  0.45593999997E+02  0.45594000000E+02  0.51100000000E-03 0. -1.
         11   -1    0    0    0    0 -0.00000000000E+00 -0.00000000000E+00 -0.45593999997E+02  0.45594000000E+02  0.51100000000E-03 0.  1.
    9900012    2    1    2    0    0  0.31061321592E+02 -0.24174670909E+02  0.10195380894E+02  0.50528853377E+02  0.29999980324E+02 0.  0.
         12    1    1    2    0    0 -0.31061321592E+02  0.24174670909E+02 -0.10195380894E+02  0.40659146623E+02  0.00000000000E+00 0. -1.
         11    1    3    3    0    0  0.14959847932E+02 -0.45156180004E+01  0.13505081638E+02  0.20653694255E+02  0.51100000000E-03 0. -1.
        -11    1    3    3    0    0 -0.41752942135E+00  0.10784851930E+01  0.24811336604E+01  0.27374231736E+01  0.51100000000E-03 0.  1.
        -12    1    3    3    0    0  0.16519003081E+02 -0.20737538101E+02 -0.57908344040E+01  0.27137735948E+02  0.00000000000E+00 0.  1.
</event>
<event>
 7    1  0.6726285E-013  0.5052887E+02  0.7816164E-02  0.1300439E+00
        -11   -1    0    0    0    0  0.00000000000E+00  0.00000000000E+00  0.45593999997E+02  0.45594000000E+02  0.51100000000E-03 0.  1.
         11   -1    0    0    0    0 -0.00000000000E+00 -0.00000000000E+00 -0.45593999997E+02  0.45594000000E+02  0.51100000000E-03 0. -1.
    9900012    2    1    2    0    0  0.96694910072E+01 -0.15024404571E+02  0.36523045455E+02  0.50528872631E+02  0.30000038850E+02 0.  0.
         12    1    1    2    0    0 -0.96694910072E+01  0.15024404571E+02 -0.36523045455E+02  0.40659127369E+02  0.00000000000E+00 0. -1.
         11    1    3    3    0    0 -0.12841357547E+01  0.22430968057E+01  0.84905891502E+00  0.27205494332E+01  0.51100000000E-03 0. -1.
        -11    1    3    3    0    0  0.72645395835E+01  0.49710714230E+01  0.65127610811E+01  0.10949938064E+02  0.51100000000E-03 0.  1.
        -12    1    3    3    0    0  0.36890871784E+01 -0.22238572800E+02  0.29161225459E+02  0.36858385134E+02  0.00000000000E+00 0.  1.
</event>
<event>
 7    1  0.6726285E-013  0.5052886E+02  0.7816164E-02  0.1300439E+00
        -11   -1    0    0    0    0  0.00000000000E+00  0.00000000000E+00  0.45593999997E+02  0.45594000000E+02  0.51100000000E-03 0.  1.
         11   -1    0    0    0    0 -0.00000000000E+00 -0.00000000000E+00 -0.45593999997E+02  0.45594000000E+02  0.51100000000E-03 0. -1.
    9900012    2    1    2    0    0 -0.40273220979E+02 -0.21954372470E+01 -0.51393816861E+01  0.50528861829E+02  0.30000006016E+02 0.  0.
         12    1    1    2    0    0  0.40273220979E+02  0.21954372470E+01  0.51393816861E+01  0.40659138171E+02  0.00000000000E+00 0. -1.
         11    1    3    3    0    0 -0.50172040068E+01 -0.85314443369E+01 -0.10382616816E+00  0.98979118330E+01  0.51100000000E-03 0. -1.
        -11    1    3    3    0    0  0.63191042183E+00 -0.27521024733E+01  0.12365983502E+01  0.30826213756E+01  0.51100000000E-03 0.  1.
         12    1    3    3    0    0 -0.35887927394E+02  0.90881095633E+01 -0.62721538681E+01  0.37548328620E+02  0.00000000000E+00 0. -1.
</event>
<event>
 7    1  0.6726285E-013  0.5052886E+02  0.7816164E-02  0.1300439E+00
        -11   -1    0    0    0    0  0.00000000000E+00  0.00000000000E+00  0.45593999997E+02  0.45594000000E+02  0.51100000000E-03 0.  1.
         11   -1    0    0    0    0 -0.00000000000E+00 -0.00000000000E+00 -0.45593999997E+02  0.45594000000E+02  0.51100000000E-03 0. -1.
    9900012    2    1    2    0    0 -0.52022931592E+00  0.29175220356E+02  0.28314339534E+02  0.50528856568E+02  0.29999990024E+02 0.  0.
         12    1    1    2    0    0  0.52022931592E+00 -0.29175220356E+02 -0.28314339534E+02  0.40659143432E+02  0.00000000000E+00 0. -1.
         11    1    3    3    0    0  0.19436685987E+01  0.63537059317E+01 -0.29009055551E+01  0.72500124130E+01  0.51100000000E-03 0. -1.
        -11    1    3    3    0    0  0.61147700627E+01  0.14179895951E+02  0.88099928689E+01  0.17778521781E+02  0.51100000000E-03 0.  1.
        -12    1    3    3    0    0 -0.85786679773E+01  0.86416184733E+01  0.22405252221E+02  0.25500322374E+02  0.00000000000E+00 0.  1.
</event>
<event>
 7    1  0.6726285E-013  0.5052886E+02  0.7816164E-02  0.1300439E+00
        -11   -1    0    0    0    0  0.00000000000E+00  0.00000000000E+00  0.45593999997E+02  0.45594000000E+02  0.51100000000E-03 0.  1.
         11   -1    0    0    0    0 -0.00000000000E+00 -0.00000000000E+00 -0.45593999997E+02  0.45594000000E+02  0.51100000000E-03 0. -1.
    9900012    2    1    2    0    0  0.16022845444E+02 -0.11867003054E+02  0.35434564377E+02  0.50528859697E+02  0.29999999535E+02 0.  0.
         12    1    1    2    0    0 -0.16022845444E+02  0.11867003054E+02 -0.35434564377E+02  0.40659140303E+02  0.00000000000E+00 0. -1.
         11    1    3    3    0    0 -0.28087130087E+01 -0.85044133805E+01  0.14771086574E+02  0.17274226887E+02  0.51100000000E-03 0. -1.
        -11    1    3    3    0    0  0.87841565694E+01  0.62476236241E+01  0.38708485024E+01  0.11453282323E+02  0.51100000000E-03 0.  1.
         12    1    3    3    0    0  0.10047401883E+02 -0.96102132972E+01  0.16792629301E+02  0.21801350487E+02  0.00000000000E+00 0. -1.
</event>
<event>
 7    1  0.6726285E-013  0.5052884E+02  0.7816164E-02  0.1300439E+00
        -11   -1    0    0    0    0  0.00000000000E+00  0.00000000000E+00  0.45593999997E+02  0.45594000000E+02  0.51100000000E-03 0. -1.
         11   -1    0    0    0    0 -0.00000000000E+00 -0.00000000000E+00 -0.45593999997E+02  0.45594000000E+02  0.51100000000E-03 0.  1.
    9900012    2    1    2    0    0 -0.27698442288E+02 -0.11052048527E+02 -0.27637219880E+02  0.50528838615E+02  0.29999935453E+02 0.  0.
         12    1    1    2    0    0  0.27698442288E+02  0.11052048527E+02  0.27637219880E+02  0.40659161385E+02  0.00000000000E+00 0. -1.
         11    1    3    3    0    0 -0.15532267574E+01  0.33374408829E+01  0.32290137985E+00  0.36953065596E+01  0.51100000000E-03 0. -1.
        -11    1    3    3    0    0  0.19310231104E+01  0.13292164185E+01  0.18375327291E+01  0.29786227240E+01  0.51100000000E-03 0.  1.
        -12    1    3    3    0    0 -0.28076238641E+02 -0.15718705829E+02 -0.29797653989E+02  0.43854909331E+02  0.00000000000E+00 0.  1.
</event>
<event>
 7    1  0.6726285E-013  0.5052886E+02  0.7816164E-02  0.1300439E+00
        -11   -1    0    0    0    0  0.00000000000E+00  0.00000000000E+00  0.45593999997E+02  0.45594000000E+02  0.51100000000E-03 0.  1.
         11   -1    0    0    0    0 -0.00000000000E+00 -0.00000000000E+00 -0.45593999997E+02  0.45594000000E+02  0.51100000000E-03 0. -1.
    9900012    2    1    2    0    0  0.26750162115E+02  0.86877460548E+01  0.29361835924E+02  0.50528861870E+02  0.30000006139E+02 0.  0.
         12    1    1    2    0    0 -0.26750162115E+02 -0.86877460548E+01 -0.29361835924E+02  0.40659138130E+02  0.00000000000E+00 0. -1.
         11    1    3    3    0    0  0.63694917795E+01 -0.75375126950E+01  0.11187864443E+01  0.99315762357E+01  0.51100000000E-03 0. -1.
        -11    1    3    3    0    0  0.57474914289E+01  0.75642176497E+01  0.26366120029E+01  0.98591464891E+01  0.51100000000E-03 0.  1.
        -12    1    3    3    0    0  0.14633178907E+02  0.86610411001E+01  0.25606437476E+02  0.30738139145E+02  0.00000000000E+00 0.  1.
</event>
<event>
 7    1  0.6726285E-013  0.5052887E+02  0.7816164E-02  0.1300439E+00
        -11   -1    0    0    0    0  0.00000000000E+00  0.00000000000E+00  0.45593999997E+02  0.45594000000E+02  0.51100000000E-03 0.  1.
         11   -1    0    0    0    0 -0.00000000000E+00 -0.00000000000E+00 -0.45593999997E+02  0.45594000000E+02  0.51100000000E-03 0. -1.
    9900012    2    1    2    0    0  0.21041190780E+01 -0.10422883454E+02  0.39244117377E+02  0.50528873530E+02  0.30000041581E+02 0.  0.
         12    1    1    2    0    0 -0.21041190780E+01  0.10422883454E+02 -0.39244117377E+02  0.40659126470E+02  0.00000000000E+00 0. -1.
         11    1    3    3    0    0  0.75995855049E+01  0.58140908926E+01  0.64808316079E+01  0.11556752630E+02  0.51100000000E-03 0. -1.
        -11    1    3    3    0    0  0.91872296492E+00  0.15274406407E+01  0.56838896929E+01  0.59568220638E+01  0.51100000000E-03 0.  1.
         12    1    3    3    0    0 -0.64141893918E+01 -0.17764414987E+02  0.27079396077E+02  0.33015298836E+02  0.00000000000E+00 0. -1.
</event>
<event>
 7    1  0.6726285E-013  0.5052886E+02  0.7816164E-02  0.1300439E+00
        -11   -1    0    0    0    0  0.00000000000E+00  0.00000000000E+00  0.45593999997E+02  0.45594000000E+02  0.51100000000E-03 0.  1.
         11   -1    0    0    0    0 -0.00000000000E+00 -0.00000000000E+00 -0.45593999997E+02  0.45594000000E+02  0.51100000000E-03 0. -1.
    9900012    2    1    2    0    0 -0.19636611538E+02 -0.21244764729E+02  0.28569725282E+02  0.50528859038E+02  0.29999997531E+02 0.  0.
         12    1    1    2    0    0  0.19636611538E+02  0.21244764729E+02 -0.28569725282E+02  0.40659140962E+02  0.00000000000E+00 0. -1.
         11    1    3    3    0    0  0.49361355035E+01 -0.23909208140E+01  0.12211549384E+02  0.13386705146E+02  0.51100000000E-03 0. -1.
        -11    1    3    3    0    0 -0.97803190762E+01 -0.73175986649E+01 -0.57191585156E-01  0.12214956512E+02  0.51100000000E-03 0.  1.
        -12    1    3    3    0    0 -0.14792427966E+02 -0.11536245250E+02  0.16415367483E+02  0.24927197379E+02  0.00000000000E+00 0.  1.
</event>
<event>
 7    1  0.6726285E-013  0.5052885E+02  0.7816164E-02  0.1300439E+00
        -11   -1    0    0    0    0  0.00000000000E+00  0.00000000000E+00  0.45593999997E+02  0.45594000000E+02  0.51100000000E-03 0. -1.
         11   -1    0    0    0    0 -0.00000000000E+00 -0.00000000000E+00 -0.45593999997E+02  0.45594000000E+02  0.51100000000E-03 0.  1.
    9900012    2    1    2    0    0  0.17813111700E+02 -0.20724510337E+02 -0.30105713942E+02  0.50528852332E+02  0.29999977148E+02 0.  0.
         12    1    1    2    0    0 -0.17813111700E+02  0.20724510337E+02  0.30105713942E+02  0.40659147668E+02  0.00000000000E+00 0. -1.
         11    1    3    3    0    0  0.34437911168E+01  0.41425266041E+00 -0.12814328341E+02  0.13275477905E+02  0.51100000000E-03 0. -1.
        -11    1    3    3    0    0 -0.38144210778E+01 -0.39918052208E+01 -0.96502560450E+01  0.11118082527E+02  0.51100000000E-03 0.  1.
        -12    1    3    3    0    0  0.18183741661E+02 -0.17146957777E+02 -0.76411295564E+01  0.26135291900E+02  0.00000000000E+00 0.  1.
</event>
<event>
 7    1  0.6726285E-013  0.5052887E+02  0.7816164E-02  0.1300439E+00
        -11   -1    0    0    0    0  0.00000000000E+00  0.00000000000E+00  0.45593999997E+02  0.45594000000E+02  0.51100000000E-03 0. -1.
         11   -1    0    0    0    0 -0.00000000000E+00 -0.00000000000E+00 -0.45593999997E+02  0.45594000000E+02  0.51100000000E-03 0.  1.
    9900012    2    1    2    0    0 -0.27846559739E+02 -0.28572259723E+02  0.78332769962E+01  0.50528866420E+02  0.30000019971E+02 0.  0.
         12    1    1    2    0    0  0.27846559739E+02  0.28572259723E+02 -0.78332769962E+01  0.40659133580E+02  0.00000000000E+00 0. -1.
         11    1    3    3    0    0 -0.62017841251E+01 -0.65029540902E+00 -0.40335784680E+01  0.74266254767E+01  0.51100000000E-03 0. -1.
        -11    1    3    3    0    0 -0.22726944133E+02 -0.20990991900E+02  0.20084274749E+01  0.31002733940E+02  0.51100000000E-03 0.  1.
         12    1    3    3    0    0  0.10821685193E+01 -0.69309724134E+01  0.98584279893E+01  0.12099507003E+02  0.00000000000E+00 0. -1.
</event>
<event>
 7    1  0.6726285E-013  0.5052886E+02  0.7816164E-02  0.1300439E+00
        -11   -1    0    0    0    0  0.00000000000E+00  0.00000000000E+00  0.45593999997E+02  0.45594000000E+02  0.51100000000E-03 0.  1.
         11   -1    0    0    0    0 -0.00000000000E+00 -0.00000000000E+00 -0.45593999997E+02  0.45594000000E+02  0.51100000000E-03 0. -1.
    9900012    2    1    2    0    0  0.40297859360E+02  0.48533580474E+01 -0.23859727612E+01  0.50528863027E+02  0.30000009658E+02 0.  0.
         12    1    1    2    0    0 -0.40297859360E+02 -0.48533580474E+01  0.23859727612E+01  0.40659136973E+02  0.00000000000E+00 0. -1.
         11    1    3    3    0    0 -0.31936701540E+01  0.36958332139E+01 -0.21383966546E+01  0.53321152192E+01  0.51100000000E-03 0. -1.
        -11    1    3    3    0    0  0.17770657461E+02  0.61808285806E+01  0.18530176985E+01  0.18905887533E+02  0.51100000000E-03 0.  1.
        -12    1    3    3    0    0  0.25720872053E+02 -0.50233037472E+01 -0.21005938051E+01  0.26290860275E+02  0.00000000000E+00 0.  1.
</event>
<event>
 7    1  0.6726285E-013  0.5052886E+02  0.7816164E-02  0.1300439E+00
        -11   -1    0    0    0    0  0.00000000000E+00  0.00000000000E+00  0.45593999997E+02  0.45594000000E+02  0.51100000000E-03 0. -1.
         11   -1    0    0    0    0 -0.00000000000E+00 -0.00000000000E+00 -0.45593999997E+02  0.45594000000E+02  0.51100000000E-03 0.  1.
    9900012    2    1    2    0    0 -0.23832838709E+02  0.10871167004E+02 -0.31096286705E+02  0.50528861793E+02  0.30000005905E+02 0.  0.
         12    1    1    2    0    0  0.23832838709E+02 -0.10871167004E+02  0.31096286705E+02  0.40659138207E+02  0.00000000000E+00 0. -1.
         11    1    3    3    0    0 -0.17102282782E+01 -0.27845484248E+01  0.41594090857E+01  0.52895439214E+01  0.51100000000E-03 0. -1.
        -11    1    3    3    0    0 -0.85856290895E+00 -0.12145739134E+01 -0.28979725531E-01  0.14876693669E+01  0.51100000000E-03 0.  1.
        -12    1    3    3    0    0 -0.21264047522E+02  0.14870289342E+02 -0.35226716065E+02  0.43751648504E+02  0.00000000000E+00 0.  1.
</event>
<event>
 7    1  0.6726285E-013  0.5052886E+02  0.7816164E-02  0.1300439E+00
        -11   -1    0    0    0    0  0.00000000000E+00  0.00000000000E+00  0.45593999997E+02  0.45594000000E+02  0.51100000000E-03 0.  1.
         11   -1    0    0    0    0 -0.00000000000E+00 -0.00000000000E+00 -0.45593999997E+02  0.45594000000E+02  0.51100000000E-03 0. -1.
    9900012    2    1    2    0    0 -0.71392038687E+01 -0.42874265918E-01  0.40027434017E+02  0.50528861493E+02  0.30000004995E+02 0.  0.
         12    1    1    2    0    0  0.71392038687E+01  0.42874265918E-01 -0.40027434017E+02  0.40659138507E+02  0.00000000000E+00 0. -1.
         11    1    3    3    0    0  0.64940691452E+01 -0.85675750820E+00  0.44499668091E+01  0.79189123214E+01  0.51100000000E-03 0. -1.
        -11    1    3    3    0    0 -0.86930285728E+00  0.84650058630E+01  0.11526789483E+02  0.14327556937E+02  0.51100000000E-03 0.  1.
        -12    1    3    3    0    0 -0.12763970157E+02 -0.76511226207E+01  0.24050677725E+02  0.28282392235E+02  0.00000000000E+00 0.  1.
</event>
<event>
 7    1  0.6726285E-013  0.5052886E+02  0.7816164E-02  0.1300439E+00
        -11   -1    0    0    0    0  0.00000000000E+00  0.00000000000E+00  0.45593999997E+02  0.45594000000E+02  0.51100000000E-03 0.  1.
         11   -1    0    0    0    0 -0.00000000000E+00 -0.00000000000E+00 -0.45593999997E+02  0.45594000000E+02  0.51100000000E-03 0. -1.
    9900012    2    1    2    0    0 -0.18389602357E+02 -0.22207333796E+02  0.28667446150E+02  0.50528860586E+02  0.30000002236E+02 0.  0.
         12    1    1    2    0    0  0.18389602357E+02  0.22207333796E+02 -0.28667446150E+02  0.40659139414E+02  0.00000000000E+00 0. -1.
         11    1    3    3    0    0  0.23227750395E+01 -0.90218529002E+01  0.21682756732E+02  0.23599386716E+02  0.51100000000E-03 0. -1.
        -11    1    3    3    0    0 -0.66883829992E+00  0.98154110789E+00  0.12486161934E+01  0.17233137490E+01  0.51100000000E-03 0.  1.
        -12    1    3    3    0    0 -0.20043539097E+02 -0.14167022004E+02  0.57360732247E+01  0.25206160120E+02  0.00000000000E+00 0.  1.
</event>
<event>
 7    1  0.6726285E-013  0.5052886E+02  0.7816164E-02  0.1300439E+00
        -11   -1    0    0    0    0  0.00000000000E+00  0.00000000000E+00  0.45593999997E+02  0.45594000000E+02  0.51100000000E-03 0.  1.
         11   -1    0    0    0    0 -0.00000000000E+00 -0.00000000000E+00 -0.45593999997E+02  0.45594000000E+02  0.51100000000E-03 0. -1.
    9900012    2    1    2    0    0 -0.13550598936E+02 -0.17276144922E+02  0.34221067104E+02  0.50528863897E+02  0.30000012302E+02 0.  0.
         12    1    1    2    0    0  0.13550598936E+02  0.17276144922E+02 -0.34221067104E+02  0.40659136103E+02  0.00000000000E+00 0. -1.
         11    1    3    3    0    0 -0.24983177190E+01  0.38754148505E+01  0.39343061020E+00  0.46276581112E+01  0.51100000000E-03 0. -1.
        -11    1    3    3    0    0 -0.15047186685E+02 -0.79818459660E+01  0.21460836953E+02  0.27398817769E+02  0.51100000000E-03 0.  1.
        -12    1    3    3    0    0  0.39949054680E+01 -0.13169713806E+02  0.12366799541E+02  0.18502388017E+02  0.00000000000E+00 0.  1.
</event>
<event>
 7    1  0.6726285E-013  0.5052888E+02  0.7816164E-02  0.1300439E+00
        -11   -1    0    0    0    0  0.00000000000E+00  0.00000000000E+00  0.45593999997E+02  0.45594000000E+02  0.51100000000E-03 0.  1.
         11   -1    0    0    0    0 -0.00000000000E+00 -0.00000000000E+00 -0.45593999997E+02  0.45594000000E+02  0.51100000000E-03 0. -1.
    9900012    2    1    2    0    0  0.36405676801E+02 -0.14158418967E+02  0.11284067656E+02  0.50528876622E+02  0.30000050981E+02 0.  0.
         12    1    1    2    0    0 -0.36405676801E+02  0.14158418967E+02 -0.11284067656E+02  0.40659123378E+02  0.00000000000E+00 0. -1.
         11    1    3    3    0    0  0.57801959122E+01 -0.63167478991E+01  0.58012957280E+01  0.10342485252E+02  0.51100000000E-03 0. -1.
        -11    1    3    3    0    0  0.16429298783E+02 -0.15592374586E+02  0.75611957454E+01  0.23879189373E+02  0.51100000000E-03 0.  1.
         12    1    3    3    0    0  0.14196182106E+02  0.77507035189E+01 -0.20784238173E+01  0.16307201998E+02  0.00000000000E+00 0. -1.
</event>
<event>
 7    1  0.6726285E-013  0.5052885E+02  0.7816164E-02  0.1300439E+00
        -11   -1    0    0    0    0  0.00000000000E+00  0.00000000000E+00  0.45593999997E+02  0.45594000000E+02  0.51100000000E-03 0. -1.
         11   -1    0    0    0    0 -0.00000000000E+00 -0.00000000000E+00 -0.45593999997E+02  0.45594000000E+02  0.51100000000E-03 0.  1.
    9900012    2    1    2    0    0 -0.11501629693E+02  0.30397781167E+02 -0.24430588523E+02  0.50528852923E+02  0.29999978944E+02 0.  0.
         12    1    1    2    0    0  0.11501629693E+02 -0.30397781167E+02  0.24430588523E+02  0.40659147077E+02  0.00000000000E+00 0. -1.
         11    1    3    3    0    0 -0.91761897207E+01  0.82239359806E+00 -0.46894477211E+01  0.10337780671E+02  0.51100000000E-03 0. -1.
        -11    1    3    3    0    0 -0.11340941373E+01  0.16112660413E+01  0.33629601947E+01  0.38976722926E+01  0.51100000000E-03 0.  1.
        -12    1    3    3    0    0 -0.11913458353E+01  0.27964121527E+02 -0.23104100997E+02  0.36293399959E+02  0.00000000000E+00 0.  1.
</event>
<event>
 7    1  0.6726285E-013  0.5052886E+02  0.7816164E-02  0.1300439E+00
        -11   -1    0    0    0    0  0.00000000000E+00  0.00000000000E+00  0.45593999997E+02  0.45594000000E+02  0.51100000000E-03 0.  1.
         11   -1    0    0    0    0 -0.00000000000E+00 -0.00000000000E+00 -0.45593999997E+02  0.45594000000E+02  0.51100000000E-03 0. -1.
    9900012    2    1    2    0    0  0.25018342840E+02 -0.17960509276E+01  0.32000353821E+02  0.50528856845E+02  0.29999990866E+02 0.  0.
         12    1    1    2    0    0 -0.25018342840E+02  0.17960509276E+01 -0.32000353821E+02  0.40659143155E+02  0.00000000000E+00 0. -1.
         11    1    3    3    0    0 -0.14645527686E+01 -0.58338362575E+00 -0.21636949178E+01  0.26770930551E+01  0.51100000000E-03 0. -1.
        -11    1    3    3    0    0  0.11746191621E+02 -0.10752619397E+02  0.15315492449E+02  0.22094256057E+02  0.51100000000E-03 0.  1.
        -12    1    3    3    0    0  0.14736703988E+02  0.95399520949E+01  0.18848556290E+02  0.25757507733E+02  0.00000000000E+00 0.  1.
</event>
<event>
 7    1  0.6726285E-013  0.5052886E+02  0.7816164E-02  0.1300439E+00
        -11   -1    0    0    0    0  0.00000000000E+00  0.00000000000E+00  0.45593999997E+02  0.45594000000E+02  0.51100000000E-03 0.  1.
         11   -1    0    0    0    0 -0.00000000000E+00 -0.00000000000E+00 -0.45593999997E+02  0.45594000000E+02  0.51100000000E-03 0. -1.
    9900012    2    1    2    0    0  0.31806765613E+02 -0.24878810842E+02  0.47476153123E+01  0.50528863034E+02  0.30000009677E+02 0.  0.
         12    1    1    2    0    0 -0.31806765613E+02  0.24878810842E+02 -0.47476153123E+01  0.40659136966E+02  0.00000000000E+00 0. -1.
         11    1    3    3    0    0  0.10855484566E+02 -0.20607105763E+02  0.63252127507E+01  0.24135092080E+02  0.51100000000E-03 0.  1.
        -11    1    3    3    0    0 -0.19149681839E+01  0.14724314837E+01  0.11211794776E+01  0.26631187171E+01  0.51100000000E-03 0. -1.
        -12    1    3    3    0    0  0.22866249231E+02 -0.57441365626E+01 -0.26987769159E+01  0.23730652237E+02  0.00000000000E+00 0.  1.
</event>
<event>
 7    1  0.6726285E-013  0.5052886E+02  0.7816164E-02  0.1300439E+00
        -11   -1    0    0    0    0  0.00000000000E+00  0.00000000000E+00  0.45593999997E+02  0.45594000000E+02  0.51100000000E-03 0. -1.
         11   -1    0    0    0    0 -0.00000000000E+00 -0.00000000000E+00 -0.45593999997E+02  0.45594000000E+02  0.51100000000E-03 0.  1.
    9900012    2    1    2    0    0  0.27623192345E+02 -0.21141190604E+02 -0.21051718108E+02  0.50528861657E+02  0.30000005494E+02 0.  0.
         12    1    1    2    0    0 -0.27623192345E+02  0.21141190604E+02  0.21051718108E+02  0.40659138343E+02  0.00000000000E+00 0. -1.
         11    1    3    3    0    0  0.53690864874E+01 -0.55326825802E+01 -0.12457695975E+02  0.14650319297E+02  0.51100000000E-03 0. -1.
        -11    1    3    3    0    0  0.60913827299E+01 -0.15465623251E+02 -0.10411213603E+02  0.19613358077E+02  0.51100000000E-03 0.  1.
        -12    1    3    3    0    0  0.16162723127E+02 -0.14288477239E+00  0.18171914691E+01  0.16265184284E+02  0.00000000000E+00 0.  1.
</event>
<event>
 7    1  0.6726285E-013  0.5052885E+02  0.7816164E-02  0.1300439E+00
        -11   -1    0    0    0    0  0.00000000000E+00  0.00000000000E+00  0.45593999997E+02  0.45594000000E+02  0.51100000000E-03 0. -1.
         11   -1    0    0    0    0 -0.00000000000E+00 -0.00000000000E+00 -0.45593999997E+02  0.45594000000E+02  0.51100000000E-03 0.  1.
    9900012    2    1    2    0    0  0.37306578726E+02  0.13662765513E+02 -0.86437529857E+01  0.50528850435E+02  0.29999971383E+02 0.  0.
         12    1    1    2    0    0 -0.37306578726E+02 -0.13662765513E+02  0.86437529857E+01  0.40659149565E+02  0.00000000000E+00 0. -1.
         11    1    3    3    0    0 -0.19725529049E+01  0.33561100881E+01 -0.37186953718E+01  0.53835987421E+01  0.51100000000E-03 0. -1.
        -11    1    3    3    0    0  0.89544129992E+01  0.10351641963E+02 -0.56608094352E+01  0.14811575447E+02  0.51100000000E-03 0.  1.
        -12    1    3    3    0    0  0.30324718631E+02 -0.44986538890E-01  0.73575182126E+00  0.30333676246E+02  0.00000000000E+00 0.  1.
</event>
<event>
 7    1  0.6726285E-013  0.5052887E+02  0.7816164E-02  0.1300439E+00
        -11   -1    0    0    0    0  0.00000000000E+00  0.00000000000E+00  0.45593999997E+02  0.45594000000E+02  0.51100000000E-03 0.  1.
         11   -1    0    0    0    0 -0.00000000000E+00 -0.00000000000E+00 -0.45593999997E+02  0.45594000000E+02  0.51100000000E-03 0. -1.
    9900012    2    1    2    0    0  0.36334891814E+02 -0.75929788638E+01  0.16591771410E+02  0.50528873476E+02  0.30000041417E+02 0.  0.
         12    1    1    2    0    0 -0.36334891814E+02  0.75929788638E+01 -0.16591771410E+02  0.40659126524E+02  0.00000000000E+00 0. -1.
         11    1    3    3    0    0  0.18120050414E+02 -0.30641551034E+01  0.15662677359E+02  0.24146319301E+02  0.51100000000E-03 0. -1.
        -11    1    3    3    0    0  0.18376313231E+02 -0.22332323007E+01 -0.56969120435E+01  0.19368299398E+02  0.51100000000E-03 0.  1.
         12    1    3    3    0    0 -0.16147183082E+00 -0.22955914597E+01  0.66260060948E+01  0.70142547765E+01  0.00000000000E+00 0. -1.
</event>
<event>
 7    1  0.6726285E-013  0.5052887E+02  0.7816164E-02  0.1300439E+00
        -11   -1    0    0    0    0  0.00000000000E+00  0.00000000000E+00  0.45593999997E+02  0.45594000000E+02  0.51100000000E-03 0. -1.
         11   -1    0    0    0    0 -0.00000000000E+00 -0.00000000000E+00 -0.45593999997E+02  0.45594000000E+02  0.51100000000E-03 0.  1.
    9900012    2    1    2    0    0 -0.21916928011E+02 -0.18967511654E+02 -0.28513975548E+02  0.50528867774E+02  0.30000024087E+02 0.  0.
         12    1    1    2    0    0  0.21916928011E+02  0.18967511654E+02  0.28513975548E+02  0.40659132226E+02  0.00000000000E+00 0. -1.
         11    1    3    3    0    0 -0.18903572773E+02 -0.11112173024E+02 -0.43639020988E+01  0.22357752452E+02  0.51100000000E-03 0. -1.
        -11    1    3    3    0    0 -0.10415691842E+01 -0.92105360132E+01 -0.93033023752E+01  0.13132793890E+02  0.51100000000E-03 0.  1.
        -12    1    3    3    0    0 -0.19717860538E+01  0.13551973825E+01 -0.14846771074E+02  0.15038321433E+02  0.00000000000E+00 0.  1.
</event>
<event>
 7    1  0.6726285E-013  0.5052884E+02  0.7816164E-02  0.1300439E+00
        -11   -1    0    0    0    0  0.00000000000E+00  0.00000000000E+00  0.45593999997E+02  0.45594000000E+02  0.51100000000E-03 0. -1.
         11   -1    0    0    0    0 -0.00000000000E+00 -0.00000000000E+00 -0.45593999997E+02  0.45594000000E+02  0.51100000000E-03 0.  1.
    9900012    2    1    2    0    0 -0.16038216958E+02  0.33055444634E+02 -0.17414954495E+02  0.50528837893E+02  0.29999933260E+02 0.  0.
         12    1    1    2    0    0  0.16038216958E+02 -0.33055444634E+02  0.17414954495E+02  0.40659162107E+02  0.00000000000E+00 0. -1.
         11    1    3    3    0    0 -0.25816715841E+01  0.42374642637E+01 -0.61673246661E+00  0.50001490728E+01  0.51100000000E-03 0. -1.
        -11    1    3    3    0    0 -0.30314284206E+01  0.29871413508E+02 -0.62653731730E+01  0.30671579752E+02  0.51100000000E-03 0.  1.
         12    1    3    3    0    0 -0.10425116953E+02 -0.10534331373E+01 -0.10532848855E+02  0.14857109068E+02  0.00000000000E+00 0. -1.
</event>
<event>
 7    1  0.6726285E-013  0.5052887E+02  0.7816164E-02  0.1300439E+00
        -11   -1    0    0    0    0  0.00000000000E+00  0.00000000000E+00  0.45593999997E+02  0.45594000000E+02  0.51100000000E-03 0.  1.
         11   -1    0    0    0    0 -0.00000000000E+00 -0.00000000000E+00 -0.45593999997E+02  0.45594000000E+02  0.51100000000E-03 0. -1.
    9900012    2    1    2    0    0 -0.16697653513E+02  0.26409508461E+02  0.26017125633E+02  0.50528873150E+02  0.30000040427E+02 0.  0.
         12    1    1    2    0    0  0.16697653513E+02 -0.26409508461E+02 -0.26017125633E+02  0.40659126850E+02  0.00000000000E+00 0. -1.
         11    1    3    3    0    0 -0.14423843734E+00  0.25488372639E+02  0.17968963731E+02  0.31185919937E+02  0.51100000000E-03 0. -1.
        -11    1    3    3    0    0 -0.16118959813E+01  0.40408067754E+00  0.32349263529E+01  0.36367896032E+01  0.51100000000E-03 0.  1.
         12    1    3    3    0    0 -0.14941519095E+02  0.51705514454E+00  0.48132355493E+01  0.15706163609E+02  0.00000000000E+00 0. -1.
</event>
<event>
 7    1  0.6726285E-013  0.5052885E+02  0.7816164E-02  0.1300439E+00
        -11   -1    0    0    0    0  0.00000000000E+00  0.00000000000E+00  0.45593999997E+02  0.45594000000E+02  0.51100000000E-03 0.  1.
         11   -1    0    0    0    0 -0.00000000000E+00 -0.00000000000E+00 -0.45593999997E+02  0.45594000000E+02  0.51100000000E-03 0. -1.
    9900012    2    1    2    0    0  0.20757035468E+02  0.41317659129E+01  0.34716571031E+02  0.50528852012E+02  0.29999976174E+02 0.  0.
         12    1    1    2    0    0 -0.20757035468E+02 -0.41317659129E+01 -0.34716571031E+02  0.40659147988E+02  0.00000000000E+00 0. -1.
         11    1    3    3    0    0  0.15744324003E+02 -0.52729967882E+00  0.11509482131E+02  0.19509740194E+02  0.51100000000E-03 0. -1.
        -11    1    3    3    0    0  0.11369214221E+02  0.21767082860E+01  0.20760747253E+02  0.23769848921E+02  0.51100000000E-03 0.  1.
         12    1    3    3    0    0 -0.63565027562E+01  0.24823573057E+01  0.24463416475E+01  0.72492628962E+01  0.00000000000E+00 0. -1.
</event>
<event>
 7    1  0.6726285E-013  0.5052887E+02  0.7816164E-02  0.1300439E+00
        -11   -1    0    0    0    0  0.00000000000E+00  0.00000000000E+00  0.45593999997E+02  0.45594000000E+02  0.51100000000E-03 0.  1.
         11   -1    0    0    0    0 -0.00000000000E+00 -0.00000000000E+00 -0.45593999997E+02  0.45594000000E+02  0.51100000000E-03 0. -1.
    9900012    2    1    2    0    0 -0.17603088795E+02 -0.17143854768E+02  0.32394197634E+02  0.50528873942E+02  0.30000042834E+02 0.  0.
         12    1    1    2    0    0  0.17603088795E+02  0.17143854768E+02 -0.32394197634E+02  0.40659126058E+02  0.00000000000E+00 0. -1.
         11    1    3    3    0    0  0.22085786033E+01 -0.17968061987E+01 -0.47727038797E+00  0.28868874670E+01  0.51100000000E-03 0. -1.
        -11    1    3    3    0    0  0.50278774041E+01 -0.56742055340E+01  0.50368996484E+01  0.91020062603E+01  0.51100000000E-03 0.  1.
         12    1    3    3    0    0 -0.24839544803E+02 -0.96728430350E+01  0.27834568374E+02  0.38539980215E+02  0.00000000000E+00 0. -1.
</event>
<event>
 7    1  0.6974983E-013  0.5052886E+02  0.7816164E-02  0.1300439E+00
        -11   -1    0    0    0    0  0.00000000000E+00  0.00000000000E+00  0.45593999997E+02  0.45594000000E+02  0.51100000000E-03 0. -1.
         11   -1    0    0    0    0 -0.00000000000E+00 -0.00000000000E+00 -0.45593999997E+02  0.45594000000E+02  0.51100000000E-03 0.  1.
    9900012    2    1    2    0    0 -0.21176015830E+01  0.85766892304E+01 -0.39687804554E+02  0.50528860007E+02  0.30000000478E+02 0.  0.
         12    1    1    2    0    0  0.21176015830E+01 -0.85766892304E+01  0.39687804554E+02  0.40659139993E+02  0.00000000000E+00 0. -1.
         11    1    3    3    0    0 -0.70255330411E+01  0.32187008816E+01 -0.14907770614E+02  0.16791657894E+02  0.51100000000E-03 0. -1.
        -11    1    3    3    0    0 -0.55601915042E+01 -0.73100133804E+00 -0.19909500691E+02  0.20684252719E+02  0.51100000000E-03 0.  1.
         12    1    3    3    0    0  0.10468122962E+02  0.60889896869E+01 -0.48705332491E+01  0.13052949394E+02  0.00000000000E+00 0. -1.
</event>
<event>
 7    1  0.6726285E-013  0.5052886E+02  0.7816164E-02  0.1300439E+00
        -11   -1    0    0    0    0  0.00000000000E+00  0.00000000000E+00  0.45593999997E+02  0.45594000000E+02  0.51100000000E-03 0.  1.
         11   -1    0    0    0    0 -0.00000000000E+00 -0.00000000000E+00 -0.45593999997E+02  0.45594000000E+02  0.51100000000E-03 0. -1.
    9900012    2    1    2    0    0 -0.50754635448E+01 -0.54674155255E+01  0.39968895406E+02  0.50528861265E+02  0.30000004301E+02 0.  0.
         12    1    1    2    0    0  0.50754635448E+01  0.54674155255E+01 -0.39968895406E+02  0.40659138735E+02  0.00000000000E+00 0. -1.
         11    1    3    3    0    0 -0.37399919942E+01 -0.34200997919E+01  0.27263436954E+00  0.50753278184E+01  0.51100000000E-03 0. -1.
        -11    1    3    3    0    0 -0.58949965873E+01 -0.69094761215E+01  0.55092794907E+01  0.10622805929E+02  0.51100000000E-03 0.  1.
        -12    1    3    3    0    0  0.45595250367E+01  0.48621603880E+01  0.34186981546E+02  0.34830727517E+02  0.00000000000E+00 0.  1.
</event>
<event>
 7    1  0.6726285E-013  0.5052886E+02  0.7816164E-02  0.1300439E+00
        -11   -1    0    0    0    0  0.00000000000E+00  0.00000000000E+00  0.45593999997E+02  0.45594000000E+02  0.51100000000E-03 0.  1.
         11   -1    0    0    0    0 -0.00000000000E+00 -0.00000000000E+00 -0.45593999997E+02  0.45594000000E+02  0.51100000000E-03 0. -1.
    9900012    2    1    2    0    0  0.61079224644E+01  0.16571025515E+02  0.36623216756E+02  0.50528860695E+02  0.30000002569E+02 0.  0.
         12    1    1    2    0    0 -0.61079224644E+01 -0.16571025515E+02 -0.36623216756E+02  0.40659139305E+02  0.00000000000E+00 0. -1.
         11    1    3    3    0    0  0.31630872246E+01 -0.17495324494E+01  0.25498936455E+02  0.25753868547E+02  0.51100000000E-03 0. -1.
        -11    1    3    3    0    0  0.18349002061E+01  0.18554010610E+01  0.74149605981E+01  0.78607259714E+01  0.51100000000E-03 0.  1.
         12    1    3    3    0    0  0.11099350338E+01  0.16465156903E+02  0.37093197033E+01  0.16914266176E+02  0.00000000000E+00 0. -1.
</event>
<event>
 7    1  0.6726285E-013  0.5052887E+02  0.7816164E-02  0.1300439E+00
        -11   -1    0    0    0    0  0.00000000000E+00  0.00000000000E+00  0.45593999997E+02  0.45594000000E+02  0.51100000000E-03 0.  1.
         11   -1    0    0    0    0 -0.00000000000E+00 -0.00000000000E+00 -0.45593999997E+02  0.45594000000E+02  0.51100000000E-03 0. -1.
    9900012    2    1    2    0    0 -0.38936460287E+02  0.77228135373E+00  0.11684207904E+02  0.50528867293E+02  0.30000022623E+02 0.  0.
         12    1    1    2    0    0  0.38936460287E+02 -0.77228135373E+00 -0.11684207904E+02  0.40659132707E+02  0.00000000000E+00 0. -1.
         11    1    3    3    0    0 -0.94889726147E+01  0.11178172233E+02  0.64971032311E+01  0.16037596030E+02  0.51100000000E-03 0. -1.
        -11    1    3    3    0    0 -0.21492196205E+02 -0.14820919806E+01  0.64030155203E+01  0.22474645767E+02  0.51100000000E-03 0.  1.
         12    1    3    3    0    0 -0.79552914674E+01 -0.89237988990E+01 -0.12159108472E+01  0.12016625496E+02  0.00000000000E+00 0. -1.
</event>
<event>
 7    1  0.6726285E-013  0.5052887E+02  0.7816164E-02  0.1300439E+00
        -11   -1    0    0    0    0  0.00000000000E+00  0.00000000000E+00  0.45593999997E+02  0.45594000000E+02  0.51100000000E-03 0. -1.
         11   -1    0    0    0    0 -0.00000000000E+00 -0.00000000000E+00 -0.45593999997E+02  0.45594000000E+02  0.51100000000E-03 0.  1.
    9900012    2    1    2    0    0 -0.12851691530E+02 -0.37163813624E+02 -0.10336819855E+02  0.50528869869E+02  0.30000030454E+02 0.  0.
         12    1    1    2    0    0  0.12851691530E+02  0.37163813624E+02  0.10336819855E+02  0.40659130131E+02  0.00000000000E+00 0. -1.
         11    1    3    3    0    0 -0.11362808569E+02 -0.14176610615E+02  0.30960515062E+01  0.18430280581E+02  0.51100000000E-03 0. -1.
        -11    1    3    3    0    0 -0.84742479183E+01 -0.85873074760E+01 -0.15477426293E+01  0.12163479559E+02  0.51100000000E-03 0.  1.
        -12    1    3    3    0    0  0.69853649570E+01 -0.14399895533E+02 -0.11885128732E+02  0.19935109729E+02  0.00000000000E+00 0.  1.
</event>
<event>
 7    1  0.6726285E-013  0.5052886E+02  0.7816164E-02  0.1300439E+00
        -11   -1    0    0    0    0  0.00000000000E+00  0.00000000000E+00  0.45593999997E+02  0.45594000000E+02  0.51100000000E-03 0.  1.
         11   -1    0    0    0    0 -0.00000000000E+00 -0.00000000000E+00 -0.45593999997E+02  0.45594000000E+02  0.51100000000E-03 0. -1.
    9900012    2    1    2    0    0 -0.25688411036E+02  0.31478762267E+02 -0.15358590288E+01  0.50528858366E+02  0.29999995490E+02 0.  0.
         12    1    1    2    0    0  0.25688411036E+02 -0.31478762267E+02  0.15358590288E+01  0.40659141634E+02  0.00000000000E+00 0. -1.
         11    1    3    3    0    0  0.13726106818E+01  0.42328348920E+01 -0.40478839547E+01  0.60155063028E+01  0.51100000000E-03 0. -1.
        -11    1    3    3    0    0 -0.11545963276E+02  0.19720510418E+02 -0.81242467182E+01  0.24253065458E+02  0.51100000000E-03 0.  1.
        -12    1    3    3    0    0 -0.15515058442E+02  0.75254169571E+01  0.10636271644E+02  0.20260286605E+02  0.00000000000E+00 0.  1.
</event>
<event>
 7    1  0.6726285E-013  0.5052887E+02  0.7816164E-02  0.1300439E+00
        -11   -1    0    0    0    0  0.00000000000E+00  0.00000000000E+00  0.45593999997E+02  0.45594000000E+02  0.51100000000E-03 0.  1.
         11   -1    0    0    0    0 -0.00000000000E+00 -0.00000000000E+00 -0.45593999997E+02  0.45594000000E+02  0.51100000000E-03 0. -1.
    9900012    2    1    2    0    0  0.63698329198E+01 -0.24778265661E+02  0.31601066993E+02  0.50528872418E+02  0.30000038203E+02 0.  0.
         12    1    1    2    0    0 -0.63698329198E+01  0.24778265661E+02 -0.31601066993E+02  0.40659127582E+02  0.00000000000E+00 0. -1.
         11    1    3    3    0    0  0.78214384556E+01  0.13131653232E+01 -0.22832928192E+00  0.79341941748E+01  0.51100000000E-03 0. -1.
        -11    1    3    3    0    0  0.74344363395E+00  0.58698437641E+00  0.34705490652E+01  0.35974949854E+01  0.51100000000E-03 0.  1.
         12    1    3    3    0    0 -0.21950491697E+01 -0.26678415361E+02  0.28358847209E+02  0.38997183258E+02  0.00000000000E+00 0. -1.
</event>
<event>
 7    1  0.6726285E-013  0.5052886E+02  0.7816164E-02  0.1300439E+00
        -11   -1    0    0    0    0  0.00000000000E+00  0.00000000000E+00  0.45593999997E+02  0.45594000000E+02  0.51100000000E-03 0.  1.
         11   -1    0    0    0    0 -0.00000000000E+00 -0.00000000000E+00 -0.45593999997E+02  0.45594000000E+02  0.51100000000E-03 0. -1.
    9900012    2    1    2    0    0 -0.44475846037E+01  0.24863338125E+02  0.31862191702E+02  0.50528857712E+02  0.29999993501E+02 0.  0.
         12    1    1    2    0    0  0.44475846037E+01 -0.24863338125E+02 -0.31862191702E+02  0.40659142288E+02  0.00000000000E+00 0. -1.
         11    1    3    3    0    0 -0.29049824445E+00  0.11435673449E+02  0.34394304900E+01  0.11945237496E+02  0.51100000000E-03 0.  1.
        -11    1    3    3    0    0  0.69174760766E+01  0.65305278526E+01  0.29431453629E+01  0.99579804274E+01  0.51100000000E-03 0. -1.
         12    1    3    3    0    0 -0.11074562436E+02  0.68971368230E+01  0.25479615849E+02  0.28625639789E+02  0.00000000000E+00 0. -1.
</event>
<event>
 7    1  0.6726285E-013  0.5052886E+02  0.7816164E-02  0.1300439E+00
        -11   -1    0    0    0    0  0.00000000000E+00  0.00000000000E+00  0.45593999997E+02  0.45594000000E+02  0.51100000000E-03 0.  1.
         11   -1    0    0    0    0 -0.00000000000E+00 -0.00000000000E+00 -0.45593999997E+02  0.45594000000E+02  0.51100000000E-03 0. -1.
    9900012    2    1    2    0    0  0.21226857746E+02 -0.24245932509E+02  0.24793565888E+02  0.50528860284E+02  0.30000001319E+02 0.  0.
         12    1    1    2    0    0 -0.21226857746E+02  0.24245932509E+02 -0.24793565888E+02  0.40659139716E+02  0.00000000000E+00 0. -1.
         11    1    3    3    0    0  0.51919096792E+01 -0.27492249543E+01 -0.19881013665E+01  0.62021537606E+01  0.51100000000E-03 0. -1.
        -11    1    3    3    0    0 -0.38414980193E+01 -0.58176772791E+01 -0.64592650692E+00  0.70014068064E+01  0.51100000000E-03 0.  1.
        -12    1    3    3    0    0  0.19876446086E+02 -0.15679030276E+02  0.27427593762E+02  0.37325299717E+02  0.00000000000E+00 0.  1.
</event>
<event>
 7    1  0.6726285E-013  0.5052886E+02  0.7816164E-02  0.1300439E+00
        -11   -1    0    0    0    0  0.00000000000E+00  0.00000000000E+00  0.45593999997E+02  0.45594000000E+02  0.51100000000E-03 0.  1.
         11   -1    0    0    0    0 -0.00000000000E+00 -0.00000000000E+00 -0.45593999997E+02  0.45594000000E+02  0.51100000000E-03 0. -1.
    9900012    2    1    2    0    0  0.19386317458E+02 -0.34635649920E+02  0.88152382446E+01  0.50528856191E+02  0.29999988878E+02 0.  0.
         12    1    1    2    0    0 -0.19386317458E+02  0.34635649920E+02 -0.88152382446E+01  0.40659143809E+02  0.00000000000E+00 0. -1.
         11    1    3    3    0    0 -0.22899316195E+01  0.25265906957E+01 -0.92656291581E+00  0.35335487068E+01  0.51100000000E-03 0. -1.
        -11    1    3    3    0    0  0.23917553457E+01  0.66347636754E+00  0.31789157382E+01  0.40331377432E+01  0.51100000000E-03 0.  1.
         12    1    3    3    0    0  0.19284493732E+02 -0.37825716983E+02  0.65628854222E+01  0.42962169741E+02  0.00000000000E+00 0. -1.
</event>
<event>
 7    1  0.6726285E-013  0.5052887E+02  0.7816164E-02  0.1300439E+00
        -11   -1    0    0    0    0  0.00000000000E+00  0.00000000000E+00  0.45593999997E+02  0.45594000000E+02  0.51100000000E-03 0. -1.
         11   -1    0    0    0    0 -0.00000000000E+00 -0.00000000000E+00 -0.45593999997E+02  0.45594000000E+02  0.51100000000E-03 0.  1.
    9900012    2    1    2    0    0  0.27616507585E+02 -0.25531898611E+02  0.15447189261E+02  0.50528868259E+02  0.30000025561E+02 0.  0.
         12    1    1    2    0    0 -0.27616507585E+02  0.25531898611E+02 -0.15447189261E+02  0.40659131741E+02  0.00000000000E+00 0. -1.
         11    1    3    3    0    0  0.12914538471E+02 -0.49258562337E+01  0.17777746851E+02  0.22518828720E+02  0.51100000000E-03 0. -1.
        -11    1    3    3    0    0 -0.12341554369E+01  0.20349618724E+00  0.98290719825E+00  0.15908039358E+01  0.51100000000E-03 0.  1.
        -12    1    3    3    0    0  0.15936124551E+02 -0.20809538564E+02 -0.33134647890E+01  0.26419235603E+02  0.00000000000E+00 0.  1.
</event>
<event>
 7    1  0.6726285E-013  0.5052888E+02  0.7816164E-02  0.1300439E+00
        -11   -1    0    0    0    0  0.00000000000E+00  0.00000000000E+00  0.45593999997E+02  0.45594000000E+02  0.51100000000E-03 0.  1.
         11   -1    0    0    0    0 -0.00000000000E+00 -0.00000000000E+00 -0.45593999997E+02  0.45594000000E+02  0.51100000000E-03 0. -1.
    9900012    2    1    2    0    0 -0.13678112015E+01 -0.25221689630E+01  0.40557754806E+02  0.50528883942E+02  0.30000073230E+02 0.  0.
         12    1    1    2    0    0  0.13678112015E+01  0.25221689630E+01 -0.40557754806E+02  0.40659116058E+02  0.00000000000E+00 0. -1.
         11    1    3    3    0    0  0.22419416496E+01 -0.16979457155E+01  0.23760041007E+02  0.23925903764E+02  0.51100000000E-03 0.  1.
        -11    1    3    3    0    0  0.19380185618E+01  0.62497393190E+01  0.16339966766E+02  0.17601411071E+02  0.51100000000E-03 0. -1.
        -12    1    3    3    0    0 -0.55477714130E+01 -0.70739625664E+01  0.45774703241E+00  0.90015691070E+01  0.00000000000E+00 0.  1.
</event>
<event>
 7    1  0.6726285E-013  0.5052887E+02  0.7816164E-02  0.1300439E+00
        -11   -1    0    0    0    0  0.00000000000E+00  0.00000000000E+00  0.45593999997E+02  0.45594000000E+02  0.51100000000E-03 0.  1.
         11   -1    0    0    0    0 -0.00000000000E+00 -0.00000000000E+00 -0.45593999997E+02  0.45594000000E+02  0.51100000000E-03 0. -1.
    9900012    2    1    2    0    0  0.33312576621E+02 -0.22244626154E+02 -0.69723716040E+01  0.50528866713E+02  0.30000020862E+02 0.  0.
         12    1    1    2    0    0 -0.33312576621E+02  0.22244626154E+02  0.69723716040E+01  0.40659133287E+02  0.00000000000E+00 0. -1.
         11    1    3    3    0    0  0.44458452458E+01  0.43417364865E+01  0.47157889036E+01  0.78009538464E+01  0.51100000000E-03 0. -1.
        -11    1    3    3    0    0  0.99470720978E+01 -0.16404735254E+02 -0.24500166355E+01  0.19340686747E+02  0.51100000000E-03 0.  1.
        -12    1    3    3    0    0  0.18919659277E+02 -0.10181627387E+02 -0.92381438722E+01  0.23387226120E+02  0.00000000000E+00 0.  1.
</event>
<event>
 7    1  0.6726285E-013  0.5052886E+02  0.7816164E-02  0.1300439E+00
        -11   -1    0    0    0    0  0.00000000000E+00  0.00000000000E+00  0.45593999997E+02  0.45594000000E+02  0.51100000000E-03 0.  1.
         11   -1    0    0    0    0 -0.00000000000E+00 -0.00000000000E+00 -0.45593999997E+02  0.45594000000E+02  0.51100000000E-03 0. -1.
    9900012    2    1    2    0    0 -0.32625613677E+02  0.47256097876E+01  0.23799231766E+02  0.50528862179E+02  0.30000007080E+02 0.  0.
         12    1    1    2    0    0  0.32625613677E+02 -0.47256097876E+01 -0.23799231766E+02  0.40659137821E+02  0.00000000000E+00 0. -1.
         11    1    3    3    0    0 -0.17705190103E+02  0.10442186503E+02  0.89912097667E+01  0.22435571508E+02  0.51100000000E-03 0. -1.
        -11    1    3    3    0    0 -0.18225277356E+02 -0.14539539489E+01  0.12883718133E+02  0.22366602558E+02  0.51100000000E-03 0.  1.
         12    1    3    3    0    0  0.33048537826E+01 -0.42626227666E+01  0.19243038660E+01  0.57266881130E+01  0.00000000000E+00 0. -1.
</event>
<event>
 7    1  0.6726285E-013  0.5052886E+02  0.7816164E-02  0.1300439E+00
        -11   -1    0    0    0    0  0.00000000000E+00  0.00000000000E+00  0.45593999997E+02  0.45594000000E+02  0.51100000000E-03 0.  1.
         11   -1    0    0    0    0 -0.00000000000E+00 -0.00000000000E+00 -0.45593999997E+02  0.45594000000E+02  0.51100000000E-03 0. -1.
    9900012    2    1    2    0    0 -0.21833788003E+02 -0.27483484431E+02  0.20520951606E+02  0.50528859947E+02  0.30000000295E+02 0.  0.
         12    1    1    2    0    0  0.21833788003E+02  0.27483484431E+02 -0.20520951606E+02  0.40659140053E+02  0.00000000000E+00 0. -1.
         11    1    3    3    0    0 -0.59555797911E+00  0.32034394163E+01  0.58947927960E+01  0.67353764386E+01  0.51100000000E-03 0. -1.
        -11    1    3    3    0    0 -0.16383995844E+02 -0.83239233681E+01  0.58751307366E+01  0.19293526932E+02  0.51100000000E-03 0.  1.
         12    1    3    3    0    0 -0.48542341802E+01 -0.22363000479E+02  0.87510280734E+01  0.24499956576E+02  0.00000000000E+00 0. -1.
</event>
<event>
 7    1  0.6726285E-013  0.5052886E+02  0.7816164E-02  0.1300439E+00
        -11   -1    0    0    0    0  0.00000000000E+00  0.00000000000E+00  0.45593999997E+02  0.45594000000E+02  0.51100000000E-03 0.  1.
         11   -1    0    0    0    0 -0.00000000000E+00 -0.00000000000E+00 -0.45593999997E+02  0.45594000000E+02  0.51100000000E-03 0. -1.
    9900012    2    1    2    0    0  0.11553802618E+02  0.13451517224E+02  0.36588686327E+02  0.50528860343E+02  0.30000001497E+02 0.  0.
         12    1    1    2    0    0 -0.11553802618E+02 -0.13451517224E+02 -0.36588686327E+02  0.40659139657E+02  0.00000000000E+00 0. -1.
         11    1    3    3    0    0  0.66562349500E+01  0.11741118619E+01  0.19582826598E+02  0.20716445163E+02  0.51100000000E-03 0. -1.
        -11    1    3    3    0    0  0.11269823096E+02  0.13767254281E+02  0.10918986059E+02  0.20875115805E+02  0.51100000000E-03 0.  1.
         12    1    3    3    0    0 -0.63722554281E+01 -0.14898489186E+01  0.60868736703E+01  0.89372993750E+01  0.00000000000E+00 0. -1.
</event>
<event>
 7    1  0.6726285E-013  0.5052885E+02  0.7816164E-02  0.1300439E+00
        -11   -1    0    0    0    0  0.00000000000E+00  0.00000000000E+00  0.45593999997E+02  0.45594000000E+02  0.51100000000E-03 0.  1.
         11   -1    0    0    0    0 -0.00000000000E+00 -0.00000000000E+00 -0.45593999997E+02  0.45594000000E+02  0.51100000000E-03 0. -1.
    9900012    2    1    2    0    0 -0.15001775505E+02 -0.32012238590E+02  0.20083078998E+02  0.50528846665E+02  0.29999959924E+02 0.  0.
         12    1    1    2    0    0  0.15001775505E+02  0.32012238590E+02 -0.20083078998E+02  0.40659153335E+02  0.00000000000E+00 0. -1.
         11    1    3    3    0    0 -0.48400832735E+00 -0.42753167283E+00  0.35546901253E+01  0.36128755224E+01  0.51100000000E-03 0. -1.
        -11    1    3    3    0    0 -0.12221853850E+02 -0.69070298806E+01  0.17100871508E+02  0.22125111975E+02  0.51100000000E-03 0.  1.
         12    1    3    3    0    0 -0.22959133270E+01 -0.24677677037E+02 -0.57248263513E+00  0.24790859168E+02  0.00000000000E+00 0. -1.
</event>
<event>
 7    1  0.6726285E-013  0.5052892E+02  0.7816164E-02  0.1300439E+00
        -11   -1    0    0    0    0  0.00000000000E+00  0.00000000000E+00  0.45593999997E+02  0.45594000000E+02  0.51100000000E-03 0. -1.
         11   -1    0    0    0    0 -0.00000000000E+00 -0.00000000000E+00 -0.45593999997E+02  0.45594000000E+02  0.51100000000E-03 0.  1.
    9900012    2    1    2    0    0 -0.23337530018E+02 -0.20990193419E+02 -0.25844385909E+02  0.50528919709E+02  0.30000181946E+02 0.  0.
         12    1    1    2    0    0  0.23337530018E+02  0.20990193419E+02  0.25844385909E+02  0.40659080291E+02  0.00000000000E+00 0. -1.
         11    1    3    3    0    0 -0.10267170571E+02 -0.48167881557E+01 -0.11396077810E+02  0.16077525599E+02  0.51100000000E-03 0.  1.
        -11    1    3    3    0    0 -0.16073792487E+02 -0.17460083664E+02 -0.47307253879E+01  0.24199196049E+02  0.51100000000E-03 0. -1.
         12    1    3    3    0    0  0.30034330399E+01  0.12866784006E+01 -0.97175827111E+01  0.10252198061E+02  0.00000000000E+00 0. -1.
</event>
<event>
 7    1  0.6726285E-013  0.5052886E+02  0.7816164E-02  0.1300439E+00
        -11   -1    0    0    0    0  0.00000000000E+00  0.00000000000E+00  0.45593999997E+02  0.45594000000E+02  0.51100000000E-03 0.  1.
         11   -1    0    0    0    0 -0.00000000000E+00 -0.00000000000E+00 -0.45593999997E+02  0.45594000000E+02  0.51100000000E-03 0. -1.
    9900012    2    1    2    0    0 -0.35552293489E+02 -0.19062412159E+02 -0.50817931526E+01  0.50528858945E+02  0.29999997250E+02 0.  0.
         12    1    1    2    0    0  0.35552293489E+02  0.19062412159E+02  0.50817931526E+01  0.40659141055E+02  0.00000000000E+00 0. -1.
         11    1    3    3    0    0  0.16826024699E+01 -0.55371278061E+01  0.23037607094E+01  0.62288240528E+01  0.51100000000E-03 0.  1.
        -11    1    3    3    0    0 -0.13515660598E+02 -0.11422277625E+02 -0.10031169976E+02  0.20341235924E+02  0.51100000000E-03 0. -1.
         12    1    3    3    0    0 -0.23719235361E+02 -0.21030067275E+01  0.26456161142E+01  0.23958798969E+02  0.00000000000E+00 0. -1.
</event>
<event>
 7    1  0.6726285E-013  0.5052886E+02  0.7816164E-02  0.1300439E+00
        -11   -1    0    0    0    0  0.00000000000E+00  0.00000000000E+00  0.45593999997E+02  0.45594000000E+02  0.51100000000E-03 0.  1.
         11   -1    0    0    0    0 -0.00000000000E+00 -0.00000000000E+00 -0.45593999997E+02  0.45594000000E+02  0.51100000000E-03 0. -1.
    9900012    2    1    2    0    0  0.83407661529E+01  0.22135080628E+02  0.33070164728E+02  0.50528856262E+02  0.29999989093E+02 0.  0.
         12    1    1    2    0    0 -0.83407661529E+01 -0.22135080628E+02 -0.33070164728E+02  0.40659143738E+02  0.00000000000E+00 0. -1.
         11    1    3    3    0    0 -0.31766863055E+01  0.75400508343E+01  0.99956326792E+01  0.12917289785E+02  0.51100000000E-03 0.  1.
        -11    1    3    3    0    0 -0.59612005774E+01  0.20970137814E+01  0.11704509233E+02  0.13301462919E+02  0.51100000000E-03 0. -1.
        -12    1    3    3    0    0  0.17478653036E+02  0.12498016012E+02  0.11370022815E+02  0.24310103558E+02  0.00000000000E+00 0.  1.
</event>
<event>
 7    1  0.6726285E-013  0.5052884E+02  0.7816164E-02  0.1300439E+00
        -11   -1    0    0    0    0  0.00000000000E+00  0.00000000000E+00  0.45593999997E+02  0.45594000000E+02  0.51100000000E-03 0.  1.
         11   -1    0    0    0    0 -0.00000000000E+00 -0.00000000000E+00 -0.45593999997E+02  0.45594000000E+02  0.51100000000E-03 0. -1.
    9900012    2    1    2    0    0 -0.92079276921E+01  0.28574931604E+02  0.27419961866E+02  0.50528844115E+02  0.29999952171E+02 0.  0.
         12    1    1    2    0    0  0.92079276921E+01 -0.28574931604E+02 -0.27419961866E+02  0.40659155885E+02  0.00000000000E+00 0. -1.
         11    1    3    3    0    0  0.56251948129E+01  0.52261421713E+01  0.21885731154E+01  0.79840610732E+01  0.51100000000E-03 0. -1.
        -11    1    3    3    0    0 -0.94801139223E+01  0.71135107987E+01  0.22224494129E+02  0.25187352688E+02  0.51100000000E-03 0.  1.
         12    1    3    3    0    0 -0.53530085827E+01  0.16235278634E+02  0.30068946210E+01  0.17357430354E+02  0.00000000000E+00 0. -1.
</event>
<event>
 7    1  0.6726285E-013  0.5052886E+02  0.7816164E-02  0.1300439E+00
        -11   -1    0    0    0    0  0.00000000000E+00  0.00000000000E+00  0.45593999997E+02  0.45594000000E+02  0.51100000000E-03 0. -1.
         11   -1    0    0    0    0 -0.00000000000E+00 -0.00000000000E+00 -0.45593999997E+02  0.45594000000E+02  0.51100000000E-03 0.  1.
    9900012    2    1    2    0    0  0.21845144710E+02  0.33962865504E+02 -0.47412460220E+01  0.50528855955E+02  0.29999988159E+02 0.  0.
         12    1    1    2    0    0 -0.21845144710E+02 -0.33962865504E+02  0.47412460220E+01  0.40659144045E+02  0.00000000000E+00 0. -1.
         11    1    3    3    0    0  0.25499209143E+01  0.10475511067E+02  0.43791589768E+01  0.11636814959E+02  0.51100000000E-03 0. -1.
        -11    1    3    3    0    0  0.14757140059E+01  0.46001305986E+01  0.68687429740E+01  0.83975331887E+01  0.51100000000E-03 0.  1.
        -12    1    3    3    0    0  0.17819509790E+02  0.18887223838E+02 -0.15989147973E+02  0.30494507807E+02  0.00000000000E+00 0.  1.
</event>
<event>
 7    1  0.6726285E-013  0.5052886E+02  0.7816164E-02  0.1300439E+00
        -11   -1    0    0    0    0  0.00000000000E+00  0.00000000000E+00  0.45593999997E+02  0.45594000000E+02  0.51100000000E-03 0.  1.
         11   -1    0    0    0    0 -0.00000000000E+00 -0.00000000000E+00 -0.45593999997E+02  0.45594000000E+02  0.51100000000E-03 0. -1.
    9900012    2    1    2    0    0 -0.14478441474E+02 -0.37820675375E+02 -0.36244579302E+01  0.50528862668E+02  0.30000008565E+02 0.  0.
         12    1    1    2    0    0  0.14478441474E+02  0.37820675375E+02  0.36244579302E+01  0.40659137332E+02  0.00000000000E+00 0. -1.
         11    1    3    3    0    0  0.13157680656E+01 -0.61712514136E+01 -0.24915366834E+00  0.63148766752E+01  0.51100000000E-03 0. -1.
        -11    1    3    3    0    0 -0.14328313409E+02 -0.30121464602E+02  0.66119635488E+01  0.34004724041E+02  0.51100000000E-03 0.  1.
         12    1    3    3    0    0 -0.14658961305E+01 -0.15279593595E+01 -0.99872678107E+01  0.10209261951E+02  0.00000000000E+00 0. -1.
</event>
<event>
 7    1  0.6726285E-013  0.5052886E+02  0.7816164E-02  0.1300439E+00
        -11   -1    0    0    0    0  0.00000000000E+00  0.00000000000E+00  0.45593999997E+02  0.45594000000E+02  0.51100000000E-03 0.  1.
         11   -1    0    0    0    0 -0.00000000000E+00 -0.00000000000E+00 -0.45593999997E+02  0.45594000000E+02  0.51100000000E-03 0. -1.
    9900012    2    1    2    0    0 -0.19190609668E+01 -0.14633934272E+02  0.37885763577E+02  0.50528857005E+02  0.29999991353E+02 0.  0.
         12    1    1    2    0    0  0.19190609668E+01  0.14633934272E+02 -0.37885763577E+02  0.40659142995E+02  0.00000000000E+00 0. -1.
         11    1    3    3    0    0  0.15149219390E+01  0.29088072143E+00  0.81446096128E+00  0.17444044811E+01  0.51100000000E-03 0. -1.
        -11    1    3    3    0    0 -0.93064857687E+01 -0.57019734504E+01  0.84831321010E+00  0.10947274280E+02  0.51100000000E-03 0.  1.
         12    1    3    3    0    0  0.58725028630E+01 -0.92228415429E+01  0.36222989406E+02  0.37837178244E+02  0.00000000000E+00 0. -1.
</event>
<event>
 7    1  0.6726285E-013  0.5052885E+02  0.7816164E-02  0.1300439E+00
        -11   -1    0    0    0    0  0.00000000000E+00  0.00000000000E+00  0.45593999997E+02  0.45594000000E+02  0.51100000000E-03 0. -1.
         11   -1    0    0    0    0 -0.00000000000E+00 -0.00000000000E+00 -0.45593999997E+02  0.45594000000E+02  0.51100000000E-03 0.  1.
    9900012    2    1    2    0    0  0.35633011377E+02  0.19349966903E+02 -0.30055978016E+01  0.50528851741E+02  0.29999975353E+02 0.  0.
         12    1    1    2    0    0 -0.35633011377E+02 -0.19349966903E+02  0.30055978016E+01  0.40659148259E+02  0.00000000000E+00 0. -1.
         11    1    3    3    0    0  0.27121438420E+01 -0.29947851127E+01  0.43009409174E+01  0.59010638979E+01  0.51100000000E-03 0. -1.
        -11    1    3    3    0    0  0.24922919567E+02  0.61767960216E+01 -0.68886854946E+01  0.26584934022E+02  0.51100000000E-03 0.  1.
        -12    1    3    3    0    0  0.79979479687E+01  0.16167955994E+02 -0.41785322443E+00  0.18042853822E+02  0.00000000000E+00 0.  1.
</event>
<event>
 7    1  0.6726285E-013  0.5052886E+02  0.7816164E-02  0.1300439E+00
        -11   -1    0    0    0    0  0.00000000000E+00  0.00000000000E+00  0.45593999997E+02  0.45594000000E+02  0.51100000000E-03 0. -1.
         11   -1    0    0    0    0 -0.00000000000E+00 -0.00000000000E+00 -0.45593999997E+02  0.45594000000E+02  0.51100000000E-03 0.  1.
    9900012    2    1    2    0    0 -0.30522263489E+02 -0.22627923542E+02  0.14475292649E+02  0.50528860934E+02  0.30000003294E+02 0.  0.
         12    1    1    2    0    0  0.30522263489E+02  0.22627923542E+02 -0.14475292649E+02  0.40659139066E+02  0.00000000000E+00 0. -1.
         11    1    3    3    0    0 -0.25055019349E+02 -0.16733765827E+02  0.12503489483E+01  0.30155203300E+02  0.51100000000E-03 0. -1.
        -11    1    3    3    0    0 -0.69671272381E+01 -0.15999005887E+01  0.86172093988E+00  0.72002157666E+01  0.51100000000E-03 0.  1.
         12    1    3    3    0    0  0.14998830987E+01 -0.42942571272E+01  0.12363222761E+02  0.13173441867E+02  0.00000000000E+00 0. -1.
</event>
<event>
 7    1  0.6726285E-013  0.5052886E+02  0.7816164E-02  0.1300439E+00
        -11   -1    0    0    0    0  0.00000000000E+00  0.00000000000E+00  0.45593999997E+02  0.45594000000E+02  0.51100000000E-03 0.  1.
         11   -1    0    0    0    0 -0.00000000000E+00 -0.00000000000E+00 -0.45593999997E+02  0.45594000000E+02  0.51100000000E-03 0. -1.
    9900012    2    1    2    0    0  0.31563146568E+02 -0.22964339466E+02 -0.11382986539E+02  0.50528862147E+02  0.30000006982E+02 0.  0.
         12    1    1    2    0    0 -0.31563146568E+02  0.22964339466E+02  0.11382986539E+02  0.40659137853E+02  0.00000000000E+00 0. -1.
         11    1    3    3    0    0 -0.18469133248E+01 -0.16355241289E+01  0.19950337542E+01  0.31727256338E+01  0.51100000000E-03 0. -1.
        -11    1    3    3    0    0 -0.15284943464E+01  0.26406224355E+01 -0.10911454777E+01  0.32403364839E+01  0.51100000000E-03 0.  1.
        -12    1    3    3    0    0  0.34938554239E+02 -0.23969437773E+02 -0.12286874815E+02  0.44115800029E+02  0.00000000000E+00 0.  1.
</event>
<event>
 7    1  0.6726285E-013  0.5052887E+02  0.7816164E-02  0.1300439E+00
        -11   -1    0    0    0    0  0.00000000000E+00  0.00000000000E+00  0.45593999997E+02  0.45594000000E+02  0.51100000000E-03 0. -1.
         11   -1    0    0    0    0 -0.00000000000E+00 -0.00000000000E+00 -0.45593999997E+02  0.45594000000E+02  0.51100000000E-03 0.  1.
    9900012    2    1    2    0    0  0.73257053613E+01 -0.34522522413E+02 -0.20191441059E+02  0.50528870584E+02  0.30000032628E+02 0.  0.
         12    1    1    2    0    0 -0.73257053613E+01  0.34522522413E+02  0.20191441059E+02  0.40659129416E+02  0.00000000000E+00 0. -1.
         11    1    3    3    0    0  0.13871818629E+02 -0.11236493215E+02 -0.18842465175E+01  0.17950947526E+02  0.51100000000E-03 0. -1.
        -11    1    3    3    0    0  0.12483011590E+01 -0.59845031612E+01  0.13727845034E+00  0.61148490991E+01  0.51100000000E-03 0.  1.
        -12    1    3    3    0    0 -0.77944144271E+01 -0.17301526037E+02 -0.18444472992E+02  0.26463073960E+02  0.00000000000E+00 0.  1.
</event>
<event>
 7    1  0.6726285E-013  0.5052886E+02  0.7816164E-02  0.1300439E+00
        -11   -1    0    0    0    0  0.00000000000E+00  0.00000000000E+00  0.45593999997E+02  0.45594000000E+02  0.51100000000E-03 0.  1.
         11   -1    0    0    0    0 -0.00000000000E+00 -0.00000000000E+00 -0.45593999997E+02  0.45594000000E+02  0.51100000000E-03 0. -1.
    9900012    2    1    2    0    0 -0.79674014728E+01 -0.35507018951E+02  0.18136649817E+02  0.50528856531E+02  0.29999989912E+02 0.  0.
         12    1    1    2    0    0  0.79674014728E+01  0.35507018951E+02 -0.18136649817E+02  0.40659143469E+02  0.00000000000E+00 0. -1.
         11    1    3    3    0    0 -0.34963553122E+01 -0.81590846843E+01  0.38778940960E+01  0.96867551964E+01  0.51100000000E-03 0. -1.
        -11    1    3    3    0    0 -0.93994282665E+01 -0.30786216785E+02  0.11071569493E+02  0.34039977188E+02  0.51100000000E-03 0.  1.
         12    1    3    3    0    0  0.49283821059E+01  0.34382825178E+01  0.31871862289E+01  0.68021241471E+01  0.00000000000E+00 0. -1.
</event>
<event>
 7    1  0.6726285E-013  0.5052889E+02  0.7816164E-02  0.1300439E+00
        -11   -1    0    0    0    0  0.00000000000E+00  0.00000000000E+00  0.45593999997E+02  0.45594000000E+02  0.51100000000E-03 0. -1.
         11   -1    0    0    0    0 -0.00000000000E+00 -0.00000000000E+00 -0.45593999997E+02  0.45594000000E+02  0.51100000000E-03 0.  1.
    9900012    2    1    2    0    0  0.13669322071E+02  0.31592743578E+02 -0.21638192886E+02  0.50528890270E+02  0.30000092464E+02 0.  0.
         12    1    1    2    0    0 -0.13669322071E+02 -0.31592743578E+02  0.21638192886E+02  0.40659109730E+02  0.00000000000E+00 0. -1.
         11    1    3    3    0    0  0.32643450139E+01  0.12444994261E+02 -0.12077922878E+02  0.17646814212E+02  0.51100000000E-03 0. -1.
        -11    1    3    3    0    0  0.14102680405E+02  0.20357548570E+02 -0.25909830570E+01  0.24900372926E+02  0.51100000000E-03 0.  1.
         12    1    3    3    0    0 -0.36977033481E+01 -0.12097992527E+01 -0.69692869504E+01  0.79817031315E+01  0.00000000000E+00 0. -1.
</event>
<event>
 7    1  0.1115396E-012  0.5052885E+02  0.7816164E-02  0.1300439E+00
        -11   -1    0    0    0    0  0.00000000000E+00  0.00000000000E+00  0.45593999997E+02  0.45594000000E+02  0.51100000000E-03 0.  1.
         11   -1    0    0    0    0 -0.00000000000E+00 -0.00000000000E+00 -0.45593999997E+02  0.45594000000E+02  0.51100000000E-03 0. -1.
    9900012    2    1    2    0    0 -0.22624082184E+02  0.10774382525E+02  0.32019215094E+02  0.50528849139E+02  0.29999967443E+02 0.  0.
         12    1    1    2    0    0  0.22624082184E+02 -0.10774382525E+02 -0.32019215094E+02  0.40659150861E+02  0.00000000000E+00 0. -1.
         11    1    3    3    0    0 -0.47330367611E+01  0.63466572677E+01 -0.31246576196E+00  0.79233408717E+01  0.51100000000E-03 0. -1.
        -11    1    3    3    0    0 -0.20983866106E+02  0.83184999982E+01  0.28339434462E+02  0.36230424022E+02  0.51100000000E-03 0.  1.
         12    1    3    3    0    0  0.30928206827E+01 -0.38907747404E+01  0.39922463948E+01  0.63750842452E+01  0.00000000000E+00 0. -1.
</event>
<event>
 7    1  0.6726285E-013  0.5052886E+02  0.7816164E-02  0.1300439E+00
        -11   -1    0    0    0    0  0.00000000000E+00  0.00000000000E+00  0.45593999997E+02  0.45594000000E+02  0.51100000000E-03 0.  1.
         11   -1    0    0    0    0 -0.00000000000E+00 -0.00000000000E+00 -0.45593999997E+02  0.45594000000E+02  0.51100000000E-03 0. -1.
    9900012    2    1    2    0    0 -0.32405409208E+02  0.21167873901E+02  0.12448951964E+02  0.50528857898E+02  0.29999994067E+02 0.  0.
         12    1    1    2    0    0  0.32405409208E+02 -0.21167873901E+02 -0.12448951964E+02  0.40659142102E+02  0.00000000000E+00 0. -1.
         11    1    3    3    0    0 -0.23448004004E+01 -0.29832304960E+01  0.81212603950E+01  0.89639625041E+01  0.51100000000E-03 0. -1.
        -11    1    3    3    0    0 -0.22642686697E+02  0.11173384689E+02  0.73850216407E+01  0.26307305662E+02  0.51100000000E-03 0.  1.
         12    1    3    3    0    0 -0.74179221108E+01  0.12977719708E+02 -0.30573300720E+01  0.15257589732E+02  0.00000000000E+00 0. -1.
</event>
<event>
 7    1  0.6726285E-013  0.5052886E+02  0.7816164E-02  0.1300439E+00
        -11   -1    0    0    0    0  0.00000000000E+00  0.00000000000E+00  0.45593999997E+02  0.45594000000E+02  0.51100000000E-03 0.  1.
         11   -1    0    0    0    0 -0.00000000000E+00 -0.00000000000E+00 -0.45593999997E+02  0.45594000000E+02  0.51100000000E-03 0. -1.
    9900012    2    1    2    0    0  0.27579863731E+02 -0.88407925576E+01  0.28536943665E+02  0.50528860188E+02  0.30000001029E+02 0.  0.
         12    1    1    2    0    0 -0.27579863731E+02  0.88407925576E+01 -0.28536943665E+02  0.40659139812E+02  0.00000000000E+00 0. -1.
         11    1    3    3    0    0  0.67999644129E+01  0.63949519956E+01  0.22252281003E+01  0.95961746234E+01  0.51100000000E-03 0. -1.
        -11    1    3    3    0    0  0.12328498172E+02 -0.39745700688E+01  0.23111226580E+02  0.26493732630E+02  0.51100000000E-03 0.  1.
        -12    1    3    3    0    0  0.84514011464E+01 -0.11261174484E+02  0.32004889848E+01  0.14438952935E+02  0.00000000000E+00 0.  1.
</event>
<event>
 7    1  0.6726285E-013  0.5052886E+02  0.7816164E-02  0.1300439E+00
        -11   -1    0    0    0    0  0.00000000000E+00  0.00000000000E+00  0.45593999997E+02  0.45594000000E+02  0.51100000000E-03 0. -1.
         11   -1    0    0    0    0 -0.00000000000E+00 -0.00000000000E+00 -0.45593999997E+02  0.45594000000E+02  0.51100000000E-03 0.  1.
    9900012    2    1    2    0    0 -0.32689557374E+02  0.24054809001E+02 -0.24340761517E+01  0.50528859280E+02  0.29999998267E+02 0.  0.
         12    1    1    2    0    0  0.32689557374E+02 -0.24054809001E+02  0.24340761517E+01  0.40659140720E+02  0.00000000000E+00 0. -1.
         11    1    3    3    0    0 -0.23399159399E+01  0.45189883153E+01 -0.56947587702E+01  0.76371944922E+01  0.51100000000E-03 0. -1.
        -11    1    3    3    0    0 -0.16186877956E+02  0.12684307000E+02 -0.94821746637E+01  0.22645491795E+02  0.51100000000E-03 0.  1.
         12    1    3    3    0    0 -0.14162763478E+02  0.68515136854E+01  0.12742857282E+02  0.20246172992E+02  0.00000000000E+00 0. -1.
</event>
<event>
 7    1  0.9443966E-013  0.5052886E+02  0.7816164E-02  0.1300439E+00
        -11   -1    0    0    0    0  0.00000000000E+00  0.00000000000E+00  0.45593999997E+02  0.45594000000E+02  0.51100000000E-03 0. -1.
         11   -1    0    0    0    0 -0.00000000000E+00 -0.00000000000E+00 -0.45593999997E+02  0.45594000000E+02  0.51100000000E-03 0.  1.
    9900012    2    1    2    0    0  0.32174465584E+02  0.26974144043E+01 -0.24712204778E+02  0.50528863941E+02  0.30000012436E+02 0.  0.
         12    1    1    2    0    0 -0.32174465584E+02 -0.26974144043E+01  0.24712204778E+02  0.40659136059E+02  0.00000000000E+00 0. -1.
         11    1    3    3    0    0  0.45659297789E+01 -0.83122417208E+00 -0.14418385548E+02  0.15146897057E+02  0.51100000000E-03 0. -1.
        -11    1    3    3    0    0  0.23424251721E+02  0.90218448085E+01 -0.12619895875E+02  0.28095391519E+02  0.51100000000E-03 0.  1.
         12    1    3    3    0    0  0.41842840837E+01 -0.54932062321E+01  0.23260766457E+01  0.72865753659E+01  0.00000000000E+00 0. -1.
</event>
<event>
 7    1  0.6726285E-013  0.5052885E+02  0.7816164E-02  0.1300439E+00
        -11   -1    0    0    0    0  0.00000000000E+00  0.00000000000E+00  0.45593999997E+02  0.45594000000E+02  0.51100000000E-03 0.  1.
         11   -1    0    0    0    0 -0.00000000000E+00 -0.00000000000E+00 -0.45593999997E+02  0.45594000000E+02  0.51100000000E-03 0. -1.
    9900012    2    1    2    0    0  0.75784993501E+01 -0.34350351582E+02  0.20390829248E+02  0.50528853137E+02  0.29999979595E+02 0.  0.
         12    1    1    2    0    0 -0.75784993501E+01  0.34350351582E+02 -0.20390829248E+02  0.40659146863E+02  0.00000000000E+00 0. -1.
         11    1    3    3    0    0 -0.49973046771E+01 -0.13667688789E+02  0.35912186840E+01  0.14989183526E+02  0.51100000000E-03 0. -1.
        -11    1    3    3    0    0  0.48716226422E+01 -0.10415275623E+02 -0.30547396548E+01  0.11897147057E+02  0.51100000000E-03 0.  1.
        -12    1    3    3    0    0  0.77041813850E+01 -0.10267387170E+02  0.19854350219E+02  0.23642522554E+02  0.00000000000E+00 0.  1.
</event>
<event>
 7    1  0.6726285E-013  0.5052887E+02  0.7816164E-02  0.1300439E+00
        -11   -1    0    0    0    0  0.00000000000E+00  0.00000000000E+00  0.45593999997E+02  0.45594000000E+02  0.51100000000E-03 0.  1.
         11   -1    0    0    0    0 -0.00000000000E+00 -0.00000000000E+00 -0.45593999997E+02  0.45594000000E+02  0.51100000000E-03 0. -1.
    9900012    2    1    2    0    0  0.14429698418E+02 -0.17208429942E+02  0.33894228069E+02  0.50528868751E+02  0.30000027056E+02 0.  0.
         12    1    1    2    0    0 -0.14429698418E+02  0.17208429942E+02 -0.33894228069E+02  0.40659131249E+02  0.00000000000E+00 0. -1.
         11    1    3    3    0    0 -0.28172306535E+01 -0.70103937791E+01  0.64566765772E+01  0.99383641599E+01  0.51100000000E-03 0. -1.
        -11    1    3    3    0    0  0.14897298150E+02 -0.15911532040E+02  0.14289180784E+02  0.26063135494E+02  0.51100000000E-03 0.  1.
         12    1    3    3    0    0  0.23496309213E+01  0.57134958772E+01  0.13148370708E+02  0.14527369097E+02  0.00000000000E+00 0. -1.
</event>
<event>
 7    1  0.6726285E-013  0.5052886E+02  0.7816164E-02  0.1300439E+00
        -11   -1    0    0    0    0  0.00000000000E+00  0.00000000000E+00  0.45593999997E+02  0.45594000000E+02  0.51100000000E-03 0. -1.
         11   -1    0    0    0    0 -0.00000000000E+00 -0.00000000000E+00 -0.45593999997E+02  0.45594000000E+02  0.51100000000E-03 0.  1.
    9900012    2    1    2    0    0 -0.16538891612E+02 -0.34040354231E+02 -0.14862197770E+02  0.50528861119E+02  0.30000003859E+02 0.  0.
         12    1    1    2    0    0  0.16538891612E+02  0.34040354231E+02  0.14862197770E+02  0.40659138881E+02  0.00000000000E+00 0. -1.
         11    1    3    3    0    0 -0.26413458813E+01 -0.12091831401E+02 -0.14256836300E+00  0.12377779312E+02  0.51100000000E-03 0. -1.
        -11    1    3    3    0    0 -0.92328558973E+00 -0.21448949853E+02 -0.12883926732E+02  0.25038080485E+02  0.51100000000E-03 0.  1.
        -12    1    3    3    0    0 -0.12974260141E+02 -0.49957297696E+00 -0.18357026750E+01  0.13113001322E+02  0.00000000000E+00 0.  1.
</event>
<event>
 7    1  0.6726285E-013  0.5052883E+02  0.7816164E-02  0.1300439E+00
        -11   -1    0    0    0    0  0.00000000000E+00  0.00000000000E+00  0.45593999997E+02  0.45594000000E+02  0.51100000000E-03 0.  1.
         11   -1    0    0    0    0 -0.00000000000E+00 -0.00000000000E+00 -0.45593999997E+02  0.45594000000E+02  0.51100000000E-03 0. -1.
    9900012    2    1    2    0    0  0.29777964784E+02  0.27181438472E+02 -0.52545661479E+01  0.50528828224E+02  0.29999903870E+02 0.  0.
         12    1    1    2    0    0 -0.29777964784E+02 -0.27181438472E+02  0.52545661479E+01  0.40659171776E+02  0.00000000000E+00 0. -1.
         11    1    3    3    0    0  0.79370355346E+01  0.15738016565E+02  0.23887577290E+01  0.17787294967E+02  0.51100000000E-03 0. -1.
        -11    1    3    3    0    0  0.15105203960E+02  0.32386886220E+01  0.49955406522E+01  0.16236123840E+02  0.51100000000E-03 0.  1.
         12    1    3    3    0    0  0.67357252893E+01  0.82047332848E+01 -0.12638864529E+02  0.16505409417E+02  0.00000000000E+00 0. -1.
</event>
<event>
 7    1  0.6726285E-013  0.5052886E+02  0.7816164E-02  0.1300439E+00
        -11   -1    0    0    0    0  0.00000000000E+00  0.00000000000E+00  0.45593999997E+02  0.45594000000E+02  0.51100000000E-03 0.  1.
         11   -1    0    0    0    0 -0.00000000000E+00 -0.00000000000E+00 -0.45593999997E+02  0.45594000000E+02  0.51100000000E-03 0. -1.
    9900012    2    1    2    0    0  0.12659862969E+01 -0.36433049791E+02  0.18005430927E+02  0.50528863496E+02  0.30000011082E+02 0.  0.
         12    1    1    2    0    0 -0.12659862969E+01  0.36433049791E+02 -0.18005430927E+02  0.40659136504E+02  0.00000000000E+00 0. -1.
         11    1    3    3    0    0 -0.99209114317E+00 -0.10761186138E+01 -0.66886062468E+01  0.68468773826E+01  0.51100000000E-03 0. -1.
        -11    1    3    3    0    0 -0.16528889377E+01 -0.18779209707E+02  0.10995440798E+02  0.21824080225E+02  0.51100000000E-03 0.  1.
        -12    1    3    3    0    0  0.39109663778E+01 -0.16577721471E+02  0.13698596376E+02  0.21857905889E+02  0.00000000000E+00 0.  1.
</event>
<event>
 7    1  0.6726285E-013  0.5052887E+02  0.7816164E-02  0.1300439E+00
        -11   -1    0    0    0    0  0.00000000000E+00  0.00000000000E+00  0.45593999997E+02  0.45594000000E+02  0.51100000000E-03 0. -1.
         11   -1    0    0    0    0 -0.00000000000E+00 -0.00000000000E+00 -0.45593999997E+02  0.45594000000E+02  0.51100000000E-03 0.  1.
    9900012    2    1    2    0    0  0.17933347115E+02  0.35820884734E+02 -0.69587397180E+01  0.50528870886E+02  0.30000033545E+02 0.  0.
         12    1    1    2    0    0 -0.17933347115E+02 -0.35820884734E+02  0.69587397180E+01  0.40659129114E+02  0.00000000000E+00 0. -1.
         11    1    3    3    0    0  0.10081727481E+02  0.16382858109E+02 -0.12677252199E+02  0.23038055308E+02  0.51100000000E-03 0.  1.
        -11    1    3    3    0    0 -0.27415213786E+01 -0.35544149127E+00 -0.23568251005E+01  0.36327541808E+01  0.51100000000E-03 0. -1.
         12    1    3    3    0    0  0.10593141013E+02  0.19793468116E+02  0.80753375811E+01  0.23858061397E+02  0.00000000000E+00 0. -1.
</event>
<event>
 7    1  0.6726285E-013  0.5052886E+02  0.7816164E-02  0.1300439E+00
        -11   -1    0    0    0    0  0.00000000000E+00  0.00000000000E+00  0.45593999997E+02  0.45594000000E+02  0.51100000000E-03 0.  1.
         11   -1    0    0    0    0 -0.00000000000E+00 -0.00000000000E+00 -0.45593999997E+02  0.45594000000E+02  0.51100000000E-03 0. -1.
    9900012    2    1    2    0    0  0.39193153528E+02 -0.10764408760E+02 -0.10910051317E+01  0.50528855007E+02  0.29999985278E+02 0.  0.
         12    1    1    2    0    0 -0.39193153528E+02  0.10764408760E+02  0.10910051317E+01  0.40659144993E+02  0.00000000000E+00 0. -1.
         11    1    3    3    0    0  0.72009972289E+01 -0.22194906490E+01  0.62216598350E+01  0.97718755209E+01  0.51100000000E-03 0. -1.
        -11    1    3    3    0    0  0.39533649332E+01 -0.81251569386E+01  0.47758908674E+01  0.10220391549E+02  0.51100000000E-03 0.  1.
         12    1    3    3    0    0  0.28038791365E+02 -0.41976117248E+00 -0.12088555834E+02  0.30536587937E+02  0.00000000000E+00 0. -1.
</event>
<event>
 7    1  0.6726285E-013  0.5052890E+02  0.7816164E-02  0.1300439E+00
        -11   -1    0    0    0    0  0.00000000000E+00  0.00000000000E+00  0.45593999997E+02  0.45594000000E+02  0.51100000000E-03 0. -1.
         11   -1    0    0    0    0 -0.00000000000E+00 -0.00000000000E+00 -0.45593999997E+02  0.45594000000E+02  0.51100000000E-03 0.  1.
    9900012    2    1    2    0    0 -0.37348428791E+02  0.76658600454E+01 -0.14124147892E+02  0.50528903882E+02  0.30000133841E+02 0.  0.
         12    1    1    2    0    0  0.37348428791E+02 -0.76658600454E+01  0.14124147892E+02  0.40659096118E+02  0.00000000000E+00 0. -1.
         11    1    3    3    0    0 -0.60337950105E+01 -0.87726554199E+01 -0.48813879662E+01  0.11712989118E+02  0.51100000000E-03 0. -1.
        -11    1    3    3    0    0 -0.70480644430E+01  0.11522105096E+01 -0.70772435212E+01  0.10054361122E+02  0.51100000000E-03 0.  1.
        -12    1    3    3    0    0 -0.24266569338E+02  0.15286304956E+02 -0.21655164051E+01  0.28761553642E+02  0.00000000000E+00 0.  1.
</event>
<event>
 7    1  0.6726285E-013  0.5052886E+02  0.7816164E-02  0.1300439E+00
        -11   -1    0    0    0    0  0.00000000000E+00  0.00000000000E+00  0.45593999997E+02  0.45594000000E+02  0.51100000000E-03 0. -1.
         11   -1    0    0    0    0 -0.00000000000E+00 -0.00000000000E+00 -0.45593999997E+02  0.45594000000E+02  0.51100000000E-03 0.  1.
    9900012    2    1    2    0    0 -0.14459680676E+02 -0.28427107004E+02 -0.25218704898E+02  0.50528857675E+02  0.29999993388E+02 0.  0.
         12    1    1    2    0    0  0.14459680676E+02  0.28427107004E+02  0.25218704898E+02  0.40659142325E+02  0.00000000000E+00 0. -1.
         11    1    3    3    0    0 -0.20287325797E+02 -0.18309167632E+02 -0.17951437202E+02  0.32696411199E+02  0.51100000000E-03 0. -1.
        -11    1    3    3    0    0 -0.14613261945E+01 -0.11510160716E+01 -0.59117273115E+01  0.61974859669E+01  0.51100000000E-03 0.  1.
        -12    1    3    3    0    0  0.72889713160E+01 -0.89669233000E+01 -0.13555403848E+01  0.11634960509E+02  0.00000000000E+00 0.  1.
</event>
<event>
 7    1  0.6726285E-013  0.5052886E+02  0.7816164E-02  0.1300439E+00
        -11   -1    0    0    0    0  0.00000000000E+00  0.00000000000E+00  0.45593999997E+02  0.45594000000E+02  0.51100000000E-03 0.  1.
         11   -1    0    0    0    0 -0.00000000000E+00 -0.00000000000E+00 -0.45593999997E+02  0.45594000000E+02  0.51100000000E-03 0. -1.
    9900012    2    1    2    0    0  0.32638489413E+02  0.11766965488E+02 -0.21199835642E+02  0.50528862045E+02  0.30000006673E+02 0.  0.
         12    1    1    2    0    0 -0.32638489413E+02 -0.11766965488E+02  0.21199835642E+02  0.40659137955E+02  0.00000000000E+00 0. -1.
         11    1    3    3    0    0  0.10873647638E+02  0.63907557226E+01 -0.28335911307E+01  0.12926995421E+02  0.51100000000E-03 0. -1.
        -11    1    3    3    0    0  0.65115167337E+01  0.32813112123E+01  0.55463850702E+01  0.91612903596E+01  0.51100000000E-03 0.  1.
         12    1    3    3    0    0  0.15253325041E+02  0.20948985528E+01 -0.23912629582E+02  0.28440576265E+02  0.00000000000E+00 0. -1.
</event>
<event>
 7    1  0.6726285E-013  0.5052886E+02  0.7816164E-02  0.1300439E+00
        -11   -1    0    0    0    0  0.00000000000E+00  0.00000000000E+00  0.45593999997E+02  0.45594000000E+02  0.51100000000E-03 0.  1.
         11   -1    0    0    0    0 -0.00000000000E+00 -0.00000000000E+00 -0.45593999997E+02  0.45594000000E+02  0.51100000000E-03 0. -1.
    9900012    2    1    2    0    0 -0.50475321467E+01  0.30205213688E+01  0.40231388516E+02  0.50528858936E+02  0.29999997223E+02 0.  0.
         12    1    1    2    0    0  0.50475321467E+01 -0.30205213688E+01 -0.40231388516E+02  0.40659141064E+02  0.00000000000E+00 0. -1.
         11    1    3    3    0    0 -0.46592350287E+01  0.69807140816E+01  0.10903570908E+02  0.13759603881E+02  0.51100000000E-03 0.  1.
        -11    1    3    3    0    0  0.99148630175E+01 -0.46433711798E+01  0.98660094605E+01  0.14737827096E+02  0.51100000000E-03 0. -1.
         12    1    3    3    0    0 -0.10303160136E+02  0.68317846703E+00  0.19461808147E+02  0.22031427960E+02  0.00000000000E+00 0. -1.
</event>
<event>
 7    1  0.6726285E-013  0.5052886E+02  0.7816164E-02  0.1300439E+00
        -11   -1    0    0    0    0  0.00000000000E+00  0.00000000000E+00  0.45593999997E+02  0.45594000000E+02  0.51100000000E-03 0. -1.
         11   -1    0    0    0    0 -0.00000000000E+00 -0.00000000000E+00 -0.45593999997E+02  0.45594000000E+02  0.51100000000E-03 0.  1.
    9900012    2    1    2    0    0 -0.18455595185E+02  0.31520064182E+02  0.17861761191E+02  0.50528856471E+02  0.29999989729E+02 0.  0.
         12    1    1    2    0    0  0.18455595185E+02 -0.31520064182E+02 -0.17861761191E+02  0.40659143529E+02  0.00000000000E+00 0. -1.
         11    1    3    3    0    0 -0.12340547310E+02  0.15974535994E+02  0.87965052090E+01  0.22019387191E+02  0.51100000000E-03 0. -1.
        -11    1    3    3    0    0 -0.45861976722E+01  0.60799282657E+01 -0.66431612039E+01  0.10105955069E+02  0.51100000000E-03 0.  1.
         12    1    3    3    0    0 -0.15288502030E+01  0.94655999226E+01  0.15708417186E+02  0.18403514211E+02  0.00000000000E+00 0. -1.
</event>
<event>
 7    1  0.6726285E-013  0.5052884E+02  0.7816164E-02  0.1300439E+00
        -11   -1    0    0    0    0  0.00000000000E+00  0.00000000000E+00  0.45593999997E+02  0.45594000000E+02  0.51100000000E-03 0.  1.
         11   -1    0    0    0    0 -0.00000000000E+00 -0.00000000000E+00 -0.45593999997E+02  0.45594000000E+02  0.51100000000E-03 0. -1.
    9900012    2    1    2    0    0  0.22054810148E+01 -0.22941345836E+02  0.33496235108E+02  0.50528840372E+02  0.29999940795E+02 0.  0.
         12    1    1    2    0    0 -0.22054810148E+01  0.22941345836E+02 -0.33496235108E+02  0.40659159628E+02  0.00000000000E+00 0. -1.
         11    1    3    3    0    0 -0.29717180215E+01 -0.19160207729E+02  0.27661564160E+02  0.33780272354E+02  0.51100000000E-03 0. -1.
        -11    1    3    3    0    0  0.75635444438E+01 -0.77844488557E+01  0.52325144719E+01  0.12049234685E+02  0.51100000000E-03 0.  1.
         12    1    3    3    0    0 -0.23863454076E+01  0.40033107489E+01  0.60215647540E+00  0.46993333333E+01  0.00000000000E+00 0. -1.
</event>
<event>
 7    1  0.6726285E-013  0.5052887E+02  0.7816164E-02  0.1300439E+00
        -11   -1    0    0    0    0  0.00000000000E+00  0.00000000000E+00  0.45593999997E+02  0.45594000000E+02  0.51100000000E-03 0. -1.
         11   -1    0    0    0    0 -0.00000000000E+00 -0.00000000000E+00 -0.45593999997E+02  0.45594000000E+02  0.51100000000E-03 0.  1.
    9900012    2    1    2    0    0  0.18997913155E+02 -0.25028780747E+02 -0.25803182827E+02  0.50528870472E+02  0.30000032288E+02 0.  0.
         12    1    1    2    0    0 -0.18997913155E+02  0.25028780747E+02  0.25803182827E+02  0.40659129528E+02  0.00000000000E+00 0. -1.
         11    1    3    3    0    0  0.56375885993E+01 -0.13771936642E+02 -0.16836940138E+02  0.22470674167E+02  0.51100000000E-03 0.  1.
        -11    1    3    3    0    0  0.44602005738E+01 -0.16183852858E+01 -0.13395927769E+02  0.14211384209E+02  0.51100000000E-03 0. -1.
         12    1    3    3    0    0  0.89001239822E+01 -0.96384588194E+01  0.44296850793E+01  0.13846812096E+02  0.00000000000E+00 0. -1.
</event>
<event>
 7    1  0.6726285E-013  0.5052894E+02  0.7816164E-02  0.1300439E+00
        -11   -1    0    0    0    0  0.00000000000E+00  0.00000000000E+00  0.45593999997E+02  0.45594000000E+02  0.51100000000E-03 0.  1.
         11   -1    0    0    0    0 -0.00000000000E+00 -0.00000000000E+00 -0.45593999997E+02  0.45594000000E+02  0.51100000000E-03 0. -1.
    9900012    2    1    2    0    0 -0.21806067754E+02 -0.70744231667E+01  0.33579865856E+02  0.50528936497E+02  0.30000232976E+02 0.  0.
         12    1    1    2    0    0  0.21806067754E+02  0.70744231667E+01 -0.33579865856E+02  0.40659063503E+02  0.00000000000E+00 0. -1.
         11    1    3    3    0    0 -0.24232498385E+00  0.32233093664E+01  0.62718220382E+01  0.70557917068E+01  0.51100000000E-03 0. -1.
        -11    1    3    3    0    0  0.30323677653E+01 -0.74542994279E+00  0.13176174263E+02  0.13541140592E+02  0.51100000000E-03 0.  1.
         12    1    3    3    0    0 -0.24596110536E+02 -0.95523025903E+01  0.14131869555E+02  0.29932004199E+02  0.00000000000E+00 0. -1.
</event>
<event>
 7    1  0.6726285E-013  0.5052886E+02  0.7816164E-02  0.1300439E+00
        -11   -1    0    0    0    0  0.00000000000E+00  0.00000000000E+00  0.45593999997E+02  0.45594000000E+02  0.51100000000E-03 0.  1.
         11   -1    0    0    0    0 -0.00000000000E+00 -0.00000000000E+00 -0.45593999997E+02  0.45594000000E+02  0.51100000000E-03 0. -1.
    9900012    2    1    2    0    0 -0.39041479414E+02 -0.34464561789E+01  0.10818993344E+02  0.50528858445E+02  0.29999995729E+02 0.  0.
         12    1    1    2    0    0  0.39041479414E+02  0.34464561789E+01 -0.10818993344E+02  0.40659141555E+02  0.00000000000E+00 0. -1.
         11    1    3    3    0    0 -0.97145825883E+01  0.73885235537E+01  0.12077564907E+01  0.12264667593E+02  0.51100000000E-03 0. -1.
        -11    1    3    3    0    0 -0.36106703037E+01  0.51343289333E+01  0.40951252645E+01  0.74945530108E+01  0.51100000000E-03 0.  1.
        -12    1    3    3    0    0 -0.25716226522E+02 -0.15969308666E+02  0.55161115886E+01  0.30769637841E+02  0.00000000000E+00 0.  1.
</event>
<event>
 7    1  0.6726285E-013  0.5052886E+02  0.7816164E-02  0.1300439E+00
        -11   -1    0    0    0    0  0.00000000000E+00  0.00000000000E+00  0.45593999997E+02  0.45594000000E+02  0.51100000000E-03 0. -1.
         11   -1    0    0    0    0 -0.00000000000E+00 -0.00000000000E+00 -0.45593999997E+02  0.45594000000E+02  0.51100000000E-03 0.  1.
    9900012    2    1    2    0    0 -0.32160914676E+02  0.11611289847E+02 -0.22000432322E+02  0.50528861949E+02  0.30000006380E+02 0.  0.
         12    1    1    2    0    0  0.32160914676E+02 -0.11611289847E+02  0.22000432322E+02  0.40659138051E+02  0.00000000000E+00 0. -1.
         11    1    3    3    0    0 -0.11211862321E+02 -0.61619251221E+01 -0.48204887490E+01  0.13671586958E+02  0.51100000000E-03 0. -1.
        -11    1    3    3    0    0 -0.35859391800E+01 -0.21207365457E+01  0.15912631082E+01  0.44596638707E+01  0.51100000000E-03 0.  1.
         12    1    3    3    0    0 -0.17363113175E+02  0.19893951515E+02 -0.18771206681E+02  0.32397611120E+02  0.00000000000E+00 0. -1.
</event>
<event>
 7    1  0.6726285E-013  0.5052885E+02  0.7816164E-02  0.1300439E+00
        -11   -1    0    0    0    0  0.00000000000E+00  0.00000000000E+00  0.45593999997E+02  0.45594000000E+02  0.51100000000E-03 0.  1.
         11   -1    0    0    0    0 -0.00000000000E+00 -0.00000000000E+00 -0.45593999997E+02  0.45594000000E+02  0.51100000000E-03 0. -1.
    9900012    2    1    2    0    0 -0.88954008292E+01 -0.38190995585E+02 -0.10746433862E+02  0.50528854160E+02  0.29999982706E+02 0.  0.
         12    1    1    2    0    0  0.88954008292E+01  0.38190995585E+02  0.10746433862E+02  0.40659145840E+02  0.00000000000E+00 0. -1.
         11    1    3    3    0    0  0.28025779266E+01  0.52025340148E+00 -0.50282900745E+01  0.57800352915E+01  0.51100000000E-03 0. -1.
        -11    1    3    3    0    0  0.48736852963E+01 -0.62012869999E+01 -0.12670830848E+01  0.79883833550E+01  0.51100000000E-03 0.  1.
        -12    1    3    3    0    0 -0.16571664052E+02 -0.32509961986E+02 -0.44510607025E+01  0.36760435514E+02  0.00000000000E+00 0.  1.
</event>
<event>
 7    1  0.6726285E-013  0.5052886E+02  0.7816164E-02  0.1300439E+00
        -11   -1    0    0    0    0  0.00000000000E+00  0.00000000000E+00  0.45593999997E+02  0.45594000000E+02  0.51100000000E-03 0.  1.
         11   -1    0    0    0    0 -0.00000000000E+00 -0.00000000000E+00 -0.45593999997E+02  0.45594000000E+02  0.51100000000E-03 0. -1.
    9900012    2    1    2    0    0 -0.39550158835E+02  0.34763014464E-01 -0.94313084985E+01  0.50528857703E+02  0.29999993475E+02 0.  0.
         12    1    1    2    0    0  0.39550158835E+02 -0.34763014464E-01  0.94313084985E+01  0.40659142297E+02  0.00000000000E+00 0. -1.
         11    1    3    3    0    0 -0.26512988934E+01 -0.12499945009E+01 -0.43933258987E+01  0.52813998890E+01  0.51100000000E-03 0. -1.
        -11    1    3    3    0    0 -0.26282240099E+02  0.49698241984E+01 -0.14616651163E+02  0.30481171051E+02  0.51100000000E-03 0.  1.
        -12    1    3    3    0    0 -0.10616619842E+02 -0.36850666831E+01  0.95786685627E+01  0.14766286763E+02  0.00000000000E+00 0.  1.
</event>
<event>
 7    1  0.6726285E-013  0.5052885E+02  0.7816164E-02  0.1300439E+00
        -11   -1    0    0    0    0  0.00000000000E+00  0.00000000000E+00  0.45593999997E+02  0.45594000000E+02  0.51100000000E-03 0. -1.
         11   -1    0    0    0    0 -0.00000000000E+00 -0.00000000000E+00 -0.45593999997E+02  0.45594000000E+02  0.51100000000E-03 0.  1.
    9900012    2    1    2    0    0  0.38295125398E+02  0.13568896988E+02 -0.15920302583E+01  0.50528853981E+02  0.29999982159E+02 0.  0.
         12    1    1    2    0    0 -0.38295125398E+02 -0.13568896988E+02  0.15920302583E+01  0.40659146019E+02  0.00000000000E+00 0. -1.
         11    1    3    3    0    0  0.29893968449E+02  0.91108795233E+01  0.19952032513E+01  0.31315145083E+02  0.51100000000E-03 0. -1.
        -11    1    3    3    0    0  0.13173387162E+02  0.48048976091E+01 -0.33825039089E+01  0.14424510505E+02  0.51100000000E-03 0.  1.
         12    1    3    3    0    0 -0.47722302127E+01 -0.34688014436E+00 -0.20472960059E+00  0.47891983929E+01  0.00000000000E+00 0. -1.
</event>
<event>
 7    1  0.6726285E-013  0.5052885E+02  0.7816164E-02  0.1300439E+00
        -11   -1    0    0    0    0  0.00000000000E+00  0.00000000000E+00  0.45593999997E+02  0.45594000000E+02  0.51100000000E-03 0. -1.
         11   -1    0    0    0    0 -0.00000000000E+00 -0.00000000000E+00 -0.45593999997E+02  0.45594000000E+02  0.51100000000E-03 0.  1.
    9900012    2    1    2    0    0 -0.37572763235E+02  0.15039916880E+02  0.39057162106E+01  0.50528852739E+02  0.29999978386E+02 0.  0.
         12    1    1    2    0    0  0.37572763235E+02 -0.15039916880E+02 -0.39057162106E+01  0.40659147261E+02  0.00000000000E+00 0. -1.
         11    1    3    3    0    0 -0.92798153839E+01 -0.47085955753E+01 -0.48390111780E+01  0.11476143747E+02  0.51100000000E-03 0. -1.
        -11    1    3    3    0    0 -0.26173334716E+02  0.11549999769E+02  0.28822046070E+01  0.28753313696E+02  0.51100000000E-03 0.  1.
         12    1    3    3    0    0 -0.21196131343E+01  0.81985126868E+01  0.58625227816E+01  0.10299395297E+02  0.00000000000E+00 0. -1.
</event>
<event>
 7    1  0.6726285E-013  0.5052886E+02  0.7816164E-02  0.1300439E+00
        -11   -1    0    0    0    0  0.00000000000E+00  0.00000000000E+00  0.45593999997E+02  0.45594000000E+02  0.51100000000E-03 0.  1.
         11   -1    0    0    0    0 -0.00000000000E+00 -0.00000000000E+00 -0.45593999997E+02  0.45594000000E+02  0.51100000000E-03 0. -1.
    9900012    2    1    2    0    0  0.26899332672E+02 -0.28690834239E+02 -0.10316391929E+02  0.50528855764E+02  0.29999987581E+02 0.  0.
         12    1    1    2    0    0 -0.26899332672E+02  0.28690834239E+02  0.10316391929E+02  0.40659144236E+02  0.00000000000E+00 0. -1.
         11    1    3    3    0    0  0.40776851242E+01  0.22882032392E+01 -0.87535717000E+01  0.99241325971E+01  0.51100000000E-03 0. -1.
        -11    1    3    3    0    0 -0.88981578779E+00  0.59529772377E+00  0.15107278479E+00  0.10811913631E+01  0.51100000000E-03 0.  1.
        -12    1    3    3    0    0  0.23711463336E+02 -0.31574335202E+02 -0.17138930136E+01  0.39523531804E+02  0.00000000000E+00 0.  1.
</event>
<event>
 7    1  0.6726285E-013  0.5052883E+02  0.7816164E-02  0.1300439E+00
        -11   -1    0    0    0    0  0.00000000000E+00  0.00000000000E+00  0.45593999997E+02  0.45594000000E+02  0.51100000000E-03 0.  1.
         11   -1    0    0    0    0 -0.00000000000E+00 -0.00000000000E+00 -0.45593999997E+02  0.45594000000E+02  0.51100000000E-03 0. -1.
    9900012    2    1    2    0    0  0.88246497441E+01 -0.24178998797E+02  0.31474899904E+02  0.50528834368E+02  0.29999922543E+02 0.  0.
         12    1    1    2    0    0 -0.88246497441E+01  0.24178998797E+02 -0.31474899904E+02  0.40659165632E+02  0.00000000000E+00 0. -1.
         11    1    3    3    0    0  0.76853742120E+01 -0.21698708414E+01 -0.11477738308E+01  0.80678808416E+01  0.51100000000E-03 0. -1.
        -11    1    3    3    0    0  0.27916567518E+01 -0.37807701371E+01 -0.38791534846E+00  0.47157235742E+01  0.51100000000E-03 0.  1.
        -12    1    3    3    0    0 -0.16523812197E+01 -0.18228357819E+02  0.33010589084E+02  0.37745229952E+02  0.00000000000E+00 0.  1.
</event>
<event>
 7    1  0.6726285E-013  0.5052887E+02  0.7816164E-02  0.1300439E+00
        -11   -1    0    0    0    0  0.00000000000E+00  0.00000000000E+00  0.45593999997E+02  0.45594000000E+02  0.51100000000E-03 0.  1.
         11   -1    0    0    0    0 -0.00000000000E+00 -0.00000000000E+00 -0.45593999997E+02  0.45594000000E+02  0.51100000000E-03 0. -1.
    9900012    2    1    2    0    0 -0.23438636825E+02 -0.22358295293E+02 -0.24574417128E+02  0.50528867670E+02  0.30000023769E+02 0.  0.
         12    1    1    2    0    0  0.23438636825E+02  0.22358295293E+02  0.24574417128E+02  0.40659132330E+02  0.00000000000E+00 0. -1.
         11    1    3    3    0    0  0.34323778860E+01 -0.17607706344E+01 -0.36251360555E+00  0.38746545077E+01  0.51100000000E-03 0. -1.
        -11    1    3    3    0    0  0.12582140700E+01 -0.24785392690E+01  0.25779774246E+01  0.37910720669E+01  0.51100000000E-03 0.  1.
        -12    1    3    3    0    0 -0.28129228781E+02 -0.18118985390E+02 -0.26789880947E+02  0.42863141095E+02  0.00000000000E+00 0.  1.
</event>
<event>
 7    1  0.6726285E-013  0.5052886E+02  0.7816164E-02  0.1300439E+00
        -11   -1    0    0    0    0  0.00000000000E+00  0.00000000000E+00  0.45593999997E+02  0.45594000000E+02  0.51100000000E-03 0. -1.
         11   -1    0    0    0    0 -0.00000000000E+00 -0.00000000000E+00 -0.45593999997E+02  0.45594000000E+02  0.51100000000E-03 0.  1.
    9900012    2    1    2    0    0  0.27190753367E+02 -0.55805558455E+01 -0.29710033922E+02  0.50528858495E+02  0.29999995882E+02 0.  0.
         12    1    1    2    0    0 -0.27190753367E+02  0.55805558455E+01  0.29710033922E+02  0.40659141505E+02  0.00000000000E+00 0. -1.
         11    1    3    3    0    0  0.59741615185E+00  0.13647517056E-01  0.52368704266E+00  0.79456950167E+00  0.51100000000E-03 0. -1.
        -11    1    3    3    0    0  0.23076254072E+02 -0.15960813036E+02 -0.25086165813E+02  0.37637438412E+02  0.51100000000E-03 0.  1.
        -12    1    3    3    0    0  0.35170831438E+01  0.10366609673E+02 -0.51475551523E+01  0.12096850582E+02  0.00000000000E+00 0.  1.
</event>
<event>
 7    1  0.6726285E-013  0.5052887E+02  0.7816164E-02  0.1300439E+00
        -11   -1    0    0    0    0  0.00000000000E+00  0.00000000000E+00  0.45593999997E+02  0.45594000000E+02  0.51100000000E-03 0.  1.
         11   -1    0    0    0    0 -0.00000000000E+00 -0.00000000000E+00 -0.45593999997E+02  0.45594000000E+02  0.51100000000E-03 0. -1.
    9900012    2    1    2    0    0  0.26381366241E+02  0.33388677154E+01  0.30757773594E+02  0.50528866232E+02  0.30000019398E+02 0.  0.
         12    1    1    2    0    0 -0.26381366241E+02 -0.33388677154E+01 -0.30757773594E+02  0.40659133768E+02  0.00000000000E+00 0. -1.
         11    1    3    3    0    0  0.10661596682E+02  0.11900790761E+02  0.94513221257E+01  0.18564103930E+02  0.51100000000E-03 0. -1.
        -11    1    3    3    0    0  0.10093940230E+02  0.30067628023E+01  0.12644013535E+02  0.16455981601E+02  0.51100000000E-03 0.  1.
        -12    1    3    3    0    0  0.56258293289E+01 -0.11568685848E+02  0.86624379329E+01  0.15508780701E+02  0.00000000000E+00 0.  1.
</event>
<event>
 7    1  0.7004148E-013  0.5052887E+02  0.7816164E-02  0.1300439E+00
        -11   -1    0    0    0    0  0.00000000000E+00  0.00000000000E+00  0.45593999997E+02  0.45594000000E+02  0.51100000000E-03 0. -1.
         11   -1    0    0    0    0 -0.00000000000E+00 -0.00000000000E+00 -0.45593999997E+02  0.45594000000E+02  0.51100000000E-03 0.  1.
    9900012    2    1    2    0    0 -0.40121692856E+02  0.62466579043E+01 -0.20961495125E+01  0.50528870455E+02  0.30000032234E+02 0.  0.
         12    1    1    2    0    0  0.40121692856E+02 -0.62466579043E+01  0.20961495125E+01  0.40659129545E+02  0.00000000000E+00 0. -1.
         11    1    3    3    0    0 -0.30523399623E+02  0.59525477278E+01 -0.10832730613E+02  0.32931122085E+02  0.51100000000E-03 0. -1.
        -11    1    3    3    0    0 -0.97079863369E+01  0.26770647623E+01  0.17578933657E+01  0.10222615311E+02  0.51100000000E-03 0.  1.
         12    1    3    3    0    0  0.10969310362E+00 -0.23829545857E+01  0.69786877344E+01  0.73751330584E+01  0.00000000000E+00 0. -1.
</event>
<event>
 7    1  0.6726285E-013  0.5052888E+02  0.7816164E-02  0.1300439E+00
        -11   -1    0    0    0    0  0.00000000000E+00  0.00000000000E+00  0.45593999997E+02  0.45594000000E+02  0.51100000000E-03 0.  1.
         11   -1    0    0    0    0 -0.00000000000E+00 -0.00000000000E+00 -0.45593999997E+02  0.45594000000E+02  0.51100000000E-03 0. -1.
    9900012    2    1    2    0    0 -0.33811565826E+01  0.17402598052E+02  0.36590727542E+02  0.50528880717E+02  0.30000063429E+02 0.  0.
         12    1    1    2    0    0  0.33811565826E+01 -0.17402598052E+02 -0.36590727542E+02  0.40659119283E+02  0.00000000000E+00 0. -1.
         11    1    3    3    0    0 -0.35384167378E+01  0.13574706569E+02  0.60457144025E+01  0.15275592111E+02  0.51100000000E-03 0. -1.
        -11    1    3    3    0    0 -0.49855975572E+01 -0.37184621973E+01  0.45652203026E+01  0.77152045202E+01  0.51100000000E-03 0.  1.
        -12    1    3    3    0    0  0.51428577125E+01  0.75463536811E+01  0.25979792836E+02  0.27538084087E+02  0.00000000000E+00 0.  1.
</event>
<event>
 7    1  0.6726285E-013  0.5052886E+02  0.7816164E-02  0.1300439E+00
        -11   -1    0    0    0    0  0.00000000000E+00  0.00000000000E+00  0.45593999997E+02  0.45594000000E+02  0.51100000000E-03 0.  1.
         11   -1    0    0    0    0 -0.00000000000E+00 -0.00000000000E+00 -0.45593999997E+02  0.45594000000E+02  0.51100000000E-03 0. -1.
    9900012    2    1    2    0    0  0.14123348714E+02 -0.36978293790E+02  0.92899060390E+01  0.50528861486E+02  0.30000004972E+02 0.  0.
         12    1    1    2    0    0 -0.14123348714E+02  0.36978293790E+02 -0.92899060390E+01  0.40659138514E+02  0.00000000000E+00 0. -1.
         11    1    3    3    0    0 -0.14490862566E+01 -0.10430057648E+02  0.35754770225E+01  0.11120700955E+02  0.51100000000E-03 0. -1.
        -11    1    3    3    0    0 -0.18029278264E+01 -0.18871664007E+02  0.73716786193E+01  0.20340400613E+02  0.51100000000E-03 0.  1.
         12    1    3    3    0    0  0.17375362797E+02 -0.76765721344E+01 -0.16572496027E+01  0.19067759918E+02  0.00000000000E+00 0. -1.
</event>
<event>
 7    1  0.6726285E-013  0.5052886E+02  0.7816164E-02  0.1300439E+00
        -11   -1    0    0    0    0  0.00000000000E+00  0.00000000000E+00  0.45593999997E+02  0.45594000000E+02  0.51100000000E-03 0.  1.
         11   -1    0    0    0    0 -0.00000000000E+00 -0.00000000000E+00 -0.45593999997E+02  0.45594000000E+02  0.51100000000E-03 0. -1.
    9900012    2    1    2    0    0  0.33128395692E+02  0.21112520877E+02  0.10485059800E+02  0.50528860585E+02  0.30000002235E+02 0.  0.
         12    1    1    2    0    0 -0.33128395692E+02 -0.21112520877E+02 -0.10485059800E+02  0.40659139415E+02  0.00000000000E+00 0. -1.
         11    1    3    3    0    0 -0.17556632530E+01  0.34769549976E+01 -0.35026798892E+01  0.52383524300E+01  0.51100000000E-03 0. -1.
        -11    1    3    3    0    0  0.23688837855E+02  0.19302812328E+01  0.84406275881E+01  0.25221641875E+02  0.51100000000E-03 0.  1.
         12    1    3    3    0    0  0.11195221091E+02  0.15705284647E+02  0.55471121013E+01  0.20068866280E+02  0.00000000000E+00 0. -1.
</event>
<event>
 7    1  0.6726285E-013  0.5052887E+02  0.7816164E-02  0.1300439E+00
        -11   -1    0    0    0    0  0.00000000000E+00  0.00000000000E+00  0.45593999997E+02  0.45594000000E+02  0.51100000000E-03 0. -1.
         11   -1    0    0    0    0 -0.00000000000E+00 -0.00000000000E+00 -0.45593999997E+02  0.45594000000E+02  0.51100000000E-03 0.  1.
    9900012    2    1    2    0    0 -0.29241329764E+02 -0.27468163543E+02  0.66037182658E+01  0.50528874705E+02  0.30000045154E+02 0.  0.
         12    1    1    2    0    0  0.29241329764E+02  0.27468163543E+02 -0.66037182658E+01  0.40659125295E+02  0.00000000000E+00 0. -1.
         11    1    3    3    0    0 -0.11072006227E+02 -0.18723746031E+01 -0.49208660931E+01  0.12260099181E+02  0.51100000000E-03 0. -1.
        -11    1    3    3    0    0 -0.12413502498E+02 -0.66515209832E+01 -0.20938322907E+01  0.14238044444E+02  0.51100000000E-03 0.  1.
         12    1    3    3    0    0 -0.57558210391E+01 -0.18944267956E+02  0.13618416650E+02  0.24030731081E+02  0.00000000000E+00 0. -1.
</event>
<event>
 7    1  0.6726285E-013  0.5052886E+02  0.7816164E-02  0.1300439E+00
        -11   -1    0    0    0    0  0.00000000000E+00  0.00000000000E+00  0.45593999997E+02  0.45594000000E+02  0.51100000000E-03 0. -1.
         11   -1    0    0    0    0 -0.00000000000E+00 -0.00000000000E+00 -0.45593999997E+02  0.45594000000E+02  0.51100000000E-03 0.  1.
    9900012    2    1    2    0    0 -0.29273622295E+02 -0.12139980267E+02 -0.25472374660E+02  0.50528856454E+02  0.29999989676E+02 0.  0.
         12    1    1    2    0    0  0.29273622295E+02  0.12139980267E+02  0.25472374660E+02  0.40659143546E+02  0.00000000000E+00 0. -1.
         11    1    3    3    0    0 -0.18420471369E+02  0.29357548378E+01 -0.15169562329E+02  0.24042629711E+02  0.51100000000E-03 0. -1.
        -11    1    3    3    0    0  0.30112957431E+01 -0.39613514027E+00 -0.45861059422E+01  0.55006538772E+01  0.51100000000E-03 0.  1.
        -12    1    3    3    0    0 -0.13864446669E+02 -0.14679599964E+02 -0.57167063883E+01  0.20985572865E+02  0.00000000000E+00 0.  1.
</event>
<event>
 7    1  0.6726285E-013  0.5052885E+02  0.7816164E-02  0.1300439E+00
        -11   -1    0    0    0    0  0.00000000000E+00  0.00000000000E+00  0.45593999997E+02  0.45594000000E+02  0.51100000000E-03 0.  1.
         11   -1    0    0    0    0 -0.00000000000E+00 -0.00000000000E+00 -0.45593999997E+02  0.45594000000E+02  0.51100000000E-03 0. -1.
    9900012    2    1    2    0    0 -0.13630973588E+02  0.37569027886E+02 -0.74787343865E+01  0.50528846477E+02  0.29999959350E+02 0.  0.
         12    1    1    2    0    0  0.13630973588E+02 -0.37569027886E+02  0.74787343865E+01  0.40659153523E+02  0.00000000000E+00 0. -1.
         11    1    3    3    0    0 -0.21752908941E+01  0.12064555987E+02 -0.10122172121E+02  0.15897917171E+02  0.51100000000E-03 0. -1.
        -11    1    3    3    0    0 -0.16087265875E+02  0.12644093726E+02 -0.99602189274E+00  0.20485733801E+02  0.51100000000E-03 0.  1.
         12    1    3    3    0    0  0.46315831818E+01  0.12860378172E+02  0.36394596275E+01  0.14145195505E+02  0.00000000000E+00 0. -1.
</event>
<event>
 7    1  0.6726285E-013  0.5052878E+02  0.7816164E-02  0.1300439E+00
        -11   -1    0    0    0    0  0.00000000000E+00  0.00000000000E+00  0.45593999997E+02  0.45594000000E+02  0.51100000000E-03 0.  1.
         11   -1    0    0    0    0 -0.00000000000E+00 -0.00000000000E+00 -0.45593999997E+02  0.45594000000E+02  0.51100000000E-03 0. -1.
    9900012    2    1    2    0    0 -0.65718962980E+01  0.19945558823E+02  0.34816048074E+02  0.50528777907E+02  0.29999750924E+02 0.  0.
         12    1    1    2    0    0  0.65718962980E+01 -0.19945558823E+02 -0.34816048074E+02  0.40659222093E+02  0.00000000000E+00 0. -1.
         11    1    3    3    0    0  0.76160695552E+01  0.39456118488E+01  0.48801241800E+01  0.98685348763E+01  0.51100000000E-03 0. -1.
        -11    1    3    3    0    0 -0.94563467447E+01 -0.32262127843E+00  0.56554989196E+01  0.11023213984E+02  0.51100000000E-03 0.  1.
        -12    1    3    3    0    0 -0.47316191084E+01  0.16322568253E+02  0.24280424975E+02  0.29637029046E+02  0.00000000000E+00 0.  1.
</event>
<event>
 7    1  0.6726285E-013  0.5052886E+02  0.7816164E-02  0.1300439E+00
        -11   -1    0    0    0    0  0.00000000000E+00  0.00000000000E+00  0.45593999997E+02  0.45594000000E+02  0.51100000000E-03 0.  1.
         11   -1    0    0    0    0 -0.00000000000E+00 -0.00000000000E+00 -0.45593999997E+02  0.45594000000E+02  0.51100000000E-03 0. -1.
    9900012    2    1    2    0    0  0.25583484739E+02 -0.29998667576E+02  0.99363387884E+01  0.50528861098E+02  0.30000003793E+02 0.  0.
         12    1    1    2    0    0 -0.25583484739E+02  0.29998667576E+02 -0.99363387884E+01  0.40659138902E+02  0.00000000000E+00 0. -1.
         11    1    3    3    0    0  0.11582627900E+02 -0.16595507164E+01 -0.29279418535E+01  0.12061684021E+02  0.51100000000E-03 0. -1.
        -11    1    3    3    0    0  0.10535230915E+01 -0.57492569955E+01 -0.43220072133E+01  0.72693612868E+01  0.51100000000E-03 0.  1.
         12    1    3    3    0    0  0.12947333747E+02 -0.22589859864E+02  0.17186287855E+02  0.31197815790E+02  0.00000000000E+00 0. -1.
</event>
<event>
 7    1  0.6726285E-013  0.5052886E+02  0.7816164E-02  0.1300439E+00
        -11   -1    0    0    0    0  0.00000000000E+00  0.00000000000E+00  0.45593999997E+02  0.45594000000E+02  0.51100000000E-03 0.  1.
         11   -1    0    0    0    0 -0.00000000000E+00 -0.00000000000E+00 -0.45593999997E+02  0.45594000000E+02  0.51100000000E-03 0. -1.
    9900012    2    1    2    0    0  0.38984918235E+02 -0.68096657426E+01 -0.93257890977E+01  0.50528859089E+02  0.29999997686E+02 0.  0.
         12    1    1    2    0    0 -0.38984918235E+02  0.68096657426E+01  0.93257890977E+01  0.40659140911E+02  0.00000000000E+00 0. -1.
         11    1    3    3    0    0  0.23012837602E+02 -0.13478699482E+02 -0.42462533921E+01  0.27005493929E+02  0.51100000000E-03 0. -1.
        -11    1    3    3    0    0  0.14617694440E+02 -0.71802817253E+00 -0.33328587539E+00  0.14639113188E+02  0.51100000000E-03 0.  1.
         12    1    3    3    0    0  0.13543861937E+01  0.73870619118E+01 -0.47462498302E+01  0.88842519720E+01  0.00000000000E+00 0. -1.
</event>
<event>
 7    1  0.6726285E-013  0.5052886E+02  0.7816164E-02  0.1300439E+00
        -11   -1    0    0    0    0  0.00000000000E+00  0.00000000000E+00  0.45593999997E+02  0.45594000000E+02  0.51100000000E-03 0. -1.
         11   -1    0    0    0    0 -0.00000000000E+00 -0.00000000000E+00 -0.45593999997E+02  0.45594000000E+02  0.51100000000E-03 0.  1.
    9900012    2    1    2    0    0 -0.27262312663E+01  0.20314142907E+02 -0.35115076345E+02  0.50528864179E+02  0.30000013159E+02 0.  0.
         12    1    1    2    0    0  0.27262312663E+01 -0.20314142907E+02  0.35115076345E+02  0.40659135821E+02  0.00000000000E+00 0. -1.
         11    1    3    3    0    0  0.12077294962E+02  0.61066522368E+01 -0.79277486280E+01  0.15684433484E+02  0.51100000000E-03 0. -1.
        -11    1    3    3    0    0 -0.27871155997E+01 -0.27661984663E+00 -0.21938904425E+01  0.35577643880E+01  0.51100000000E-03 0.  1.
        -12    1    3    3    0    0 -0.12016410628E+02  0.14484110517E+02 -0.24993437274E+02  0.31286666308E+02  0.00000000000E+00 0.  1.
</event>
<event>
 7    1  0.6726285E-013  0.5052885E+02  0.7816164E-02  0.1300439E+00
        -11   -1    0    0    0    0  0.00000000000E+00  0.00000000000E+00  0.45593999997E+02  0.45594000000E+02  0.51100000000E-03 0.  1.
         11   -1    0    0    0    0 -0.00000000000E+00 -0.00000000000E+00 -0.45593999997E+02  0.45594000000E+02  0.51100000000E-03 0. -1.
    9900012    2    1    2    0    0 -0.11161647849E+02  0.38850611868E+02  0.43833521930E+01  0.50528853407E+02  0.29999980417E+02 0.  0.
         12    1    1    2    0    0  0.11161647849E+02 -0.38850611868E+02 -0.43833521930E+01  0.40659146593E+02  0.00000000000E+00 0. -1.
         11    1    3    3    0    0  0.50151800770E+01  0.19564622507E+02  0.29884129691E+01  0.20417078572E+02  0.51100000000E-03 0. -1.
        -11    1    3    3    0    0  0.22666719378E+01  0.47447157378E+01 -0.32344388942E+01  0.61734693914E+01  0.51100000000E-03 0.  1.
         12    1    3    3    0    0 -0.18443499864E+02  0.14541273623E+02  0.46293781181E+01  0.23938305444E+02  0.00000000000E+00 0. -1.
</event>
<event>
 7    1  0.6726285E-013  0.5052886E+02  0.7816164E-02  0.1300439E+00
        -11   -1    0    0    0    0  0.00000000000E+00  0.00000000000E+00  0.45593999997E+02  0.45594000000E+02  0.51100000000E-03 0. -1.
         11   -1    0    0    0    0 -0.00000000000E+00 -0.00000000000E+00 -0.45593999997E+02  0.45594000000E+02  0.51100000000E-03 0.  1.
    9900012    2    1    2    0    0 -0.29034680373E+02 -0.25355548901E+02  0.12932478397E+02  0.50528861766E+02  0.30000005824E+02 0.  0.
         12    1    1    2    0    0  0.29034680373E+02  0.25355548901E+02 -0.12932478397E+02  0.40659138234E+02  0.00000000000E+00 0. -1.
         11    1    3    3    0    0 -0.11088036750E+02 -0.58662042376E+01  0.27026453756E+01  0.12832038163E+02  0.51100000000E-03 0. -1.
        -11    1    3    3    0    0 -0.19795951569E+02 -0.52558140082E+01  0.74973182181E+00  0.20495496516E+02  0.51100000000E-03 0.  1.
         12    1    3    3    0    0  0.18493079452E+01 -0.14233530656E+02  0.94801011994E+01  0.17201327087E+02  0.00000000000E+00 0. -1.
</event>
<event>
 7    1  0.6726285E-013  0.5052886E+02  0.7816164E-02  0.1300439E+00
        -11   -1    0    0    0    0  0.00000000000E+00  0.00000000000E+00  0.45593999997E+02  0.45594000000E+02  0.51100000000E-03 0. -1.
         11   -1    0    0    0    0 -0.00000000000E+00 -0.00000000000E+00 -0.45593999997E+02  0.45594000000E+02  0.51100000000E-03 0.  1.
    9900012    2    1    2    0    0  0.35820249607E+02 -0.11035492338E+02 -0.15757332101E+02  0.50528857265E+02  0.29999992142E+02 0.  0.
         12    1    1    2    0    0 -0.35820249607E+02  0.11035492338E+02  0.15757332101E+02  0.40659142735E+02  0.00000000000E+00 0. -1.
         11    1    3    3    0    0  0.16872805757E+02 -0.71589420892E+01 -0.16080686241E+02  0.24382996046E+02  0.51100000000E-03 0. -1.
        -11    1    3    3    0    0  0.62963940537E+01 -0.89635475627E+01 -0.42709770524E+01  0.11757168376E+02  0.51100000000E-03 0.  1.
         12    1    3    3    0    0  0.12651049795E+02  0.50869973142E+01  0.45943311921E+01  0.14388692842E+02  0.00000000000E+00 0. -1.
</event>
<event>
 7    1  0.6726285E-013  0.5052886E+02  0.7816164E-02  0.1300439E+00
        -11   -1    0    0    0    0  0.00000000000E+00  0.00000000000E+00  0.45593999997E+02  0.45594000000E+02  0.51100000000E-03 0. -1.
         11   -1    0    0    0    0 -0.00000000000E+00 -0.00000000000E+00 -0.45593999997E+02  0.45594000000E+02  0.51100000000E-03 0.  1.
    9900012    2    1    2    0    0  0.13279317010E+02 -0.31523224260E+02 -0.21979800055E+02  0.50528861563E+02  0.30000005206E+02 0.  0.
         12    1    1    2    0    0 -0.13279317010E+02  0.31523224260E+02  0.21979800055E+02  0.40659138437E+02  0.00000000000E+00 0. -1.
         11    1    3    3    0    0 -0.72833563668E+00  0.58982381942E+00  0.51448245445E+01  0.52294918293E+01  0.51100000000E-03 0. -1.
        -11    1    3    3    0    0  0.83878158629E+00 -0.47471190103E+01 -0.38577956389E+00  0.48360644723E+01  0.51100000000E-03 0.  1.
        -12    1    3    3    0    0  0.13168871060E+02 -0.27365929069E+02 -0.26738845035E+02  0.40463305261E+02  0.00000000000E+00 0.  1.
</event>
<event>
 7    1  0.6726285E-013  0.5052887E+02  0.7816164E-02  0.1300439E+00
        -11   -1    0    0    0    0  0.00000000000E+00  0.00000000000E+00  0.45593999997E+02  0.45594000000E+02  0.51100000000E-03 0. -1.
         11   -1    0    0    0    0 -0.00000000000E+00 -0.00000000000E+00 -0.45593999997E+02  0.45594000000E+02  0.51100000000E-03 0.  1.
    9900012    2    1    2    0    0 -0.38393921232E+02  0.81259620090E+01 -0.10632050103E+02  0.50528868977E+02  0.30000027743E+02 0.  0.
         12    1    1    2    0    0  0.38393921232E+02 -0.81259620090E+01  0.10632050103E+02  0.40659131023E+02  0.00000000000E+00 0. -1.
         11    1    3    3    0    0 -0.12664617289E+02  0.80897585839E+01 -0.27353439529E+01  0.15274777636E+02  0.51100000000E-03 0. -1.
        -11    1    3    3    0    0 -0.10146953452E+02  0.10903442452E+02 -0.60979567644E+00  0.14906963899E+02  0.51100000000E-03 0.  1.
        -12    1    3    3    0    0 -0.15582350491E+02 -0.10867239027E+02 -0.72869104740E+01  0.20347127442E+02  0.00000000000E+00 0.  1.
</event>
<event>
 7    1  0.6726285E-013  0.5052886E+02  0.7816164E-02  0.1300439E+00
        -11   -1    0    0    0    0  0.00000000000E+00  0.00000000000E+00  0.45593999997E+02  0.45594000000E+02  0.51100000000E-03 0.  1.
         11   -1    0    0    0    0 -0.00000000000E+00 -0.00000000000E+00 -0.45593999997E+02  0.45594000000E+02  0.51100000000E-03 0. -1.
    9900012    2    1    2    0    0 -0.38793190535E+02  0.73451619805E+01  0.97109423077E+01  0.50528862811E+02  0.30000009001E+02 0.  0.
         12    1    1    2    0    0  0.38793190535E+02 -0.73451619805E+01 -0.97109423077E+01  0.40659137189E+02  0.00000000000E+00 0. -1.
         11    1    3    3    0    0 -0.17923840767E+02  0.10082832758E+00  0.91949559387E+01  0.20145010528E+02  0.51100000000E-03 0. -1.
        -11    1    3    3    0    0 -0.18531351173E+02  0.53998681516E+01  0.90695922806E+01  0.21326674770E+02  0.51100000000E-03 0.  1.
        -12    1    3    3    0    0 -0.23379985956E+01  0.18444655012E+01 -0.85536059116E+01  0.90571775134E+01  0.00000000000E+00 0.  1.
</event>
<event>
 7    1  0.6726285E-013  0.5052886E+02  0.7816164E-02  0.1300439E+00
        -11   -1    0    0    0    0  0.00000000000E+00  0.00000000000E+00  0.45593999997E+02  0.45594000000E+02  0.51100000000E-03 0.  1.
         11   -1    0    0    0    0 -0.00000000000E+00 -0.00000000000E+00 -0.45593999997E+02  0.45594000000E+02  0.51100000000E-03 0. -1.
    9900012    2    1    2    0    0  0.35241909237E+02 -0.70942993503E+01  0.18995902592E+02  0.50528861233E+02  0.30000004204E+02 0.  0.
         12    1    1    2    0    0 -0.35241909237E+02  0.70942993503E+01 -0.18995902592E+02  0.40659138767E+02  0.00000000000E+00 0. -1.
         11    1    3    3    0    0  0.42005722658E+01 -0.26633750635E+00 -0.34777259303E+01  0.54598828682E+01  0.51100000000E-03 0. -1.
        -11    1    3    3    0    0  0.18991436028E+02  0.56146587858E+01  0.49151352711E+01  0.20404842334E+02  0.51100000000E-03 0.  1.
         12    1    3    3    0    0  0.12049900944E+02 -0.12442620630E+02  0.17558493251E+02  0.24664136031E+02  0.00000000000E+00 0. -1.
</event>
<event>
 7    1  0.6726285E-013  0.5052886E+02  0.7816164E-02  0.1300439E+00
        -11   -1    0    0    0    0  0.00000000000E+00  0.00000000000E+00  0.45593999997E+02  0.45594000000E+02  0.51100000000E-03 0. -1.
         11   -1    0    0    0    0 -0.00000000000E+00 -0.00000000000E+00 -0.45593999997E+02  0.45594000000E+02  0.51100000000E-03 0.  1.
    9900012    2    1    2    0    0 -0.26130098605E+02 -0.21369174808E+02  0.22665879613E+02  0.50528858547E+02  0.29999996040E+02 0.  0.
         12    1    1    2    0    0  0.26130098605E+02  0.21369174808E+02 -0.22665879613E+02  0.40659141453E+02  0.00000000000E+00 0. -1.
         11    1    3    3    0    0  0.22953627144E+01 -0.68669698515E+01 -0.88686012092E+00  0.72945518071E+01  0.51100000000E-03 0. -1.
        -11    1    3    3    0    0 -0.11676896320E+02 -0.15287066314E+02  0.15112308379E+02  0.24462750642E+02  0.51100000000E-03 0.  1.
        -12    1    3    3    0    0 -0.16748564999E+02  0.78486135788E+00  0.84404313540E+01  0.18771556098E+02  0.00000000000E+00 0.  1.
</event>
<event>
 7    1  0.6726285E-013  0.5052886E+02  0.7816164E-02  0.1300439E+00
        -11   -1    0    0    0    0  0.00000000000E+00  0.00000000000E+00  0.45593999997E+02  0.45594000000E+02  0.51100000000E-03 0. -1.
         11   -1    0    0    0    0 -0.00000000000E+00 -0.00000000000E+00 -0.45593999997E+02  0.45594000000E+02  0.51100000000E-03 0.  1.
    9900012    2    1    2    0    0 -0.84805312217E+01 -0.32286113763E+02 -0.23213206128E+02  0.50528862153E+02  0.30000007001E+02 0.  0.
         12    1    1    2    0    0  0.84805312217E+01  0.32286113763E+02  0.23213206128E+02  0.40659137847E+02  0.00000000000E+00 0. -1.
         11    1    3    3    0    0 -0.31847447338E+01 -0.82256307360E+00 -0.25736388013E+01  0.41764609385E+01  0.51100000000E-03 0. -1.
        -11    1    3    3    0    0  0.13273093278E+01 -0.30083372069E+00  0.51730538064E+01  0.53490874852E+01  0.51100000000E-03 0.  1.
        -12    1    3    3    0    0 -0.66230958157E+01 -0.31162716969E+02 -0.25812621133E+02  0.41003313730E+02  0.00000000000E+00 0.  1.
</event>
<event>
 7    1  0.6726285E-013  0.5052888E+02  0.7816164E-02  0.1300439E+00
        -11   -1    0    0    0    0  0.00000000000E+00  0.00000000000E+00  0.45593999997E+02  0.45594000000E+02  0.51100000000E-03 0.  1.
         11   -1    0    0    0    0 -0.00000000000E+00 -0.00000000000E+00 -0.45593999997E+02  0.45594000000E+02  0.51100000000E-03 0. -1.
    9900012    2    1    2    0    0  0.12470471235E+02  0.14861409322E+02  0.35732200685E+02  0.50528876723E+02  0.30000051286E+02 0.  0.
         12    1    1    2    0    0 -0.12470471235E+02 -0.14861409322E+02 -0.35732200685E+02  0.40659123277E+02  0.00000000000E+00 0. -1.
         11    1    3    3    0    0  0.54298414803E+01  0.48946809412E+01 -0.86514033143E+00  0.73613550432E+01  0.51100000000E-03 0. -1.
        -11    1    3    3    0    0  0.96845985293E+00  0.14399192156E+01 -0.23028656395E+01  0.28834826597E+01  0.51100000000E-03 0.  1.
        -12    1    3    3    0    0  0.60721699020E+01  0.85268091655E+01  0.38900206656E+02  0.40284039020E+02  0.00000000000E+00 0.  1.
</event>
<event>
 7    1  0.6726285E-013  0.5052886E+02  0.7816164E-02  0.1300439E+00
        -11   -1    0    0    0    0  0.00000000000E+00  0.00000000000E+00  0.45593999997E+02  0.45594000000E+02  0.51100000000E-03 0. -1.
         11   -1    0    0    0    0 -0.00000000000E+00 -0.00000000000E+00 -0.45593999997E+02  0.45594000000E+02  0.51100000000E-03 0.  1.
    9900012    2    1    2    0    0  0.15580898878E+02 -0.69479777478E+01 -0.36907004246E+02  0.50528858752E+02  0.29999996662E+02 0.  0.
         12    1    1    2    0    0 -0.15580898878E+02  0.69479777478E+01  0.36907004246E+02  0.40659141248E+02  0.00000000000E+00 0. -1.
         11    1    3    3    0    0  0.36797246477E+00 -0.82471164439E+01 -0.15493584898E+02  0.17555668789E+02  0.51100000000E-03 0. -1.
        -11    1    3    3    0    0  0.12937863916E+02  0.72016814649E+01 -0.54093874136E+01  0.15764327169E+02  0.51100000000E-03 0.  1.
         12    1    3    3    0    0  0.22750624972E+01 -0.59025427688E+01 -0.16004031934E+02  0.17208862794E+02  0.00000000000E+00 0. -1.
</event>
<event>
 7    1  0.6726285E-013  0.5052886E+02  0.7816164E-02  0.1300439E+00
        -11   -1    0    0    0    0  0.00000000000E+00  0.00000000000E+00  0.45593999997E+02  0.45594000000E+02  0.51100000000E-03 0.  1.
         11   -1    0    0    0    0 -0.00000000000E+00 -0.00000000000E+00 -0.45593999997E+02  0.45594000000E+02  0.51100000000E-03 0. -1.
    9900012    2    1    2    0    0  0.22632612384E+02  0.11668222484E+02  0.31698317696E+02  0.50528857067E+02  0.29999991541E+02 0.  0.
         12    1    1    2    0    0 -0.22632612384E+02 -0.11668222484E+02 -0.31698317696E+02  0.40659142933E+02  0.00000000000E+00 0. -1.
         11    1    3    3    0    0  0.11117658477E+02  0.16653612802E+02  0.13284141565E+02  0.24029431261E+02  0.51100000000E-03 0. -1.
        -11    1    3    3    0    0  0.31738473314E+01  0.39962731673E+01  0.11121884697E+02  0.12236822528E+02  0.51100000000E-03 0.  1.
         12    1    3    3    0    0  0.83411065760E+01 -0.89816634860E+01  0.72922914344E+01  0.14262603278E+02  0.00000000000E+00 0. -1.
</event>
<event>
 7    1  0.6726285E-013  0.5052885E+02  0.7816164E-02  0.1300439E+00
        -11   -1    0    0    0    0  0.00000000000E+00  0.00000000000E+00  0.45593999997E+02  0.45594000000E+02  0.51100000000E-03 0.  1.
         11   -1    0    0    0    0 -0.00000000000E+00 -0.00000000000E+00 -0.45593999997E+02  0.45594000000E+02  0.51100000000E-03 0. -1.
    9900012    2    1    2    0    0  0.33716512083E+02  0.15515005830E+02  0.16602635831E+02  0.50528854541E+02  0.29999983862E+02 0.  0.
         12    1    1    2    0    0 -0.33716512083E+02 -0.15515005830E+02 -0.16602635831E+02  0.40659145459E+02  0.00000000000E+00 0. -1.
         11    1    3    3    0    0  0.90041759649E+00  0.11154291842E+02  0.54230270724E+00  0.11203707906E+02  0.51100000000E-03 0. -1.
        -11    1    3    3    0    0  0.89577417091E+01  0.44144363597E+01  0.11146950096E+02  0.14966057651E+02  0.51100000000E-03 0.  1.
         12    1    3    3    0    0  0.23858352778E+02 -0.53722372423E-01  0.49133830274E+01  0.24359088984E+02  0.00000000000E+00 0. -1.
</event>
<event>
 7    1  0.6726285E-013  0.5052882E+02  0.7816164E-02  0.1300439E+00
        -11   -1    0    0    0    0  0.00000000000E+00  0.00000000000E+00  0.45593999997E+02  0.45594000000E+02  0.51100000000E-03 0.  1.
         11   -1    0    0    0    0 -0.00000000000E+00 -0.00000000000E+00 -0.45593999997E+02  0.45594000000E+02  0.51100000000E-03 0. -1.
    9900012    2    1    2    0    0 -0.16892702505E+02 -0.17625165137E+02  0.32513983317E+02  0.50528819546E+02  0.29999877493E+02 0.  0.
         12    1    1    2    0    0  0.16892702505E+02  0.17625165137E+02 -0.32513983317E+02  0.40659180454E+02  0.00000000000E+00 0. -1.
         11    1    3    3    0    0 -0.19988962915E+00 -0.10380585168E+02  0.22956401599E+02  0.25195096327E+02  0.51100000000E-03 0. -1.
        -11    1    3    3    0    0 -0.33147309408E+01 -0.92508783800E+01  0.28341893272E+01  0.10227356521E+02  0.51100000000E-03 0.  1.
         12    1    3    3    0    0 -0.13378081935E+02  0.20062984111E+01  0.67233923909E+01  0.15106366698E+02  0.00000000000E+00 0. -1.
</event>
<event>
 7    1  0.6726285E-013  0.5052886E+02  0.7816164E-02  0.1300439E+00
        -11   -1    0    0    0    0  0.00000000000E+00  0.00000000000E+00  0.45593999997E+02  0.45594000000E+02  0.51100000000E-03 0.  1.
         11   -1    0    0    0    0 -0.00000000000E+00 -0.00000000000E+00 -0.45593999997E+02  0.45594000000E+02  0.51100000000E-03 0. -1.
    9900012    2    1    2    0    0 -0.14389095418E+01  0.33199619296E+02  0.23428206196E+02  0.50528855547E+02  0.29999986922E+02 0.  0.
         12    1    1    2    0    0  0.14389095418E+01 -0.33199619296E+02 -0.23428206196E+02  0.40659144453E+02  0.00000000000E+00 0. -1.
         11    1    3    3    0    0  0.11080092901E-01 -0.98118424134E+00 -0.23389957399E+01  0.25364831197E+01  0.51100000000E-03 0. -1.
        -11    1    3    3    0    0 -0.69191023960E+01  0.11189496493E+02  0.17453039855E+00  0.13157099637E+02  0.51100000000E-03 0.  1.
        -12    1    3    3    0    0  0.54691127613E+01  0.22991307045E+02  0.25592671537E+02  0.34835272791E+02  0.00000000000E+00 0.  1.
</event>
<event>
 7    1  0.6726285E-013  0.5052886E+02  0.7816164E-02  0.1300439E+00
        -11   -1    0    0    0    0  0.00000000000E+00  0.00000000000E+00  0.45593999997E+02  0.45594000000E+02  0.51100000000E-03 0.  1.
         11   -1    0    0    0    0 -0.00000000000E+00 -0.00000000000E+00 -0.45593999997E+02  0.45594000000E+02  0.51100000000E-03 0. -1.
    9900012    2    1    2    0    0  0.19776672351E+02  0.22036081496E+02  0.27865027495E+02  0.50528863089E+02  0.30000009847E+02 0.  0.
         12    1    1    2    0    0 -0.19776672351E+02 -0.22036081496E+02 -0.27865027495E+02  0.40659136911E+02  0.00000000000E+00 0. -1.
         11    1    3    3    0    0 -0.41041619090E+01  0.67857312131E+01  0.22164823823E+01  0.82342630201E+01  0.51100000000E-03 0. -1.
        -11    1    3    3    0    0 -0.21693457999E+01 -0.46277924734E+00  0.51593677936E+01  0.56159863001E+01  0.51100000000E-03 0.  1.
        -12    1    3    3    0    0  0.26050180060E+02  0.15713129531E+02  0.20489177319E+02  0.36678613769E+02  0.00000000000E+00 0.  1.
</event>
<event>
 7    1  0.6726285E-013  0.5052887E+02  0.7816164E-02  0.1300439E+00
        -11   -1    0    0    0    0  0.00000000000E+00  0.00000000000E+00  0.45593999997E+02  0.45594000000E+02  0.51100000000E-03 0.  1.
         11   -1    0    0    0    0 -0.00000000000E+00 -0.00000000000E+00 -0.45593999997E+02  0.45594000000E+02  0.51100000000E-03 0. -1.
    9900012    2    1    2    0    0 -0.18628734658E+02 -0.38729390750E+01  0.35932378467E+02  0.50528865302E+02  0.30000016573E+02 0.  0.
         12    1    1    2    0    0  0.18628734658E+02  0.38729390750E+01 -0.35932378467E+02  0.40659134698E+02  0.00000000000E+00 0. -1.
         11    1    3    3    0    0 -0.71019842162E+01 -0.65453759838E+01  0.52277861112E+01  0.10982252704E+02  0.51100000000E-03 0. -1.
        -11    1    3    3    0    0 -0.88996219517E+01 -0.90582995762E+01  0.13247526300E+02  0.18350831464E+02  0.51100000000E-03 0.  1.
         12    1    3    3    0    0 -0.26271284900E+01  0.11730736485E+02  0.17457066056E+02  0.21195781134E+02  0.00000000000E+00 0. -1.
</event>
<event>
 7    1  0.6726285E-013  0.5052886E+02  0.7816164E-02  0.1300439E+00
        -11   -1    0    0    0    0  0.00000000000E+00  0.00000000000E+00  0.45593999997E+02  0.45594000000E+02  0.51100000000E-03 0.  1.
         11   -1    0    0    0    0 -0.00000000000E+00 -0.00000000000E+00 -0.45593999997E+02  0.45594000000E+02  0.51100000000E-03 0. -1.
    9900012    2    1    2    0    0  0.16858528517E+01  0.16604385137E+02  0.37075840557E+02  0.50528860085E+02  0.30000000714E+02 0.  0.
         12    1    1    2    0    0 -0.16858528517E+01 -0.16604385137E+02 -0.37075840557E+02  0.40659139915E+02  0.00000000000E+00 0. -1.
         11    1    3    3    0    0 -0.13079762594E+01  0.83583056821E+01  0.56139237185E+01  0.10153236703E+02  0.51100000000E-03 0. -1.
        -11    1    3    3    0    0 -0.89838732554E+01  0.83130703994E+01  0.10033769121E+02  0.15826990907E+02  0.51100000000E-03 0.  1.
        -12    1    3    3    0    0  0.11977702366E+02 -0.66990944936E-01  0.21428147718E+02  0.24548632475E+02  0.00000000000E+00 0.  1.
</event>
<event>
 7    1  0.6726285E-013  0.5052887E+02  0.7816164E-02  0.1300439E+00
        -11   -1    0    0    0    0  0.00000000000E+00  0.00000000000E+00  0.45593999997E+02  0.45594000000E+02  0.51100000000E-03 0.  1.
         11   -1    0    0    0    0 -0.00000000000E+00 -0.00000000000E+00 -0.45593999997E+02  0.45594000000E+02  0.51100000000E-03 0. -1.
    9900012    2    1    2    0    0  0.97966928486E+01 -0.33481564945E+02  0.20884789984E+02  0.50528870218E+02  0.30000031515E+02 0.  0.
         12    1    1    2    0    0 -0.97966928486E+01  0.33481564945E+02 -0.20884789984E+02  0.40659129782E+02  0.00000000000E+00 0. -1.
         11    1    3    3    0    0  0.42340762791E+01 -0.28367096808E+01  0.78968753392E+01  0.93986682107E+01  0.51100000000E-03 0. -1.
        -11    1    3    3    0    0  0.55257506926E+01 -0.70935910981E+01  0.15004732585E+02  0.17492711499E+02  0.51100000000E-03 0.  1.
         12    1    3    3    0    0  0.36865876949E-01 -0.23551264166E+02 -0.20168179405E+01  0.23637490508E+02  0.00000000000E+00 0. -1.
</event>
<event>
 7    1  0.6726285E-013  0.5052889E+02  0.7816164E-02  0.1300439E+00
        -11   -1    0    0    0    0  0.00000000000E+00  0.00000000000E+00  0.45593999997E+02  0.45594000000E+02  0.51100000000E-03 0.  1.
         11   -1    0    0    0    0 -0.00000000000E+00 -0.00000000000E+00 -0.45593999997E+02  0.45594000000E+02  0.51100000000E-03 0. -1.
    9900012    2    1    2    0    0 -0.71101899720E+01  0.11513595703E+02  0.38341174466E+02  0.50528888513E+02  0.30000087124E+02 0.  0.
         12    1    1    2    0    0  0.71101899720E+01 -0.11513595703E+02 -0.38341174466E+02  0.40659111487E+02  0.00000000000E+00 0. -1.
         11    1    3    3    0    0  0.26964966349E+01  0.47660984383E+01  0.31004554838E+01  0.62928223314E+01  0.51100000000E-03 0. -1.
        -11    1    3    3    0    0  0.56694251578E+01  0.35564026585E+01  0.13285933254E+01  0.68231621683E+01  0.51100000000E-03 0.  1.
        -12    1    3    3    0    0 -0.15476111765E+02  0.31910946064E+01  0.33912125657E+02  0.37412904013E+02  0.00000000000E+00 0.  1.
</event>
<event>
 7    1  0.6726285E-013  0.5052883E+02  0.7816164E-02  0.1300439E+00
        -11   -1    0    0    0    0  0.00000000000E+00  0.00000000000E+00  0.45593999997E+02  0.45594000000E+02  0.51100000000E-03 0.  1.
         11   -1    0    0    0    0 -0.00000000000E+00 -0.00000000000E+00 -0.45593999997E+02  0.45594000000E+02  0.51100000000E-03 0. -1.
    9900012    2    1    2    0    0 -0.96255885099E+01 -0.36032271566E+02  0.16192334676E+02  0.50528828210E+02  0.29999903827E+02 0.  0.
         12    1    1    2    0    0  0.96255885099E+01  0.36032271566E+02 -0.16192334676E+02  0.40659171790E+02  0.00000000000E+00 0. -1.
         11    1    3    3    0    0 -0.26878960991E+01 -0.11027151591E+02 -0.55872031171E+00  0.11363759338E+02  0.51100000000E-03 0. -1.
        -11    1    3    3    0    0  0.44483032655E+01 -0.10932777730E+02  0.17430311283E+02  0.21050624279E+02  0.51100000000E-03 0.  1.
         12    1    3    3    0    0 -0.11385995676E+02 -0.14072342246E+02 -0.67925629558E+00  0.18114444594E+02  0.00000000000E+00 0. -1.
</event>
<event>
 7    1  0.6726285E-013  0.5052886E+02  0.7816164E-02  0.1300439E+00
        -11   -1    0    0    0    0  0.00000000000E+00  0.00000000000E+00  0.45593999997E+02  0.45594000000E+02  0.51100000000E-03 0.  1.
         11   -1    0    0    0    0 -0.00000000000E+00 -0.00000000000E+00 -0.45593999997E+02  0.45594000000E+02  0.51100000000E-03 0. -1.
    9900012    2    1    2    0    0  0.48137977435E+01  0.11536587378E+02  0.38689790336E+02  0.50528863594E+02  0.30000011380E+02 0.  0.
         12    1    1    2    0    0 -0.48137977435E+01 -0.11536587378E+02 -0.38689790336E+02  0.40659136406E+02  0.00000000000E+00 0. -1.
         11    1    3    3    0    0  0.25943219836E+01 -0.12707320180E+01  0.12754898030E+02  0.13077946721E+02  0.51100000000E-03 0.  1.
        -11    1    3    3    0    0 -0.47680547944E+01  0.16844987774E+02  0.22908159749E+02  0.28831783556E+02  0.51100000000E-03 0. -1.
         12    1    3    3    0    0  0.69875305542E+01 -0.40376683780E+01  0.30267325570E+01  0.86191333177E+01  0.00000000000E+00 0. -1.
</event>
<event>
 7    1  0.6726285E-013  0.5052887E+02  0.7816164E-02  0.1300439E+00
        -11   -1    0    0    0    0  0.00000000000E+00  0.00000000000E+00  0.45593999997E+02  0.45594000000E+02  0.51100000000E-03 0.  1.
         11   -1    0    0    0    0 -0.00000000000E+00 -0.00000000000E+00 -0.45593999997E+02  0.45594000000E+02  0.51100000000E-03 0. -1.
    9900012    2    1    2    0    0  0.34331141999E+02  0.17693502091E+02 -0.12707374865E+02  0.50528871835E+02  0.30000036430E+02 0.  0.
         12    1    1    2    0    0 -0.34331141999E+02 -0.17693502091E+02  0.12707374865E+02  0.40659128165E+02  0.00000000000E+00 0. -1.
         11    1    3    3    0    0  0.13863392772E+02 -0.13449112605E+01  0.10010054666E+00  0.13928835767E+02  0.51100000000E-03 0. -1.
        -11    1    3    3    0    0  0.10706110072E+02  0.11262396926E+02  0.36340434453E+01  0.15958341061E+02  0.51100000000E-03 0.  1.
         12    1    3    3    0    0  0.97616391543E+01  0.77760164258E+01 -0.16441518857E+02  0.20641695007E+02  0.00000000000E+00 0. -1.
</event>
<event>
 7    1  0.6726285E-013  0.5052886E+02  0.7816164E-02  0.1300439E+00
        -11   -1    0    0    0    0  0.00000000000E+00  0.00000000000E+00  0.45593999997E+02  0.45594000000E+02  0.51100000000E-03 0.  1.
         11   -1    0    0    0    0 -0.00000000000E+00 -0.00000000000E+00 -0.45593999997E+02  0.45594000000E+02  0.51100000000E-03 0. -1.
    9900012    2    1    2    0    0  0.10999994857E+02  0.11540469116E+02  0.37402982753E+02  0.50528862858E+02  0.30000009145E+02 0.  0.
         12    1    1    2    0    0 -0.10999994857E+02 -0.11540469116E+02 -0.37402982753E+02  0.40659137142E+02  0.00000000000E+00 0. -1.
         11    1    3    3    0    0  0.24539907263E+01  0.59613012166E+01  0.18001234431E+01  0.66932523747E+01  0.51100000000E-03 0. -1.
        -11    1    3    3    0    0 -0.12537892043E+01  0.12945092368E+02  0.14923001944E+02  0.19795034506E+02  0.51100000000E-03 0.  1.
        -12    1    3    3    0    0  0.97997933354E+01 -0.73659244689E+01  0.20679857366E+02  0.24040575978E+02  0.00000000000E+00 0.  1.
</event>
<event>
 7    1  0.6726285E-013  0.5052886E+02  0.7816164E-02  0.1300439E+00
        -11   -1    0    0    0    0  0.00000000000E+00  0.00000000000E+00  0.45593999997E+02  0.45594000000E+02  0.51100000000E-03 0. -1.
         11   -1    0    0    0    0 -0.00000000000E+00 -0.00000000000E+00 -0.45593999997E+02  0.45594000000E+02  0.51100000000E-03 0.  1.
    9900012    2    1    2    0    0  0.12548354711E+02  0.21507759352E+02 -0.32142199943E+02  0.50528856681E+02  0.29999990368E+02 0.  0.
         12    1    1    2    0    0 -0.12548354711E+02 -0.21507759352E+02  0.32142199943E+02  0.40659143319E+02  0.00000000000E+00 0. -1.
         11    1    3    3    0    0  0.83132184445E+01  0.27965094497E+01  0.15632705834E+01  0.89092020510E+01  0.51100000000E-03 0. -1.
        -11    1    3    3    0    0 -0.67571089167E+00 -0.18258209927E+01 -0.12374384021E+00  0.19507742837E+01  0.51100000000E-03 0.  1.
        -12    1    3    3    0    0  0.49108471579E+01  0.20537070895E+02 -0.33581726686E+02  0.39668880346E+02  0.00000000000E+00 0.  1.
</event>
<event>
 7    1  0.6726285E-013  0.5052884E+02  0.7816164E-02  0.1300439E+00
        -11   -1    0    0    0    0  0.00000000000E+00  0.00000000000E+00  0.45593999997E+02  0.45594000000E+02  0.51100000000E-03 0. -1.
         11   -1    0    0    0    0 -0.00000000000E+00 -0.00000000000E+00 -0.45593999997E+02  0.45594000000E+02  0.51100000000E-03 0.  1.
    9900012    2    1    2    0    0 -0.11522434578E+02 -0.37560804585E+02 -0.10468357000E+02  0.50528843123E+02  0.29999949156E+02 0.  0.
         12    1    1    2    0    0  0.11522434578E+02  0.37560804585E+02  0.10468357000E+02  0.40659156877E+02  0.00000000000E+00 0. -1.
         11    1    3    3    0    0  0.10972452687E+01  0.11419100402E+01 -0.49188915527E+01  0.51675332691E+01  0.51100000000E-03 0. -1.
        -11    1    3    3    0    0 -0.15134900141E+02 -0.27689504668E+02  0.22463180636E+01  0.31635736377E+02  0.51100000000E-03 0.  1.
         12    1    3    3    0    0  0.25152202953E+01 -0.11013209958E+02 -0.77957835108E+01  0.13725573476E+02  0.00000000000E+00 0. -1.
</event>
<event>
 7    1  0.6726285E-013  0.5052886E+02  0.7816164E-02  0.1300439E+00
        -11   -1    0    0    0    0  0.00000000000E+00  0.00000000000E+00  0.45593999997E+02  0.45594000000E+02  0.51100000000E-03 0. -1.
         11   -1    0    0    0    0 -0.00000000000E+00 -0.00000000000E+00 -0.45593999997E+02  0.45594000000E+02  0.51100000000E-03 0.  1.
    9900012    2    1    2    0    0  0.14559404619E+02 -0.42038709543E+01 -0.37729520187E+02  0.50528862190E+02  0.30000007114E+02 0.  0.
         12    1    1    2    0    0 -0.14559404619E+02  0.42038709543E+01  0.37729520187E+02  0.40659137810E+02  0.00000000000E+00 0. -1.
         11    1    3    3    0    0 -0.72420510923E+00 -0.38034744107E+00 -0.10061815619E+02  0.10095012185E+02  0.51100000000E-03 0. -1.
        -11    1    3    3    0    0  0.42039197903E+00 -0.95136041473E+01 -0.21226272597E+02  0.23264566230E+02  0.51100000000E-03 0.  1.
         12    1    3    3    0    0  0.14863217749E+02  0.56900806341E+01 -0.64414319723E+01  0.17169283775E+02  0.00000000000E+00 0. -1.
</event>
<event>
 7    1  0.6726285E-013  0.5052885E+02  0.7816164E-02  0.1300439E+00
        -11   -1    0    0    0    0  0.00000000000E+00  0.00000000000E+00  0.45593999997E+02  0.45594000000E+02  0.51100000000E-03 0. -1.
         11   -1    0    0    0    0 -0.00000000000E+00 -0.00000000000E+00 -0.45593999997E+02  0.45594000000E+02  0.51100000000E-03 0.  1.
    9900012    2    1    2    0    0  0.11687097618E+02  0.23881920334E+01 -0.38869968312E+02  0.50528854061E+02  0.29999982403E+02 0.  0.
         12    1    1    2    0    0 -0.11687097618E+02 -0.23881920334E+01  0.38869968312E+02  0.40659145939E+02  0.00000000000E+00 0. -1.
         11    1    3    3    0    0  0.30615835159E+01 -0.51820972832E+01 -0.19398351565E+02  0.20310673785E+02  0.51100000000E-03 0. -1.
        -11    1    3    3    0    0  0.16499882113E+01 -0.45246190320E+01 -0.14690820746E+02  0.15460105204E+02  0.51100000000E-03 0.  1.
         12    1    3    3    0    0  0.69755258912E+01  0.12094908349E+02 -0.47807960011E+01  0.14758075072E+02  0.00000000000E+00 0. -1.
</event>
<event>
 7    1  0.6726285E-013  0.5052886E+02  0.7816164E-02  0.1300439E+00
        -11   -1    0    0    0    0  0.00000000000E+00  0.00000000000E+00  0.45593999997E+02  0.45594000000E+02  0.51100000000E-03 0.  1.
         11   -1    0    0    0    0 -0.00000000000E+00 -0.00000000000E+00 -0.45593999997E+02  0.45594000000E+02  0.51100000000E-03 0. -1.
    9900012    2    1    2    0    0  0.18959946118E+02  0.34052440385E+02  0.11580922294E+02  0.50528855713E+02  0.29999987425E+02 0.  0.
         12    1    1    2    0    0 -0.18959946118E+02 -0.34052440385E+02 -0.11580922294E+02  0.40659144287E+02  0.00000000000E+00 0. -1.
         11    1    3    3    0    0  0.52780242525E+01  0.46103921333E+01 -0.27087088323E+01  0.75133454221E+01  0.51100000000E-03 0.  1.
        -11    1    3    3    0    0  0.14119619309E+01  0.15465198272E+02 -0.49076241774E+01  0.16286521097E+02  0.51100000000E-03 0. -1.
        -12    1    3    3    0    0  0.12269959935E+02  0.13976849980E+02  0.19197255304E+02  0.26728989194E+02  0.00000000000E+00 0.  1.
</event>
<event>
 7    1  0.6726285E-013  0.5052883E+02  0.7816164E-02  0.1300439E+00
        -11   -1    0    0    0    0  0.00000000000E+00  0.00000000000E+00  0.45593999997E+02  0.45594000000E+02  0.51100000000E-03 0. -1.
         11   -1    0    0    0    0 -0.00000000000E+00 -0.00000000000E+00 -0.45593999997E+02  0.45594000000E+02  0.51100000000E-03 0.  1.
    9900012    2    1    2    0    0  0.16271466046E+02  0.94697443272E+01 -0.36037911324E+02  0.50528834766E+02  0.29999923755E+02 0.  0.
         12    1    1    2    0    0 -0.16271466046E+02 -0.94697443272E+01  0.36037911324E+02  0.40659165234E+02  0.00000000000E+00 0. -1.
         11    1    3    3    0    0 -0.24336462413E+01 -0.54344647881E+01 -0.14366444486E+02  0.15551551980E+02  0.51100000000E-03 0. -1.
        -11    1    3    3    0    0  0.16359717282E+02  0.62536976052E+01 -0.18485794905E+02  0.25465146707E+02  0.51100000000E-03 0.  1.
        -12    1    3    3    0    0  0.23453950055E+01  0.86505115101E+01 -0.31856719326E+01  0.95121360787E+01  0.00000000000E+00 0.  1.
</event>
<event>
 7    1  0.7569277E-013  0.5052885E+02  0.7816164E-02  0.1300439E+00
        -11   -1    0    0    0    0  0.00000000000E+00  0.00000000000E+00  0.45593999997E+02  0.45594000000E+02  0.51100000000E-03 0. -1.
         11   -1    0    0    0    0 -0.00000000000E+00 -0.00000000000E+00 -0.45593999997E+02  0.45594000000E+02  0.51100000000E-03 0.  1.
    9900012    2    1    2    0    0 -0.13099327557E+02  0.15115217622E+02 -0.35399213360E+02  0.50528849828E+02  0.29999969538E+02 0.  0.
         12    1    1    2    0    0  0.13099327557E+02 -0.15115217622E+02  0.35399213360E+02  0.40659150172E+02  0.00000000000E+00 0. -1.
         11    1    3    3    0    0 -0.73299411651E+01 -0.25539999876E+01 -0.10984745406E+01  0.78394897791E+01  0.51100000000E-03 0. -1.
        -11    1    3    3    0    0  0.43607676925E+00  0.17422937700E+01 -0.20880006432E+02  0.20957109041E+02  0.51100000000E-03 0.  1.
         12    1    3    3    0    0 -0.62054631616E+01  0.15926923839E+02 -0.13420732387E+02  0.21732251008E+02  0.00000000000E+00 0. -1.
</event>
<event>
 7    1  0.6726285E-013  0.5052885E+02  0.7816164E-02  0.1300439E+00
        -11   -1    0    0    0    0  0.00000000000E+00  0.00000000000E+00  0.45593999997E+02  0.45594000000E+02  0.51100000000E-03 0.  1.
         11   -1    0    0    0    0 -0.00000000000E+00 -0.00000000000E+00 -0.45593999997E+02  0.45594000000E+02  0.51100000000E-03 0. -1.
    9900012    2    1    2    0    0  0.37818782372E+02 -0.29119870456E+01  0.14643296813E+02  0.50528854532E+02  0.29999983834E+02 0.  0.
         12    1    1    2    0    0 -0.37818782372E+02  0.29119870456E+01 -0.14643296813E+02  0.40659145468E+02  0.00000000000E+00 0. -1.
         11    1    3    3    0    0  0.23911786484E+02 -0.14174967026E+01 -0.37204645782E+01  0.24240971241E+02  0.51100000000E-03 0. -1.
        -11    1    3    3    0    0  0.57381444101E+01 -0.60906685568E+01  0.43570838317E+01  0.94343375241E+01  0.51100000000E-03 0.  1.
         12    1    3    3    0    0  0.81688514776E+01  0.45961782138E+01  0.14006677560E+02  0.16853545766E+02  0.00000000000E+00 0. -1.
</event>
<event>
 7    1  0.6726285E-013  0.5052886E+02  0.7816164E-02  0.1300439E+00
        -11   -1    0    0    0    0  0.00000000000E+00  0.00000000000E+00  0.45593999997E+02  0.45594000000E+02  0.51100000000E-03 0. -1.
         11   -1    0    0    0    0 -0.00000000000E+00 -0.00000000000E+00 -0.45593999997E+02  0.45594000000E+02  0.51100000000E-03 0.  1.
    9900012    2    1    2    0    0  0.19087853253E+02  0.64077582149E+01 -0.35323652403E+02  0.50528856794E+02  0.29999990711E+02 0.  0.
         12    1    1    2    0    0 -0.19087853253E+02 -0.64077582149E+01  0.35323652403E+02  0.40659143206E+02  0.00000000000E+00 0. -1.
         11    1    3    3    0    0  0.36188140743E+01 -0.89615773732E+00 -0.20109076385E+02  0.20451744848E+02  0.51100000000E-03 0.  1.
        -11    1    3    3    0    0  0.94448706805E+01 -0.58082090348E+01 -0.93395610488E+01  0.14497181630E+02  0.51100000000E-03 0. -1.
         12    1    3    3    0    0  0.60241684987E+01  0.13112124987E+02 -0.58750149694E+01  0.15579930316E+02  0.00000000000E+00 0. -1.
</event>
<event>
 7    1  0.6726285E-013  0.5052886E+02  0.7816164E-02  0.1300439E+00
        -11   -1    0    0    0    0  0.00000000000E+00  0.00000000000E+00  0.45593999997E+02  0.45594000000E+02  0.51100000000E-03 0. -1.
         11   -1    0    0    0    0 -0.00000000000E+00 -0.00000000000E+00 -0.45593999997E+02  0.45594000000E+02  0.51100000000E-03 0.  1.
    9900012    2    1    2    0    0  0.40036562370E+02 -0.65937320529E+01  0.26003384246E+01  0.50528863404E+02  0.30000010803E+02 0.  0.
         12    1    1    2    0    0 -0.40036562370E+02  0.65937320529E+01 -0.26003384246E+01  0.40659136596E+02  0.00000000000E+00 0. -1.
         11    1    3    3    0    0  0.10526504522E+02  0.77640643594E+01 -0.26716349000E+01  0.13350117083E+02  0.51100000000E-03 0.  1.
        -11    1    3    3    0    0  0.85151712413E+01  0.32803645516E+01  0.32386045604E+01  0.96828452750E+01  0.51100000000E-03 0. -1.
         12    1    3    3    0    0  0.20994886607E+02 -0.17638160964E+02  0.20333687642E+01  0.27495901046E+02  0.00000000000E+00 0. -1.
</event>
<event>
 7    1  0.6726285E-013  0.5052886E+02  0.7816164E-02  0.1300439E+00
        -11   -1    0    0    0    0  0.00000000000E+00  0.00000000000E+00  0.45593999997E+02  0.45594000000E+02  0.51100000000E-03 0.  1.
         11   -1    0    0    0    0 -0.00000000000E+00 -0.00000000000E+00 -0.45593999997E+02  0.45594000000E+02  0.51100000000E-03 0. -1.
    9900012    2    1    2    0    0 -0.46220545718E+01 -0.73662077852E+01  0.39718268818E+02  0.50528864698E+02  0.30000014735E+02 0.  0.
         12    1    1    2    0    0  0.46220545718E+01  0.73662077852E+01 -0.39718268818E+02  0.40659135302E+02  0.00000000000E+00 0. -1.
         11    1    3    3    0    0 -0.44109077424E+01 -0.38983725631E+01  0.59128779942E+01  0.83435928825E+01  0.51100000000E-03 0. -1.
        -11    1    3    3    0    0 -0.10188070422E+02 -0.62201309110E+01  0.27715893381E+02  0.30177103135E+02  0.51100000000E-03 0.  1.
         12    1    3    3    0    0  0.99769235926E+01  0.27522956888E+01  0.60894974431E+01  0.12008168680E+02  0.00000000000E+00 0. -1.
</event>
<event>
 7    1  0.6726285E-013  0.5052886E+02  0.7816164E-02  0.1300439E+00
        -11   -1    0    0    0    0  0.00000000000E+00  0.00000000000E+00  0.45593999997E+02  0.45594000000E+02  0.51100000000E-03 0.  1.
         11   -1    0    0    0    0 -0.00000000000E+00 -0.00000000000E+00 -0.45593999997E+02  0.45594000000E+02  0.51100000000E-03 0. -1.
    9900012    2    1    2    0    0 -0.37869913617E+01 -0.13531455347E+01  0.40459773631E+02  0.50528860945E+02  0.30000003329E+02 0.  0.
         12    1    1    2    0    0  0.37869913617E+01  0.13531455347E+01 -0.40459773631E+02  0.40659139055E+02  0.00000000000E+00 0. -1.
         11    1    3    3    0    0  0.71507792130E+01 -0.12513916405E+01  0.18363931766E+01  0.74881215636E+01  0.51100000000E-03 0. -1.
        -11    1    3    3    0    0 -0.80261472029E+00 -0.43519465252E+01  0.20975071593E+01  0.48972610193E+01  0.51100000000E-03 0.  1.
        -12    1    3    3    0    0 -0.10135155854E+02  0.42501926309E+01  0.36525873295E+02  0.38143478362E+02  0.00000000000E+00 0.  1.
</event>
<event>
 7    1  0.6726285E-013  0.5052886E+02  0.7816164E-02  0.1300439E+00
        -11   -1    0    0    0    0  0.00000000000E+00  0.00000000000E+00  0.45593999997E+02  0.45594000000E+02  0.51100000000E-03 0.  1.
         11   -1    0    0    0    0 -0.00000000000E+00 -0.00000000000E+00 -0.45593999997E+02  0.45594000000E+02  0.51100000000E-03 0. -1.
    9900012    2    1    2    0    0  0.21289067801E+02  0.11440376472E+02  0.32696468473E+02  0.50528859918E+02  0.30000000206E+02 0.  0.
         12    1    1    2    0    0 -0.21289067801E+02 -0.11440376472E+02 -0.32696468473E+02  0.40659140082E+02  0.00000000000E+00 0. -1.
         11    1    3    3    0    0  0.15325343302E+02  0.10935476542E+02  0.27347588683E+02  0.33201527097E+02  0.51100000000E-03 0. -1.
        -11    1    3    3    0    0  0.65421600522E+01  0.45304311531E+01  0.88924969574E+01  0.11933196009E+02  0.51100000000E-03 0.  1.
         12    1    3    3    0    0 -0.57843555312E+00 -0.40255312229E+01 -0.35436171682E+01  0.53941368124E+01  0.00000000000E+00 0. -1.
</event>
<event>
 7    1  0.6726285E-013  0.5052886E+02  0.7816164E-02  0.1300439E+00
        -11   -1    0    0    0    0  0.00000000000E+00  0.00000000000E+00  0.45593999997E+02  0.45594000000E+02  0.51100000000E-03 0. -1.
         11   -1    0    0    0    0 -0.00000000000E+00 -0.00000000000E+00 -0.45593999997E+02  0.45594000000E+02  0.51100000000E-03 0.  1.
    9900012    2    1    2    0    0 -0.67672886074E+01  0.52259288386E-01 -0.40091977668E+02  0.50528860812E+02  0.30000002926E+02 0.  0.
         12    1    1    2    0    0  0.67672886074E+01 -0.52259288386E-01  0.40091977668E+02  0.40659139188E+02  0.00000000000E+00 0. -1.
         11    1    3    3    0    0 -0.20367941689E+01  0.99656344647E+00  0.81120351321E+00  0.24082609057E+01  0.51100000000E-03 0. -1.
        -11    1    3    3    0    0  0.39666693525E+00 -0.12396508899E+02 -0.16091836573E+02  0.20316938305E+02  0.51100000000E-03 0.  1.
        -12    1    3    3    0    0 -0.51271613738E+01  0.11452204741E+02 -0.24811344609E+02  0.27803661602E+02  0.00000000000E+00 0.  1.
</event>
<event>
 7    1  0.6726285E-013  0.5052886E+02  0.7816164E-02  0.1300439E+00
        -11   -1    0    0    0    0  0.00000000000E+00  0.00000000000E+00  0.45593999997E+02  0.45594000000E+02  0.51100000000E-03 0. -1.
         11   -1    0    0    0    0 -0.00000000000E+00 -0.00000000000E+00 -0.45593999997E+02  0.45594000000E+02  0.51100000000E-03 0.  1.
    9900012    2    1    2    0    0  0.17757124150E+02 -0.34154226545E+02 -0.13089639019E+02  0.50528864512E+02  0.30000014172E+02 0.  0.
         12    1    1    2    0    0 -0.17757124150E+02  0.34154226545E+02  0.13089639019E+02  0.40659135488E+02  0.00000000000E+00 0. -1.
         11    1    3    3    0    0  0.17756565132E+02 -0.13937223036E+02 -0.87700030686E+01  0.24216827730E+02  0.51100000000E-03 0. -1.
        -11    1    3    3    0    0 -0.18822114860E+01 -0.51253724170E+01 -0.88888491783E+01  0.10431864765E+02  0.51100000000E-03 0.  1.
         12    1    3    3    0    0  0.18827705042E+01 -0.15091631092E+02  0.45692132278E+01  0.15880172018E+02  0.00000000000E+00 0. -1.
</event>
<event>
 7    1  0.6726285E-013  0.5052887E+02  0.7816164E-02  0.1300439E+00
        -11   -1    0    0    0    0  0.00000000000E+00  0.00000000000E+00  0.45593999997E+02  0.45594000000E+02  0.51100000000E-03 0.  1.
         11   -1    0    0    0    0 -0.00000000000E+00 -0.00000000000E+00 -0.45593999997E+02  0.45594000000E+02  0.51100000000E-03 0. -1.
    9900012    2    1    2    0    0  0.44134026686E+01  0.25955245643E+02  0.30984065317E+02  0.50528865687E+02  0.30000017742E+02 0.  0.
         12    1    1    2    0    0 -0.44134026686E+01 -0.25955245643E+02 -0.30984065317E+02  0.40659134313E+02  0.00000000000E+00 0. -1.
         11    1    3    3    0    0  0.18273931574E+01  0.28409269802E+01 -0.57871597795E+00  0.34271189508E+01  0.51100000000E-03 0.  1.
        -11    1    3    3    0    0 -0.21266885814E+01 -0.25938447479E+01 -0.24882033282E+01  0.41763609712E+01  0.51100000000E-03 0. -1.
        -12    1    3    3    0    0  0.47126980926E+01  0.25708163411E+02  0.34050984623E+02  0.42925385765E+02  0.00000000000E+00 0.  1.
</event>
<event>
 7    1  0.6726285E-013  0.5052887E+02  0.7816164E-02  0.1300439E+00
        -11   -1    0    0    0    0  0.00000000000E+00  0.00000000000E+00  0.45593999997E+02  0.45594000000E+02  0.51100000000E-03 0. -1.
         11   -1    0    0    0    0 -0.00000000000E+00 -0.00000000000E+00 -0.45593999997E+02  0.45594000000E+02  0.51100000000E-03 0.  1.
    9900012    2    1    2    0    0 -0.22969866721E+02  0.17286594781E+02 -0.28752808310E+02  0.50528866684E+02  0.30000020773E+02 0.  0.
         12    1    1    2    0    0  0.22969866721E+02 -0.17286594781E+02  0.28752808310E+02  0.40659133316E+02  0.00000000000E+00 0. -1.
         11    1    3    3    0    0 -0.53930295408E+01  0.94507626576E+01 -0.74969236615E+01  0.13213839226E+02  0.51100000000E-03 0. -1.
        -11    1    3    3    0    0 -0.22355868455E+01  0.82013454385E+01 -0.20220373019E+02  0.21934525316E+02  0.51100000000E-03 0.  1.
         12    1    3    3    0    0 -0.15341250334E+02 -0.36551331516E+00 -0.10355116290E+01  0.15380502142E+02  0.00000000000E+00 0. -1.
</event>
<event>
 7    1  0.6726285E-013  0.5052886E+02  0.7816164E-02  0.1300439E+00
        -11   -1    0    0    0    0  0.00000000000E+00  0.00000000000E+00  0.45593999997E+02  0.45594000000E+02  0.51100000000E-03 0. -1.
         11   -1    0    0    0    0 -0.00000000000E+00 -0.00000000000E+00 -0.45593999997E+02  0.45594000000E+02  0.51100000000E-03 0.  1.
    9900012    2    1    2    0    0  0.25134275669E+02 -0.28819778478E+02  0.13815003831E+02  0.50528858644E+02  0.29999996334E+02 0.  0.
         12    1    1    2    0    0 -0.25134275669E+02  0.28819778478E+02 -0.13815003831E+02  0.40659141356E+02  0.00000000000E+00 0. -1.
         11    1    3    3    0    0  0.18302890813E+02 -0.22397595300E+02  0.15654565376E+02  0.32889413262E+02  0.51100000000E-03 0. -1.
        -11    1    3    3    0    0  0.64262442818E+01 -0.96404101772E+01  0.28557350845E+01  0.11932700746E+02  0.51100000000E-03 0.  1.
         12    1    3    3    0    0  0.40514057464E+00  0.32182269993E+01 -0.46952966295E+01  0.57067446362E+01  0.00000000000E+00 0. -1.
</event>
<event>
 7    1  0.6726285E-013  0.5052893E+02  0.7816164E-02  0.1300439E+00
        -11   -1    0    0    0    0  0.00000000000E+00  0.00000000000E+00  0.45593999997E+02  0.45594000000E+02  0.51100000000E-03 0.  1.
         11   -1    0    0    0    0 -0.00000000000E+00 -0.00000000000E+00 -0.45593999997E+02  0.45594000000E+02  0.51100000000E-03 0. -1.
    9900012    2    1    2    0    0 -0.29269226771E+02  0.97169455896E+01 -0.26496284852E+02  0.50528932397E+02  0.30000220512E+02 0.  0.
         12    1    1    2    0    0  0.29269226771E+02 -0.97169455896E+01  0.26496284852E+02  0.40659067603E+02  0.00000000000E+00 0. -1.
         11    1    3    3    0    0 -0.12322959144E+01 -0.37720550632E+01  0.86685348385E+00  0.40618207548E+01  0.51100000000E-03 0. -1.
        -11    1    3    3    0    0 -0.75477744125E+01  0.44153442648E+01 -0.21639173884E+02  0.23339194721E+02  0.51100000000E-03 0.  1.
        -12    1    3    3    0    0 -0.20489156445E+02  0.90736563880E+01 -0.57239644518E+01  0.23127916921E+02  0.00000000000E+00 0.  1.
</event>
<event>
 7    1  0.6726285E-013  0.5052887E+02  0.7816164E-02  0.1300439E+00
        -11   -1    0    0    0    0  0.00000000000E+00  0.00000000000E+00  0.45593999997E+02  0.45594000000E+02  0.51100000000E-03 0.  1.
         11   -1    0    0    0    0 -0.00000000000E+00 -0.00000000000E+00 -0.45593999997E+02  0.45594000000E+02  0.51100000000E-03 0. -1.
    9900012    2    1    2    0    0 -0.21635081599E+02  0.20321662298E+02  0.27787015594E+02  0.50528868800E+02  0.30000027205E+02 0.  0.
         12    1    1    2    0    0  0.21635081599E+02 -0.20321662298E+02 -0.27787015594E+02  0.40659131200E+02  0.00000000000E+00 0. -1.
         11    1    3    3    0    0 -0.46208121186E+01  0.10530918166E+02  0.13343042094E+02  0.17615019575E+02  0.51100000000E-03 0. -1.
        -11    1    3    3    0    0 -0.77653761992E+01  0.13646438509E+02  0.16399997270E+02  0.22704322544E+02  0.51100000000E-03 0.  1.
         12    1    3    3    0    0 -0.92488932811E+01 -0.38556943770E+01 -0.19560237698E+01  0.10209526681E+02  0.00000000000E+00 0. -1.
</event>
<event>
 7    1  0.6726285E-013  0.5052886E+02  0.7816164E-02  0.1300439E+00
        -11   -1    0    0    0    0  0.00000000000E+00  0.00000000000E+00  0.45593999997E+02  0.45594000000E+02  0.51100000000E-03 0. -1.
         11   -1    0    0    0    0 -0.00000000000E+00 -0.00000000000E+00 -0.45593999997E+02  0.45594000000E+02  0.51100000000E-03 0.  1.
    9900012    2    1    2    0    0  0.13447332926E+02  0.37803912098E+02 -0.65725963844E+01  0.50528861347E+02  0.30000004551E+02 0.  0.
         12    1    1    2    0    0 -0.13447332926E+02 -0.37803912098E+02  0.65725963844E+01  0.40659138653E+02  0.00000000000E+00 0. -1.
         11    1    3    3    0    0  0.48539354429E+01  0.68831203295E+01  0.74252508023E+01  0.11228195959E+02  0.51100000000E-03 0. -1.
        -11    1    3    3    0    0  0.13281120198E+01 -0.22827814059E+01 -0.31096037154E+00  0.26592610060E+01  0.51100000000E-03 0.  1.
        -12    1    3    3    0    0  0.72652854629E+01  0.33203573175E+02 -0.13686886815E+02  0.36641404382E+02  0.00000000000E+00 0.  1.
</event>
<event>
 7    1  0.6726285E-013  0.5052886E+02  0.7816164E-02  0.1300439E+00
        -11   -1    0    0    0    0  0.00000000000E+00  0.00000000000E+00  0.45593999997E+02  0.45594000000E+02  0.51100000000E-03 0.  1.
         11   -1    0    0    0    0 -0.00000000000E+00 -0.00000000000E+00 -0.45593999997E+02  0.45594000000E+02  0.51100000000E-03 0. -1.
    9900012    2    1    2    0    0 -0.58948657955E+01 -0.16108391897E+02  0.36863750758E+02  0.50528857704E+02  0.29999993477E+02 0.  0.
         12    1    1    2    0    0  0.58948657955E+01  0.16108391897E+02 -0.36863750758E+02  0.40659142296E+02  0.00000000000E+00 0. -1.
         11    1    3    3    0    0 -0.12853377279E+02 -0.82710125566E-01  0.11810188467E+02  0.17455563593E+02  0.51100000000E-03 0. -1.
        -11    1    3    3    0    0  0.31681405017E+01 -0.16755785127E+01 -0.40232194953E+00  0.36064582076E+01  0.51100000000E-03 0.  1.
        -12    1    3    3    0    0  0.37903709817E+01 -0.14350103259E+02  0.25455884240E+02  0.29466835904E+02  0.00000000000E+00 0.  1.
</event>
<event>
 7    1  0.6778471E-013  0.5052886E+02  0.7816164E-02  0.1300439E+00
        -11   -1    0    0    0    0  0.00000000000E+00  0.00000000000E+00  0.45593999997E+02  0.45594000000E+02  0.51100000000E-03 0.  1.
         11   -1    0    0    0    0 -0.00000000000E+00 -0.00000000000E+00 -0.45593999997E+02  0.45594000000E+02  0.51100000000E-03 0. -1.
    9900012    2    1    2    0    0  0.36057511941E+02 -0.10222954944E+02  0.15764287482E+02  0.50528859146E+02  0.29999997860E+02 0.  0.
         12    1    1    2    0    0 -0.36057511941E+02  0.10222954944E+02 -0.15764287482E+02  0.40659140854E+02  0.00000000000E+00 0. -1.
         11    1    3    3    0    0  0.15586366586E+02  0.69470074378E+00  0.10157361608E+02  0.18616912407E+02  0.51100000000E-03 0. -1.
        -11    1    3    3    0    0  0.22005547650E+02 -0.36654284992E+01  0.86118852410E+01  0.23913261198E+02  0.51100000000E-03 0.  1.
         12    1    3    3    0    0 -0.15344022942E+01 -0.72522271886E+01 -0.30049593667E+01  0.79986855415E+01  0.00000000000E+00 0. -1.
</event>
<event>
 7    1  0.6726285E-013  0.5052886E+02  0.7816164E-02  0.1300439E+00
        -11   -1    0    0    0    0  0.00000000000E+00  0.00000000000E+00  0.45593999997E+02  0.45594000000E+02  0.51100000000E-03 0.  1.
         11   -1    0    0    0    0 -0.00000000000E+00 -0.00000000000E+00 -0.45593999997E+02  0.45594000000E+02  0.51100000000E-03 0. -1.
    9900012    2    1    2    0    0  0.11026572897E+02  0.40281618770E+01  0.38927556660E+02  0.50528855082E+02  0.29999985506E+02 0.  0.
         12    1    1    2    0    0 -0.11026572897E+02 -0.40281618770E+01 -0.38927556660E+02  0.40659144918E+02  0.00000000000E+00 0. -1.
         11    1    3    3    0    0 -0.21313290749E+01 -0.27947681401E+00  0.81045808278E+01  0.83848018206E+01  0.51100000000E-03 0. -1.
        -11    1    3    3    0    0 -0.31538051070E+01 -0.36607641500E+01 -0.15107060064E+01  0.50625995016E+01  0.51100000000E-03 0.  1.
        -12    1    3    3    0    0  0.16311707079E+02  0.79684028410E+01  0.32333681839E+02  0.37081453759E+02  0.00000000000E+00 0.  1.
</event>
<event>
 7    1  0.6726285E-013  0.5052885E+02  0.7816164E-02  0.1300439E+00
        -11   -1    0    0    0    0  0.00000000000E+00  0.00000000000E+00  0.45593999997E+02  0.45594000000E+02  0.51100000000E-03 0.  1.
         11   -1    0    0    0    0 -0.00000000000E+00 -0.00000000000E+00 -0.45593999997E+02  0.45594000000E+02  0.51100000000E-03 0. -1.
    9900012    2    1    2    0    0  0.14970859940E+02  0.34132403537E+02  0.16248661598E+02  0.50528848235E+02  0.29999964694E+02 0.  0.
         12    1    1    2    0    0 -0.14970859940E+02 -0.34132403537E+02 -0.16248661598E+02  0.40659151765E+02  0.00000000000E+00 0. -1.
         11    1    3    3    0    0  0.17464696129E+02  0.26157638892E+02  0.14841967403E+02  0.34778178215E+02  0.51100000000E-03 0.  1.
        -11    1    3    3    0    0  0.76959759094E+00  0.85676164530E+01  0.57045700412E+01  0.10321746546E+02  0.51100000000E-03 0. -1.
        -12    1    3    3    0    0 -0.32634337801E+01 -0.59285180851E+00 -0.42978758455E+01  0.54289234741E+01  0.00000000000E+00 0.  1.
</event>
<event>
 7    1  0.6726285E-013  0.5052885E+02  0.7816164E-02  0.1300439E+00
        -11   -1    0    0    0    0  0.00000000000E+00  0.00000000000E+00  0.45593999997E+02  0.45594000000E+02  0.51100000000E-03 0.  1.
         11   -1    0    0    0    0 -0.00000000000E+00 -0.00000000000E+00 -0.45593999997E+02  0.45594000000E+02  0.51100000000E-03 0. -1.
    9900012    2    1    2    0    0 -0.37285382924E+02  0.16128413153E+02  0.16854469026E+01  0.50528853159E+02  0.29999979662E+02 0.  0.
         12    1    1    2    0    0  0.37285382924E+02 -0.16128413153E+02 -0.16854469026E+01  0.40659146841E+02  0.00000000000E+00 0. -1.
         11    1    3    3    0    0 -0.66129698435E+01  0.12137707682E+02 -0.53918892626E+01  0.14836704082E+02  0.51100000000E-03 0. -1.
        -11    1    3    3    0    0 -0.88082482397E+01  0.54504344330E+01  0.89638039609E+01  0.13698257344E+02  0.51100000000E-03 0.  1.
        -12    1    3    3    0    0 -0.21864164840E+02 -0.14597289623E+01 -0.18864677957E+01  0.21993891733E+02  0.00000000000E+00 0.  1.
</event>
<event>
 7    1  0.6726285E-013  0.5052885E+02  0.7816164E-02  0.1300439E+00
        -11   -1    0    0    0    0  0.00000000000E+00  0.00000000000E+00  0.45593999997E+02  0.45594000000E+02  0.51100000000E-03 0.  1.
         11   -1    0    0    0    0 -0.00000000000E+00 -0.00000000000E+00 -0.45593999997E+02  0.45594000000E+02  0.51100000000E-03 0. -1.
    9900012    2    1    2    0    0  0.35713452651E+02 -0.13421904189E+02  0.14055884939E+02  0.50528854489E+02  0.29999983704E+02 0.  0.
         12    1    1    2    0    0 -0.35713452651E+02  0.13421904189E+02 -0.14055884939E+02  0.40659145511E+02  0.00000000000E+00 0. -1.
         11    1    3    3    0    0 -0.17648517128E+01  0.14169270075E+01 -0.14837873851E+01  0.27062906307E+01  0.51100000000E-03 0. -1.
        -11    1    3    3    0    0  0.16086017175E+02 -0.13852789152E+02  0.15705596400E+02  0.26406920957E+02  0.51100000000E-03 0.  1.
        -12    1    3    3    0    0  0.21392287189E+02 -0.98604204412E+00 -0.16592407642E+00  0.21415642901E+02  0.00000000000E+00 0.  1.
</event>
<event>
 7    1  0.6726285E-013  0.5052885E+02  0.7816164E-02  0.1300439E+00
        -11   -1    0    0    0    0  0.00000000000E+00  0.00000000000E+00  0.45593999997E+02  0.45594000000E+02  0.51100000000E-03 0.  1.
         11   -1    0    0    0    0 -0.00000000000E+00 -0.00000000000E+00 -0.45593999997E+02  0.45594000000E+02  0.51100000000E-03 0. -1.
    9900012    2    1    2    0    0 -0.35545063551E+02 -0.44333225784E+01  0.19236954724E+02  0.50528851964E+02  0.29999976031E+02 0.  0.
         12    1    1    2    0    0  0.35545063551E+02  0.44333225784E+01 -0.19236954724E+02  0.40659148036E+02  0.00000000000E+00 0. -1.
         11    1    3    3    0    0 -0.12074258934E+02  0.98248703488E+00  0.11156892261E+01  0.12165433502E+02  0.51100000000E-03 0. -1.
        -11    1    3    3    0    0 -0.14198280131E+02  0.48027542435E+01 -0.72458800080E+00  0.15006086600E+02  0.51100000000E-03 0.  1.
         12    1    3    3    0    0 -0.92725244854E+01 -0.10218563857E+02  0.18845853499E+02  0.23357331862E+02  0.00000000000E+00 0. -1.
</event>
<event>
 7    1  0.6726285E-013  0.5052886E+02  0.7816164E-02  0.1300439E+00
        -11   -1    0    0    0    0  0.00000000000E+00  0.00000000000E+00  0.45593999997E+02  0.45594000000E+02  0.51100000000E-03 0. -1.
         11   -1    0    0    0    0 -0.00000000000E+00 -0.00000000000E+00 -0.45593999997E+02  0.45594000000E+02  0.51100000000E-03 0.  1.
    9900012    2    1    2    0    0 -0.23427365630E+02  0.56142749595E+01 -0.32753687067E+02  0.50528861296E+02  0.30000004395E+02 0.  0.
         12    1    1    2    0    0  0.23427365630E+02 -0.56142749595E+01  0.32753687067E+02  0.40659138704E+02  0.00000000000E+00 0. -1.
         11    1    3    3    0    0 -0.79361250301E+01  0.29845188270E+01  0.33591208501E+00  0.84854151526E+01  0.51100000000E-03 0. -1.
        -11    1    3    3    0    0 -0.60455741726E+01  0.52483881479E+01 -0.51096168752E+00  0.80221959173E+01  0.51100000000E-03 0.  1.
        -12    1    3    3    0    0 -0.94456664272E+01 -0.26186320154E+01 -0.32578637465E+02  0.34021250226E+02  0.00000000000E+00 0.  1.
</event>
<event>
 7    1  0.7313849E-013  0.5052886E+02  0.7816164E-02  0.1300439E+00
        -11   -1    0    0    0    0  0.00000000000E+00  0.00000000000E+00  0.45593999997E+02  0.45594000000E+02  0.51100000000E-03 0.  1.
         11   -1    0    0    0    0 -0.00000000000E+00 -0.00000000000E+00 -0.45593999997E+02  0.45594000000E+02  0.51100000000E-03 0. -1.
    9900012    2    1    2    0    0  0.39486518071E+02  0.94028823529E+01  0.23593501723E+01  0.50528857865E+02  0.29999993968E+02 0.  0.
         12    1    1    2    0    0 -0.39486518071E+02 -0.94028823529E+01 -0.23593501723E+01  0.40659142135E+02  0.00000000000E+00 0. -1.
         11    1    3    3    0    0  0.75290896518E+01 -0.80698822462E-01  0.39463767389E+01  0.85010348141E+01  0.51100000000E-03 0. -1.
        -11    1    3    3    0    0  0.36328765233E+02  0.78717086570E+01 -0.25904146312E+01  0.37261954173E+02  0.51100000000E-03 0.  1.
         12    1    3    3    0    0 -0.43713368143E+01  0.16118725184E+01  0.10033880646E+01  0.47658688786E+01  0.00000000000E+00 0. -1.
</event>
<event>
 7    1  0.6726285E-013  0.5052886E+02  0.7816164E-02  0.1300439E+00
        -11   -1    0    0    0    0  0.00000000000E+00  0.00000000000E+00  0.45593999997E+02  0.45594000000E+02  0.51100000000E-03 0. -1.
         11   -1    0    0    0    0 -0.00000000000E+00 -0.00000000000E+00 -0.45593999997E+02  0.45594000000E+02  0.51100000000E-03 0.  1.
    9900012    2    1    2    0    0  0.24470489798E+02  0.14764465091E+02 -0.28920082851E+02  0.50528862128E+02  0.30000006925E+02 0.  0.
         12    1    1    2    0    0 -0.24470489798E+02 -0.14764465091E+02  0.28920082851E+02  0.40659137872E+02  0.00000000000E+00 0. -1.
         11    1    3    3    0    0  0.10217630935E+02  0.13026202847E+02 -0.17049754863E+02  0.23765018066E+02  0.51100000000E-03 0. -1.
        -11    1    3    3    0    0  0.71412350236E+01  0.10390558216E+02 -0.79126760679E+01  0.14885273949E+02  0.51100000000E-03 0.  1.
         12    1    3    3    0    0  0.71116238391E+01 -0.86522959725E+01 -0.39576519205E+01  0.11878570114E+02  0.00000000000E+00 0. -1.
</event>
<event>
 7    1  0.6726285E-013  0.5052886E+02  0.7816164E-02  0.1300439E+00
        -11   -1    0    0    0    0  0.00000000000E+00  0.00000000000E+00  0.45593999997E+02  0.45594000000E+02  0.51100000000E-03 0. -1.
         11   -1    0    0    0    0 -0.00000000000E+00 -0.00000000000E+00 -0.45593999997E+02  0.45594000000E+02  0.51100000000E-03 0.  1.
    9900012    2    1    2    0    0  0.23122118386E+02 -0.33307944592E+02 -0.30189029586E+01  0.50528864414E+02  0.30000013872E+02 0.  0.
         12    1    1    2    0    0 -0.23122118386E+02  0.33307944592E+02  0.30189029586E+01  0.40659135586E+02  0.00000000000E+00 0. -1.
         11    1    3    3    0    0 -0.60176889242E+01 -0.40900163324E+01 -0.40767901545E+01  0.83403256419E+01  0.51100000000E-03 0. -1.
        -11    1    3    3    0    0  0.28269789810E+01 -0.57465480436E+00 -0.14191851423E+01  0.32149844529E+01  0.51100000000E-03 0.  1.
        -12    1    3    3    0    0  0.26312828329E+02 -0.28643273455E+02  0.24770723382E+01  0.38973554319E+02  0.00000000000E+00 0.  1.
</event>
<event>
 7    1  0.6726285E-013  0.5052886E+02  0.7816164E-02  0.1300439E+00
        -11   -1    0    0    0    0  0.00000000000E+00  0.00000000000E+00  0.45593999997E+02  0.45594000000E+02  0.51100000000E-03 0.  1.
         11   -1    0    0    0    0 -0.00000000000E+00 -0.00000000000E+00 -0.45593999997E+02  0.45594000000E+02  0.51100000000E-03 0. -1.
    9900012    2    1    2    0    0  0.12869861357E+02  0.36735289288E+02  0.11749520178E+02  0.50528855459E+02  0.29999986652E+02 0.  0.
         12    1    1    2    0    0 -0.12869861357E+02 -0.36735289288E+02 -0.11749520178E+02  0.40659144541E+02  0.00000000000E+00 0. -1.
         11    1    3    3    0    0 -0.14260771139E+01  0.12249997105E+02  0.38473911865E+01  0.12918921945E+02  0.51100000000E-03 0. -1.
        -11    1    3    3    0    0 -0.22095333943E+01  0.18562083816E+02  0.86070232744E+00  0.18712931416E+02  0.51100000000E-03 0.  1.
         12    1    3    3    0    0  0.16505471865E+02  0.59232083670E+01  0.70414266636E+01  0.18897002098E+02  0.00000000000E+00 0. -1.
</event>
<event>
 7    1  0.6726285E-013  0.5052886E+02  0.7816164E-02  0.1300439E+00
        -11   -1    0    0    0    0  0.00000000000E+00  0.00000000000E+00  0.45593999997E+02  0.45594000000E+02  0.51100000000E-03 0.  1.
         11   -1    0    0    0    0 -0.00000000000E+00 -0.00000000000E+00 -0.45593999997E+02  0.45594000000E+02  0.51100000000E-03 0. -1.
    9900012    2    1    2    0    0  0.16632954936E+02 -0.12064724564E+02  0.35084940229E+02  0.50528858351E+02  0.29999995445E+02 0.  0.
         12    1    1    2    0    0 -0.16632954936E+02  0.12064724564E+02 -0.35084940229E+02  0.40659141649E+02  0.00000000000E+00 0. -1.
         11    1    3    3    0    0 -0.10162069720E+01 -0.31434398927E+01  0.77315484939E+00  0.33928836778E+01  0.51100000000E-03 0. -1.
        -11    1    3    3    0    0  0.79226666789E+00  0.26283950305E+01 -0.33238025706E+01  0.43108944198E+01  0.51100000000E-03 0.  1.
        -12    1    3    3    0    0  0.16856895241E+02 -0.11549679701E+02  0.37635587950E+02  0.42825080254E+02  0.00000000000E+00 0.  1.
</event>
<event>
 7    1  0.6726285E-013  0.5052886E+02  0.7816164E-02  0.1300439E+00
        -11   -1    0    0    0    0  0.00000000000E+00  0.00000000000E+00  0.45593999997E+02  0.45594000000E+02  0.51100000000E-03 0. -1.
         11   -1    0    0    0    0 -0.00000000000E+00 -0.00000000000E+00 -0.45593999997E+02  0.45594000000E+02  0.51100000000E-03 0.  1.
    9900012    2    1    2    0    0  0.10036152013E+02  0.30053440592E+02 -0.25480027025E+02  0.50528863071E+02  0.30000009789E+02 0.  0.
         12    1    1    2    0    0 -0.10036152013E+02 -0.30053440592E+02  0.25480027025E+02  0.40659136929E+02  0.00000000000E+00 0. -1.
         11    1    3    3    0    0  0.37385325316E+01  0.60030475689E+01 -0.74250834015E+00  0.71108736805E+01  0.51100000000E-03 0. -1.
        -11    1    3    3    0    0  0.16229893210E+02  0.16788160905E+02 -0.16996640649E+02  0.28881439954E+02  0.51100000000E-03 0.  1.
        -12    1    3    3    0    0 -0.99322737284E+01  0.72622321178E+01 -0.77408780359E+01  0.14536549436E+02  0.00000000000E+00 0.  1.
</event>
<event>
 7    1  0.7121368E-013  0.5052885E+02  0.7816164E-02  0.1300439E+00
        -11   -1    0    0    0    0  0.00000000000E+00  0.00000000000E+00  0.45593999997E+02  0.45594000000E+02  0.51100000000E-03 0. -1.
         11   -1    0    0    0    0 -0.00000000000E+00 -0.00000000000E+00 -0.45593999997E+02  0.45594000000E+02  0.51100000000E-03 0.  1.
    9900012    2    1    2    0    0  0.30125378776E+02 -0.21867737178E+02  0.16353285734E+02  0.50528851829E+02  0.29999975619E+02 0.  0.
         12    1    1    2    0    0 -0.30125378776E+02  0.21867737178E+02 -0.16353285734E+02  0.40659148171E+02  0.00000000000E+00 0. -1.
         11    1    3    3    0    0 -0.21746542555E+01 -0.33105308346E+00 -0.38553376801E+01  0.44387324952E+01  0.51100000000E-03 0. -1.
        -11    1    3    3    0    0  0.37105276767E+01 -0.96913832970E+01  0.64872984762E+01  0.12238299213E+02  0.51100000000E-03 0.  1.
         12    1    3    3    0    0  0.28589505355E+02 -0.11845300798E+02  0.13721324938E+02  0.33851820121E+02  0.00000000000E+00 0. -1.
</event>
<event>
 7    1  0.6726285E-013  0.5052885E+02  0.7816164E-02  0.1300439E+00
        -11   -1    0    0    0    0  0.00000000000E+00  0.00000000000E+00  0.45593999997E+02  0.45594000000E+02  0.51100000000E-03 0.  1.
         11   -1    0    0    0    0 -0.00000000000E+00 -0.00000000000E+00 -0.45593999997E+02  0.45594000000E+02  0.51100000000E-03 0. -1.
    9900012    2    1    2    0    0 -0.57283002571E+01 -0.40243727304E+02  0.89178076925E+00  0.50528852393E+02  0.29999977335E+02 0.  0.
         12    1    1    2    0    0  0.57283002571E+01  0.40243727304E+02 -0.89178076925E+00  0.40659147607E+02  0.00000000000E+00 0. -1.
         11    1    3    3    0    0 -0.58239244554E+01 -0.89561646172E+01 -0.50397622901E+01  0.11812289571E+02  0.51100000000E-03 0. -1.
        -11    1    3    3    0    0 -0.10298839097E+02 -0.94300081119E+01  0.87900551534E+00  0.13991561410E+02  0.51100000000E-03 0.  1.
        -12    1    3    3    0    0  0.10394463295E+02 -0.21857554575E+02  0.50525375440E+01  0.24725001412E+02  0.00000000000E+00 0.  1.
</event>
<event>
 7    1  0.6726285E-013  0.5052886E+02  0.7816164E-02  0.1300439E+00
        -11   -1    0    0    0    0  0.00000000000E+00  0.00000000000E+00  0.45593999997E+02  0.45594000000E+02  0.51100000000E-03 0. -1.
         11   -1    0    0    0    0 -0.00000000000E+00 -0.00000000000E+00 -0.45593999997E+02  0.45594000000E+02  0.51100000000E-03 0.  1.
    9900012    2    1    2    0    0 -0.29165879431E+02 -0.98697554606E+01  0.26553821133E+02  0.50528855732E+02  0.29999987483E+02 0.  0.
         12    1    1    2    0    0  0.29165879431E+02  0.98697554606E+01 -0.26553821133E+02  0.40659144268E+02  0.00000000000E+00 0. -1.
         11    1    3    3    0    0 -0.11974148345E+02  0.65764947753E+01  0.99008475568E+01  0.16871789908E+02  0.51100000000E-03 0.  1.
        -11    1    3    3    0    0 -0.15720261956E+01  0.17136579869E+01  0.77687342209E+01  0.81093231353E+01  0.51100000000E-03 0. -1.
        -12    1    3    3    0    0 -0.15619704891E+02 -0.18159908223E+02  0.88842393555E+01  0.25547742688E+02  0.00000000000E+00 0.  1.
</event>
<event>
 7    1  0.6726285E-013  0.5052886E+02  0.7816164E-02  0.1300439E+00
        -11   -1    0    0    0    0  0.00000000000E+00  0.00000000000E+00  0.45593999997E+02  0.45594000000E+02  0.51100000000E-03 0.  1.
         11   -1    0    0    0    0 -0.00000000000E+00 -0.00000000000E+00 -0.45593999997E+02  0.45594000000E+02  0.51100000000E-03 0. -1.
    9900012    2    1    2    0    0 -0.15803677825E+02  0.15975631914E+02  0.33884928398E+02  0.50528863015E+02  0.30000009619E+02 0.  0.
         12    1    1    2    0    0  0.15803677825E+02 -0.15975631914E+02 -0.33884928398E+02  0.40659136985E+02  0.00000000000E+00 0. -1.
         11    1    3    3    0    0 -0.44143266251E+01 -0.10555320073E+01  0.22344759037E+02  0.22801067608E+02  0.51100000000E-03 0. -1.
        -11    1    3    3    0    0 -0.49457468572E+01 -0.18261956139E+01  0.27684309651E+01  0.59547974496E+01  0.51100000000E-03 0.  1.
         12    1    3    3    0    0 -0.64436043424E+01  0.18857359535E+02  0.87717383958E+01  0.21772997957E+02  0.00000000000E+00 0. -1.
</event>
<event>
 7    1  0.6726285E-013  0.5052886E+02  0.7816164E-02  0.1300439E+00
        -11   -1    0    0    0    0  0.00000000000E+00  0.00000000000E+00  0.45593999997E+02  0.45594000000E+02  0.51100000000E-03 0.  1.
         11   -1    0    0    0    0 -0.00000000000E+00 -0.00000000000E+00 -0.45593999997E+02  0.45594000000E+02  0.51100000000E-03 0. -1.
    9900012    2    1    2    0    0  0.39821054580E+01  0.27995230863E+02  0.29216008532E+02  0.50528864871E+02  0.30000015261E+02 0.  0.
         12    1    1    2    0    0 -0.39821054580E+01 -0.27995230863E+02 -0.29216008532E+02  0.40659135129E+02  0.00000000000E+00 0. -1.
         11    1    3    3    0    0  0.35098419300E+01  0.81320705222E+01  0.19277251267E+02  0.21214664221E+02  0.51100000000E-03 0. -1.
        -11    1    3    3    0    0  0.93724431081E+01  0.12237955003E+02  0.82185866815E+01  0.17468697712E+02  0.51100000000E-03 0.  1.
         12    1    3    3    0    0 -0.89001795801E+01  0.76252053375E+01  0.17201705831E+01  0.11845502937E+02  0.00000000000E+00 0. -1.
</event>
<event>
 7    1  0.6726285E-013  0.5052886E+02  0.7816164E-02  0.1300439E+00
        -11   -1    0    0    0    0  0.00000000000E+00  0.00000000000E+00  0.45593999997E+02  0.45594000000E+02  0.51100000000E-03 0.  1.
         11   -1    0    0    0    0 -0.00000000000E+00 -0.00000000000E+00 -0.45593999997E+02  0.45594000000E+02  0.51100000000E-03 0. -1.
    9900012    2    1    2    0    0 -0.25076192209E+02  0.60735464880E+01  0.31423916223E+02  0.50528857198E+02  0.29999991939E+02 0.  0.
         12    1    1    2    0    0  0.25076192209E+02 -0.60735464880E+01 -0.31423916223E+02  0.40659142802E+02  0.00000000000E+00 0. -1.
         11    1    3    3    0    0  0.11463650824E+01  0.54167112265E+01  0.32300663277E+01  0.64100110886E+01  0.51100000000E-03 0. -1.
        -11    1    3    3    0    0 -0.19458195713E+02  0.78409139200E+01  0.26980947129E+02  0.34177080328E+02  0.51100000000E-03 0.  1.
         12    1    3    3    0    0 -0.67643615775E+01 -0.71840786585E+01  0.12129027658E+01  0.99417657809E+01  0.00000000000E+00 0. -1.
</event>
<event>
 7    1  0.6726285E-013  0.5052887E+02  0.7816164E-02  0.1300439E+00
        -11   -1    0    0    0    0  0.00000000000E+00  0.00000000000E+00  0.45593999997E+02  0.45594000000E+02  0.51100000000E-03 0.  1.
         11   -1    0    0    0    0 -0.00000000000E+00 -0.00000000000E+00 -0.45593999997E+02  0.45594000000E+02  0.51100000000E-03 0. -1.
    9900012    2    1    2    0    0  0.31617658243E+02 -0.25440358277E+02  0.25052765059E+01  0.50528873688E+02  0.30000042064E+02 0.  0.
         12    1    1    2    0    0 -0.31617658243E+02  0.25440358277E+02 -0.25052765059E+01  0.40659126312E+02  0.00000000000E+00 0. -1.
         11    1    3    3    0    0  0.14618468877E+02 -0.86357106630E+01  0.14564177771E+02  0.22369407801E+02  0.51100000000E-03 0.  1.
        -11    1    3    3    0    0  0.57882121075E+01 -0.81115600233E+00 -0.36787056842E+01  0.69061023185E+01  0.51100000000E-03 0. -1.
        -12    1    3    3    0    0  0.11210977258E+02 -0.15993491612E+02 -0.83801955806E+01  0.21253363569E+02  0.00000000000E+00 0.  1.
</event>
<event>
 7    1  0.6726285E-013  0.5052883E+02  0.7816164E-02  0.1300439E+00
        -11   -1    0    0    0    0  0.00000000000E+00  0.00000000000E+00  0.45593999997E+02  0.45594000000E+02  0.51100000000E-03 0. -1.
         11   -1    0    0    0    0 -0.00000000000E+00 -0.00000000000E+00 -0.45593999997E+02  0.45594000000E+02  0.51100000000E-03 0.  1.
    9900012    2    1    2    0    0  0.21486260951E+02 -0.31948719486E+02 -0.13068582043E+02  0.50528832239E+02  0.29999916072E+02 0.  0.
         12    1    1    2    0    0 -0.21486260951E+02  0.31948719486E+02  0.13068582043E+02  0.40659167761E+02  0.00000000000E+00 0. -1.
         11    1    3    3    0    0  0.16380384415E+02 -0.30418290507E+02 -0.10049031861E+02  0.35980167211E+02  0.51100000000E-03 0.  1.
        -11    1    3    3    0    0  0.69965812780E+01 -0.58216541400E+01 -0.36711358583E+01  0.98143285688E+01  0.51100000000E-03 0. -1.
         12    1    3    3    0    0 -0.18907047420E+01  0.42912251613E+01  0.65158567596E+00  0.47343364582E+01  0.00000000000E+00 0. -1.
</event>
<event>
 7    1  0.6726285E-013  0.5052885E+02  0.7816164E-02  0.1300439E+00
        -11   -1    0    0    0    0  0.00000000000E+00  0.00000000000E+00  0.45593999997E+02  0.45594000000E+02  0.51100000000E-03 0.  1.
         11   -1    0    0    0    0 -0.00000000000E+00 -0.00000000000E+00 -0.45593999997E+02  0.45594000000E+02  0.51100000000E-03 0. -1.
    9900012    2    1    2    0    0 -0.13296610919E+02  0.37327050842E+02 -0.91135969649E+01  0.50528852983E+02  0.29999979127E+02 0.  0.
         12    1    1    2    0    0  0.13296610919E+02 -0.37327050842E+02  0.91135969649E+01  0.40659147017E+02  0.00000000000E+00 0. -1.
         11    1    3    3    0    0 -0.53261354035E+01  0.19702075834E+02 -0.12199973486E+02  0.23777696773E+02  0.51100000000E-03 0. -1.
        -11    1    3    3    0    0 -0.12286359288E+02  0.50951910743E+01  0.10363660929E+01  0.13341276235E+02  0.51100000000E-03 0.  1.
         12    1    3    3    0    0  0.43158837727E+01  0.12529783934E+02  0.20500104287E+01  0.13409879974E+02  0.00000000000E+00 0. -1.
</event>
<event>
 7    1  0.7203090E-013  0.5052886E+02  0.7816164E-02  0.1300439E+00
        -11   -1    0    0    0    0  0.00000000000E+00  0.00000000000E+00  0.45593999997E+02  0.45594000000E+02  0.51100000000E-03 0.  1.
         11   -1    0    0    0    0 -0.00000000000E+00 -0.00000000000E+00 -0.45593999997E+02  0.45594000000E+02  0.51100000000E-03 0. -1.
    9900012    2    1    2    0    0  0.78431480784E+00 -0.39507324323E+02  0.95771607164E+01  0.50528857949E+02  0.29999994222E+02 0.  0.
         12    1    1    2    0    0 -0.78431480784E+00  0.39507324323E+02 -0.95771607164E+01  0.40659142051E+02  0.00000000000E+00 0. -1.
         11    1    3    3    0    0 -0.40836589451E+01 -0.89013190018E+01 -0.50398086148E+01  0.11014055633E+02  0.51100000000E-03 0. -1.
        -11    1    3    3    0    0 -0.14859354886E+01 -0.26741634702E+02  0.48170758634E+01  0.27212630357E+02  0.51100000000E-03 0.  1.
         12    1    3    3    0    0  0.63539092415E+01 -0.38643706197E+01  0.97998934677E+01  0.12302171959E+02  0.00000000000E+00 0. -1.
</event>
<event>
 7    1  0.7928176E-013  0.5052886E+02  0.7816164E-02  0.1300439E+00
        -11   -1    0    0    0    0  0.00000000000E+00  0.00000000000E+00  0.45593999997E+02  0.45594000000E+02  0.51100000000E-03 0.  1.
         11   -1    0    0    0    0 -0.00000000000E+00 -0.00000000000E+00 -0.45593999997E+02  0.45594000000E+02  0.51100000000E-03 0. -1.
    9900012    2    1    2    0    0  0.28288372299E+01  0.30381393119E+02  0.26872563110E+02  0.50528855690E+02  0.29999987355E+02 0.  0.
         12    1    1    2    0    0 -0.28288372299E+01 -0.30381393119E+02 -0.26872563110E+02  0.40659144310E+02  0.00000000000E+00 0. -1.
         11    1    3    3    0    0 -0.40946453786E+01  0.60754190977E+01 -0.55146336395E+00  0.73471729320E+01  0.51100000000E-03 0. -1.
        -11    1    3    3    0    0 -0.35182361389E+00  0.14153504561E+02  0.27229291450E+02  0.30690060025E+02  0.51100000000E-03 0.  1.
         12    1    3    3    0    0  0.72753062225E+01  0.10152469460E+02  0.19473502408E+00  0.12491622733E+02  0.00000000000E+00 0. -1.
</event>
<event>
 7    1  0.6726285E-013  0.5052886E+02  0.7816164E-02  0.1300439E+00
        -11   -1    0    0    0    0  0.00000000000E+00  0.00000000000E+00  0.45593999997E+02  0.45594000000E+02  0.51100000000E-03 0.  1.
         11   -1    0    0    0    0 -0.00000000000E+00 -0.00000000000E+00 -0.45593999997E+02  0.45594000000E+02  0.51100000000E-03 0. -1.
    9900012    2    1    2    0    0  0.90664960774E+01  0.56650300301E+01  0.39228452317E+02  0.50528863418E+02  0.30000010846E+02 0.  0.
         12    1    1    2    0    0 -0.90664960774E+01 -0.56650300301E+01 -0.39228452317E+02  0.40659136582E+02  0.00000000000E+00 0. -1.
         11    1    3    3    0    0 -0.14157592704E+01 -0.82869303638E+00 -0.20644896187E+00  0.16533988917E+01  0.51100000000E-03 0. -1.
        -11    1    3    3    0    0 -0.27350204637E+00 -0.71980114496E+01  0.25724953794E+02  0.26714404732E+02  0.51100000000E-03 0.  1.
        -12    1    3    3    0    0  0.10755757394E+02  0.13691734516E+02  0.13709947485E+02  0.22161059795E+02  0.00000000000E+00 0.  1.
</event>
<event>
 7    1  0.6726285E-013  0.5052886E+02  0.7816164E-02  0.1300439E+00
        -11   -1    0    0    0    0  0.00000000000E+00  0.00000000000E+00  0.45593999997E+02  0.45594000000E+02  0.51100000000E-03 0.  1.
         11   -1    0    0    0    0 -0.00000000000E+00 -0.00000000000E+00 -0.45593999997E+02  0.45594000000E+02  0.51100000000E-03 0. -1.
    9900012    2    1    2    0    0  0.21588950546E+02 -0.33755468937E+02  0.69029560513E+01  0.50528864851E+02  0.30000015201E+02 0.  0.
         12    1    1    2    0    0 -0.21588950546E+02  0.33755468937E+02 -0.69029560513E+01  0.40659135149E+02  0.00000000000E+00 0. -1.
         11    1    3    3    0    0  0.25843753001E+00 -0.18502146117E+01  0.81384161225E-01  0.18699485846E+01  0.51100000000E-03 0. -1.
        -11    1    3    3    0    0  0.21078423198E+02 -0.13254336866E+02  0.14125751284E+02  0.28627158781E+02  0.51100000000E-03 0.  1.
         12    1    3    3    0    0  0.25208981843E+00 -0.18650917459E+02 -0.73041793942E+01  0.20031757485E+02  0.00000000000E+00 0. -1.
</event>
<event>
 7    1  0.6726285E-013  0.5052886E+02  0.7816164E-02  0.1300439E+00
        -11   -1    0    0    0    0  0.00000000000E+00  0.00000000000E+00  0.45593999997E+02  0.45594000000E+02  0.51100000000E-03 0. -1.
         11   -1    0    0    0    0 -0.00000000000E+00 -0.00000000000E+00 -0.45593999997E+02  0.45594000000E+02  0.51100000000E-03 0.  1.
    9900012    2    1    2    0    0 -0.88637810427E+01 -0.28928512246E+02 -0.27161375116E+02  0.50528859166E+02  0.29999997922E+02 0.  0.
         12    1    1    2    0    0  0.88637810427E+01  0.28928512246E+02  0.27161375116E+02  0.40659140834E+02  0.00000000000E+00 0. -1.
         11    1    3    3    0    0 -0.18436058305E+01 -0.52877000506E+01 -0.12578497345E+02  0.13768705458E+02  0.51100000000E-03 0. -1.
        -11    1    3    3    0    0 -0.11485800074E+01  0.18665990372E+01 -0.99379087529E+01  0.10176711583E+02  0.51100000000E-03 0.  1.
        -12    1    3    3    0    0 -0.58715952048E+01 -0.25507411233E+02 -0.46449690185E+01  0.26583442125E+02  0.00000000000E+00 0.  1.
</event>
<event>
 7    1  0.6726285E-013  0.5052879E+02  0.7816164E-02  0.1300439E+00
        -11   -1    0    0    0    0  0.00000000000E+00  0.00000000000E+00  0.45593999997E+02  0.45594000000E+02  0.51100000000E-03 0.  1.
         11   -1    0    0    0    0 -0.00000000000E+00 -0.00000000000E+00 -0.45593999997E+02  0.45594000000E+02  0.51100000000E-03 0. -1.
    9900012    2    1    2    0    0 -0.43334723647E+01 -0.15501391603E+02  0.37337635227E+02  0.50528792817E+02  0.29999796247E+02 0.  0.
         12    1    1    2    0    0  0.43334723647E+01  0.15501391603E+02 -0.37337635227E+02  0.40659207183E+02  0.00000000000E+00 0. -1.
         11    1    3    3    0    0  0.79755180440E+01 -0.77865300308E+01  0.98429131263E+01  0.14870167352E+02  0.51100000000E-03 0. -1.
        -11    1    3    3    0    0  0.29527541970E+01 -0.59132965855E+01  0.12750082453E+02  0.14361421819E+02  0.51100000000E-03 0.  1.
        -12    1    3    3    0    0 -0.15261744606E+02 -0.18015649862E+01  0.14744639648E+02  0.21297203647E+02  0.00000000000E+00 0.  1.
</event>
<event>
 7    1  0.6726285E-013  0.5052886E+02  0.7816164E-02  0.1300439E+00
        -11   -1    0    0    0    0  0.00000000000E+00  0.00000000000E+00  0.45593999997E+02  0.45594000000E+02  0.51100000000E-03 0. -1.
         11   -1    0    0    0    0 -0.00000000000E+00 -0.00000000000E+00 -0.45593999997E+02  0.45594000000E+02  0.51100000000E-03 0.  1.
    9900012    2    1    2    0    0 -0.30937430395E+02 -0.87133276563E+01 -0.24902188561E+02  0.50528859903E+02  0.30000000162E+02 0.  0.
         12    1    1    2    0    0  0.30937430395E+02  0.87133276563E+01  0.24902188561E+02  0.40659140097E+02  0.00000000000E+00 0. -1.
         11    1    3    3    0    0 -0.15135104631E+01  0.10724913697E+01 -0.22943479013E+01  0.29504210231E+01  0.51100000000E-03 0.  1.
        -11    1    3    3    0    0  0.52648652721E+01 -0.20577294954E+01 -0.63366156120E+01  0.84915107422E+01  0.51100000000E-03 0. -1.
         12    1    3    3    0    0 -0.34688785204E+02 -0.77280895307E+01 -0.16271225048E+02  0.39086928138E+02  0.00000000000E+00 0. -1.
</event>
<event>
 7    1  0.6726285E-013  0.5052887E+02  0.7816164E-02  0.1300439E+00
        -11   -1    0    0    0    0  0.00000000000E+00  0.00000000000E+00  0.45593999997E+02  0.45594000000E+02  0.51100000000E-03 0.  1.
         11   -1    0    0    0    0 -0.00000000000E+00 -0.00000000000E+00 -0.45593999997E+02  0.45594000000E+02  0.51100000000E-03 0. -1.
    9900012    2    1    2    0    0 -0.25117630881E+02 -0.31317775370E+02  0.64394725176E+01  0.50528865215E+02  0.30000016307E+02 0.  0.
         12    1    1    2    0    0  0.25117630881E+02  0.31317775370E+02 -0.64394725176E+01  0.40659134785E+02  0.00000000000E+00 0. -1.
         11    1    3    3    0    0 -0.45691578659E+01 -0.31309667691E+00  0.25730161206E+01  0.52531557516E+01  0.51100000000E-03 0. -1.
        -11    1    3    3    0    0 -0.14841718312E+02 -0.94679145671E+01  0.12275370282E+02  0.21461657078E+02  0.51100000000E-03 0.  1.
         12    1    3    3    0    0 -0.57067547023E+01 -0.21536764126E+02 -0.84089138854E+01  0.23814052385E+02  0.00000000000E+00 0. -1.
</event>
<event>
 7    1  0.6726285E-013  0.5052885E+02  0.7816164E-02  0.1300439E+00
        -11   -1    0    0    0    0  0.00000000000E+00  0.00000000000E+00  0.45593999997E+02  0.45594000000E+02  0.51100000000E-03 0. -1.
         11   -1    0    0    0    0 -0.00000000000E+00 -0.00000000000E+00 -0.45593999997E+02  0.45594000000E+02  0.51100000000E-03 0.  1.
    9900012    2    1    2    0    0 -0.22298950900E+02  0.13399092831E+02 -0.31247199942E+02  0.50528850917E+02  0.29999972847E+02 0.  0.
         12    1    1    2    0    0  0.22298950900E+02 -0.13399092831E+02  0.31247199942E+02  0.40659149083E+02  0.00000000000E+00 0. -1.
         11    1    3    3    0    0 -0.25163543591E+01  0.12381106823E+02 -0.69233011196E+01  0.14406802007E+02  0.51100000000E-03 0. -1.
        -11    1    3    3    0    0 -0.74621326402E+01  0.85777134958E+01 -0.15372379332E+02  0.19119901646E+02  0.51100000000E-03 0.  1.
        -12    1    3    3    0    0 -0.12320463900E+02 -0.75597274873E+01 -0.89515194908E+01  0.17002147264E+02  0.00000000000E+00 0.  1.
</event>
<event>
 7    1  0.6726285E-013  0.5052886E+02  0.7816164E-02  0.1300439E+00
        -11   -1    0    0    0    0  0.00000000000E+00  0.00000000000E+00  0.45593999997E+02  0.45594000000E+02  0.51100000000E-03 0. -1.
         11   -1    0    0    0    0 -0.00000000000E+00 -0.00000000000E+00 -0.45593999997E+02  0.45594000000E+02  0.51100000000E-03 0.  1.
    9900012    2    1    2    0    0 -0.27329272851E+02 -0.26206560055E+02 -0.14815288364E+02  0.50528859406E+02  0.29999998651E+02 0.  0.
         12    1    1    2    0    0  0.27329272851E+02  0.26206560055E+02  0.14815288364E+02  0.40659140594E+02  0.00000000000E+00 0. -1.
         11    1    3    3    0    0 -0.14851190782E+02 -0.10023963258E+01 -0.11466675812E+02  0.18789553493E+02  0.51100000000E-03 0. -1.
        -11    1    3    3    0    0 -0.99406705022E+01 -0.19192336346E+02 -0.87010301591E+01  0.23299584343E+02  0.51100000000E-03 0.  1.
         12    1    3    3    0    0 -0.25374115672E+01 -0.60118273835E+01  0.53524176065E+01  0.84397215703E+01  0.00000000000E+00 0. -1.
</event>
<event>
 7    1  0.6726285E-013  0.5052886E+02  0.7816164E-02  0.1300439E+00
        -11   -1    0    0    0    0  0.00000000000E+00  0.00000000000E+00  0.45593999997E+02  0.45594000000E+02  0.51100000000E-03 0. -1.
         11   -1    0    0    0    0 -0.00000000000E+00 -0.00000000000E+00 -0.45593999997E+02  0.45594000000E+02  0.51100000000E-03 0.  1.
    9900012    2    1    2    0    0  0.32738149896E+02  0.85004448540E+01 -0.22563721271E+02  0.50528861557E+02  0.30000005188E+02 0.  0.
         12    1    1    2    0    0 -0.32738149896E+02 -0.85004448540E+01  0.22563721271E+02  0.40659138443E+02  0.00000000000E+00 0. -1.
         11    1    3    3    0    0  0.30928514449E+01 -0.48972174213E+01  0.80195534088E+00  0.58473584772E+01  0.51100000000E-03 0. -1.
        -11    1    3    3    0    0  0.22698828198E+01 -0.44668059299E+01 -0.10990855789E+01  0.51295918553E+01  0.51100000000E-03 0.  1.
        -12    1    3    3    0    0  0.27375415632E+02  0.17864468205E+02 -0.22266591033E+02  0.39551911224E+02  0.00000000000E+00 0.  1.
</event>
<event>
 7    1  0.6726285E-013  0.5052887E+02  0.7816164E-02  0.1300439E+00
        -11   -1    0    0    0    0  0.00000000000E+00  0.00000000000E+00  0.45593999997E+02  0.45594000000E+02  0.51100000000E-03 0.  1.
         11   -1    0    0    0    0 -0.00000000000E+00 -0.00000000000E+00 -0.45593999997E+02  0.45594000000E+02  0.51100000000E-03 0. -1.
    9900012    2    1    2    0    0 -0.12185566701E+02  0.30604695083E+01  0.38669245370E+02  0.50528867607E+02  0.30000023578E+02 0.  0.
         12    1    1    2    0    0  0.12185566701E+02 -0.30604695083E+01 -0.38669245370E+02  0.40659132393E+02  0.00000000000E+00 0. -1.
         11    1    3    3    0    0 -0.37097849601E+01 -0.34797241200E+01  0.15879787301E+02  0.16674490379E+02  0.51100000000E-03 0. -1.
        -11    1    3    3    0    0 -0.60948480462E+01 -0.22406285286E+01  0.23828381877E+02  0.24697355568E+02  0.51100000000E-03 0.  1.
         12    1    3    3    0    0 -0.23809336946E+01  0.87808221569E+01 -0.10389238079E+01  0.91570216603E+01  0.00000000000E+00 0. -1.
</event>
<event>
 7    1  0.6726285E-013  0.5052886E+02  0.7816164E-02  0.1300439E+00
        -11   -1    0    0    0    0  0.00000000000E+00  0.00000000000E+00  0.45593999997E+02  0.45594000000E+02  0.51100000000E-03 0.  1.
         11   -1    0    0    0    0 -0.00000000000E+00 -0.00000000000E+00 -0.45593999997E+02  0.45594000000E+02  0.51100000000E-03 0. -1.
    9900012    2    1    2    0    0  0.22803729141E+02 -0.25543926678E+02  0.21924038426E+02  0.50528859407E+02  0.29999998653E+02 0.  0.
         12    1    1    2    0    0 -0.22803729141E+02  0.25543926678E+02 -0.21924038426E+02  0.40659140593E+02  0.00000000000E+00 0. -1.
         11    1    3    3    0    0  0.32913094072E+00 -0.96547432596E+01 -0.13147843589E+01  0.97494129442E+01  0.51100000000E-03 0. -1.
        -11    1    3    3    0    0  0.68038375938E+01 -0.15857861840E+02  0.15943243082E+02  0.23493637190E+02  0.51100000000E-03 0.  1.
        -12    1    3    3    0    0  0.15670760607E+02 -0.31321578503E-01  0.72955797021E+01  0.17285809273E+02  0.00000000000E+00 0.  1.
</event>
<event>
 7    1  0.6726285E-013  0.5052886E+02  0.7816164E-02  0.1300439E+00
        -11   -1    0    0    0    0  0.00000000000E+00  0.00000000000E+00  0.45593999997E+02  0.45594000000E+02  0.51100000000E-03 0.  1.
         11   -1    0    0    0    0 -0.00000000000E+00 -0.00000000000E+00 -0.45593999997E+02  0.45594000000E+02  0.51100000000E-03 0. -1.
    9900012    2    1    2    0    0 -0.29279712828E+02 -0.27853862664E+02  0.44751009685E+01  0.50528858626E+02  0.29999996279E+02 0.  0.
         12    1    1    2    0    0  0.29279712828E+02  0.27853862664E+02 -0.44751009685E+01  0.40659141374E+02  0.00000000000E+00 0. -1.
         11    1    3    3    0    0 -0.14273148463E+02 -0.21261613804E+01  0.10728154041E+02  0.17981563298E+02  0.51100000000E-03 0. -1.
        -11    1    3    3    0    0 -0.42436418653E+01 -0.27612281722E+01  0.25895533173E+01  0.56867094127E+01  0.51100000000E-03 0.  1.
        -12    1    3    3    0    0 -0.10762922500E+02 -0.22966473111E+02 -0.88426063903E+01  0.26860585915E+02  0.00000000000E+00 0.  1.
</event>
<event>
 7    1  0.6726285E-013  0.5052885E+02  0.7816164E-02  0.1300439E+00
        -11   -1    0    0    0    0  0.00000000000E+00  0.00000000000E+00  0.45593999997E+02  0.45594000000E+02  0.51100000000E-03 0. -1.
         11   -1    0    0    0    0 -0.00000000000E+00 -0.00000000000E+00 -0.45593999997E+02  0.45594000000E+02  0.51100000000E-03 0.  1.
    9900012    2    1    2    0    0 -0.23308539926E+02 -0.10197132231E+02 -0.31715874154E+02  0.50528853273E+02  0.29999980008E+02 0.  0.
         12    1    1    2    0    0  0.23308539926E+02  0.10197132231E+02  0.31715874154E+02  0.40659146727E+02  0.00000000000E+00 0. -1.
         11    1    3    3    0    0 -0.10845236739E+02  0.37791688789E+01 -0.22680480620E+02  0.25422538794E+02  0.51100000000E-03 0. -1.
        -11    1    3    3    0    0 -0.47369300702E+00  0.12334410030E+01 -0.51971534606E+01  0.53624776109E+01  0.51100000000E-03 0.  1.
         12    1    3    3    0    0 -0.11989610180E+02 -0.15209742113E+02 -0.38382400737E+01  0.19743836868E+02  0.00000000000E+00 0. -1.
</event>
<event>
 7    1  0.6726285E-013  0.5052883E+02  0.7816164E-02  0.1300439E+00
        -11   -1    0    0    0    0  0.00000000000E+00  0.00000000000E+00  0.45593999997E+02  0.45594000000E+02  0.51100000000E-03 0.  1.
         11   -1    0    0    0    0 -0.00000000000E+00 -0.00000000000E+00 -0.45593999997E+02  0.45594000000E+02  0.51100000000E-03 0. -1.
    9900012    2    1    2    0    0  0.73541461681E+01 -0.35838419631E+01  0.39827633226E+02  0.50528834275E+02  0.29999922263E+02 0.  0.
         12    1    1    2    0    0 -0.73541461681E+01  0.35838419631E+01 -0.39827633226E+02  0.40659165725E+02  0.00000000000E+00 0. -1.
         11    1    3    3    0    0  0.99719741350E+01 -0.29819098292E+01  0.16373922337E+02  0.19401994417E+02  0.51100000000E-03 0. -1.
        -11    1    3    3    0    0 -0.46612379311E+01 -0.92267128795E+01  0.71485255859E+01  0.12568245221E+02  0.51100000000E-03 0.  1.
        -12    1    3    3    0    0  0.20434099642E+01  0.86247807456E+01  0.16305185302E+02  0.18558594638E+02  0.00000000000E+00 0.  1.
</event>
<event>
 7    1  0.6726285E-013  0.5052887E+02  0.7816164E-02  0.1300439E+00
        -11   -1    0    0    0    0  0.00000000000E+00  0.00000000000E+00  0.45593999997E+02  0.45594000000E+02  0.51100000000E-03 0.  1.
         11   -1    0    0    0    0 -0.00000000000E+00 -0.00000000000E+00 -0.45593999997E+02  0.45594000000E+02  0.51100000000E-03 0. -1.
    9900012    2    1    2    0    0  0.28790933868E+02  0.22303315970E+02  0.18077872155E+02  0.50528865258E+02  0.30000016439E+02 0.  0.
         12    1    1    2    0    0 -0.28790933868E+02 -0.22303315970E+02 -0.18077872155E+02  0.40659134742E+02  0.00000000000E+00 0. -1.
         11    1    3    3    0    0  0.10041952897E+02 -0.41994091720E+01  0.32362207416E+01  0.11355570454E+02  0.51100000000E-03 0. -1.
        -11    1    3    3    0    0  0.77276348027E+01  0.59970581375E+00  0.55358135895E+01  0.95247687146E+01  0.51100000000E-03 0.  1.
        -12    1    3    3    0    0  0.11021346168E+02  0.25903019328E+02  0.93058378241E+01  0.29648526090E+02  0.00000000000E+00 0.  1.
</event>
<event>
 7    1  0.6726285E-013  0.5052886E+02  0.7816164E-02  0.1300439E+00
        -11   -1    0    0    0    0  0.00000000000E+00  0.00000000000E+00  0.45593999997E+02  0.45594000000E+02  0.51100000000E-03 0. -1.
         11   -1    0    0    0    0 -0.00000000000E+00 -0.00000000000E+00 -0.45593999997E+02  0.45594000000E+02  0.51100000000E-03 0.  1.
    9900012    2    1    2    0    0 -0.32643746844E+02 -0.10438840318E+02 -0.21876526236E+02  0.50528855945E+02  0.29999988129E+02 0.  0.
         12    1    1    2    0    0  0.32643746844E+02  0.10438840318E+02  0.21876526236E+02  0.40659144055E+02  0.00000000000E+00 0. -1.
         11    1    3    3    0    0 -0.28699482611E+01 -0.42552702193E+01 -0.84227503099E+01  0.98633995511E+01  0.51100000000E-03 0. -1.
        -11    1    3    3    0    0 -0.17912424459E+02 -0.59089804744E+01 -0.19685960235E+02  0.27263676033E+02  0.51100000000E-03 0.  1.
        -12    1    3    3    0    0 -0.11861374124E+02 -0.27458962428E+00  0.62321843087E+01  0.13401780360E+02  0.00000000000E+00 0.  1.
</event>
<event>
 7    1  0.6726285E-013  0.5052886E+02  0.7816164E-02  0.1300439E+00
        -11   -1    0    0    0    0  0.00000000000E+00  0.00000000000E+00  0.45593999997E+02  0.45594000000E+02  0.51100000000E-03 0.  1.
         11   -1    0    0    0    0 -0.00000000000E+00 -0.00000000000E+00 -0.45593999997E+02  0.45594000000E+02  0.51100000000E-03 0. -1.
    9900012    2    1    2    0    0 -0.11125477851E+02 -0.54715502490E+01  0.38722755059E+02  0.50528857376E+02  0.29999992481E+02 0.  0.
         12    1    1    2    0    0  0.11125477851E+02  0.54715502490E+01 -0.38722755059E+02  0.40659142624E+02  0.00000000000E+00 0. -1.
         11    1    3    3    0    0 -0.43878914403E+01  0.42346128461E+00 -0.10244979300E+00  0.44094678787E+01  0.51100000000E-03 0. -1.
        -11    1    3    3    0    0 -0.21566290642E+01  0.77472528529E+01  0.52870646556E+01  0.96241378118E+01  0.51100000000E-03 0.  1.
        -12    1    3    3    0    0 -0.45809573460E+01 -0.13642264386E+02  0.33538140196E+02  0.36495251686E+02  0.00000000000E+00 0.  1.
</event>
<event>
 7    1  0.6726285E-013  0.5052886E+02  0.7816164E-02  0.1300439E+00
        -11   -1    0    0    0    0  0.00000000000E+00  0.00000000000E+00  0.45593999997E+02  0.45594000000E+02  0.51100000000E-03 0.  1.
         11   -1    0    0    0    0 -0.00000000000E+00 -0.00000000000E+00 -0.45593999997E+02  0.45594000000E+02  0.51100000000E-03 0. -1.
    9900012    2    1    2    0    0 -0.32488719551E+02 -0.12328639365E+02 -0.21110495430E+02  0.50528864939E+02  0.30000015467E+02 0.  0.
         12    1    1    2    0    0  0.32488719551E+02  0.12328639365E+02  0.21110495430E+02  0.40659135061E+02  0.00000000000E+00 0. -1.
         11    1    3    3    0    0 -0.27272507282E+01  0.71989641806E+01 -0.16171575041E+01  0.78662685221E+01  0.51100000000E-03 0. -1.
        -11    1    3    3    0    0 -0.95955318241E-01  0.15490700027E+01 -0.95312824592E+00  0.18213398943E+01  0.51100000000E-03 0.  1.
        -12    1    3    3    0    0 -0.29665513504E+02 -0.21076673548E+02 -0.18540209680E+02  0.40841256522E+02  0.00000000000E+00 0.  1.
</event>
<event>
 7    1  0.6726285E-013  0.5052886E+02  0.7816164E-02  0.1300439E+00
        -11   -1    0    0    0    0  0.00000000000E+00  0.00000000000E+00  0.45593999997E+02  0.45594000000E+02  0.51100000000E-03 0.  1.
         11   -1    0    0    0    0 -0.00000000000E+00 -0.00000000000E+00 -0.45593999997E+02  0.45594000000E+02  0.51100000000E-03 0. -1.
    9900012    2    1    2    0    0 -0.18025458060E+01  0.32775567662E+02  0.23993298159E+02  0.50528863714E+02  0.30000011746E+02 0.  0.
         12    1    1    2    0    0  0.18025458060E+01 -0.32775567662E+02 -0.23993298159E+02  0.40659136286E+02  0.00000000000E+00 0. -1.
         11    1    3    3    0    0 -0.15625964325E+00  0.64793865087E+01  0.14898915324E+02  0.16247601198E+02  0.51100000000E-03 0. -1.
        -11    1    3    3    0    0  0.12391937713E+01  0.16440276764E+02  0.15123439981E+02  0.22372678392E+02  0.51100000000E-03 0.  1.
        -12    1    3    3    0    0 -0.28854799340E+01  0.98559043889E+01 -0.60290571463E+01  0.11908584124E+02  0.00000000000E+00 0.  1.
</event>
<event>
 7    1  0.6726285E-013  0.5052885E+02  0.7816164E-02  0.1300439E+00
        -11   -1    0    0    0    0  0.00000000000E+00  0.00000000000E+00  0.45593999997E+02  0.45594000000E+02  0.51100000000E-03 0.  1.
         11   -1    0    0    0    0 -0.00000000000E+00 -0.00000000000E+00 -0.45593999997E+02  0.45594000000E+02  0.51100000000E-03 0. -1.
    9900012    2    1    2    0    0  0.33193764139E+02  0.10692193186E+02  0.20904955442E+02  0.50528854229E+02  0.29999982914E+02 0.  0.
         12    1    1    2    0    0 -0.33193764139E+02 -0.10692193186E+02 -0.20904955442E+02  0.40659145771E+02  0.00000000000E+00 0. -1.
         11    1    3    3    0    0  0.44874695069E+01 -0.20764005483E+00  0.13035225277E+01  0.46775707594E+01  0.51100000000E-03 0. -1.
        -11    1    3    3    0    0  0.26536232915E+02  0.19262540057E+02  0.16088167113E+02  0.36524597577E+02  0.51100000000E-03 0.  1.
        -12    1    3    3    0    0  0.21700617162E+01 -0.83627068168E+01  0.35132658008E+01  0.93266858928E+01  0.00000000000E+00 0.  1.
</event>
<event>
 7    1  0.6726285E-013  0.5052886E+02  0.7816164E-02  0.1300439E+00
        -11   -1    0    0    0    0  0.00000000000E+00  0.00000000000E+00  0.45593999997E+02  0.45594000000E+02  0.51100000000E-03 0. -1.
         11   -1    0    0    0    0 -0.00000000000E+00 -0.00000000000E+00 -0.45593999997E+02  0.45594000000E+02  0.51100000000E-03 0.  1.
    9900012    2    1    2    0    0  0.37874316484E+02  0.14229088405E+02 -0.40292243019E+01  0.50528862596E+02  0.30000008348E+02 0.  0.
         12    1    1    2    0    0 -0.37874316484E+02 -0.14229088405E+02  0.40292243019E+01  0.40659137404E+02  0.00000000000E+00 0. -1.
         11    1    3    3    0    0  0.87567702080E+00  0.68311856415E+01 -0.74210620594E+01  0.10124429360E+02  0.51100000000E-03 0. -1.
        -11    1    3    3    0    0  0.12082560017E+02  0.92229641241E+01  0.60665056202E-01  0.15200493555E+02  0.51100000000E-03 0.  1.
        -12    1    3    3    0    0  0.24916079446E+02 -0.18250613609E+01  0.33311727013E+01  0.25203939682E+02  0.00000000000E+00 0.  1.
</event>
<event>
 7    1  0.6726285E-013  0.5052882E+02  0.7816164E-02  0.1300439E+00
        -11   -1    0    0    0    0  0.00000000000E+00  0.00000000000E+00  0.45593999997E+02  0.45594000000E+02  0.51100000000E-03 0.  1.
         11   -1    0    0    0    0 -0.00000000000E+00 -0.00000000000E+00 -0.45593999997E+02  0.45594000000E+02  0.51100000000E-03 0. -1.
    9900012    2    1    2    0    0  0.29474033505E+02 -0.25467385960E+01  0.27892016207E+02  0.50528817807E+02  0.29999872206E+02 0.  0.
         12    1    1    2    0    0 -0.29474033505E+02  0.25467385960E+01 -0.27892016207E+02  0.40659182193E+02  0.00000000000E+00 0. -1.
         11    1    3    3    0    0  0.57057342691E+01  0.14879181990E+01  0.98754859581E+01  0.11501935806E+02  0.51100000000E-03 0. -1.
        -11    1    3    3    0    0  0.24992823814E+02 -0.11168255516E+02  0.13932137624E+02  0.30716048452E+02  0.51100000000E-03 0.  1.
         12    1    3    3    0    0 -0.12245245790E+01  0.71335987209E+01  0.40843926253E+01  0.83108335486E+01  0.00000000000E+00 0. -1.
</event>
<event>
 7    1  0.6726285E-013  0.5052886E+02  0.7816164E-02  0.1300439E+00
        -11   -1    0    0    0    0  0.00000000000E+00  0.00000000000E+00  0.45593999997E+02  0.45594000000E+02  0.51100000000E-03 0. -1.
         11   -1    0    0    0    0 -0.00000000000E+00 -0.00000000000E+00 -0.45593999997E+02  0.45594000000E+02  0.51100000000E-03 0.  1.
    9900012    2    1    2    0    0  0.56418021252E+01 -0.11886725499E+02 -0.38471307321E+02  0.50528860052E+02  0.30000000614E+02 0.  0.
         12    1    1    2    0    0 -0.56418021252E+01  0.11886725499E+02  0.38471307321E+02  0.40659139948E+02  0.00000000000E+00 0. -1.
         11    1    3    3    0    0 -0.37090046454E+01  0.28091874587E+01  0.93183761120E+00  0.47451629300E+01  0.51100000000E-03 0. -1.
        -11    1    3    3    0    0 -0.10289730459E+01 -0.12202210034E+01 -0.19655672071E+02  0.19720374481E+02  0.51100000000E-03 0.  1.
        -12    1    3    3    0    0  0.10379779816E+02 -0.13475691954E+02 -0.19747472861E+02  0.26063322641E+02  0.00000000000E+00 0.  1.
</event>
<event>
 7    1  0.6726285E-013  0.5052887E+02  0.7816164E-02  0.1300439E+00
        -11   -1    0    0    0    0  0.00000000000E+00  0.00000000000E+00  0.45593999997E+02  0.45594000000E+02  0.51100000000E-03 0.  1.
         11   -1    0    0    0    0 -0.00000000000E+00 -0.00000000000E+00 -0.45593999997E+02  0.45594000000E+02  0.51100000000E-03 0. -1.
    9900012    2    1    2    0    0  0.35698410534E+02 -0.18914124447E+02  0.45874027455E+01  0.50528869633E+02  0.30000029735E+02 0.  0.
         12    1    1    2    0    0 -0.35698410534E+02  0.18914124447E+02 -0.45874027455E+01  0.40659130367E+02  0.00000000000E+00 0. -1.
         11    1    3    3    0    0  0.15225619139E+02 -0.50812872629E+00 -0.68288528678E+01  0.16694637005E+02  0.51100000000E-03 0. -1.
        -11    1    3    3    0    0  0.80129654530E+01 -0.12433292930E+02 -0.15665729703E+01  0.14874425688E+02  0.51100000000E-03 0.  1.
        -12    1    3    3    0    0  0.12459825942E+02 -0.59727027913E+01  0.12982828584E+02  0.18959806939E+02  0.00000000000E+00 0.  1.
</event>
<event>
 7    1  0.6726285E-013  0.5052884E+02  0.7816164E-02  0.1300439E+00
        -11   -1    0    0    0    0  0.00000000000E+00  0.00000000000E+00  0.45593999997E+02  0.45594000000E+02  0.51100000000E-03 0. -1.
         11   -1    0    0    0    0 -0.00000000000E+00 -0.00000000000E+00 -0.45593999997E+02  0.45594000000E+02  0.51100000000E-03 0.  1.
    9900012    2    1    2    0    0  0.59824909203E+01 -0.20900526998E+01 -0.40162283124E+02  0.50528837396E+02  0.29999931750E+02 0.  0.
         12    1    1    2    0    0 -0.59824909203E+01  0.20900526998E+01  0.40162283124E+02  0.40659162604E+02  0.00000000000E+00 0. -1.
         11    1    3    3    0    0 -0.12880232259E-01  0.26552917371E+01  0.31544994663E+00  0.26739949587E+01  0.51100000000E-03 0. -1.
        -11    1    3    3    0    0 -0.54714048117E+01  0.45275572426E+01 -0.32450373538E+01  0.78080287453E+01  0.51100000000E-03 0.  1.
        -12    1    3    3    0    0  0.11466775964E+02 -0.92729016795E+01 -0.37232695717E+02  0.40046813692E+02  0.00000000000E+00 0.  1.
</event>
<event>
 7    1  0.6726285E-013  0.5052886E+02  0.7816164E-02  0.1300439E+00
        -11   -1    0    0    0    0  0.00000000000E+00  0.00000000000E+00  0.45593999997E+02  0.45594000000E+02  0.51100000000E-03 0. -1.
         11   -1    0    0    0    0 -0.00000000000E+00 -0.00000000000E+00 -0.45593999997E+02  0.45594000000E+02  0.51100000000E-03 0.  1.
    9900012    2    1    2    0    0 -0.14755216854E+01 -0.21412153457E+02 -0.34532711377E+02  0.50528860376E+02  0.30000001599E+02 0.  0.
         12    1    1    2    0    0  0.14755216854E+01  0.21412153457E+02  0.34532711377E+02  0.40659139624E+02  0.00000000000E+00 0. -1.
         11    1    3    3    0    0  0.40316417209E+01 -0.22414510416E+01  0.21580174242E-01  0.46128845317E+01  0.51100000000E-03 0. -1.
        -11    1    3    3    0    0 -0.26264781344E+01 -0.74576234533E+01  0.13666986955E+01  0.80238644397E+01  0.51100000000E-03 0.  1.
        -12    1    3    3    0    0 -0.28806852720E+01 -0.11713078962E+02 -0.35920990247E+02  0.37892111405E+02  0.00000000000E+00 0.  1.
</event>
<event>
 7    1  0.6726285E-013  0.5052885E+02  0.7816164E-02  0.1300439E+00
        -11   -1    0    0    0    0  0.00000000000E+00  0.00000000000E+00  0.45593999997E+02  0.45594000000E+02  0.51100000000E-03 0.  1.
         11   -1    0    0    0    0 -0.00000000000E+00 -0.00000000000E+00 -0.45593999997E+02  0.45594000000E+02  0.51100000000E-03 0. -1.
    9900012    2    1    2    0    0  0.10178026970E+01 -0.67225735573E+01  0.40086622021E+02  0.50528853642E+02  0.29999981129E+02 0.  0.
         12    1    1    2    0    0 -0.10178026970E+01  0.67225735573E+01 -0.40086622021E+02  0.40659146358E+02  0.00000000000E+00 0. -1.
         11    1    3    3    0    0 -0.48613791545E+01 -0.13700116401E+02  0.12197101544E+02  0.18976181993E+02  0.51100000000E-03 0. -1.
        -11    1    3    3    0    0  0.52825890272E+00 -0.24682781942E+01  0.12295343751E+02  0.12551770111E+02  0.51100000000E-03 0.  1.
        -12    1    3    3    0    0  0.53509229488E+01  0.94458210378E+01  0.15594176726E+02  0.19000901538E+02  0.00000000000E+00 0.  1.
</event>
<event>
 7    1  0.6726285E-013  0.5052887E+02  0.7816164E-02  0.1300439E+00
        -11   -1    0    0    0    0  0.00000000000E+00  0.00000000000E+00  0.45593999997E+02  0.45594000000E+02  0.51100000000E-03 0.  1.
         11   -1    0    0    0    0 -0.00000000000E+00 -0.00000000000E+00 -0.45593999997E+02  0.45594000000E+02  0.51100000000E-03 0. -1.
    9900012    2    1    2    0    0 -0.23636257008E+02 -0.30877232938E+02 -0.11878071935E+02  0.50528871232E+02  0.30000034597E+02 0.  0.
         12    1    1    2    0    0  0.23636257008E+02  0.30877232938E+02  0.11878071935E+02  0.40659128768E+02  0.00000000000E+00 0. -1.
         11    1    3    3    0    0 -0.83082250649E+01 -0.12907889210E+02 -0.52886809672E+01  0.16236081861E+02  0.51100000000E-03 0.  1.
        -11    1    3    3    0    0 -0.79390562361E+01 -0.13063729282E+02 -0.15465065004E+02  0.21745295411E+02  0.51100000000E-03 0. -1.
        -12    1    3    3    0    0 -0.73889757065E+01 -0.49056144468E+01  0.88756740355E+01  0.12547493960E+02  0.00000000000E+00 0.  1.
</event>
<event>
 7    1  0.8344784E-013  0.5052886E+02  0.7816164E-02  0.1300439E+00
        -11   -1    0    0    0    0  0.00000000000E+00  0.00000000000E+00  0.45593999997E+02  0.45594000000E+02  0.51100000000E-03 0.  1.
         11   -1    0    0    0    0 -0.00000000000E+00 -0.00000000000E+00 -0.45593999997E+02  0.45594000000E+02  0.51100000000E-03 0. -1.
    9900012    2    1    2    0    0 -0.50521874561E+01 -0.23033483462E+02  0.33122498318E+02  0.50528857691E+02  0.29999993437E+02 0.  0.
         12    1    1    2    0    0  0.50521874561E+01  0.23033483462E+02 -0.33122498318E+02  0.40659142309E+02  0.00000000000E+00 0. -1.
         11    1    3    3    0    0 -0.27829304651E+01  0.12389276799E+01  0.15000279408E+02  0.15306470081E+02  0.51100000000E-03 0. -1.
        -11    1    3    3    0    0 -0.96062647496E+01 -0.10045232873E+02  0.10887796872E+02  0.17655909688E+02  0.51100000000E-03 0.  1.
         12    1    3    3    0    0  0.73370077585E+01 -0.14227178269E+02  0.72344220374E+01  0.17566477921E+02  0.00000000000E+00 0. -1.
</event>
<event>
 7    1  0.6726285E-013  0.5052885E+02  0.7816164E-02  0.1300439E+00
        -11   -1    0    0    0    0  0.00000000000E+00  0.00000000000E+00  0.45593999997E+02  0.45594000000E+02  0.51100000000E-03 0.  1.
         11   -1    0    0    0    0 -0.00000000000E+00 -0.00000000000E+00 -0.45593999997E+02  0.45594000000E+02  0.51100000000E-03 0. -1.
    9900012    2    1    2    0    0  0.29008816437E+02 -0.20022721940E+02  0.20266863456E+02  0.50528848763E+02  0.29999966301E+02 0.  0.
         12    1    1    2    0    0 -0.29008816437E+02  0.20022721940E+02 -0.20266863456E+02  0.40659151237E+02  0.00000000000E+00 0. -1.
         11    1    3    3    0    0  0.73344345547E+01 -0.59453504486E+01  0.74584151727E+01  0.12032002300E+02  0.51100000000E-03 0. -1.
        -11    1    3    3    0    0  0.15024201820E+02 -0.15762612425E+02  0.19266123392E+02  0.29075248952E+02  0.51100000000E-03 0.  1.
         12    1    3    3    0    0  0.66501800622E+01  0.16852409336E+01 -0.64576751089E+01  0.94215975118E+01  0.00000000000E+00 0. -1.
</event>
<event>
 7    1  0.6726285E-013  0.5052886E+02  0.7816164E-02  0.1300439E+00
        -11   -1    0    0    0    0  0.00000000000E+00  0.00000000000E+00  0.45593999997E+02  0.45594000000E+02  0.51100000000E-03 0.  1.
         11   -1    0    0    0    0 -0.00000000000E+00 -0.00000000000E+00 -0.45593999997E+02  0.45594000000E+02  0.51100000000E-03 0. -1.
    9900012    2    1    2    0    0  0.11077581698E+02  0.65187853946E+01  0.38574064341E+02  0.50528858112E+02  0.29999994718E+02 0.  0.
         12    1    1    2    0    0 -0.11077581698E+02 -0.65187853946E+01 -0.38574064341E+02  0.40659141888E+02  0.00000000000E+00 0. -1.
         11    1    3    3    0    0  0.28633950181E+01 -0.73110190300E+01  0.70354422388E+01  0.10542650428E+02  0.51100000000E-03 0. -1.
        -11    1    3    3    0    0 -0.57768453333E+01  0.42000321997E+01  0.60679392618E+01  0.93718781271E+01  0.51100000000E-03 0.  1.
         12    1    3    3    0    0  0.13991032013E+02  0.96297722248E+01  0.25470682840E+02  0.30614329557E+02  0.00000000000E+00 0. -1.
</event>
<event>
 7    1  0.6726285E-013  0.5052885E+02  0.7816164E-02  0.1300439E+00
        -11   -1    0    0    0    0  0.00000000000E+00  0.00000000000E+00  0.45593999997E+02  0.45594000000E+02  0.51100000000E-03 0.  1.
         11   -1    0    0    0    0 -0.00000000000E+00 -0.00000000000E+00 -0.45593999997E+02  0.45594000000E+02  0.51100000000E-03 0. -1.
    9900012    2    1    2    0    0  0.87123312097E+01 -0.82311427939E+01  0.38852409429E+02  0.50528854101E+02  0.29999982526E+02 0.  0.
         12    1    1    2    0    0 -0.87123312097E+01  0.82311427939E+01 -0.38852409429E+02  0.40659145899E+02  0.00000000000E+00 0. -1.
         11    1    3    3    0    0  0.15835631939E+01 -0.10491787533E+01 -0.42011604463E+01  0.46106613194E+01  0.51100000000E-03 0. -1.
        -11    1    3    3    0    0 -0.60683804655E+00 -0.28955733347E+01  0.12882293223E+01  0.32267835997E+01  0.51100000000E-03 0.  1.
        -12    1    3    3    0    0  0.77356060623E+01 -0.42863907060E+01  0.41765340553E+02  0.42691409182E+02  0.00000000000E+00 0.  1.
</event>
<event>
 7    1  0.6836677E-013  0.5052884E+02  0.7816164E-02  0.1300439E+00
        -11   -1    0    0    0    0  0.00000000000E+00  0.00000000000E+00  0.45593999997E+02  0.45594000000E+02  0.51100000000E-03 0. -1.
         11   -1    0    0    0    0 -0.00000000000E+00 -0.00000000000E+00 -0.45593999997E+02  0.45594000000E+02  0.51100000000E-03 0.  1.
    9900012    2    1    2    0    0 -0.99482319111E+01  0.59560948734E+01 -0.38970816710E+02  0.50528844335E+02  0.29999952841E+02 0.  0.
         12    1    1    2    0    0  0.99482319111E+01 -0.59560948734E+01  0.38970816710E+02  0.40659155665E+02  0.00000000000E+00 0. -1.
         11    1    3    3    0    0 -0.55839866768E+01 -0.27475154695E+01  0.12267904426E+00  0.62245320202E+01  0.51100000000E-03 0. -1.
        -11    1    3    3    0    0 -0.92039674674E+01  0.55213665194E+01 -0.36338239352E+02  0.37890185337E+02  0.51100000000E-03 0.  1.
         12    1    3    3    0    0  0.48397222331E+01  0.31822438235E+01 -0.27552564024E+01  0.64141269779E+01  0.00000000000E+00 0. -1.
</event>
<event>
 7    1  0.6726285E-013  0.5052885E+02  0.7816164E-02  0.1300439E+00
        -11   -1    0    0    0    0  0.00000000000E+00  0.00000000000E+00  0.45593999997E+02  0.45594000000E+02  0.51100000000E-03 0. -1.
         11   -1    0    0    0    0 -0.00000000000E+00 -0.00000000000E+00 -0.45593999997E+02  0.45594000000E+02  0.51100000000E-03 0.  1.
    9900012    2    1    2    0    0 -0.30246419862E+02  0.34706082146E+01 -0.26949494933E+02  0.50528852038E+02  0.29999976254E+02 0.  0.
         12    1    1    2    0    0  0.30246419862E+02 -0.34706082146E+01  0.26949494933E+02  0.40659147962E+02  0.00000000000E+00 0. -1.
         11    1    3    3    0    0 -0.69326671979E+01 -0.31243092423E+01 -0.28635328292E+01  0.81254540331E+01  0.51100000000E-03 0. -1.
        -11    1    3    3    0    0 -0.27202149332E+02  0.13462992634E+01 -0.23266068040E+02  0.35820097323E+02  0.51100000000E-03 0.  1.
        -12    1    3    3    0    0  0.38883966673E+01  0.52486181936E+01 -0.81989406393E+00  0.65833006813E+01  0.00000000000E+00 0.  1.
</event>
<event>
 7    1  0.6726285E-013  0.5052887E+02  0.7816164E-02  0.1300439E+00
        -11   -1    0    0    0    0  0.00000000000E+00  0.00000000000E+00  0.45593999997E+02  0.45594000000E+02  0.51100000000E-03 0.  1.
         11   -1    0    0    0    0 -0.00000000000E+00 -0.00000000000E+00 -0.45593999997E+02  0.45594000000E+02  0.51100000000E-03 0. -1.
    9900012    2    1    2    0    0 -0.39757059354E+02  0.80563144236E+01 -0.27634556028E+01  0.50528872397E+02  0.30000038138E+02 0.  0.
         12    1    1    2    0    0  0.39757059354E+02 -0.80563144236E+01  0.27634556028E+01  0.40659127603E+02  0.00000000000E+00 0. -1.
         11    1    3    3    0    0 -0.94010282597E+01  0.15339734393E+01 -0.61692813333E+01  0.11348675662E+02  0.51100000000E-03 0. -1.
        -11    1    3    3    0    0 -0.23986883281E+02  0.78740107284E+01 -0.76237686939E+01  0.26372191108E+02  0.51100000000E-03 0.  1.
         12    1    3    3    0    0 -0.63691478132E+01 -0.13516697441E+01  0.11029594424E+02  0.12808005627E+02  0.00000000000E+00 0. -1.
</event>
<event>
 7    1  0.6726285E-013  0.5052887E+02  0.7816164E-02  0.1300439E+00
        -11   -1    0    0    0    0  0.00000000000E+00  0.00000000000E+00  0.45593999997E+02  0.45594000000E+02  0.51100000000E-03 0. -1.
         11   -1    0    0    0    0 -0.00000000000E+00 -0.00000000000E+00 -0.45593999997E+02  0.45594000000E+02  0.51100000000E-03 0.  1.
    9900012    2    1    2    0    0  0.17071442375E+02  0.35589984753E+02  0.97511020684E+01  0.50528866327E+02  0.30000019688E+02 0.  0.
         12    1    1    2    0    0 -0.17071442375E+02 -0.35589984753E+02 -0.97511020684E+01  0.40659133673E+02  0.00000000000E+00 0. -1.
         11    1    3    3    0    0  0.18952840015E+02  0.15821634762E+02  0.53167726737E+01  0.25254748922E+02  0.51100000000E-03 0. -1.
        -11    1    3    3    0    0  0.36604362491E+01  0.51796460711E+01 -0.40359802453E+01  0.75177565641E+01  0.51100000000E-03 0.  1.
         12    1    3    3    0    0 -0.55418338894E+01  0.14588703920E+02  0.84703096401E+01  0.17756360841E+02  0.00000000000E+00 0. -1.
</event>
<event>
 7    1  0.6726285E-013  0.5052898E+02  0.7816164E-02  0.1300438E+00
        -11   -1    0    0    0    0  0.00000000000E+00  0.00000000000E+00  0.45593999997E+02  0.45594000000E+02  0.51100000000E-03 0. -1.
         11   -1    0    0    0    0 -0.00000000000E+00 -0.00000000000E+00 -0.45593999997E+02  0.45594000000E+02  0.51100000000E-03 0.  1.
    9900012    2    1    2    0    0  0.63051361024E+01 -0.18048352108E+02 -0.35883948470E+02  0.50528984851E+02  0.30000379951E+02 0.  0.
         12    1    1    2    0    0 -0.63051361024E+01  0.18048352108E+02  0.35883948470E+02  0.40659015149E+02  0.00000000000E+00 0. -1.
         11    1    3    3    0    0 -0.69293894162E+01  0.10822026867E+01 -0.35625012223E+01  0.78663216027E+01  0.51100000000E-03 0. -1.
        -11    1    3    3    0    0 -0.91999048048E+00 -0.23159574305E+01  0.10494537222E+01  0.27039590752E+01  0.51100000000E-03 0.  1.
        -12    1    3    3    0    0  0.14154515999E+02 -0.16814597364E+02 -0.33370900970E+02  0.39958704173E+02  0.00000000000E+00 0.  1.
</event>
<event>
 7    1  0.6726285E-013  0.5052886E+02  0.7816164E-02  0.1300439E+00
        -11   -1    0    0    0    0  0.00000000000E+00  0.00000000000E+00  0.45593999997E+02  0.45594000000E+02  0.51100000000E-03 0.  1.
         11   -1    0    0    0    0 -0.00000000000E+00 -0.00000000000E+00 -0.45593999997E+02  0.45594000000E+02  0.51100000000E-03 0. -1.
    9900012    2    1    2    0    0  0.38157674832E+02  0.11904400316E+02  0.74460133317E+01  0.50528855765E+02  0.29999987582E+02 0.  0.
         12    1    1    2    0    0 -0.38157674832E+02 -0.11904400316E+02 -0.74460133317E+01  0.40659144235E+02  0.00000000000E+00 0. -1.
         11    1    3    3    0    0  0.46490827365E+01 -0.17044725722E+01  0.20242371291E+01  0.53494610248E+01  0.51100000000E-03 0. -1.
        -11    1    3    3    0    0  0.28604650662E+02  0.35748143145E+01  0.13061389146E+02  0.31648147238E+02  0.51100000000E-03 0.  1.
        -12    1    3    3    0    0  0.49039414328E+01  0.10034058573E+02 -0.76396129436E+01  0.13531247502E+02  0.00000000000E+00 0.  1.
</event>
<event>
 7    1  0.6726285E-013  0.5052886E+02  0.7816164E-02  0.1300439E+00
        -11   -1    0    0    0    0  0.00000000000E+00  0.00000000000E+00  0.45593999997E+02  0.45594000000E+02  0.51100000000E-03 0. -1.
         11   -1    0    0    0    0 -0.00000000000E+00 -0.00000000000E+00 -0.45593999997E+02  0.45594000000E+02  0.51100000000E-03 0.  1.
    9900012    2    1    2    0    0  0.27577031373E+01 -0.25328069141E+02 -0.31686748377E+02  0.50528855448E+02  0.29999986619E+02 0.  0.
         12    1    1    2    0    0 -0.27577031373E+01  0.25328069141E+02  0.31686748377E+02  0.40659144552E+02  0.00000000000E+00 0. -1.
         11    1    3    3    0    0  0.27904066433E+01 -0.95541589021E+01 -0.90151049666E+01  0.13429089298E+02  0.51100000000E-03 0. -1.
        -11    1    3    3    0    0  0.52128073149E+01 -0.18630916948E+02 -0.74206119440E+01  0.20720760321E+02  0.51100000000E-03 0.  1.
         12    1    3    3    0    0 -0.52455108209E+01  0.28570067092E+01 -0.15251031467E+02  0.16379005828E+02  0.00000000000E+00 0. -1.
</event>
<event>
 7    1  0.6726285E-013  0.5052887E+02  0.7816164E-02  0.1300439E+00
        -11   -1    0    0    0    0  0.00000000000E+00  0.00000000000E+00  0.45593999997E+02  0.45594000000E+02  0.51100000000E-03 0.  1.
         11   -1    0    0    0    0 -0.00000000000E+00 -0.00000000000E+00 -0.45593999997E+02  0.45594000000E+02  0.51100000000E-03 0. -1.
    9900012    2    1    2    0    0  0.15240365634E+02  0.28562658294E+01  0.37586400583E+02  0.50528874236E+02  0.30000043727E+02 0.  0.
         12    1    1    2    0    0 -0.15240365634E+02 -0.28562658294E+01 -0.37586400583E+02  0.40659125764E+02  0.00000000000E+00 0. -1.
         11    1    3    3    0    0  0.14349150367E+02  0.24372574050E+01  0.10798656641E+02  0.18123170954E+02  0.51100000000E-03 0. -1.
        -11    1    3    3    0    0  0.68896539376E+01 -0.33376523996E+01  0.23280038597E+02  0.24506477761E+02  0.51100000000E-03 0.  1.
         12    1    3    3    0    0 -0.59984386709E+01  0.37566608239E+01  0.35077053447E+01  0.78992255203E+01  0.00000000000E+00 0. -1.
</event>
<event>
 7    1  0.6726285E-013  0.5052886E+02  0.7816164E-02  0.1300439E+00
        -11   -1    0    0    0    0  0.00000000000E+00  0.00000000000E+00  0.45593999997E+02  0.45594000000E+02  0.51100000000E-03 0.  1.
         11   -1    0    0    0    0 -0.00000000000E+00 -0.00000000000E+00 -0.45593999997E+02  0.45594000000E+02  0.51100000000E-03 0. -1.
    9900012    2    1    2    0    0 -0.87870139539E+01 -0.99986652491E+01  0.38418499812E+02  0.50528855287E+02  0.29999986130E+02 0.  0.
         12    1    1    2    0    0  0.87870139539E+01  0.99986652491E+01 -0.38418499812E+02  0.40659144713E+02  0.00000000000E+00 0. -1.
         11    1    3    3    0    0 -0.11734872363E+02 -0.83771762895E+01  0.34380256017E+02  0.37281179112E+02  0.51100000000E-03 0. -1.
        -11    1    3    3    0    0  0.45293248316E+01  0.38354282046E+01  0.46411832120E+01  0.75343131612E+01  0.51100000000E-03 0.  1.
        -12    1    3    3    0    0 -0.15814664224E+01 -0.54569171642E+01 -0.60293941684E+00  0.57133630134E+01  0.00000000000E+00 0.  1.
</event>
<event>
 7    1  0.6726285E-013  0.5052886E+02  0.7816164E-02  0.1300439E+00
        -11   -1    0    0    0    0  0.00000000000E+00  0.00000000000E+00  0.45593999997E+02  0.45594000000E+02  0.51100000000E-03 0. -1.
         11   -1    0    0    0    0 -0.00000000000E+00 -0.00000000000E+00 -0.45593999997E+02  0.45594000000E+02  0.51100000000E-03 0.  1.
    9900012    2    1    2    0    0 -0.12970465223E+02  0.33922881941E+02 -0.18280348072E+02  0.50528855728E+02  0.29999987472E+02 0.  0.
         12    1    1    2    0    0  0.12970465223E+02 -0.33922881941E+02  0.18280348072E+02  0.40659144272E+02  0.00000000000E+00 0. -1.
         11    1    3    3    0    0 -0.69466445328E+01 -0.23529962201E+01 -0.60708788737E+01  0.95209260073E+01  0.51100000000E-03 0. -1.
        -11    1    3    3    0    0 -0.37481875030E+01  0.34440323053E+01  0.15732533180E+01  0.53277945100E+01  0.51100000000E-03 0.  1.
         12    1    3    3    0    0 -0.22756331869E+01  0.32831845856E+02 -0.13782722516E+02  0.35680135211E+02  0.00000000000E+00 0. -1.
</event>
<event>
 7    1  0.6726285E-013  0.5052886E+02  0.7816164E-02  0.1300439E+00
        -11   -1    0    0    0    0  0.00000000000E+00  0.00000000000E+00  0.45593999997E+02  0.45594000000E+02  0.51100000000E-03 0. -1.
         11   -1    0    0    0    0 -0.00000000000E+00 -0.00000000000E+00 -0.45593999997E+02  0.45594000000E+02  0.51100000000E-03 0.  1.
    9900012    2    1    2    0    0  0.29967994073E+02 -0.17686753914E+02 -0.21030074086E+02  0.50528856516E+02  0.29999989866E+02 0.  0.
         12    1    1    2    0    0 -0.29967994073E+02  0.17686753914E+02  0.21030074086E+02  0.40659143484E+02  0.00000000000E+00 0. -1.
         11    1    3    3    0    0  0.85402663781E+00  0.80387347703E-01  0.36671002328E+00  0.93289877589E+00  0.51100000000E-03 0. -1.
        -11    1    3    3    0    0  0.31203251211E+02 -0.93223772406E+01 -0.78539511810E+01  0.33499763476E+02  0.51100000000E-03 0.  1.
         12    1    3    3    0    0 -0.20892837751E+01 -0.84447640207E+01 -0.13542832928E+02  0.16096194264E+02  0.00000000000E+00 0. -1.
</event>
<event>
 7    1  0.6726285E-013  0.5052886E+02  0.7816164E-02  0.1300439E+00
        -11   -1    0    0    0    0  0.00000000000E+00  0.00000000000E+00  0.45593999997E+02  0.45594000000E+02  0.51100000000E-03 0.  1.
         11   -1    0    0    0    0 -0.00000000000E+00 -0.00000000000E+00 -0.45593999997E+02  0.45594000000E+02  0.51100000000E-03 0. -1.
    9900012    2    1    2    0    0  0.11677312218E+02  0.17108386286E+02  0.34987273086E+02  0.50528858593E+02  0.29999996180E+02 0.  0.
         12    1    1    2    0    0 -0.11677312218E+02 -0.17108386286E+02 -0.34987273086E+02  0.40659141407E+02  0.00000000000E+00 0. -1.
         11    1    3    3    0    0 -0.48444652995E+01  0.89311940699E+01  0.32290853202E+01  0.10661241195E+02  0.51100000000E-03 0. -1.
        -11    1    3    3    0    0  0.48196692171E+01  0.66102676668E+01  0.28863255498E+01  0.86750057884E+01  0.51100000000E-03 0.  1.
         12    1    3    3    0    0  0.11702108300E+02  0.15669245494E+01  0.28871862216E+02  0.31192611610E+02  0.00000000000E+00 0. -1.
</event>
<event>
 7    1  0.6726285E-013  0.5052889E+02  0.7816164E-02  0.1300439E+00
        -11   -1    0    0    0    0  0.00000000000E+00  0.00000000000E+00  0.45593999997E+02  0.45594000000E+02  0.51100000000E-03 0.  1.
         11   -1    0    0    0    0 -0.00000000000E+00 -0.00000000000E+00 -0.45593999997E+02  0.45594000000E+02  0.51100000000E-03 0. -1.
    9900012    2    1    2    0    0 -0.32542960980E+02 -0.19104420332E+02 -0.15137366697E+02  0.50528892089E+02  0.30000097994E+02 0.  0.
         12    1    1    2    0    0  0.32542960980E+02  0.19104420332E+02  0.15137366697E+02  0.40659107911E+02  0.00000000000E+00 0. -1.
         11    1    3    3    0    0 -0.12578179579E+02 -0.18622149629E+01  0.66397859619E+00  0.12732608292E+02  0.51100000000E-03 0. -1.
        -11    1    3    3    0    0 -0.30006410312E+01 -0.16446718944E+02 -0.42267213139E+01  0.17244233354E+02  0.51100000000E-03 0.  1.
         12    1    3    3    0    0 -0.16964140370E+02 -0.79548642509E+00 -0.11574623979E+02  0.20552050443E+02  0.00000000000E+00 0. -1.
</event>
<event>
 7    1  0.9104278E-013  0.5052884E+02  0.7816164E-02  0.1300439E+00
        -11   -1    0    0    0    0  0.00000000000E+00  0.00000000000E+00  0.45593999997E+02  0.45594000000E+02  0.51100000000E-03 0. -1.
         11   -1    0    0    0    0 -0.00000000000E+00 -0.00000000000E+00 -0.45593999997E+02  0.45594000000E+02  0.51100000000E-03 0.  1.
    9900012    2    1    2    0    0 -0.16743304841E+02 -0.58290461201E+01 -0.36590313238E+02  0.50528842870E+02  0.29999948386E+02 0.  0.
         12    1    1    2    0    0  0.16743304841E+02  0.58290461201E+01  0.36590313238E+02  0.40659157130E+02  0.00000000000E+00 0. -1.
         11    1    3    3    0    0 -0.93799177655E+01 -0.13536970969E+01 -0.28344701524E+01  0.98918943799E+01  0.51100000000E-03 0. -1.
        -11    1    3    3    0    0 -0.76599354288E+01  0.67417361953E+01 -0.22682581329E+02  0.24872175492E+02  0.51100000000E-03 0.  1.
         12    1    3    3    0    0  0.29654835302E+00 -0.11217085219E+02 -0.11073261757E+02  0.15764772998E+02  0.00000000000E+00 0. -1.
</event>
<event>
 7    1  0.6726285E-013  0.5052886E+02  0.7816164E-02  0.1300439E+00
        -11   -1    0    0    0    0  0.00000000000E+00  0.00000000000E+00  0.45593999997E+02  0.45594000000E+02  0.51100000000E-03 0.  1.
         11   -1    0    0    0    0 -0.00000000000E+00 -0.00000000000E+00 -0.45593999997E+02  0.45594000000E+02  0.51100000000E-03 0. -1.
    9900012    2    1    2    0    0  0.38890724021E+02  0.10147508451E+02  0.61404674397E+01  0.50528859785E+02  0.29999999802E+02 0.  0.
         12    1    1    2    0    0 -0.38890724021E+02 -0.10147508451E+02 -0.61404674397E+01  0.40659140215E+02  0.00000000000E+00 0. -1.
         11    1    3    3    0    0  0.18115845541E+02  0.81449226838E+01  0.82758669067E+01  0.21517750778E+02  0.51100000000E-03 0. -1.
        -11    1    3    3    0    0  0.20384360047E+02  0.83286620059E+01  0.78138370002E+00  0.22034048790E+02  0.51100000000E-03 0.  1.
         12    1    3    3    0    0  0.39051843277E+00 -0.63260762392E+01 -0.29167831670E+01  0.69770602171E+01  0.00000000000E+00 0. -1.
</event>
<event>
 7    1  0.6726285E-013  0.5052885E+02  0.7816164E-02  0.1300439E+00
        -11   -1    0    0    0    0  0.00000000000E+00  0.00000000000E+00  0.45593999997E+02  0.45594000000E+02  0.51100000000E-03 0. -1.
         11   -1    0    0    0    0 -0.00000000000E+00 -0.00000000000E+00 -0.45593999997E+02  0.45594000000E+02  0.51100000000E-03 0.  1.
    9900012    2    1    2    0    0 -0.31349723865E+02  0.64088662893E+01 -0.25085600032E+02  0.50528854873E+02  0.29999984872E+02 0.  0.
         12    1    1    2    0    0  0.31349723865E+02 -0.64088662893E+01  0.25085600032E+02  0.40659145127E+02  0.00000000000E+00 0. -1.
         11    1    3    3    0    0 -0.13277076470E+02  0.44023702070E+01 -0.10803031722E+01  0.14029564435E+02  0.51100000000E-03 0. -1.
        -11    1    3    3    0    0 -0.13133340498E+02 -0.40492631905E+01 -0.29718535328E+01  0.14061048279E+02  0.51100000000E-03 0.  1.
         12    1    3    3    0    0 -0.49393068965E+01  0.60557592727E+01 -0.21033443327E+02  0.22438242158E+02  0.00000000000E+00 0. -1.
</event>
<event>
 7    1  0.6726285E-013  0.5052885E+02  0.7816164E-02  0.1300439E+00
        -11   -1    0    0    0    0  0.00000000000E+00  0.00000000000E+00  0.45593999997E+02  0.45594000000E+02  0.51100000000E-03 0. -1.
         11   -1    0    0    0    0 -0.00000000000E+00 -0.00000000000E+00 -0.45593999997E+02  0.45594000000E+02  0.51100000000E-03 0.  1.
    9900012    2    1    2    0    0 -0.89678062312E+01  0.33969880878E+02  0.20464408070E+02  0.50528851545E+02  0.29999974755E+02 0.  0.
         12    1    1    2    0    0  0.89678062312E+01 -0.33969880878E+02 -0.20464408070E+02  0.40659148455E+02  0.00000000000E+00 0. -1.
         11    1    3    3    0    0  0.14114260371E+01 -0.43997330698E+01  0.47553227397E+01  0.66304501479E+01  0.51100000000E-03 0. -1.
        -11    1    3    3    0    0  0.17469184449E+01  0.38614615560E+01  0.43456943061E+00  0.42604530572E+01  0.51100000000E-03 0.  1.
        -12    1    3    3    0    0 -0.12126150713E+02  0.34508152392E+02  0.15274515900E+02  0.39637948340E+02  0.00000000000E+00 0.  1.
</event>
<event>
 7    1  0.6726285E-013  0.5052886E+02  0.7816164E-02  0.1300439E+00
        -11   -1    0    0    0    0  0.00000000000E+00  0.00000000000E+00  0.45593999997E+02  0.45594000000E+02  0.51100000000E-03 0.  1.
         11   -1    0    0    0    0 -0.00000000000E+00 -0.00000000000E+00 -0.45593999997E+02  0.45594000000E+02  0.51100000000E-03 0. -1.
    9900012    2    1    2    0    0  0.13807256600E+02  0.34210020288E+02  0.17093856175E+02  0.50528859062E+02  0.29999997604E+02 0.  0.
         12    1    1    2    0    0 -0.13807256600E+02 -0.34210020288E+02 -0.17093856175E+02  0.40659140938E+02  0.00000000000E+00 0. -1.
         11    1    3    3    0    0  0.43546001441E+01  0.10982906321E+01  0.75195846621E+01  0.87585922658E+01  0.51100000000E-03 0. -1.
        -11    1    3    3    0    0 -0.19988912547E+01  0.97307708409E+01  0.12051431356E+02  0.15617953304E+02  0.51100000000E-03 0.  1.
         12    1    3    3    0    0  0.11451547710E+02  0.23380958815E+02 -0.24771598437E+01  0.26152313492E+02  0.00000000000E+00 0. -1.
</event>
<event>
 7    1  0.6726285E-013  0.5052886E+02  0.7816164E-02  0.1300439E+00
        -11   -1    0    0    0    0  0.00000000000E+00  0.00000000000E+00  0.45593999997E+02  0.45594000000E+02  0.51100000000E-03 0. -1.
         11   -1    0    0    0    0 -0.00000000000E+00 -0.00000000000E+00 -0.45593999997E+02  0.45594000000E+02  0.51100000000E-03 0.  1.
    9900012    2    1    2    0    0 -0.30662273182E+02 -0.80533342852E+00 -0.26689740372E+02  0.50528858350E+02  0.29999995441E+02 0.  0.
         12    1    1    2    0    0  0.30662273182E+02  0.80533342852E+00  0.26689740372E+02  0.40659141650E+02  0.00000000000E+00 0. -1.
         11    1    3    3    0    0  0.12695458582E+01  0.14525547167E+00 -0.20294757428E+01  0.23982530912E+01  0.51100000000E-03 0. -1.
        -11    1    3    3    0    0 -0.19025653849E+01  0.88080675240E+01 -0.19051516728E+01  0.92103969355E+01  0.51100000000E-03 0.  1.
        -12    1    3    3    0    0 -0.30029253655E+02 -0.97586564242E+01 -0.22755112956E+02  0.38920208323E+02  0.00000000000E+00 0.  1.
</event>
<event>
 7    1  0.6726285E-013  0.5052885E+02  0.7816164E-02  0.1300439E+00
        -11   -1    0    0    0    0  0.00000000000E+00  0.00000000000E+00  0.45593999997E+02  0.45594000000E+02  0.51100000000E-03 0.  1.
         11   -1    0    0    0    0 -0.00000000000E+00 -0.00000000000E+00 -0.45593999997E+02  0.45594000000E+02  0.51100000000E-03 0. -1.
    9900012    2    1    2    0    0  0.52120354207E+01  0.24620504125E+02  0.31934804637E+02  0.50528852397E+02  0.29999977346E+02 0.  0.
         12    1    1    2    0    0 -0.52120354207E+01 -0.24620504125E+02 -0.31934804637E+02  0.40659147603E+02  0.00000000000E+00 0. -1.
         11    1    3    3    0    0  0.44821257005E+01  0.18971067195E+01  0.14201355493E+02  0.15012227110E+02  0.51100000000E-03 0. -1.
        -11    1    3    3    0    0  0.93609332027E+01  0.11591445862E+02  0.15049436038E+02  0.21177209753E+02  0.51100000000E-03 0.  1.
         12    1    3    3    0    0 -0.86310234825E+01  0.11131951543E+02  0.26840131064E+01  0.14339415534E+02  0.00000000000E+00 0. -1.
</event>
<event>
 7    1  0.6726285E-013  0.5052886E+02  0.7816164E-02  0.1300439E+00
        -11   -1    0    0    0    0  0.00000000000E+00  0.00000000000E+00  0.45593999997E+02  0.45594000000E+02  0.51100000000E-03 0.  1.
         11   -1    0    0    0    0 -0.00000000000E+00 -0.00000000000E+00 -0.45593999997E+02  0.45594000000E+02  0.51100000000E-03 0. -1.
    9900012    2    1    2    0    0 -0.19126288701E+02  0.26407852222E+02  0.24289427710E+02  0.50528857401E+02  0.29999992555E+02 0.  0.
         12    1    1    2    0    0  0.19126288701E+02 -0.26407852222E+02 -0.24289427710E+02  0.40659142599E+02  0.00000000000E+00 0. -1.
         11    1    3    3    0    0 -0.20262150993E+02  0.74157018581E+01  0.10927048806E+02  0.24185693970E+02  0.51100000000E-03 0. -1.
        -11    1    3    3    0    0 -0.55769917176E+01  0.73995415845E+01  0.46914335855E+01  0.10385836588E+02  0.51100000000E-03 0.  1.
        -12    1    3    3    0    0  0.67128540101E+01  0.11592608779E+02  0.86709453184E+01  0.15957326843E+02  0.00000000000E+00 0.  1.
</event>
<event>
 7    1  0.6726285E-013  0.5052886E+02  0.7816164E-02  0.1300439E+00
        -11   -1    0    0    0    0  0.00000000000E+00  0.00000000000E+00  0.45593999997E+02  0.45594000000E+02  0.51100000000E-03 0.  1.
         11   -1    0    0    0    0 -0.00000000000E+00 -0.00000000000E+00 -0.45593999997E+02  0.45594000000E+02  0.51100000000E-03 0. -1.
    9900012    2    1    2    0    0 -0.39580012702E+02 -0.75557411921E+01  0.54312855681E+01  0.50528862117E+02  0.30000006890E+02 0.  0.
         12    1    1    2    0    0  0.39580012702E+02  0.75557411921E+01 -0.54312855681E+01  0.40659137883E+02  0.00000000000E+00 0. -1.
         11    1    3    3    0    0 -0.48796538753E+01 -0.36128282764E+01  0.98861000140E+00  0.61514957606E+01  0.51100000000E-03 0. -1.
        -11    1    3    3    0    0 -0.15619502651E+02 -0.15285992527E+02  0.37100594300E+01  0.22167430429E+02  0.51100000000E-03 0.  1.
        -12    1    3    3    0    0 -0.19080856176E+02  0.11343079611E+02  0.73261613669E+00  0.22209935927E+02  0.00000000000E+00 0.  1.
</event>
<event>
 7    1  0.6726285E-013  0.5052888E+02  0.7816164E-02  0.1300439E+00
        -11   -1    0    0    0    0  0.00000000000E+00  0.00000000000E+00  0.45593999997E+02  0.45594000000E+02  0.51100000000E-03 0.  1.
         11   -1    0    0    0    0 -0.00000000000E+00 -0.00000000000E+00 -0.45593999997E+02  0.45594000000E+02  0.51100000000E-03 0. -1.
    9900012    2    1    2    0    0  0.25765644136E+02 -0.33904478546E+01  0.31269807552E+02  0.50528875333E+02  0.30000047061E+02 0.  0.
         12    1    1    2    0    0 -0.25765644136E+02  0.33904478546E+01 -0.31269807552E+02  0.40659124667E+02  0.00000000000E+00 0. -1.
         11    1    3    3    0    0  0.69564912636E+01 -0.35135411135E+01  0.27439782905E+02  0.28525066661E+02  0.51100000000E-03 0. -1.
        -11    1    3    3    0    0  0.37154172277E+01 -0.26109225076E+01 -0.27542562360E+01  0.53110421945E+01  0.51100000000E-03 0.  1.
        -12    1    3    3    0    0  0.15093735645E+02  0.27340157666E+01  0.65842808826E+01  0.16692766477E+02  0.00000000000E+00 0.  1.
</event>
<event>
 7    1  0.6726285E-013  0.5052887E+02  0.7816164E-02  0.1300439E+00
        -11   -1    0    0    0    0  0.00000000000E+00  0.00000000000E+00  0.45593999997E+02  0.45594000000E+02  0.51100000000E-03 0.  1.
         11   -1    0    0    0    0 -0.00000000000E+00 -0.00000000000E+00 -0.45593999997E+02  0.45594000000E+02  0.51100000000E-03 0. -1.
    9900012    2    1    2    0    0  0.33415865018E+02 -0.69291740884E+01  0.22102748448E+02  0.50528868463E+02  0.30000026179E+02 0.  0.
         12    1    1    2    0    0 -0.33415865018E+02  0.69291740884E+01 -0.22102748448E+02  0.40659131537E+02  0.00000000000E+00 0. -1.
         11    1    3    3    0    0  0.15629242399E+02  0.71041078127E+01  0.42423952014E+01  0.17684441837E+02  0.51100000000E-03 0. -1.
        -11    1    3    3    0    0  0.35682773466E+01 -0.97977388056E+00 -0.27476318278E+01  0.46089088732E+01  0.51100000000E-03 0.  1.
        -12    1    3    3    0    0  0.14218345272E+02 -0.13053508021E+02  0.20607985074E+02  0.28235517753E+02  0.00000000000E+00 0.  1.
</event>
<event>
 7    1  0.6726285E-013  0.5052887E+02  0.7816164E-02  0.1300439E+00
        -11   -1    0    0    0    0  0.00000000000E+00  0.00000000000E+00  0.45593999997E+02  0.45594000000E+02  0.51100000000E-03 0. -1.
         11   -1    0    0    0    0 -0.00000000000E+00 -0.00000000000E+00 -0.45593999997E+02  0.45594000000E+02  0.51100000000E-03 0.  1.
    9900012    2    1    2    0    0 -0.10909174641E+02  0.27191078883E+02 -0.28192199959E+02  0.50528868175E+02  0.30000025306E+02 0.  0.
         12    1    1    2    0    0  0.10909174641E+02 -0.27191078883E+02  0.28192199959E+02  0.40659131825E+02  0.00000000000E+00 0. -1.
         11    1    3    3    0    0  0.44048960634E+01  0.31651803619E+01 -0.70261593362E+01  0.88762825175E+01  0.51100000000E-03 0. -1.
        -11    1    3    3    0    0 -0.12321601113E+02  0.24637678072E+02 -0.88053032840E+01  0.28920069173E+02  0.51100000000E-03 0.  1.
         12    1    3    3    0    0 -0.29924695915E+01 -0.61177955069E+00 -0.12360737339E+02  0.12732516485E+02  0.00000000000E+00 0. -1.
</event>
<event>
 7    1  0.6726285E-013  0.5052885E+02  0.7816164E-02  0.1300439E+00
        -11   -1    0    0    0    0  0.00000000000E+00  0.00000000000E+00  0.45593999997E+02  0.45594000000E+02  0.51100000000E-03 0.  1.
         11   -1    0    0    0    0 -0.00000000000E+00 -0.00000000000E+00 -0.45593999997E+02  0.45594000000E+02  0.51100000000E-03 0. -1.
    9900012    2    1    2    0    0 -0.35413242478E+02 -0.96069166504E+01  0.17515027456E+02  0.50528846330E+02  0.29999958906E+02 0.  0.
         12    1    1    2    0    0  0.35413242478E+02  0.96069166504E+01 -0.17515027456E+02  0.40659153670E+02  0.00000000000E+00 0. -1.
         11    1    3    3    0    0 -0.14533193850E+02  0.51813836992E+01  0.36679564781E+01  0.15859204441E+02  0.51100000000E-03 0. -1.
        -11    1    3    3    0    0 -0.16362001603E+02 -0.14112621911E+00  0.84764883089E+01  0.18427855745E+02  0.51100000000E-03 0.  1.
         12    1    3    3    0    0 -0.45180470252E+01 -0.14647174130E+02  0.53705826693E+01  0.16241786144E+02  0.00000000000E+00 0. -1.
</event>
<event>
 7    1  0.6726285E-013  0.5052888E+02  0.7816164E-02  0.1300439E+00
        -11   -1    0    0    0    0  0.00000000000E+00  0.00000000000E+00  0.45593999997E+02  0.45594000000E+02  0.51100000000E-03 0.  1.
         11   -1    0    0    0    0 -0.00000000000E+00 -0.00000000000E+00 -0.45593999997E+02  0.45594000000E+02  0.51100000000E-03 0. -1.
    9900012    2    1    2    0    0  0.98371041520E+00 -0.40104261267E+02 -0.66215347075E+01  0.50528878270E+02  0.30000055989E+02 0.  0.
         12    1    1    2    0    0 -0.98371041520E+00  0.40104261267E+02  0.66215347075E+01  0.40659121730E+02  0.00000000000E+00 0. -1.
         11    1    3    3    0    0 -0.17393748127E+01 -0.27585626759E+02  0.10056519443E+02  0.29413021130E+02  0.51100000000E-03 0.  1.
        -11    1    3    3    0    0  0.20151550064E+01 -0.50636185995E+01 -0.74823676434E+01  0.92567223591E+01  0.51100000000E-03 0. -1.
        -12    1    3    3    0    0  0.70793022145E+00 -0.74550159093E+01 -0.91956865075E+01  0.11859134781E+02  0.00000000000E+00 0.  1.
</event>
<event>
 7    1  0.6849455E-013  0.5052886E+02  0.7816164E-02  0.1300439E+00
        -11   -1    0    0    0    0  0.00000000000E+00  0.00000000000E+00  0.45593999997E+02  0.45594000000E+02  0.51100000000E-03 0. -1.
         11   -1    0    0    0    0 -0.00000000000E+00 -0.00000000000E+00 -0.45593999997E+02  0.45594000000E+02  0.51100000000E-03 0.  1.
    9900012    2    1    2    0    0  0.49308577471E+01  0.37549954782E+02 -0.14793685757E+02  0.50528860799E+02  0.30000002885E+02 0.  0.
         12    1    1    2    0    0 -0.49308577471E+01 -0.37549954782E+02  0.14793685757E+02  0.40659139201E+02  0.00000000000E+00 0. -1.
         11    1    3    3    0    0  0.11293177436E+02  0.10908045058E+02 -0.70268201108E+00  0.15716712947E+02  0.51100000000E-03 0. -1.
        -11    1    3    3    0    0  0.20380872586E+01  0.13959898728E+02 -0.45971385270E-01  0.14107965332E+02  0.51100000000E-03 0.  1.
         12    1    3    3    0    0 -0.84004069478E+01  0.12682010996E+02 -0.14045032361E+02  0.20704182520E+02  0.00000000000E+00 0. -1.
</event>
<event>
 7    1  0.6726285E-013  0.5052886E+02  0.7816164E-02  0.1300439E+00
        -11   -1    0    0    0    0  0.00000000000E+00  0.00000000000E+00  0.45593999997E+02  0.45594000000E+02  0.51100000000E-03 0.  1.
         11   -1    0    0    0    0 -0.00000000000E+00 -0.00000000000E+00 -0.45593999997E+02  0.45594000000E+02  0.51100000000E-03 0. -1.
    9900012    2    1    2    0    0 -0.20654941259E+02 -0.25328904112E+02  0.24186477682E+02  0.50528859766E+02  0.29999999744E+02 0.  0.
         12    1    1    2    0    0  0.20654941259E+02  0.25328904112E+02 -0.24186477682E+02  0.40659140234E+02  0.00000000000E+00 0. -1.
         11    1    3    3    0    0 -0.22465405467E+01 -0.11325234529E+02 -0.27843251416E+01  0.11876882938E+02  0.51100000000E-03 0. -1.
        -11    1    3    3    0    0 -0.12547432009E+02 -0.62647886380E+01  0.54559193901E+01  0.15048344871E+02  0.51100000000E-03 0.  1.
        -12    1    3    3    0    0 -0.58609687038E+01 -0.77388809458E+01  0.21514883433E+02  0.23603631957E+02  0.00000000000E+00 0.  1.
</event>
<event>
 7    1  0.6726285E-013  0.5052886E+02  0.7816164E-02  0.1300439E+00
        -11   -1    0    0    0    0  0.00000000000E+00  0.00000000000E+00  0.45593999997E+02  0.45594000000E+02  0.51100000000E-03 0.  1.
         11   -1    0    0    0    0 -0.00000000000E+00 -0.00000000000E+00 -0.45593999997E+02  0.45594000000E+02  0.51100000000E-03 0. -1.
    9900012    2    1    2    0    0  0.38730339035E+02  0.11354632475E+02 -0.49191952888E+01  0.50528864216E+02  0.30000013272E+02 0.  0.
         12    1    1    2    0    0 -0.38730339035E+02 -0.11354632475E+02  0.49191952888E+01  0.40659135784E+02  0.00000000000E+00 0. -1.
         11    1    3    3    0    0  0.78598470832E+00  0.27437289331E+01  0.66928304890E+01  0.72759742053E+01  0.51100000000E-03 0. -1.
        -11    1    3    3    0    0  0.90928609851E+01 -0.17712850241E+01 -0.82529266685E+01  0.12406787271E+02  0.51100000000E-03 0.  1.
        -12    1    3    3    0    0  0.28851493341E+02  0.10382188566E+02 -0.33590991093E+01  0.30846102740E+02  0.00000000000E+00 0.  1.
</event>
<event>
 7    1  0.6726285E-013  0.5052886E+02  0.7816164E-02  0.1300439E+00
        -11   -1    0    0    0    0  0.00000000000E+00  0.00000000000E+00  0.45593999997E+02  0.45594000000E+02  0.51100000000E-03 0.  1.
         11   -1    0    0    0    0 -0.00000000000E+00 -0.00000000000E+00 -0.45593999997E+02  0.45594000000E+02  0.51100000000E-03 0. -1.
    9900012    2    1    2    0    0 -0.14421416415E+02 -0.14316975864E+02  0.35216651690E+02  0.50528860738E+02  0.30000002698E+02 0.  0.
         12    1    1    2    0    0  0.14421416415E+02  0.14316975864E+02 -0.35216651690E+02  0.40659139262E+02  0.00000000000E+00 0. -1.
         11    1    3    3    0    0  0.73097968936E+01 -0.32868641757E+00  0.10302498118E+02  0.12636559386E+02  0.51100000000E-03 0. -1.
        -11    1    3    3    0    0 -0.15955427310E+01 -0.15817161213E+01  0.92631849732E+01  0.95317458319E+01  0.51100000000E-03 0.  1.
         12    1    3    3    0    0 -0.20135670578E+02 -0.12406573326E+02  0.15650968598E+02  0.28360555519E+02  0.00000000000E+00 0. -1.
</event>
<event>
 7    1  0.6726285E-013  0.5052887E+02  0.7816164E-02  0.1300439E+00
        -11   -1    0    0    0    0  0.00000000000E+00  0.00000000000E+00  0.45593999997E+02  0.45594000000E+02  0.51100000000E-03 0.  1.
         11   -1    0    0    0    0 -0.00000000000E+00 -0.00000000000E+00 -0.45593999997E+02  0.45594000000E+02  0.51100000000E-03 0. -1.
    9900012    2    1    2    0    0 -0.85406131207E+01 -0.24073975211E+02  0.31633312605E+02  0.50528870382E+02  0.30000032014E+02 0.  0.
         12    1    1    2    0    0  0.85406131207E+01  0.24073975211E+02 -0.31633312605E+02  0.40659129618E+02  0.00000000000E+00 0. -1.
         11    1    3    3    0    0 -0.77266547075E+01 -0.17351358163E+02  0.51774494176E+01  0.19686970458E+02  0.51100000000E-03 0. -1.
        -11    1    3    3    0    0  0.86900191317E+00 -0.62325317734E+01  0.24198464590E+01  0.67420526384E+01  0.51100000000E-03 0.  1.
        -12    1    3    3    0    0 -0.16829603264E+01 -0.49008527389E+00  0.24036016728E+02  0.24099847286E+02  0.00000000000E+00 0.  1.
</event>
<event>
 7    1  0.6726285E-013  0.5052885E+02  0.7816164E-02  0.1300439E+00
        -11   -1    0    0    0    0  0.00000000000E+00  0.00000000000E+00  0.45593999997E+02  0.45594000000E+02  0.51100000000E-03 0.  1.
         11   -1    0    0    0    0 -0.00000000000E+00 -0.00000000000E+00 -0.45593999997E+02  0.45594000000E+02  0.51100000000E-03 0. -1.
    9900012    2    1    2    0    0 -0.25934229655E-01 -0.14361977596E+02  0.38038128242E+02  0.50528852527E+02  0.29999977741E+02 0.  0.
         12    1    1    2    0    0  0.25934229655E-01  0.14361977596E+02 -0.38038128242E+02  0.40659147473E+02  0.00000000000E+00 0. -1.
         11    1    3    3    0    0 -0.11288574736E+01 -0.11037624592E+02  0.48287949416E+01  0.12100443656E+02  0.51100000000E-03 0. -1.
        -11    1    3    3    0    0 -0.60180248374E+01 -0.73214159635E+01  0.97884626050E+01  0.13624747891E+02  0.51100000000E-03 0.  1.
         12    1    3    3    0    0  0.71209480813E+01  0.39970629590E+01  0.23420870696E+02  0.24803660980E+02  0.00000000000E+00 0. -1.
</event>
<event>
 7    1  0.6726285E-013  0.5052891E+02  0.7816164E-02  0.1300439E+00
        -11   -1    0    0    0    0  0.00000000000E+00  0.00000000000E+00  0.45593999997E+02  0.45594000000E+02  0.51100000000E-03 0.  1.
         11   -1    0    0    0    0 -0.00000000000E+00 -0.00000000000E+00 -0.45593999997E+02  0.45594000000E+02  0.51100000000E-03 0. -1.
    9900012    2    1    2    0    0 -0.38409801387E+02  0.13111920230E+02 -0.24343197440E+01  0.50528914824E+02  0.30000167098E+02 0.  0.
         12    1    1    2    0    0  0.38409801387E+02 -0.13111920230E+02  0.24343197440E+01  0.40659085176E+02  0.00000000000E+00 0. -1.
         11    1    3    3    0    0  0.44727775717E+00  0.28986713438E+01  0.11497983319E+01  0.31502998931E+01  0.51100000000E-03 0. -1.
        -11    1    3    3    0    0 -0.19923125165E+02  0.10018704091E+02  0.96278203327E+01  0.24289921215E+02  0.51100000000E-03 0.  1.
         12    1    3    3    0    0 -0.18933953979E+02  0.19454479521E+00 -0.13211938409E+02  0.23088693715E+02  0.00000000000E+00 0. -1.
</event>
<event>
 7    1  0.6726285E-013  0.5052886E+02  0.7816164E-02  0.1300439E+00
        -11   -1    0    0    0    0  0.00000000000E+00  0.00000000000E+00  0.45593999997E+02  0.45594000000E+02  0.51100000000E-03 0. -1.
         11   -1    0    0    0    0 -0.00000000000E+00 -0.00000000000E+00 -0.45593999997E+02  0.45594000000E+02  0.51100000000E-03 0.  1.
    9900012    2    1    2    0    0  0.41033165394E+01 -0.40324306130E+02  0.32060111556E+01  0.50528863523E+02  0.30000011166E+02 0.  0.
         12    1    1    2    0    0 -0.41033165394E+01  0.40324306130E+02 -0.32060111556E+01  0.40659136477E+02  0.00000000000E+00 0. -1.
         11    1    3    3    0    0 -0.25272057353E+01  0.75410119947E+00 -0.26805345123E+01  0.37604126077E+01  0.51100000000E-03 0. -1.
        -11    1    3    3    0    0 -0.58210681216E+01 -0.14062826913E+02 -0.34202524860E+01  0.15599553269E+02  0.51100000000E-03 0.  1.
        -12    1    3    3    0    0  0.12451590396E+02 -0.27015580416E+02  0.93067981539E+01  0.31168897647E+02  0.00000000000E+00 0.  1.
</event>
<event>
 7    1  0.6726285E-013  0.5052886E+02  0.7816164E-02  0.1300439E+00
        -11   -1    0    0    0    0  0.00000000000E+00  0.00000000000E+00  0.45593999997E+02  0.45594000000E+02  0.51100000000E-03 0. -1.
         11   -1    0    0    0    0 -0.00000000000E+00 -0.00000000000E+00 -0.45593999997E+02  0.45594000000E+02  0.51100000000E-03 0.  1.
    9900012    2    1    2    0    0 -0.90593012414E+01 -0.21450262301E+02 -0.33331385864E+02  0.50528856190E+02  0.29999988874E+02 0.  0.
         12    1    1    2    0    0  0.90593012414E+01  0.21450262301E+02  0.33331385864E+02  0.40659143810E+02  0.00000000000E+00 0. -1.
         11    1    3    3    0    0 -0.52344610661E+00  0.18528990028E+01 -0.30167933883E+01  0.35788647851E+01  0.51100000000E-03 0. -1.
        -11    1    3    3    0    0 -0.22917022128E+01  0.51118589436E+01 -0.10013838681E+02  0.11474317682E+02  0.51100000000E-03 0.  1.
        -12    1    3    3    0    0 -0.62441529220E+01 -0.28415020248E+02 -0.20300753795E+02  0.35475673722E+02  0.00000000000E+00 0.  1.
</event>
<event>
 7    1  0.6726285E-013  0.5052887E+02  0.7816164E-02  0.1300439E+00
        -11   -1    0    0    0    0  0.00000000000E+00  0.00000000000E+00  0.45593999997E+02  0.45594000000E+02  0.51100000000E-03 0.  1.
         11   -1    0    0    0    0 -0.00000000000E+00 -0.00000000000E+00 -0.45593999997E+02  0.45594000000E+02  0.51100000000E-03 0. -1.
    9900012    2    1    2    0    0 -0.11167342761E+02  0.50054812549E+01  0.38773713077E+02  0.50528865569E+02  0.30000017382E+02 0.  0.
         12    1    1    2    0    0  0.11167342761E+02 -0.50054812549E+01 -0.38773713077E+02  0.40659134431E+02  0.00000000000E+00 0. -1.
         11    1    3    3    0    0 -0.80565958729E+01 -0.57292152909E+01  0.66848794406E+01  0.11933995907E+02  0.51100000000E-03 0. -1.
        -11    1    3    3    0    0 -0.91948518780E+01  0.89824250384E+01  0.28623211805E+02  0.31377022085E+02  0.51100000000E-03 0.  1.
         12    1    3    3    0    0  0.60841049898E+01  0.17522715074E+01  0.34656218317E+01  0.72178475769E+01  0.00000000000E+00 0. -1.
</event>
<event>
 7    1  0.6726285E-013  0.5052891E+02  0.7816164E-02  0.1300439E+00
        -11   -1    0    0    0    0  0.00000000000E+00  0.00000000000E+00  0.45593999997E+02  0.45594000000E+02  0.51100000000E-03 0. -1.
         11   -1    0    0    0    0 -0.00000000000E+00 -0.00000000000E+00 -0.45593999997E+02  0.45594000000E+02  0.51100000000E-03 0.  1.
    9900012    2    1    2    0    0 -0.21821857467E+01  0.32766210756E+02 -0.23974473810E+02  0.50528906351E+02  0.30000141343E+02 0.  0.
         12    1    1    2    0    0  0.21821857467E+01 -0.32766210756E+02  0.23974473810E+02  0.40659093649E+02  0.00000000000E+00 0. -1.
         11    1    3    3    0    0  0.75324856526E+01  0.23733014188E+02 -0.12502082949E+02  0.27862095773E+02  0.51100000000E-03 0. -1.
        -11    1    3    3    0    0 -0.61663058309E+00  0.96286954607E+01 -0.27110956458E+01  0.10022078099E+02  0.51100000000E-03 0.  1.
         12    1    3    3    0    0 -0.90980408162E+01 -0.59549889259E+00 -0.87612952147E+01  0.12644732479E+02  0.00000000000E+00 0. -1.
</event>
<event>
 7    1  0.6726285E-013  0.5052886E+02  0.7816164E-02  0.1300439E+00
        -11   -1    0    0    0    0  0.00000000000E+00  0.00000000000E+00  0.45593999997E+02  0.45594000000E+02  0.51100000000E-03 0.  1.
         11   -1    0    0    0    0 -0.00000000000E+00 -0.00000000000E+00 -0.45593999997E+02  0.45594000000E+02  0.51100000000E-03 0. -1.
    9900012    2    1    2    0    0 -0.16457138496E+02  0.30250545433E+02  0.21615561356E+02  0.50528863275E+02  0.30000010411E+02 0.  0.
         12    1    1    2    0    0  0.16457138496E+02 -0.30250545433E+02 -0.21615561356E+02  0.40659136725E+02  0.00000000000E+00 0. -1.
         11    1    3    3    0    0  0.50736414801E+01  0.67572567799E+01  0.88771003275E+01  0.12255825861E+02  0.51100000000E-03 0. -1.
        -11    1    3    3    0    0 -0.47069737029E+01 -0.22180976938E+01  0.31619304823E+01  0.60887899828E+01  0.51100000000E-03 0.  1.
         12    1    3    3    0    0 -0.16823806273E+02  0.25711386347E+02  0.95765305462E+01  0.32184247431E+02  0.00000000000E+00 0. -1.
</event>
<event>
 7    1  0.6726285E-013  0.5052893E+02  0.7816164E-02  0.1300439E+00
        -11   -1    0    0    0    0  0.00000000000E+00  0.00000000000E+00  0.45593999997E+02  0.45594000000E+02  0.51100000000E-03 0.  1.
         11   -1    0    0    0    0 -0.00000000000E+00 -0.00000000000E+00 -0.45593999997E+02  0.45594000000E+02  0.51100000000E-03 0. -1.
    9900012    2    1    2    0    0  0.21878357122E+02  0.22760773131E+02  0.25621181116E+02  0.50528926897E+02  0.30000203794E+02 0.  0.
         12    1    1    2    0    0 -0.21878357122E+02 -0.22760773131E+02 -0.25621181116E+02  0.40659073103E+02  0.00000000000E+00 0. -1.
         11    1    3    3    0    0 -0.20302349176E+01 -0.39059575522E+00  0.96608614271E+00  0.22820476684E+01  0.51100000000E-03 0. -1.
        -11    1    3    3    0    0 -0.25663457846E+01 -0.77139361166E+00  0.88031099743E+01  0.92019521989E+01  0.51100000000E-03 0.  1.
         12    1    3    3    0    0  0.26474937824E+02  0.23922762497E+02  0.15851984999E+02  0.39044927029E+02  0.00000000000E+00 0. -1.
</event>
<event>
 7    1  0.6726285E-013  0.5052886E+02  0.7816164E-02  0.1300439E+00
        -11   -1    0    0    0    0  0.00000000000E+00  0.00000000000E+00  0.45593999997E+02  0.45594000000E+02  0.51100000000E-03 0.  1.
         11   -1    0    0    0    0 -0.00000000000E+00 -0.00000000000E+00 -0.45593999997E+02  0.45594000000E+02  0.51100000000E-03 0. -1.
    9900012    2    1    2    0    0 -0.22235142595E+02  0.42550548578E+01  0.33773641259E+02  0.50528857092E+02  0.29999991618E+02 0.  0.
         12    1    1    2    0    0  0.22235142595E+02 -0.42550548578E+01 -0.33773641259E+02  0.40659142908E+02  0.00000000000E+00 0. -1.
         11    1    3    3    0    0 -0.80424762565E+01 -0.79635184964E+01  0.54313942061E+01  0.12553847795E+02  0.51100000000E-03 0. -1.
        -11    1    3    3    0    0 -0.69804368871E+01 -0.21541909662E+01  0.28644896150E+01  0.78468043731E+01  0.51100000000E-03 0.  1.
        -12    1    3    3    0    0 -0.72122294511E+01  0.14372764320E+02  0.25477757438E+02  0.30128204924E+02  0.00000000000E+00 0.  1.
</event>
<event>
 7    1  0.6726285E-013  0.5052886E+02  0.7816164E-02  0.1300439E+00
        -11   -1    0    0    0    0  0.00000000000E+00  0.00000000000E+00  0.45593999997E+02  0.45594000000E+02  0.51100000000E-03 0.  1.
         11   -1    0    0    0    0 -0.00000000000E+00 -0.00000000000E+00 -0.45593999997E+02  0.45594000000E+02  0.51100000000E-03 0. -1.
    9900012    2    1    2    0    0  0.39900669647E+02  0.66119975692E+01  0.41694142481E+01  0.50528856314E+02  0.29999989252E+02 0.  0.
         12    1    1    2    0    0 -0.39900669647E+02 -0.66119975692E+01 -0.41694142481E+01  0.40659143686E+02  0.00000000000E+00 0. -1.
         11    1    3    3    0    0  0.51228804273E+00 -0.56562691165E+00  0.94526333656E+00  0.12148645515E+01  0.51100000000E-03 0. -1.
        -11    1    3    3    0    0 -0.37907519267E+01  0.44808158772E+01 -0.50158548728E+00  0.58905941430E+01  0.51100000000E-03 0.  1.
        -12    1    3    3    0    0  0.43179133531E+02  0.26968086036E+01  0.37257363988E+01  0.43423397619E+02  0.00000000000E+00 0.  1.
</event>
<event>
 7    1  0.6726285E-013  0.5052885E+02  0.7816164E-02  0.1300439E+00
        -11   -1    0    0    0    0  0.00000000000E+00  0.00000000000E+00  0.45593999997E+02  0.45594000000E+02  0.51100000000E-03 0. -1.
         11   -1    0    0    0    0 -0.00000000000E+00 -0.00000000000E+00 -0.45593999997E+02  0.45594000000E+02  0.51100000000E-03 0.  1.
    9900012    2    1    2    0    0  0.35324436276E+02 -0.74145416827E+01 -0.18718315180E+02  0.50528849126E+02  0.29999967404E+02 0.  0.
         12    1    1    2    0    0 -0.35324436276E+02  0.74145416827E+01  0.18718315180E+02  0.40659150874E+02  0.00000000000E+00 0. -1.
         11    1    3    3    0    0 -0.12760489000E+01 -0.27668470912E+01 -0.94451275423E+00  0.31899605366E+01  0.51100000000E-03 0. -1.
        -11    1    3    3    0    0  0.63379495303E+01 -0.35693980437E+01 -0.15318476809E+02  0.16957769271E+02  0.51100000000E-03 0.  1.
        -12    1    3    3    0    0  0.30262535646E+02 -0.10782965479E+01 -0.24553256171E+01  0.30381119318E+02  0.00000000000E+00 0.  1.
</event>
<event>
 7    1  0.6726285E-013  0.5052886E+02  0.7816164E-02  0.1300439E+00
        -11   -1    0    0    0    0  0.00000000000E+00  0.00000000000E+00  0.45593999997E+02  0.45594000000E+02  0.51100000000E-03 0.  1.
         11   -1    0    0    0    0 -0.00000000000E+00 -0.00000000000E+00 -0.45593999997E+02  0.45594000000E+02  0.51100000000E-03 0. -1.
    9900012    2    1    2    0    0 -0.12707239954E+01 -0.10264537054E+02  0.39321629710E+02  0.50528855599E+02  0.29999987078E+02 0.  0.
         12    1    1    2    0    0  0.12707239954E+01  0.10264537054E+02 -0.39321629710E+02  0.40659144401E+02  0.00000000000E+00 0. -1.
         11    1    3    3    0    0  0.86849589755E+01  0.14613631166E+01  0.21966866214E+02  0.23666586279E+02  0.51100000000E-03 0. -1.
        -11    1    3    3    0    0  0.19316014557E+01 -0.97364336022E-02  0.69054878804E+01  0.71705607946E+01  0.51100000000E-03 0.  1.
         12    1    3    3    0    0 -0.11887284427E+02 -0.11716163737E+02  0.10449275615E+02  0.19691708525E+02  0.00000000000E+00 0. -1.
</event>
<event>
 7    1  0.6726285E-013  0.5052885E+02  0.7816164E-02  0.1300439E+00
        -11   -1    0    0    0    0  0.00000000000E+00  0.00000000000E+00  0.45593999997E+02  0.45594000000E+02  0.51100000000E-03 0.  1.
         11   -1    0    0    0    0 -0.00000000000E+00 -0.00000000000E+00 -0.45593999997E+02  0.45594000000E+02  0.51100000000E-03 0. -1.
    9900012    2    1    2    0    0 -0.16564876094E+02 -0.24297491100E+02  0.28078516157E+02  0.50528852648E+02  0.29999978110E+02 0.  0.
         12    1    1    2    0    0  0.16564876094E+02  0.24297491100E+02 -0.28078516157E+02  0.40659147352E+02  0.00000000000E+00 0. -1.
         11    1    3    3    0    0 -0.12045565544E+02 -0.22885814423E+01  0.75362895195E+01  0.14391973953E+02  0.51100000000E-03 0. -1.
        -11    1    3    3    0    0 -0.11630537851E+02 -0.97843935992E+01  0.13542992016E+02  0.20357219894E+02  0.51100000000E-03 0.  1.
        -12    1    3    3    0    0  0.71112273005E+01 -0.12224516059E+02  0.69992346218E+01  0.15779658801E+02  0.00000000000E+00 0.  1.
</event>
<event>
 7    1  0.6726285E-013  0.5052885E+02  0.7816164E-02  0.1300439E+00
        -11   -1    0    0    0    0  0.00000000000E+00  0.00000000000E+00  0.45593999997E+02  0.45594000000E+02  0.51100000000E-03 0.  1.
         11   -1    0    0    0    0 -0.00000000000E+00 -0.00000000000E+00 -0.45593999997E+02  0.45594000000E+02  0.51100000000E-03 0. -1.
    9900012    2    1    2    0    0  0.11826797435E+02 -0.23403785098E+02  0.31073397270E+02  0.50528852045E+02  0.29999976277E+02 0.  0.
         12    1    1    2    0    0 -0.11826797435E+02  0.23403785098E+02 -0.31073397270E+02  0.40659147955E+02  0.00000000000E+00 0. -1.
         11    1    3    3    0    0 -0.31512754264E+01 -0.58602143301E+01  0.27824606246E+01  0.72121242499E+01  0.51100000000E-03 0. -1.
        -11    1    3    3    0    0  0.42286925505E+01 -0.18876295565E+02  0.93222047961E+01  0.21473236306E+02  0.51100000000E-03 0.  1.
        -12    1    3    3    0    0  0.10749380311E+02  0.13327247973E+01  0.18968731850E+02  0.21843491489E+02  0.00000000000E+00 0.  1.
</event>
<event>
 7    1  0.6726285E-013  0.5052886E+02  0.7816164E-02  0.1300439E+00
        -11   -1    0    0    0    0  0.00000000000E+00  0.00000000000E+00  0.45593999997E+02  0.45594000000E+02  0.51100000000E-03 0. -1.
         11   -1    0    0    0    0 -0.00000000000E+00 -0.00000000000E+00 -0.45593999997E+02  0.45594000000E+02  0.51100000000E-03 0.  1.
    9900012    2    1    2    0    0  0.36236463334E+02 -0.17450216406E+02 -0.59644427482E+01  0.50528857057E+02  0.29999991511E+02 0.  0.
         12    1    1    2    0    0 -0.36236463334E+02  0.17450216406E+02  0.59644427482E+01  0.40659142943E+02  0.00000000000E+00 0. -1.
         11    1    3    3    0    0  0.14173254306E+02 -0.47963293833E+01  0.14177601404E+00  0.14963489362E+02  0.51100000000E-03 0. -1.
        -11    1    3    3    0    0  0.17942608291E+02 -0.10752404379E+02  0.67114380605E+01  0.21968040271E+02  0.51100000000E-03 0.  1.
         12    1    3    3    0    0  0.41206007364E+01 -0.19014826430E+01 -0.12817656823E+02  0.13597327425E+02  0.00000000000E+00 0. -1.
</event>
<event>
 7    1  0.6726285E-013  0.5052884E+02  0.7816164E-02  0.1300439E+00
        -11   -1    0    0    0    0  0.00000000000E+00  0.00000000000E+00  0.45593999997E+02  0.45594000000E+02  0.51100000000E-03 0.  1.
         11   -1    0    0    0    0 -0.00000000000E+00 -0.00000000000E+00 -0.45593999997E+02  0.45594000000E+02  0.51100000000E-03 0. -1.
    9900012    2    1    2    0    0 -0.51030235162E+01 -0.32138804807E+02  0.24376695633E+02  0.50528844654E+02  0.29999953812E+02 0.  0.
         12    1    1    2    0    0  0.51030235162E+01  0.32138804807E+02 -0.24376695633E+02  0.40659155346E+02  0.00000000000E+00 0. -1.
         11    1    3    3    0    0  0.68316217905E+01 -0.11653470125E+02  0.75391044543E+01  0.15469729102E+02  0.51100000000E-03 0. -1.
        -11    1    3    3    0    0  0.47512198292E+01 -0.79729227148E+01  0.20845101633E+01  0.95124533830E+01  0.51100000000E-03 0.  1.
        -12    1    3    3    0    0 -0.16685865136E+02 -0.12512411967E+02  0.14753081015E+02  0.25546662170E+02  0.00000000000E+00 0.  1.
</event>
<event>
 7    1  0.6726285E-013  0.5052884E+02  0.7816164E-02  0.1300439E+00
        -11   -1    0    0    0    0  0.00000000000E+00  0.00000000000E+00  0.45593999997E+02  0.45594000000E+02  0.51100000000E-03 0.  1.
         11   -1    0    0    0    0 -0.00000000000E+00 -0.00000000000E+00 -0.45593999997E+02  0.45594000000E+02  0.51100000000E-03 0. -1.
    9900012    2    1    2    0    0 -0.12271391399E+02  0.38500313148E+02  0.45061906156E+01  0.50528844657E+02  0.29999953819E+02 0.  0.
         12    1    1    2    0    0  0.12271391399E+02 -0.38500313148E+02 -0.45061906156E+01  0.40659155343E+02  0.00000000000E+00 0. -1.
         11    1    3    3    0    0  0.37109292298E+01 -0.37979044874E+00  0.42573100465E+01  0.56603821096E+01  0.51100000000E-03 0. -1.
        -11    1    3    3    0    0 -0.10969077718E+01  0.13040879021E+01 -0.38833543907E+01  0.42407892545E+01  0.51100000000E-03 0.  1.
        -12    1    3    3    0    0 -0.14885412857E+02  0.37576015695E+02  0.41322349597E+01  0.40627673293E+02  0.00000000000E+00 0.  1.
</event>
<event>
 7    1  0.6726285E-013  0.5052887E+02  0.7816164E-02  0.1300439E+00
        -11   -1    0    0    0    0  0.00000000000E+00  0.00000000000E+00  0.45593999997E+02  0.45594000000E+02  0.51100000000E-03 0. -1.
         11   -1    0    0    0    0 -0.00000000000E+00 -0.00000000000E+00 -0.45593999997E+02  0.45594000000E+02  0.51100000000E-03 0.  1.
    9900012    2    1    2    0    0  0.77241659994E+01 -0.36459511632E+02 -0.16254417051E+02  0.50528870613E+02  0.30000032714E+02 0.  0.
         12    1    1    2    0    0 -0.77241659994E+01  0.36459511632E+02  0.16254417051E+02  0.40659129387E+02  0.00000000000E+00 0. -1.
         11    1    3    3    0    0  0.28011554393E+01 -0.62606073008E+01 -0.31518275856E+01  0.75482244906E+01  0.51100000000E-03 0.  1.
        -11    1    3    3    0    0 -0.10442067428E+01 -0.33705723512E+02 -0.88747362349E+01  0.34870146381E+02  0.51100000000E-03 0. -1.
         12    1    3    3    0    0  0.59672173029E+01  0.35068191800E+01 -0.42278532309E+01  0.81104997407E+01  0.00000000000E+00 0. -1.
</event>
<event>
 7    1  0.6726285E-013  0.5052892E+02  0.7816164E-02  0.1300439E+00
        -11   -1    0    0    0    0  0.00000000000E+00  0.00000000000E+00  0.45593999997E+02  0.45594000000E+02  0.51100000000E-03 0. -1.
         11   -1    0    0    0    0 -0.00000000000E+00 -0.00000000000E+00 -0.45593999997E+02  0.45594000000E+02  0.51100000000E-03 0.  1.
    9900012    2    1    2    0    0 -0.19481480294E+01 -0.35696468631E+02 -0.19368216544E+02  0.50528917797E+02  0.30000176136E+02 0.  0.
         12    1    1    2    0    0  0.19481480294E+01  0.35696468631E+02  0.19368216544E+02  0.40659082203E+02  0.00000000000E+00 0. -1.
         11    1    3    3    0    0  0.36571566133E+01 -0.53393857747E+01  0.47826408162E+01  0.80472037618E+01  0.51100000000E-03 0. -1.
        -11    1    3    3    0    0  0.48652421121E+01 -0.81343683385E+01 -0.26659410367E+01  0.98461043539E+01  0.51100000000E-03 0.  1.
         12    1    3    3    0    0 -0.10470546755E+02 -0.22222714518E+02 -0.21484916323E+02  0.32635609682E+02  0.00000000000E+00 0. -1.
</event>
<event>
 7    1  0.6726285E-013  0.5052886E+02  0.7816164E-02  0.1300439E+00
        -11   -1    0    0    0    0  0.00000000000E+00  0.00000000000E+00  0.45593999997E+02  0.45594000000E+02  0.51100000000E-03 0.  1.
         11   -1    0    0    0    0 -0.00000000000E+00 -0.00000000000E+00 -0.45593999997E+02  0.45594000000E+02  0.51100000000E-03 0. -1.
    9900012    2    1    2    0    0 -0.23240005289E+02 -0.60877808676E+00  0.33357113891E+02  0.50528861990E+02  0.30000006504E+02 0.  0.
         12    1    1    2    0    0  0.23240005289E+02  0.60877808676E+00 -0.33357113891E+02  0.40659138010E+02  0.00000000000E+00 0. -1.
         11    1    3    3    0    0 -0.10620188562E+02 -0.74350231602E+01  0.13379215711E+02  0.18629852060E+02  0.51100000000E-03 0. -1.
        -11    1    3    3    0    0 -0.27616227725E+00 -0.61485665568E+01  0.89680979512E+01  0.10876944306E+02  0.51100000000E-03 0.  1.
         12    1    3    3    0    0 -0.12343654450E+02  0.12974811630E+02  0.11009800229E+02  0.21022065624E+02  0.00000000000E+00 0. -1.
</event>
<event>
 7    1  0.6726285E-013  0.5052885E+02  0.7816164E-02  0.1300439E+00
        -11   -1    0    0    0    0  0.00000000000E+00  0.00000000000E+00  0.45593999997E+02  0.45594000000E+02  0.51100000000E-03 0.  1.
         11   -1    0    0    0    0 -0.00000000000E+00 -0.00000000000E+00 -0.45593999997E+02  0.45594000000E+02  0.51100000000E-03 0. -1.
    9900012    2    1    2    0    0 -0.40544825195E+02  0.11926608418E+01  0.28038495169E+01  0.50528845286E+02  0.29999955731E+02 0.  0.
         12    1    1    2    0    0  0.40544825195E+02 -0.11926608418E+01 -0.28038495169E+01  0.40659154714E+02  0.00000000000E+00 0. -1.
         11    1    3    3    0    0 -0.22259776820E+01  0.32969719998E+01 -0.42778179448E+01  0.58416374107E+01  0.51100000000E-03 0. -1.
        -11    1    3    3    0    0  0.14928778057E+01  0.34070003833E+01  0.18574755102E+01  0.41577098608E+01  0.51100000000E-03 0.  1.
        -12    1    3    3    0    0 -0.39811725319E+02 -0.55113115412E+01  0.52241919515E+01  0.40529498014E+02  0.00000000000E+00 0.  1.
</event>
<event>
 7    1  0.6726285E-013  0.5052885E+02  0.7816164E-02  0.1300439E+00
        -11   -1    0    0    0    0  0.00000000000E+00  0.00000000000E+00  0.45593999997E+02  0.45594000000E+02  0.51100000000E-03 0.  1.
         11   -1    0    0    0    0 -0.00000000000E+00 -0.00000000000E+00 -0.45593999997E+02  0.45594000000E+02  0.51100000000E-03 0. -1.
    9900012    2    1    2    0    0  0.93963120132E+00  0.40157554863E+02 -0.62971558314E+01  0.50528852309E+02  0.29999977079E+02 0.  0.
         12    1    1    2    0    0 -0.93963120132E+00 -0.40157554863E+02  0.62971558314E+01  0.40659147691E+02  0.00000000000E+00 0. -1.
         11    1    3    3    0    0 -0.53899525670E+00  0.57700336199E+01  0.33650153721E+01  0.67012784286E+01  0.51100000000E-03 0.  1.
        -11    1    3    3    0    0  0.12169070217E+02  0.21656316958E+02 -0.50119422881E+00  0.24846197496E+02  0.51100000000E-03 0. -1.
         12    1    3    3    0    0 -0.10690443759E+02  0.12731204285E+02 -0.91609769748E+01  0.18981376384E+02  0.00000000000E+00 0. -1.
</event>
<event>
 7    1  0.6726285E-013  0.5052886E+02  0.7816164E-02  0.1300439E+00
        -11   -1    0    0    0    0  0.00000000000E+00  0.00000000000E+00  0.45593999997E+02  0.45594000000E+02  0.51100000000E-03 0. -1.
         11   -1    0    0    0    0 -0.00000000000E+00 -0.00000000000E+00 -0.45593999997E+02  0.45594000000E+02  0.51100000000E-03 0.  1.
    9900012    2    1    2    0    0 -0.68387271639E+01  0.38676721077E+02 -0.10512323016E+02  0.50528857391E+02  0.29999992526E+02 0.  0.
         12    1    1    2    0    0  0.68387271639E+01 -0.38676721077E+02  0.10512323016E+02  0.40659142609E+02  0.00000000000E+00 0. -1.
         11    1    3    3    0    0  0.47849231104E+01  0.12575689972E+02 -0.12545101989E+02  0.18396278200E+02  0.51100000000E-03 0.  1.
        -11    1    3    3    0    0  0.26117315017E+01  0.40889198029E+00 -0.33649291469E+00  0.26648755752E+01  0.51100000000E-03 0. -1.
        -12    1    3    3    0    0 -0.14235381776E+02  0.25692139125E+02  0.23692718873E+01  0.29467703616E+02  0.00000000000E+00 0.  1.
</event>
<event>
 7    1  0.6726285E-013  0.5052887E+02  0.7816164E-02  0.1300439E+00
        -11   -1    0    0    0    0  0.00000000000E+00  0.00000000000E+00  0.45593999997E+02  0.45594000000E+02  0.51100000000E-03 0.  1.
         11   -1    0    0    0    0 -0.00000000000E+00 -0.00000000000E+00 -0.45593999997E+02  0.45594000000E+02  0.51100000000E-03 0. -1.
    9900012    2    1    2    0    0  0.24880311751E+02 -0.88631091883E+01  0.30912465204E+02  0.50528866681E+02  0.30000020763E+02 0.  0.
         12    1    1    2    0    0 -0.24880311751E+02  0.88631091883E+01 -0.30912465204E+02  0.40659133319E+02  0.00000000000E+00 0. -1.
         11    1    3    3    0    0 -0.87339996086E+00 -0.40737001773E+00  0.56015807718E+01  0.56838794170E+01  0.51100000000E-03 0. -1.
        -11    1    3    3    0    0  0.17235198547E+02 -0.69726058927E+01  0.29783383499E+02  0.35110101606E+02  0.51100000000E-03 0.  1.
         12    1    3    3    0    0  0.85185131648E+01 -0.14831332779E+01 -0.44724990672E+01  0.97348856576E+01  0.00000000000E+00 0. -1.
</event>
<event>
 7    1  0.6726285E-013  0.5052886E+02  0.7816164E-02  0.1300439E+00
        -11   -1    0    0    0    0  0.00000000000E+00  0.00000000000E+00  0.45593999997E+02  0.45594000000E+02  0.51100000000E-03 0.  1.
         11   -1    0    0    0    0 -0.00000000000E+00 -0.00000000000E+00 -0.45593999997E+02  0.45594000000E+02  0.51100000000E-03 0. -1.
    9900012    2    1    2    0    0  0.29230806593E+02  0.17267911971E+02  0.22372858477E+02  0.50528860384E+02  0.30000001622E+02 0.  0.
         12    1    1    2    0    0 -0.29230806593E+02 -0.17267911971E+02 -0.22372858477E+02  0.40659139616E+02  0.00000000000E+00 0. -1.
         11    1    3    3    0    0  0.10747760450E+02  0.11196576683E+02  0.10620021574E+02  0.18805917755E+02  0.51100000000E-03 0. -1.
        -11    1    3    3    0    0  0.12205274701E+02 -0.30656598756E+01  0.15550562389E+02  0.20004674251E+02  0.51100000000E-03 0.  1.
         12    1    3    3    0    0  0.62777714424E+01  0.91369951636E+01 -0.37977254866E+01  0.11718268378E+02  0.00000000000E+00 0. -1.
</event>
<event>
 7    1  0.6726285E-013  0.5052886E+02  0.7816164E-02  0.1300439E+00
        -11   -1    0    0    0    0  0.00000000000E+00  0.00000000000E+00  0.45593999997E+02  0.45594000000E+02  0.51100000000E-03 0.  1.
         11   -1    0    0    0    0 -0.00000000000E+00 -0.00000000000E+00 -0.45593999997E+02  0.45594000000E+02  0.51100000000E-03 0. -1.
    9900012    2    1    2    0    0 -0.35400917862E+01 -0.23425274473E+02  0.33043756795E+02  0.50528860842E+02  0.30000003014E+02 0.  0.
         12    1    1    2    0    0  0.35400917862E+01  0.23425274473E+02 -0.33043756795E+02  0.40659139158E+02  0.00000000000E+00 0. -1.
         11    1    3    3    0    0 -0.59683123928E+01 -0.11947612644E+01  0.93773504941E+01  0.11179575567E+02  0.51100000000E-03 0. -1.
        -11    1    3    3    0    0  0.16209821863E+01 -0.24646666015E+02  0.26023193823E+02  0.35878856530E+02  0.51100000000E-03 0.  1.
         12    1    3    3    0    0  0.80723842026E+00  0.24161528067E+01 -0.23567875216E+01  0.34704287451E+01  0.00000000000E+00 0. -1.
</event>
<event>
 7    1  0.6726285E-013  0.5052886E+02  0.7816164E-02  0.1300439E+00
        -11   -1    0    0    0    0  0.00000000000E+00  0.00000000000E+00  0.45593999997E+02  0.45594000000E+02  0.51100000000E-03 0.  1.
         11   -1    0    0    0    0 -0.00000000000E+00 -0.00000000000E+00 -0.45593999997E+02  0.45594000000E+02  0.51100000000E-03 0. -1.
    9900012    2    1    2    0    0  0.39474560500E+02  0.62840102221E+01  0.74455403738E+01  0.50528858561E+02  0.29999996081E+02 0.  0.
         12    1    1    2    0    0 -0.39474560500E+02 -0.62840102221E+01 -0.74455403738E+01  0.40659141439E+02  0.00000000000E+00 0. -1.
         11    1    3    3    0    0  0.23735631849E+02  0.72409614980E+01 -0.69470845697E-01  0.24815651697E+02  0.51100000000E-03 0. -1.
        -11    1    3    3    0    0  0.14510837716E+02 -0.20645358105E+01  0.13241580285E+02  0.19752624333E+02  0.51100000000E-03 0.  1.
        -12    1    3    3    0    0  0.12280909347E+01  0.11075845347E+01 -0.57265690656E+01  0.59605825310E+01  0.00000000000E+00 0.  1.
</event>
<event>
 7    1  0.6726285E-013  0.5052889E+02  0.7816164E-02  0.1300439E+00
        -11   -1    0    0    0    0  0.00000000000E+00  0.00000000000E+00  0.45593999997E+02  0.45594000000E+02  0.51100000000E-03 0.  1.
         11   -1    0    0    0    0 -0.00000000000E+00 -0.00000000000E+00 -0.45593999997E+02  0.45594000000E+02  0.51100000000E-03 0. -1.
    9900012    2    1    2    0    0  0.35652778764E+02  0.33172707423E+01  0.19262358923E+02  0.50528887982E+02  0.30000085510E+02 0.  0.
         12    1    1    2    0    0 -0.35652778764E+02 -0.33172707423E+01 -0.19262358923E+02  0.40659112018E+02  0.00000000000E+00 0. -1.
         11    1    3    3    0    0  0.31444877909E+01  0.79488593228E+00 -0.16914953107E+01  0.36579780972E+01  0.51100000000E-03 0. -1.
        -11    1    3    3    0    0  0.16993510282E+02  0.12593208082E+02  0.34988774160E+01  0.21438526650E+02  0.51100000000E-03 0.  1.
         12    1    3    3    0    0  0.15514780692E+02 -0.10070823272E+02  0.17454976818E+02  0.25432383235E+02  0.00000000000E+00 0. -1.
</event>
<event>
 7    1  0.6726285E-013  0.5052886E+02  0.7816164E-02  0.1300439E+00
        -11   -1    0    0    0    0  0.00000000000E+00  0.00000000000E+00  0.45593999997E+02  0.45594000000E+02  0.51100000000E-03 0.  1.
         11   -1    0    0    0    0 -0.00000000000E+00 -0.00000000000E+00 -0.45593999997E+02  0.45594000000E+02  0.51100000000E-03 0. -1.
    9900012    2    1    2    0    0  0.35815362182E+02 -0.19097291820E+02 -0.23914028169E+01  0.50528861660E+02  0.30000005501E+02 0.  0.
         12    1    1    2    0    0 -0.35815362182E+02  0.19097291820E+02  0.23914028169E+01  0.40659138340E+02  0.00000000000E+00 0. -1.
         11    1    3    3    0    0  0.87681593198E+01 -0.35092033397E+01 -0.17936828483E+01  0.96131381118E+01  0.51100000000E-03 0.  1.
        -11    1    3    3    0    0  0.11928515473E+02 -0.12554652010E+02 -0.12565600086E+02  0.21396333197E+02  0.51100000000E-03 0. -1.
        -12    1    3    3    0    0  0.15118687389E+02 -0.30334364710E+01  0.11967880117E+02  0.19519390351E+02  0.00000000000E+00 0.  1.
</event>
<event>
 7    1  0.6726285E-013  0.5052886E+02  0.7816164E-02  0.1300439E+00
        -11   -1    0    0    0    0  0.00000000000E+00  0.00000000000E+00  0.45593999997E+02  0.45594000000E+02  0.51100000000E-03 0. -1.
         11   -1    0    0    0    0 -0.00000000000E+00 -0.00000000000E+00 -0.45593999997E+02  0.45594000000E+02  0.51100000000E-03 0.  1.
    9900012    2    1    2    0    0  0.32894030554E+02 -0.68425626467E+01 -0.22898203373E+02  0.50528860469E+02  0.30000001883E+02 0.  0.
         12    1    1    2    0    0 -0.32894030554E+02  0.68425626467E+01  0.22898203373E+02  0.40659139531E+02  0.00000000000E+00 0. -1.
         11    1    3    3    0    0  0.18484742844E+01  0.19747408603E+01 -0.12062184300E+02  0.12361745386E+02  0.51100000000E-03 0.  1.
        -11    1    3    3    0    0  0.12088695641E+02  0.38855202349E+01  0.45746351345E+00  0.12706026245E+02  0.51100000000E-03 0. -1.
        -12    1    3    3    0    0  0.18956860629E+02 -0.12702823742E+02 -0.11293482586E+02  0.25461088838E+02  0.00000000000E+00 0.  1.
</event>
<event>
 7    1  0.6726285E-013  0.5052886E+02  0.7816164E-02  0.1300439E+00
        -11   -1    0    0    0    0  0.00000000000E+00  0.00000000000E+00  0.45593999997E+02  0.45594000000E+02  0.51100000000E-03 0. -1.
         11   -1    0    0    0    0 -0.00000000000E+00 -0.00000000000E+00 -0.45593999997E+02  0.45594000000E+02  0.51100000000E-03 0.  1.
    9900012    2    1    2    0    0  0.29147294530E+02  0.23536971159E+02 -0.15799099321E+02  0.50528864137E+02  0.30000013031E+02 0.  0.
         12    1    1    2    0    0 -0.29147294530E+02 -0.23536971159E+02  0.15799099321E+02  0.40659135863E+02  0.00000000000E+00 0. -1.
         11    1    3    3    0    0  0.83120236935E+01  0.38927545718E+01 -0.10287847643E+02  0.13787062248E+02  0.51100000000E-03 0.  1.
        -11    1    3    3    0    0 -0.24850370159E+01  0.58440265108E+01  0.45761725430E+01  0.78274778974E+01  0.51100000000E-03 0. -1.
         12    1    3    3    0    0  0.23320307853E+02  0.13800190076E+02 -0.10087424221E+02  0.28914323992E+02  0.00000000000E+00 0. -1.
</event>
<event>
 7    1  0.6726285E-013  0.5052885E+02  0.7816164E-02  0.1300439E+00
        -11   -1    0    0    0    0  0.00000000000E+00  0.00000000000E+00  0.45593999997E+02  0.45594000000E+02  0.51100000000E-03 0.  1.
         11   -1    0    0    0    0 -0.00000000000E+00 -0.00000000000E+00 -0.45593999997E+02  0.45594000000E+02  0.51100000000E-03 0. -1.
    9900012    2    1    2    0    0 -0.15786031101E+02 -0.33543749469E+02  0.16696839733E+02  0.50528851418E+02  0.29999974370E+02 0.  0.
         12    1    1    2    0    0  0.15786031101E+02  0.33543749469E+02 -0.16696839733E+02  0.40659148582E+02  0.00000000000E+00 0. -1.
         11    1    3    3    0    0 -0.85615738972E+00 -0.98703603375E+01  0.12869245493E+02  0.16241135998E+02  0.51100000000E-03 0. -1.
        -11    1    3    3    0    0  0.37012945767E+00 -0.17326757708E+02  0.20414088793E+00  0.17331912827E+02  0.51100000000E-03 0.  1.
         12    1    3    3    0    0 -0.15300003169E+02 -0.63466314232E+01  0.36234533521E+01  0.16955802593E+02  0.00000000000E+00 0. -1.
</event>
<event>
 7    1  0.6726285E-013  0.5052886E+02  0.7816164E-02  0.1300439E+00
        -11   -1    0    0    0    0  0.00000000000E+00  0.00000000000E+00  0.45593999997E+02  0.45594000000E+02  0.51100000000E-03 0.  1.
         11   -1    0    0    0    0 -0.00000000000E+00 -0.00000000000E+00 -0.45593999997E+02  0.45594000000E+02  0.51100000000E-03 0. -1.
    9900012    2    1    2    0    0 -0.23836515310E+02  0.28713407941E+02  0.16140832862E+02  0.50528859045E+02  0.29999997554E+02 0.  0.
         12    1    1    2    0    0  0.23836515310E+02 -0.28713407941E+02 -0.16140832862E+02  0.40659140955E+02  0.00000000000E+00 0. -1.
         11    1    3    3    0    0  0.24692655914E+00 -0.68091903031E+00 -0.10422204000E+01  0.12691915044E+01  0.51100000000E-03 0. -1.
        -11    1    3    3    0    0 -0.21673732460E+02  0.71288571939E+01  0.36870848113E+01  0.23112028866E+02  0.51100000000E-03 0.  1.
        -12    1    3    3    0    0 -0.24097094091E+01  0.22265469777E+02  0.13495968451E+02  0.26147638675E+02  0.00000000000E+00 0.  1.
</event>
<event>
 7    1  0.6726285E-013  0.5052883E+02  0.7816164E-02  0.1300439E+00
        -11   -1    0    0    0    0  0.00000000000E+00  0.00000000000E+00  0.45593999997E+02  0.45594000000E+02  0.51100000000E-03 0. -1.
         11   -1    0    0    0    0 -0.00000000000E+00 -0.00000000000E+00 -0.45593999997E+02  0.45594000000E+02  0.51100000000E-03 0.  1.
    9900012    2    1    2    0    0  0.17527482625E+02 -0.51114854579E+01 -0.36329437066E+02  0.50528832174E+02  0.29999915877E+02 0.  0.
         12    1    1    2    0    0 -0.17527482625E+02  0.51114854579E+01  0.36329437066E+02  0.40659167826E+02  0.00000000000E+00 0. -1.
         11    1    3    3    0    0  0.10167932683E+02  0.56214935940E+01 -0.46371824456E+01  0.12509656533E+02  0.51100000000E-03 0. -1.
        -11    1    3    3    0    0 -0.14558316963E+01  0.31716705567E+01 -0.18824228134E+01  0.39651552250E+01  0.51100000000E-03 0.  1.
        -12    1    3    3    0    0  0.88153816381E+01 -0.13904649609E+02 -0.29809831807E+02  0.34054020416E+02  0.00000000000E+00 0.  1.
</event>
<event>
 7    1  0.6726285E-013  0.5052887E+02  0.7816164E-02  0.1300439E+00
        -11   -1    0    0    0    0  0.00000000000E+00  0.00000000000E+00  0.45593999997E+02  0.45594000000E+02  0.51100000000E-03 0.  1.
         11   -1    0    0    0    0 -0.00000000000E+00 -0.00000000000E+00 -0.45593999997E+02  0.45594000000E+02  0.51100000000E-03 0. -1.
    9900012    2    1    2    0    0  0.13827926911E+02  0.37950336922E+02 -0.46610666530E+01  0.50528866002E+02  0.30000018700E+02 0.  0.
         12    1    1    2    0    0 -0.13827926911E+02 -0.37950336922E+02  0.46610666530E+01  0.40659133998E+02  0.00000000000E+00 0. -1.
         11    1    3    3    0    0  0.19726208019E+02  0.25280291687E+02 -0.51351765201E+01  0.32474397127E+02  0.51100000000E-03 0. -1.
        -11    1    3    3    0    0  0.15608122982E+01  0.95985374756E+01 -0.12527410052E+01  0.98049689947E+01  0.51100000000E-03 0.  1.
        -12    1    3    3    0    0 -0.74590934056E+01  0.30715077589E+01  0.17268508722E+01  0.82494998807E+01  0.00000000000E+00 0.  1.
</event>
<event>
 7    1  0.6726285E-013  0.5052885E+02  0.7816164E-02  0.1300439E+00
        -11   -1    0    0    0    0  0.00000000000E+00  0.00000000000E+00  0.45593999997E+02  0.45594000000E+02  0.51100000000E-03 0.  1.
         11   -1    0    0    0    0 -0.00000000000E+00 -0.00000000000E+00 -0.45593999997E+02  0.45594000000E+02  0.51100000000E-03 0. -1.
    9900012    2    1    2    0    0  0.10738951284E+01 -0.33923638111E+02  0.22387490965E+02  0.50528853119E+02  0.29999979540E+02 0.  0.
         12    1    1    2    0    0 -0.10738951284E+01  0.33923638111E+02 -0.22387490965E+02  0.40659146881E+02  0.00000000000E+00 0. -1.
         11    1    3    3    0    0  0.70419978549E+01 -0.51425969866E+01  0.13316758220E+02  0.15917665887E+02  0.51100000000E-03 0. -1.
        -11    1    3    3    0    0  0.39377178118E+01 -0.30208857315E+01  0.43738210114E+01  0.66152613455E+01  0.51100000000E-03 0.  1.
         12    1    3    3    0    0 -0.99058205384E+01 -0.25760155392E+02  0.46969117335E+01  0.27995925886E+02  0.00000000000E+00 0. -1.
</event>
<event>
 7    1  0.6726285E-013  0.5052887E+02  0.7816164E-02  0.1300439E+00
        -11   -1    0    0    0    0  0.00000000000E+00  0.00000000000E+00  0.45593999997E+02  0.45594000000E+02  0.51100000000E-03 0.  1.
         11   -1    0    0    0    0 -0.00000000000E+00 -0.00000000000E+00 -0.45593999997E+02  0.45594000000E+02  0.51100000000E-03 0. -1.
    9900012    2    1    2    0    0 -0.39518872877E+02  0.68352324823E+01  0.66860392687E+01  0.50528870181E+02  0.30000031402E+02 0.  0.
         12    1    1    2    0    0  0.39518872877E+02 -0.68352324823E+01 -0.66860392687E+01  0.40659129819E+02  0.00000000000E+00 0. -1.
         11    1    3    3    0    0 -0.36197427823E+00  0.32854612655E+00  0.21507302709E+01  0.22055858393E+01  0.51100000000E-03 0. -1.
        -11    1    3    3    0    0 -0.18010722379E+02 -0.99509481802E+01  0.61575547703E+01  0.21478430373E+02  0.51100000000E-03 0.  1.
         12    1    3    3    0    0 -0.21146176220E+02  0.16457634536E+02 -0.16222457725E+01  0.26844853969E+02  0.00000000000E+00 0. -1.
</event>
<event>
 7    1  0.6726285E-013  0.5052885E+02  0.7816164E-02  0.1300439E+00
        -11   -1    0    0    0    0  0.00000000000E+00  0.00000000000E+00  0.45593999997E+02  0.45594000000E+02  0.51100000000E-03 0.  1.
         11   -1    0    0    0    0 -0.00000000000E+00 -0.00000000000E+00 -0.45593999997E+02  0.45594000000E+02  0.51100000000E-03 0. -1.
    9900012    2    1    2    0    0  0.12344530536E+02  0.38315019286E+02  0.57217318124E+01  0.50528851559E+02  0.29999974798E+02 0.  0.
         12    1    1    2    0    0 -0.12344530536E+02 -0.38315019286E+02 -0.57217318124E+01  0.40659148441E+02  0.00000000000E+00 0. -1.
         11    1    3    3    0    0  0.10225334745E+02  0.16101265711E+02 -0.16947299346E+01  0.19148899132E+02  0.51100000000E-03 0. -1.
        -11    1    3    3    0    0  0.11441330153E+02  0.11405053183E+02  0.29329687071E+01  0.16418939658E+02  0.51100000000E-03 0.  1.
         12    1    3    3    0    0 -0.93221343626E+01  0.10808700391E+02  0.44834930400E+01  0.14961012769E+02  0.00000000000E+00 0. -1.
</event>
<event>
 7    1  0.6726285E-013  0.5052885E+02  0.7816164E-02  0.1300439E+00
        -11   -1    0    0    0    0  0.00000000000E+00  0.00000000000E+00  0.45593999997E+02  0.45594000000E+02  0.51100000000E-03 0. -1.
         11   -1    0    0    0    0 -0.00000000000E+00 -0.00000000000E+00 -0.45593999997E+02  0.45594000000E+02  0.51100000000E-03 0.  1.
    9900012    2    1    2    0    0  0.30788262628E+02 -0.26306738522E+02 -0.36338685028E+01  0.50528848415E+02  0.29999965242E+02 0.  0.
         12    1    1    2    0    0 -0.30788262628E+02  0.26306738522E+02  0.36338685028E+01  0.40659151585E+02  0.00000000000E+00 0. -1.
         11    1    3    3    0    0  0.10496609024E+02 -0.18004033614E+02  0.98242962154E+01  0.23039983155E+02  0.51100000000E-03 0. -1.
        -11    1    3    3    0    0  0.20485498973E+01 -0.49683363811E+01 -0.23004023146E+01  0.58457483822E+01  0.51100000000E-03 0.  1.
        -12    1    3    3    0    0  0.18243103707E+02 -0.33343685265E+01 -0.11157762404E+02  0.21643116878E+02  0.00000000000E+00 0.  1.
</event>
<event>
 7    1  0.6726285E-013  0.5052893E+02  0.7816164E-02  0.1300439E+00
        -11   -1    0    0    0    0  0.00000000000E+00  0.00000000000E+00  0.45593999997E+02  0.45594000000E+02  0.51100000000E-03 0. -1.
         11   -1    0    0    0    0 -0.00000000000E+00 -0.00000000000E+00 -0.45593999997E+02  0.45594000000E+02  0.51100000000E-03 0.  1.
    9900012    2    1    2    0    0  0.34760353538E+02 -0.14443430528E+02 -0.15370929511E+02  0.50528925521E+02  0.30000199612E+02 0.  0.
         12    1    1    2    0    0 -0.34760353538E+02  0.14443430528E+02  0.15370929511E+02  0.40659074479E+02  0.00000000000E+00 0. -1.
         11    1    3    3    0    0  0.11445819558E+02 -0.37659403713E+01 -0.10305359348E+02  0.15855268013E+02  0.51100000000E-03 0. -1.
        -11    1    3    3    0    0  0.12685429392E+02  0.81076112967E+00 -0.12067949729E+02  0.17527488793E+02  0.51100000000E-03 0.  1.
         12    1    3    3    0    0  0.10629104588E+02 -0.11488251286E+02  0.70023795666E+01  0.17146168714E+02  0.00000000000E+00 0. -1.
</event>
<event>
 7    1  0.6726285E-013  0.5052886E+02  0.7816164E-02  0.1300439E+00
        -11   -1    0    0    0    0  0.00000000000E+00  0.00000000000E+00  0.45593999997E+02  0.45594000000E+02  0.51100000000E-03 0.  1.
         11   -1    0    0    0    0 -0.00000000000E+00 -0.00000000000E+00 -0.45593999997E+02  0.45594000000E+02  0.51100000000E-03 0. -1.
    9900012    2    1    2    0    0 -0.27316228590E+02  0.30007197393E+02 -0.25606940442E+01  0.50528863342E+02  0.30000010615E+02 0.  0.
         12    1    1    2    0    0  0.27316228590E+02 -0.30007197393E+02  0.25606940442E+01  0.40659136658E+02  0.00000000000E+00 0. -1.
         11    1    3    3    0    0 -0.19688417778E+01  0.16311530412E+02  0.57236310975E+01  0.17398342321E+02  0.51100000000E-03 0. -1.
        -11    1    3    3    0    0 -0.11517931627E+02  0.12849420307E+01  0.21981308465E+01  0.11795999511E+02  0.51100000000E-03 0.  1.
        -12    1    3    3    0    0 -0.13829455185E+02  0.12410724950E+02 -0.10482455988E+02  0.21334521510E+02  0.00000000000E+00 0.  1.
</event>
<event>
 7    1  0.6726285E-013  0.5052885E+02  0.7816164E-02  0.1300439E+00
        -11   -1    0    0    0    0  0.00000000000E+00  0.00000000000E+00  0.45593999997E+02  0.45594000000E+02  0.51100000000E-03 0.  1.
         11   -1    0    0    0    0 -0.00000000000E+00 -0.00000000000E+00 -0.45593999997E+02  0.45594000000E+02  0.51100000000E-03 0. -1.
    9900012    2    1    2    0    0 -0.65641905289E+01 -0.21081187993E+02  0.34141788215E+02  0.50528846209E+02  0.29999958538E+02 0.  0.
         12    1    1    2    0    0  0.65641905289E+01  0.21081187993E+02 -0.34141788215E+02  0.40659153791E+02  0.00000000000E+00 0. -1.
         11    1    3    3    0    0  0.18257526625E+01 -0.80456298185E+01  0.62155184588E+01  0.10329482172E+02  0.51100000000E-03 0. -1.
        -11    1    3    3    0    0  0.50429786835E+00 -0.16970065780E+02  0.97327000505E+01  0.19569437893E+02  0.51100000000E-03 0.  1.
        -12    1    3    3    0    0 -0.88942410597E+01  0.39345076056E+01  0.18193569705E+02  0.20629926145E+02  0.00000000000E+00 0.  1.
</event>
<event>
 7    1  0.6726285E-013  0.5052884E+02  0.7816164E-02  0.1300439E+00
        -11   -1    0    0    0    0  0.00000000000E+00  0.00000000000E+00  0.45593999997E+02  0.45594000000E+02  0.51100000000E-03 0. -1.
         11   -1    0    0    0    0 -0.00000000000E+00 -0.00000000000E+00 -0.45593999997E+02  0.45594000000E+02  0.51100000000E-03 0.  1.
    9900012    2    1    2    0    0  0.19585415503E+02 -0.31534671302E+02  0.16587432390E+02  0.50528844723E+02  0.29999954021E+02 0.  0.
         12    1    1    2    0    0 -0.19585415503E+02  0.31534671302E+02 -0.16587432390E+02  0.40659155277E+02  0.00000000000E+00 0. -1.
         11    1    3    3    0    0  0.70584384748E+01 -0.94630015110E+00 -0.29583474254E+01  0.77116053730E+01  0.51100000000E-03 0. -1.
        -11    1    3    3    0    0  0.14499340668E+02 -0.12250759035E+02  0.59103963239E+01  0.19880763610E+02  0.51100000000E-03 0.  1.
        -12    1    3    3    0    0 -0.19723636403E+01 -0.18337612115E+02  0.13635383492E+02  0.22936475740E+02  0.00000000000E+00 0.  1.
</event>
<event>
 7    1  0.6726285E-013  0.5052886E+02  0.7816164E-02  0.1300439E+00
        -11   -1    0    0    0    0  0.00000000000E+00  0.00000000000E+00  0.45593999997E+02  0.45594000000E+02  0.51100000000E-03 0.  1.
         11   -1    0    0    0    0 -0.00000000000E+00 -0.00000000000E+00 -0.45593999997E+02  0.45594000000E+02  0.51100000000E-03 0. -1.
    9900012    2    1    2    0    0 -0.39863126880E+02 -0.70956500170E+01 -0.37079247075E+01  0.50528857861E+02  0.29999993954E+02 0.  0.
         12    1    1    2    0    0  0.39863126880E+02  0.70956500170E+01  0.37079247075E+01  0.40659142139E+02  0.00000000000E+00 0. -1.
         11    1    3    3    0    0 -0.60669834762E+01  0.67860057653E+01 -0.21743033403E+01  0.93587263035E+01  0.51100000000E-03 0.  1.
        -11    1    3    3    0    0 -0.14547772500E+02  0.34405193595E+01 -0.29456934969E+01  0.15236534009E+02  0.51100000000E-03 0. -1.
         12    1    3    3    0    0 -0.19248370904E+02 -0.17322175142E+02  0.14120721297E+01  0.25933597549E+02  0.00000000000E+00 0. -1.
</event>
<event>
 7    1  0.6726285E-013  0.5052886E+02  0.7816164E-02  0.1300439E+00
        -11   -1    0    0    0    0  0.00000000000E+00  0.00000000000E+00  0.45593999997E+02  0.45594000000E+02  0.51100000000E-03 0.  1.
         11   -1    0    0    0    0 -0.00000000000E+00 -0.00000000000E+00 -0.45593999997E+02  0.45594000000E+02  0.51100000000E-03 0. -1.
    9900012    2    1    2    0    0 -0.20919104080E+02  0.73529128075E+01  0.34080657112E+02  0.50528862879E+02  0.30000009207E+02 0.  0.
         12    1    1    2    0    0  0.20919104080E+02 -0.73529128075E+01 -0.34080657112E+02  0.40659137121E+02  0.00000000000E+00 0. -1.
         11    1    3    3    0    0 -0.16557803669E+01  0.14344723975E+01  0.85801597903E+01  0.88554199206E+01  0.51100000000E-03 0.  1.
        -11    1    3    3    0    0 -0.14583285646E+02  0.15914897707E+02  0.19603929856E+02  0.29159393947E+02  0.51100000000E-03 0. -1.
         12    1    3    3    0    0 -0.46800380664E+01 -0.99964572969E+01  0.58965674656E+01  0.12514049012E+02  0.00000000000E+00 0. -1.
</event>
<event>
 7    1  0.6726285E-013  0.5052886E+02  0.7816164E-02  0.1300439E+00
        -11   -1    0    0    0    0  0.00000000000E+00  0.00000000000E+00  0.45593999997E+02  0.45594000000E+02  0.51100000000E-03 0.  1.
         11   -1    0    0    0    0 -0.00000000000E+00 -0.00000000000E+00 -0.45593999997E+02  0.45594000000E+02  0.51100000000E-03 0. -1.
    9900012    2    1    2    0    0  0.38752126587E+02  0.10655316091E+02  0.61564810370E+01  0.50528864068E+02  0.30000012820E+02 0.  0.
         12    1    1    2    0    0 -0.38752126587E+02 -0.10655316091E+02 -0.61564810370E+01  0.40659135932E+02  0.00000000000E+00 0. -1.
         11    1    3    3    0    0  0.27208138042E+02  0.62498936099E+01  0.58122233351E+01  0.28515362285E+02  0.51100000000E-03 0.  1.
        -11    1    3    3    0    0  0.15292023087E+02  0.14267463896E+00 -0.27663666838E+01  0.15540885143E+02  0.51100000000E-03 0. -1.
         12    1    3    3    0    0 -0.37480345425E+01  0.42627478419E+01  0.31106243857E+01  0.64726166397E+01  0.00000000000E+00 0. -1.
</event>
<event>
 7    1  0.6726285E-013  0.5052886E+02  0.7816164E-02  0.1300439E+00
        -11   -1    0    0    0    0  0.00000000000E+00  0.00000000000E+00  0.45593999997E+02  0.45594000000E+02  0.51100000000E-03 0.  1.
         11   -1    0    0    0    0 -0.00000000000E+00 -0.00000000000E+00 -0.45593999997E+02  0.45594000000E+02  0.51100000000E-03 0. -1.
    9900012    2    1    2    0    0  0.28592478302E+02 -0.52816624077E+01  0.28420760849E+02  0.50528863014E+02  0.30000009618E+02 0.  0.
         12    1    1    2    0    0 -0.28592478302E+02  0.52816624077E+01 -0.28420760849E+02  0.40659136986E+02  0.00000000000E+00 0. -1.
         11    1    3    3    0    0  0.15410280754E+02  0.85471107973E+00  0.21951770644E+02  0.26834446493E+02  0.51100000000E-03 0. -1.
        -11    1    3    3    0    0  0.77092161901E+01  0.93230786375E-01  0.11610780557E+02  0.13937393287E+02  0.51100000000E-03 0.  1.
         12    1    3    3    0    0  0.54729813575E+01 -0.62296042738E+01 -0.51417903521E+01  0.97570232332E+01  0.00000000000E+00 0. -1.
</event>
<event>
 7    1  0.6726285E-013  0.5052888E+02  0.7816164E-02  0.1300439E+00
        -11   -1    0    0    0    0  0.00000000000E+00  0.00000000000E+00  0.45593999997E+02  0.45594000000E+02  0.51100000000E-03 0.  1.
         11   -1    0    0    0    0 -0.00000000000E+00 -0.00000000000E+00 -0.45593999997E+02  0.45594000000E+02  0.51100000000E-03 0. -1.
    9900012    2    1    2    0    0  0.12602114950E+02  0.77475259367E+01  0.37872506878E+02  0.50528877572E+02  0.30000053868E+02 0.  0.
         12    1    1    2    0    0 -0.12602114950E+02 -0.77475259367E+01 -0.37872506878E+02  0.40659122428E+02  0.00000000000E+00 0. -1.
         11    1    3    3    0    0  0.73839836694E+01 -0.67167464832E+01  0.92745357135E+01  0.13625524251E+02  0.51100000000E-03 0. -1.
        -11    1    3    3    0    0  0.11383997818E+02  0.79324598527E+01  0.13647863323E+02  0.19462361089E+02  0.51100000000E-03 0.  1.
        -12    1    3    3    0    0 -0.61658665367E+01  0.65318125672E+01  0.14950107842E+02  0.17440992232E+02  0.00000000000E+00 0.  1.
</event>
<event>
 7    1  0.8516538E-013  0.5052886E+02  0.7816164E-02  0.1300439E+00
        -11   -1    0    0    0    0  0.00000000000E+00  0.00000000000E+00  0.45593999997E+02  0.45594000000E+02  0.51100000000E-03 0.  1.
         11   -1    0    0    0    0 -0.00000000000E+00 -0.00000000000E+00 -0.45593999997E+02  0.45594000000E+02  0.51100000000E-03 0. -1.
    9900012    2    1    2    0    0  0.27080072196E+02  0.21044644739E+02  0.21839377935E+02  0.50528858213E+02  0.29999995023E+02 0.  0.
         12    1    1    2    0    0 -0.27080072196E+02 -0.21044644739E+02 -0.21839377935E+02  0.40659141787E+02  0.00000000000E+00 0. -1.
         11    1    3    3    0    0 -0.95354960248E-01  0.12680047822E+01  0.49070030441E+01  0.50690835298E+01  0.51100000000E-03 0. -1.
        -11    1    3    3    0    0  0.18849742632E+02  0.22184187919E+02  0.20990995517E+02  0.35889732291E+02  0.51100000000E-03 0.  1.
         12    1    3    3    0    0  0.83256845241E+01 -0.24075479621E+01 -0.40586206261E+01  0.95700423913E+01  0.00000000000E+00 0. -1.
</event>
<event>
 7    1  0.6726285E-013  0.5052886E+02  0.7816164E-02  0.1300439E+00
        -11   -1    0    0    0    0  0.00000000000E+00  0.00000000000E+00  0.45593999997E+02  0.45594000000E+02  0.51100000000E-03 0.  1.
         11   -1    0    0    0    0 -0.00000000000E+00 -0.00000000000E+00 -0.45593999997E+02  0.45594000000E+02  0.51100000000E-03 0. -1.
    9900012    2    1    2    0    0 -0.10240863249E+02  0.29123102754E+02  0.26460069753E+02  0.50528859755E+02  0.29999999711E+02 0.  0.
         12    1    1    2    0    0  0.10240863249E+02 -0.29123102754E+02 -0.26460069753E+02  0.40659140245E+02  0.00000000000E+00 0. -1.
         11    1    3    3    0    0 -0.11772299455E+02  0.12369166496E+02  0.11654622207E+01  0.17115537290E+02  0.51100000000E-03 0. -1.
        -11    1    3    3    0    0 -0.20233711784E+01  0.89080069944E+01  0.31670478497E+01  0.96683406995E+01  0.51100000000E-03 0.  1.
         12    1    3    3    0    0  0.35548073843E+01  0.78459292639E+01  0.22127559683E+02  0.23744981766E+02  0.00000000000E+00 0. -1.
</event>
<event>
 7    1  0.6726285E-013  0.5052885E+02  0.7816164E-02  0.1300439E+00
        -11   -1    0    0    0    0  0.00000000000E+00  0.00000000000E+00  0.45593999997E+02  0.45594000000E+02  0.51100000000E-03 0.  1.
         11   -1    0    0    0    0 -0.00000000000E+00 -0.00000000000E+00 -0.45593999997E+02  0.45594000000E+02  0.51100000000E-03 0. -1.
    9900012    2    1    2    0    0  0.25946249975E+02 -0.15095578283E+02  0.27424110188E+02  0.50528853537E+02  0.29999980811E+02 0.  0.
         12    1    1    2    0    0 -0.25946249975E+02  0.15095578283E+02 -0.27424110188E+02  0.40659146463E+02  0.00000000000E+00 0. -1.
         11    1    3    3    0    0  0.25614444876E+01  0.75673340034E+00  0.12555866129E+02  0.12836799360E+02  0.51100000000E-03 0. -1.
        -11    1    3    3    0    0  0.12931378621E+01  0.43377866910E+01  0.70157984553E+00  0.45804817921E+01  0.51100000000E-03 0.  1.
         12    1    3    3    0    0  0.22091667626E+02 -0.20190098375E+02  0.14166664214E+02  0.33111572385E+02  0.00000000000E+00 0. -1.
</event>
<event>
 7    1  0.6726285E-013  0.5052886E+02  0.7816164E-02  0.1300439E+00
        -11   -1    0    0    0    0  0.00000000000E+00  0.00000000000E+00  0.45593999997E+02  0.45594000000E+02  0.51100000000E-03 0.  1.
         11   -1    0    0    0    0 -0.00000000000E+00 -0.00000000000E+00 -0.45593999997E+02  0.45594000000E+02  0.51100000000E-03 0. -1.
    9900012    2    1    2    0    0  0.40105513940E+02 -0.12596147885E+01  0.65670835641E+01  0.50528862474E+02  0.30000007977E+02 0.  0.
         12    1    1    2    0    0 -0.40105513940E+02  0.12596147885E+01 -0.65670835641E+01  0.40659137526E+02  0.00000000000E+00 0. -1.
         11    1    3    3    0    0  0.77469823225E+01 -0.85479535256E+01  0.73087563765E+01  0.13656542923E+02  0.51100000000E-03 0. -1.
        -11    1    3    3    0    0  0.13057686074E+02 -0.49603666990E+01  0.52328884337E+00  0.13977919547E+02  0.51100000000E-03 0.  1.
         12    1    3    3    0    0  0.19300845543E+02  0.12248705436E+02 -0.12649616558E+01  0.22894400004E+02  0.00000000000E+00 0. -1.
</event>
<event>
 7    1  0.6726285E-013  0.5052886E+02  0.7816164E-02  0.1300439E+00
        -11   -1    0    0    0    0  0.00000000000E+00  0.00000000000E+00  0.45593999997E+02  0.45594000000E+02  0.51100000000E-03 0.  1.
         11   -1    0    0    0    0 -0.00000000000E+00 -0.00000000000E+00 -0.45593999997E+02  0.45594000000E+02  0.51100000000E-03 0. -1.
    9900012    2    1    2    0    0 -0.97703522177E+01  0.33834293235E+02  0.20321081179E+02  0.50528861772E+02  0.30000005841E+02 0.  0.
         12    1    1    2    0    0  0.97703522177E+01 -0.33834293235E+02 -0.20321081179E+02  0.40659138228E+02  0.00000000000E+00 0. -1.
         11    1    3    3    0    0 -0.11250267193E+02  0.37920247414E+01  0.48551722730E+01  0.12826560787E+02  0.51100000000E-03 0. -1.
        -11    1    3    3    0    0  0.21753093864E+01  0.14788238401E+01  0.76368847238E+01  0.80771838794E+01  0.51100000000E-03 0.  1.
        -12    1    3    3    0    0 -0.69539441119E+00  0.28563444654E+02  0.78290241824E+01  0.29625117106E+02  0.00000000000E+00 0.  1.
</event>
<event>
 7    1  0.6726285E-013  0.5052886E+02  0.7816164E-02  0.1300439E+00
        -11   -1    0    0    0    0  0.00000000000E+00  0.00000000000E+00  0.45593999997E+02  0.45594000000E+02  0.51100000000E-03 0.  1.
         11   -1    0    0    0    0 -0.00000000000E+00 -0.00000000000E+00 -0.45593999997E+02  0.45594000000E+02  0.51100000000E-03 0. -1.
    9900012    2    1    2    0    0 -0.10161121460E+02  0.26702677902E+02  0.28928953692E+02  0.50528858861E+02  0.29999996993E+02 0.  0.
         12    1    1    2    0    0  0.10161121460E+02 -0.26702677902E+02 -0.28928953692E+02  0.40659141139E+02  0.00000000000E+00 0. -1.
         11    1    3    3    0    0 -0.13181176267E+01  0.50897108539E+00  0.59181242301E+00  0.15319033418E+01  0.51100000000E-03 0. -1.
        -11    1    3    3    0    0 -0.12128896542E+02  0.29502431230E+02  0.30246044788E+02  0.43958239335E+02  0.51100000000E-03 0.  1.
         12    1    3    3    0    0  0.32858927085E+01 -0.33087244139E+01 -0.19089035187E+01  0.50387161840E+01  0.00000000000E+00 0. -1.
</event>
