<event>
 7    1  0.8986500E-014  0.5052888E+02  0.7816164E-02  0.1300439E+00
        -11   -1    0    0    0    0  0.00000000000E+00  0.00000000000E+00  0.45593999997E+02  0.45594000000E+02  0.51100000000E-03 0. -1.
         11   -1    0    0    0    0 -0.00000000000E+00 -0.00000000000E+00 -0.45593999997E+02  0.45594000000E+02  0.51100000000E-03 0.  1.
    9900012    2    1    2    0    0  0.15667641185E+02 -0.19841369531E+02 -0.31843507140E+02  0.50528882054E+02  0.30000067492E+02 0.  0.
         12    1    1    2    0    0 -0.15667641185E+02  0.19841369531E+02  0.31843507140E+02  0.40659117946E+02  0.00000000000E+00 0. -1.
         11    1    3    3    0    0  0.17084792690E+01 -0.10197593247E+01 -0.16376805084E+02  0.16497228722E+02  0.51100000000E-03 0. -1.
        -11    1    3    3    0    0  0.61443121794E+01 -0.12104193565E+02 -0.18811077813E+02  0.23197429227E+02  0.51100000000E-03 0.  1.
         12    1    3    3    0    0  0.78148497370E+01 -0.67174166413E+01  0.33443757575E+01  0.10834224105E+02  0.00000000000E+00 0. -1.
</event>
<event>
 7    1  0.8986500E-014  0.5052887E+02  0.7816164E-02  0.1300439E+00
        -11   -1    0    0    0    0  0.00000000000E+00  0.00000000000E+00  0.45593999997E+02  0.45594000000E+02  0.51100000000E-03 0. -1.
         11   -1    0    0    0    0 -0.00000000000E+00 -0.00000000000E+00 -0.45593999997E+02  0.45594000000E+02  0.51100000000E-03 0.  1.
    9900012    2    1    2    0    0  0.53620295532E+01  0.19013739916E+02  0.35537185275E+02  0.50528865678E+02  0.30000017715E+02 0.  0.
        -12    1    1    2    0    0 -0.53620295532E+01 -0.19013739916E+02 -0.35537185275E+02  0.40659134322E+02  0.00000000000E+00 0.  1.
         11    1    3    3    0    0 -0.10354695659E+01  0.18627552285E+02  0.21257825524E+02  0.28283441227E+02  0.51100000000E-03 0. -1.
        -11    1    3    3    0    0  0.46676414994E+01  0.45288960541E+01 -0.76221092931E+00  0.65481861914E+01  0.51100000000E-03 0.  1.
        -12    1    3    3    0    0  0.17298576197E+01 -0.41427084227E+01  0.15041570680E+02  0.15697238260E+02  0.00000000000E+00 0.  1.
</event>
<event>
 7    1  0.8986500E-014  0.5052886E+02  0.7816164E-02  0.1300439E+00
        -11   -1    0    0    0    0  0.00000000000E+00  0.00000000000E+00  0.45593999997E+02  0.45594000000E+02  0.51100000000E-03 0. -1.
         11   -1    0    0    0    0 -0.00000000000E+00 -0.00000000000E+00 -0.45593999997E+02  0.45594000000E+02  0.51100000000E-03 0.  1.
    9900012    2    1    2    0    0  0.58790503387E+01 -0.35692904738E+02  0.18563924506E+02  0.50528856200E+02  0.29999988905E+02 0.  0.
        -12    1    1    2    0    0 -0.58790503387E+01  0.35692904738E+02 -0.18563924506E+02  0.40659143800E+02  0.00000000000E+00 0.  1.
         11    1    3    3    0    0 -0.15711579115E+01  0.11137628441E+01  0.35314299411E-01  0.19262014995E+01  0.51100000000E-03 0.  1.
        -11    1    3    3    0    0  0.32791326800E+01 -0.10900079138E+02 -0.58391070960E+01  0.12792951508E+02  0.51100000000E-03 0. -1.
        -12    1    3    3    0    0  0.41710755703E+01 -0.25906588444E+02  0.24367717302E+02  0.35809703193E+02  0.00000000000E+00 0.  1.
</event>
<event>
 7    1  0.8986500E-014  0.5052886E+02  0.7816164E-02  0.1300439E+00
        -11   -1    0    0    0    0  0.00000000000E+00  0.00000000000E+00  0.45593999997E+02  0.45594000000E+02  0.51100000000E-03 0. -1.
         11   -1    0    0    0    0 -0.00000000000E+00 -0.00000000000E+00 -0.45593999997E+02  0.45594000000E+02  0.51100000000E-03 0.  1.
    9900012    2    1    2    0    0 -0.40336535777E+02  0.16550948823E+01  0.48363261045E+01  0.50528861941E+02  0.30000006355E+02 0.  0.
        -12    1    1    2    0    0  0.40336535777E+02 -0.16550948823E+01 -0.48363261045E+01  0.40659138059E+02  0.00000000000E+00 0.  1.
         11    1    3    3    0    0 -0.23721007212E+02  0.82569519678E+00  0.24452269823E+01  0.23860995180E+02  0.51100000000E-03 0. -1.
        -11    1    3    3    0    0 -0.17491187121E+02 -0.38802189112E+01  0.77142834026E+01  0.19506611555E+02  0.51100000000E-03 0.  1.
        -12    1    3    3    0    0  0.87565855638E+00  0.47096185967E+01 -0.53231842804E+01  0.71612552054E+01  0.00000000000E+00 0.  1.
</event>
<event>
 7    1  0.8986500E-014  0.5052885E+02  0.7816164E-02  0.1300439E+00
        -11   -1    0    0    0    0  0.00000000000E+00  0.00000000000E+00  0.45593999997E+02  0.45594000000E+02  0.51100000000E-03 0. -1.
         11   -1    0    0    0    0 -0.00000000000E+00 -0.00000000000E+00 -0.45593999997E+02  0.45594000000E+02  0.51100000000E-03 0.  1.
    9900012    2    1    2    0    0  0.45969003935E+01 -0.13566728158E+01 -0.40375661809E+02  0.50528854400E+02  0.29999983436E+02 0.  0.
         12    1    1    2    0    0 -0.45969003935E+01  0.13566728158E+01  0.40375661809E+02  0.40659145600E+02  0.00000000000E+00 0. -1.
         11    1    3    3    0    0 -0.60553140312E+01 -0.40943630067E+01 -0.79533818892E+01  0.10802172012E+02  0.51100000000E-03 0. -1.
        -11    1    3    3    0    0 -0.42281765700E+01 -0.41959199641E+01 -0.12973187845E+02  0.14275392274E+02  0.51100000000E-03 0.  1.
         12    1    3    3    0    0  0.14880390995E+02  0.69336101550E+01 -0.19449092075E+02  0.25451290114E+02  0.00000000000E+00 0. -1.
</event>
<event>
 7    1  0.1019675E-013  0.5052884E+02  0.7816164E-02  0.1300439E+00
        -11   -1    0    0    0    0  0.00000000000E+00  0.00000000000E+00  0.45593999997E+02  0.45594000000E+02  0.51100000000E-03 0. -1.
         11   -1    0    0    0    0 -0.00000000000E+00 -0.00000000000E+00 -0.45593999997E+02  0.45594000000E+02  0.51100000000E-03 0.  1.
    9900012    2    1    2    0    0 -0.19792713946E+02 -0.15634200923E+02  0.31890236736E+02  0.50528844046E+02  0.29999951962E+02 0.  0.
        -12    1    1    2    0    0  0.19792713946E+02  0.15634200923E+02 -0.31890236736E+02  0.40659155954E+02  0.00000000000E+00 0.  1.
         11    1    3    3    0    0  0.33635035073E+01 -0.67300747276E+00  0.49641906062E+01  0.60340105683E+01  0.51100000000E-03 0. -1.
        -11    1    3    3    0    0 -0.84646918762E+01  0.15574719444E+01 -0.12332061970E+01  0.86946837321E+01  0.51100000000E-03 0.  1.
         12    1    3    3    0    0 -0.14691525577E+02 -0.16518665395E+02  0.28159252327E+02  0.35800149745E+02  0.00000000000E+00 0. -1.
</event>
<event>
 7    1  0.8986500E-014  0.5052888E+02  0.7816164E-02  0.1300439E+00
        -11   -1    0    0    0    0  0.00000000000E+00  0.00000000000E+00  0.45593999997E+02  0.45594000000E+02  0.51100000000E-03 0. -1.
         11   -1    0    0    0    0 -0.00000000000E+00 -0.00000000000E+00 -0.45593999997E+02  0.45594000000E+02  0.51100000000E-03 0.  1.
    9900012    2    1    2    0    0  0.21006090137E+02  0.40288199829E+01 -0.34578565065E+02  0.50528875868E+02  0.30000048687E+02 0.  0.
         12    1    1    2    0    0 -0.21006090137E+02 -0.40288199829E+01  0.34578565065E+02  0.40659124132E+02  0.00000000000E+00 0. -1.
         11    1    3    3    0    0  0.14780283583E+02 -0.15469819676E+01 -0.20836126305E+02  0.25592852434E+02  0.51100000000E-03 0. -1.
        -11    1    3    3    0    0  0.57494735992E+01 -0.24456984522E+01 -0.15498704447E+02  0.16710706968E+02  0.51100000000E-03 0.  1.
         12    1    3    3    0    0  0.47633295443E+00  0.80215004028E+01  0.17562656878E+01  0.82253164657E+01  0.00000000000E+00 0. -1.
</event>
<event>
 7    1  0.8986500E-014  0.5052887E+02  0.7816164E-02  0.1300439E+00
        -11   -1    0    0    0    0  0.00000000000E+00  0.00000000000E+00  0.45593999997E+02  0.45594000000E+02  0.51100000000E-03 0. -1.
         11   -1    0    0    0    0 -0.00000000000E+00 -0.00000000000E+00 -0.45593999997E+02  0.45594000000E+02  0.51100000000E-03 0.  1.
    9900012    2    1    2    0    0  0.20980740882E+02  0.61040250740E+01  0.34288687186E+02  0.50528872132E+02  0.30000037333E+02 0.  0.
        -12    1    1    2    0    0 -0.20980740882E+02 -0.61040250740E+01 -0.34288687186E+02  0.40659127868E+02  0.00000000000E+00 0.  1.
         11    1    3    3    0    0  0.77026550978E+01  0.22055310788E+01  0.26429024283E+02  0.27616817117E+02  0.51100000000E-03 0. -1.
        -11    1    3    3    0    0  0.10881410268E+02  0.98036001351E+01  0.76772671006E+01  0.16536507958E+02  0.51100000000E-03 0.  1.
         12    1    3    3    0    0  0.23966755156E+01 -0.59051061399E+01  0.18239580233E+00  0.63755470573E+01  0.00000000000E+00 0. -1.
</event>
<event>
 7    1  0.8986500E-014  0.5052886E+02  0.7816164E-02  0.1300439E+00
        -11   -1    0    0    0    0  0.00000000000E+00  0.00000000000E+00  0.45593999997E+02  0.45594000000E+02  0.51100000000E-03 0. -1.
         11   -1    0    0    0    0 -0.00000000000E+00 -0.00000000000E+00 -0.45593999997E+02  0.45594000000E+02  0.51100000000E-03 0.  1.
    9900012    2    1    2    0    0 -0.14171951102E+02 -0.29244294729E+02  0.24435475677E+02  0.50528862727E+02  0.30000008745E+02 0.  0.
        -12    1    1    2    0    0  0.14171951102E+02  0.29244294729E+02 -0.24435475677E+02  0.40659137273E+02  0.00000000000E+00 0.  1.
         11    1    3    3    0    0 -0.12937425588E+01  0.41130284164E+01  0.17331839136E+01  0.46470097161E+01  0.51100000000E-03 0. -1.
        -11    1    3    3    0    0  0.88498410613E+00 -0.76088817762E+01  0.13049175902E+02  0.15131400158E+02  0.51100000000E-03 0.  1.
         12    1    3    3    0    0 -0.13763192649E+02 -0.25748441369E+02  0.96531158616E+01  0.30750452853E+02  0.00000000000E+00 0. -1.
</event>
<event>
 7    1  0.8986500E-014  0.5052882E+02  0.7816164E-02  0.1300439E+00
        -11   -1    0    0    0    0  0.00000000000E+00  0.00000000000E+00  0.45593999997E+02  0.45594000000E+02  0.51100000000E-03 0. -1.
         11   -1    0    0    0    0 -0.00000000000E+00 -0.00000000000E+00 -0.45593999997E+02  0.45594000000E+02  0.51100000000E-03 0.  1.
    9900012    2    1    2    0    0 -0.14538184893E+02  0.31987892013E+02  0.20459344618E+02  0.50528820992E+02  0.29999881888E+02 0.  0.
        -12    1    1    2    0    0  0.14538184893E+02 -0.31987892013E+02 -0.20459344618E+02  0.40659179008E+02  0.00000000000E+00 0.  1.
         11    1    3    3    0    0  0.13591719522E+01  0.19089143790E+02  0.13522834095E+02  0.23433092012E+02  0.51100000000E-03 0. -1.
        -11    1    3    3    0    0 -0.35822964478E+00  0.67483884684E+01  0.78507425858E+01  0.10358727470E+02  0.51100000000E-03 0.  1.
        -12    1    3    3    0    0 -0.15539127200E+02  0.61503597547E+01 -0.91423206343E+00  0.16737001510E+02  0.00000000000E+00 0.  1.
</event>
<event>
 7    1  0.9231329E-014  0.5052886E+02  0.7816164E-02  0.1300439E+00
        -11   -1    0    0    0    0  0.00000000000E+00  0.00000000000E+00  0.45593999997E+02  0.45594000000E+02  0.51100000000E-03 0. -1.
         11   -1    0    0    0    0 -0.00000000000E+00 -0.00000000000E+00 -0.45593999997E+02  0.45594000000E+02  0.51100000000E-03 0.  1.
    9900012    2    1    2    0    0  0.20542572322E+02  0.40314381821E+01  0.34855642324E+02  0.50528861135E+02  0.30000003906E+02 0.  0.
        -12    1    1    2    0    0 -0.20542572322E+02 -0.40314381821E+01 -0.34855642324E+02  0.40659138865E+02  0.00000000000E+00 0.  1.
         11    1    3    3    0    0  0.87912041456E+01 -0.15773268604E+01  0.61748530588E+01  0.10858270623E+02  0.51100000000E-03 0. -1.
        -11    1    3    3    0    0  0.40981835311E+01 -0.95250858514E+01  0.12365443347E+02  0.16137737083E+02  0.51100000000E-03 0.  1.
         12    1    3    3    0    0  0.76531846453E+01  0.15133850894E+02  0.16315345918E+02  0.23532853429E+02  0.00000000000E+00 0. -1.
</event>
<event>
 7    1  0.8986500E-014  0.5052886E+02  0.7816164E-02  0.1300439E+00
        -11   -1    0    0    0    0  0.00000000000E+00  0.00000000000E+00  0.45593999997E+02  0.45594000000E+02  0.51100000000E-03 0. -1.
         11   -1    0    0    0    0 -0.00000000000E+00 -0.00000000000E+00 -0.45593999997E+02  0.45594000000E+02  0.51100000000E-03 0.  1.
    9900012    2    1    2    0    0 -0.28237618196E+02 -0.15072104725E+02  0.25072581530E+02  0.50528858754E+02  0.29999996670E+02 0.  0.
        -12    1    1    2    0    0  0.28237618196E+02  0.15072104725E+02 -0.25072581530E+02  0.40659141246E+02  0.00000000000E+00 0.  1.
         11    1    3    3    0    0 -0.23695360733E+01  0.25348339928E+01 -0.11816221797E+01  0.36655580490E+01  0.51100000000E-03 0. -1.
        -11    1    3    3    0    0 -0.69083587115E+01  0.28076788495E+01 -0.14230838495E+01  0.75916828511E+01  0.51100000000E-03 0.  1.
         12    1    3    3    0    0 -0.18959723411E+02 -0.20414617567E+02  0.27677287559E+02  0.39271617854E+02  0.00000000000E+00 0. -1.
</event>
<event>
 7    1  0.8986500E-014  0.5052890E+02  0.7816164E-02  0.1300439E+00
        -11   -1    0    0    0    0  0.00000000000E+00  0.00000000000E+00  0.45593999997E+02  0.45594000000E+02  0.51100000000E-03 0. -1.
         11   -1    0    0    0    0 -0.00000000000E+00 -0.00000000000E+00 -0.45593999997E+02  0.45594000000E+02  0.51100000000E-03 0.  1.
    9900012    2    1    2    0    0 -0.60833876024E+01  0.22613205680E+02  0.33238502919E+02  0.50528895827E+02  0.30000109355E+02 0.  0.
        -12    1    1    2    0    0  0.60833876024E+01 -0.22613205680E+02 -0.33238502919E+02  0.40659104173E+02  0.00000000000E+00 0.  1.
         11    1    3    3    0    0 -0.98327577584E+01  0.15314255827E+02  0.13609876608E+02  0.22725278837E+02  0.51100000000E-03 0. -1.
        -11    1    3    3    0    0 -0.40039782033E+01  0.71695618277E+01  0.18646454454E+01  0.84208883826E+01  0.51100000000E-03 0.  1.
        -12    1    3    3    0    0  0.77533483594E+01  0.12938802522E+00  0.17763980866E+02  0.19382728607E+02  0.00000000000E+00 0.  1.
</event>
<event>
 7    1  0.8986500E-014  0.5052886E+02  0.7816164E-02  0.1300439E+00
        -11   -1    0    0    0    0  0.00000000000E+00  0.00000000000E+00  0.45593999997E+02  0.45594000000E+02  0.51100000000E-03 0. -1.
         11   -1    0    0    0    0 -0.00000000000E+00 -0.00000000000E+00 -0.45593999997E+02  0.45594000000E+02  0.51100000000E-03 0.  1.
    9900012    2    1    2    0    0 -0.25746600280E+02  0.22350329471E+01  0.31389215727E+02  0.50528860041E+02  0.30000000580E+02 0.  0.
        -12    1    1    2    0    0  0.25746600280E+02 -0.22350329471E+01 -0.31389215727E+02  0.40659139959E+02  0.00000000000E+00 0.  1.
         11    1    3    3    0    0 -0.17267445289E+02  0.47216814929E+01  0.19364986255E+01  0.18005803790E+02  0.51100000000E-03 0.  1.
        -11    1    3    3    0    0 -0.10991501753E+02 -0.21420160202E+01  0.25115505230E+02  0.27498908099E+02  0.51100000000E-03 0. -1.
        -12    1    3    3    0    0  0.25123467623E+01 -0.34463252555E+00  0.43372118719E+01  0.50241481520E+01  0.00000000000E+00 0.  1.
</event>
<event>
 7    1  0.8986500E-014  0.5052885E+02  0.7816164E-02  0.1300439E+00
        -11   -1    0    0    0    0  0.00000000000E+00  0.00000000000E+00  0.45593999997E+02  0.45594000000E+02  0.51100000000E-03 0. -1.
         11   -1    0    0    0    0 -0.00000000000E+00 -0.00000000000E+00 -0.45593999997E+02  0.45594000000E+02  0.51100000000E-03 0.  1.
    9900012    2    1    2    0    0 -0.19488625583E+02 -0.26713255852E-01 -0.35684164005E+02  0.50528846031E+02  0.29999957996E+02 0.  0.
         12    1    1    2    0    0  0.19488625583E+02  0.26713255852E-01  0.35684164005E+02  0.40659153969E+02  0.00000000000E+00 0. -1.
         11    1    3    3    0    0 -0.18026202712E+02 -0.74563866545E+01 -0.16890910083E+02  0.25803963452E+02  0.51100000000E-03 0. -1.
        -11    1    3    3    0    0 -0.68780270431E+00  0.49050628535E+00 -0.17625383313E+02  0.17645617194E+02  0.51100000000E-03 0.  1.
         12    1    3    3    0    0 -0.77462016687E+00  0.69391671133E+01 -0.11678706096E+01  0.70792653849E+01  0.00000000000E+00 0. -1.
</event>
<event>
 7    1  0.8986500E-014  0.5052886E+02  0.7816164E-02  0.1300439E+00
        -11   -1    0    0    0    0  0.00000000000E+00  0.00000000000E+00  0.45593999997E+02  0.45594000000E+02  0.51100000000E-03 0.  1.
         11   -1    0    0    0    0 -0.00000000000E+00 -0.00000000000E+00 -0.45593999997E+02  0.45594000000E+02  0.51100000000E-03 0. -1.
    9900012    2    1    2    0    0  0.20445060763E+02 -0.32746373044E+02 -0.12760891449E+02  0.50528858252E+02  0.29999995142E+02 0.  0.
         12    1    1    2    0    0 -0.20445060763E+02  0.32746373044E+02  0.12760891449E+02  0.40659141748E+02  0.00000000000E+00 0. -1.
         11    1    3    3    0    0 -0.62483065317E+01 -0.40564345042E+01 -0.25122169828E+01  0.78617574264E+01  0.51100000000E-03 0. -1.
        -11    1    3    3    0    0 -0.10439602459E+01 -0.40917372492E+01 -0.76191075069E-01  0.42235023443E+01  0.51100000000E-03 0.  1.
        -12    1    3    3    0    0  0.27737327540E+02 -0.24598201291E+02 -0.10172483391E+02  0.38443598481E+02  0.00000000000E+00 0.  1.
</event>
<event>
 7    1  0.8986500E-014  0.5052886E+02  0.7816164E-02  0.1300439E+00
        -11   -1    0    0    0    0  0.00000000000E+00  0.00000000000E+00  0.45593999997E+02  0.45594000000E+02  0.51100000000E-03 0. -1.
         11   -1    0    0    0    0 -0.00000000000E+00 -0.00000000000E+00 -0.45593999997E+02  0.45594000000E+02  0.51100000000E-03 0.  1.
    9900012    2    1    2    0    0 -0.21743929318E+02  0.10940650747E+02 -0.32567920887E+02  0.50528858693E+02  0.29999996483E+02 0.  0.
         12    1    1    2    0    0  0.21743929318E+02 -0.10940650747E+02  0.32567920887E+02  0.40659141307E+02  0.00000000000E+00 0. -1.
         11    1    3    3    0    0 -0.40579801036E+01  0.64527996226E+01 -0.99111726872E+01  0.12503486305E+02  0.51100000000E-03 0. -1.
        -11    1    3    3    0    0 -0.20159454360E+02  0.10808470823E+02 -0.20969607891E+02  0.31031453350E+02  0.51100000000E-03 0.  1.
         12    1    3    3    0    0  0.24735051461E+01 -0.63206196989E+01 -0.16871403083E+01  0.69939190376E+01  0.00000000000E+00 0. -1.
</event>
<event>
 7    1  0.8986500E-014  0.5052886E+02  0.7816164E-02  0.1300439E+00
        -11   -1    0    0    0    0  0.00000000000E+00  0.00000000000E+00  0.45593999997E+02  0.45594000000E+02  0.51100000000E-03 0. -1.
         11   -1    0    0    0    0 -0.00000000000E+00 -0.00000000000E+00 -0.45593999997E+02  0.45594000000E+02  0.51100000000E-03 0.  1.
    9900012    2    1    2    0    0  0.73583343001E+01  0.25638307517E+02 -0.30687089431E+02  0.50528863834E+02  0.30000012110E+02 0.  0.
         12    1    1    2    0    0 -0.73583343001E+01 -0.25638307517E+02  0.30687089431E+02  0.40659136166E+02  0.00000000000E+00 0. -1.
         11    1    3    3    0    0  0.50554904425E+00  0.48169627527E+00 -0.20142145322E+01  0.21318235341E+01  0.51100000000E-03 0. -1.
        -11    1    3    3    0    0 -0.49314409026E+01  0.26652097176E+02 -0.20316421283E+02  0.33873446345E+02  0.51100000000E-03 0.  1.
        -12    1    3    3    0    0  0.11784226158E+02 -0.14954859344E+01 -0.83564536162E+01  0.14523593955E+02  0.00000000000E+00 0.  1.
</event>
<event>
 7    1  0.8986500E-014  0.5052886E+02  0.7816164E-02  0.1300439E+00
        -11   -1    0    0    0    0  0.00000000000E+00  0.00000000000E+00  0.45593999997E+02  0.45594000000E+02  0.51100000000E-03 0. -1.
         11   -1    0    0    0    0 -0.00000000000E+00 -0.00000000000E+00 -0.45593999997E+02  0.45594000000E+02  0.51100000000E-03 0.  1.
    9900012    2    1    2    0    0 -0.61776041852E+00 -0.47699041004E+01  0.40373657356E+02  0.50528858084E+02  0.29999994632E+02 0.  0.
        -12    1    1    2    0    0  0.61776041852E+00  0.47699041004E+01 -0.40373657356E+02  0.40659141916E+02  0.00000000000E+00 0.  1.
         11    1    3    3    0    0 -0.32992165585E+01 -0.10437516232E+01 -0.10857249172E+01  0.36267128654E+01  0.51100000000E-03 0. -1.
        -11    1    3    3    0    0 -0.93996507051E+01 -0.55643062279E+00  0.16740712070E+02  0.19207146829E+02  0.51100000000E-03 0.  1.
         12    1    3    3    0    0  0.12081106845E+02 -0.31697218543E+01  0.24718670203E+02  0.27694998390E+02  0.00000000000E+00 0. -1.
</event>
<event>
 7    1  0.9819531E-014  0.5052886E+02  0.7816164E-02  0.1300439E+00
        -11   -1    0    0    0    0  0.00000000000E+00  0.00000000000E+00  0.45593999997E+02  0.45594000000E+02  0.51100000000E-03 0. -1.
         11   -1    0    0    0    0 -0.00000000000E+00 -0.00000000000E+00 -0.45593999997E+02  0.45594000000E+02  0.51100000000E-03 0.  1.
    9900012    2    1    2    0    0  0.19701622914E+02 -0.11124114939E+02  0.33782625601E+02  0.50528859931E+02  0.30000000246E+02 0.  0.
        -12    1    1    2    0    0 -0.19701622914E+02  0.11124114939E+02 -0.33782625601E+02  0.40659140069E+02  0.00000000000E+00 0.  1.
         11    1    3    3    0    0 -0.57053443573E+00  0.42873041364E+01  0.11190717158E+01  0.44675281831E+01  0.51100000000E-03 0. -1.
        -11    1    3    3    0    0  0.92181264062E+01  0.40299614322E+01  0.89491747968E+01  0.13464849550E+02  0.51100000000E-03 0.  1.
         12    1    3    3    0    0  0.11054030944E+02 -0.19441380508E+02  0.23714379088E+02  0.32596482198E+02  0.00000000000E+00 0. -1.
</event>
<event>
 7    1  0.8986500E-014  0.5052886E+02  0.7816164E-02  0.1300439E+00
        -11   -1    0    0    0    0  0.00000000000E+00  0.00000000000E+00  0.45593999997E+02  0.45594000000E+02  0.51100000000E-03 0. -1.
         11   -1    0    0    0    0 -0.00000000000E+00 -0.00000000000E+00 -0.45593999997E+02  0.45594000000E+02  0.51100000000E-03 0.  1.
    9900012    2    1    2    0    0 -0.34689733993E+01  0.15071079272E+02 -0.37603119595E+02  0.50528858222E+02  0.29999995052E+02 0.  0.
         12    1    1    2    0    0  0.34689733993E+01 -0.15071079272E+02  0.37603119595E+02  0.40659141778E+02  0.00000000000E+00 0. -1.
         11    1    3    3    0    0 -0.67328203052E+01 -0.53988548064E+01 -0.19649546068E+02  0.21461201351E+02  0.51100000000E-03 0. -1.
        -11    1    3    3    0    0  0.48733697646E+00 -0.56415107146E+00  0.54152899436E+00  0.92142155006E+00  0.51100000000E-03 0.  1.
        -12    1    3    3    0    0  0.27765099294E+01  0.21034085150E+02 -0.18495102521E+02  0.28146235321E+02  0.00000000000E+00 0.  1.
</event>
<event>
 7    1  0.8986500E-014  0.5052886E+02  0.7816164E-02  0.1300439E+00
        -11   -1    0    0    0    0  0.00000000000E+00  0.00000000000E+00  0.45593999997E+02  0.45594000000E+02  0.51100000000E-03 0. -1.
         11   -1    0    0    0    0 -0.00000000000E+00 -0.00000000000E+00 -0.45593999997E+02  0.45594000000E+02  0.51100000000E-03 0.  1.
    9900012    2    1    2    0    0  0.33884096296E+02 -0.10377990745E+02 -0.19933158775E+02  0.50528862129E+02  0.30000006927E+02 0.  0.
         12    1    1    2    0    0 -0.33884096296E+02  0.10377990745E+02  0.19933158775E+02  0.40659137871E+02  0.00000000000E+00 0. -1.
         11    1    3    3    0    0  0.18141253356E+02 -0.45971280389E+01 -0.11878225234E+02  0.22165985079E+02  0.51100000000E-03 0. -1.
        -11    1    3    3    0    0 -0.22008051007E+01  0.50079384038E+01 -0.45898948547E+01  0.71407370198E+01  0.51100000000E-03 0.  1.
         12    1    3    3    0    0  0.17943648040E+02 -0.10788801110E+02 -0.34650386857E+01  0.21222140031E+02  0.00000000000E+00 0. -1.
</event>
<event>
 7    1  0.8986500E-014  0.5052886E+02  0.7816164E-02  0.1300439E+00
        -11   -1    0    0    0    0  0.00000000000E+00  0.00000000000E+00  0.45593999997E+02  0.45594000000E+02  0.51100000000E-03 0. -1.
         11   -1    0    0    0    0 -0.00000000000E+00 -0.00000000000E+00 -0.45593999997E+02  0.45594000000E+02  0.51100000000E-03 0.  1.
    9900012    2    1    2    0    0 -0.18008052939E+02 -0.13120476769E+02 -0.34010720384E+02  0.50528856104E+02  0.29999988613E+02 0.  0.
         12    1    1    2    0    0  0.18008052939E+02  0.13120476769E+02  0.34010720384E+02  0.40659143896E+02  0.00000000000E+00 0. -1.
         11    1    3    3    0    0 -0.87843512413E+01  0.35198349289E+01 -0.12875836035E+02  0.15979399817E+02  0.51100000000E-03 0. -1.
        -11    1    3    3    0    0 -0.11700596274E+02 -0.13417645245E+02 -0.23775802585E+02  0.29702288564E+02  0.51100000000E-03 0.  1.
        -12    1    3    3    0    0  0.24768945756E+01 -0.32226664527E+01  0.26409182359E+01  0.48471677228E+01  0.00000000000E+00 0.  1.
</event>
<event>
 7    1  0.8986500E-014  0.5052886E+02  0.7816164E-02  0.1300439E+00
        -11   -1    0    0    0    0  0.00000000000E+00  0.00000000000E+00  0.45593999997E+02  0.45594000000E+02  0.51100000000E-03 0.  1.
         11   -1    0    0    0    0 -0.00000000000E+00 -0.00000000000E+00 -0.45593999997E+02  0.45594000000E+02  0.51100000000E-03 0. -1.
    9900012    2    1    2    0    0 -0.25135572247E+02 -0.31745870135E+02  0.36835151564E+01  0.50528861462E+02  0.30000004898E+02 0.  0.
         12    1    1    2    0    0  0.25135572247E+02  0.31745870135E+02 -0.36835151564E+01  0.40659138538E+02  0.00000000000E+00 0. -1.
         11    1    3    3    0    0 -0.13260660524E+01 -0.39644457718E+01 -0.12192948735E+00  0.41821224891E+01  0.51100000000E-03 0. -1.
        -11    1    3    3    0    0 -0.75708695834E+01 -0.27171493231E+02  0.84515831041E+01  0.29445498262E+02  0.51100000000E-03 0.  1.
         12    1    3    3    0    0 -0.16238636611E+02 -0.60993113192E+00 -0.46461384603E+01  0.16901240711E+02  0.00000000000E+00 0. -1.
</event>
<event>
 7    1  0.8986500E-014  0.5052886E+02  0.7816164E-02  0.1300439E+00
        -11   -1    0    0    0    0  0.00000000000E+00  0.00000000000E+00  0.45593999997E+02  0.45594000000E+02  0.51100000000E-03 0. -1.
         11   -1    0    0    0    0 -0.00000000000E+00 -0.00000000000E+00 -0.45593999997E+02  0.45594000000E+02  0.51100000000E-03 0.  1.
    9900012    2    1    2    0    0  0.14148325194E+02  0.13249378151E+02  0.35741358414E+02  0.50528857997E+02  0.29999994367E+02 0.  0.
        -12    1    1    2    0    0 -0.14148325194E+02 -0.13249378151E+02 -0.35741358414E+02  0.40659142003E+02  0.00000000000E+00 0.  1.
         11    1    3    3    0    0  0.57895529468E+01 -0.60322089136E+01  0.14915255594E+02  0.17098868892E+02  0.51100000000E-03 0. -1.
        -11    1    3    3    0    0  0.58937921601E+01  0.11193325829E+02  0.21502287448E+02  0.24947458687E+02  0.51100000000E-03 0.  1.
        -12    1    3    3    0    0  0.24649800870E+01  0.80882612352E+01 -0.67618462884E+00  0.84825304178E+01  0.00000000000E+00 0.  1.
</event>
<event>
 7    1  0.8986500E-014  0.5052887E+02  0.7816164E-02  0.1300439E+00
        -11   -1    0    0    0    0  0.00000000000E+00  0.00000000000E+00  0.45593999997E+02  0.45594000000E+02  0.51100000000E-03 0. -1.
         11   -1    0    0    0    0 -0.00000000000E+00 -0.00000000000E+00 -0.45593999997E+02  0.45594000000E+02  0.51100000000E-03 0.  1.
    9900012    2    1    2    0    0  0.44214335141E+00  0.54920406149E+01  0.40284081709E+02  0.50528865233E+02  0.30000016363E+02 0.  0.
        -12    1    1    2    0    0 -0.44214335141E+00 -0.54920406149E+01 -0.40284081709E+02  0.40659134767E+02  0.00000000000E+00 0.  1.
         11    1    3    3    0    0 -0.40974962883E+01  0.26094015107E+00  0.29946921536E+02  0.30227068586E+02  0.51100000000E-03 0. -1.
        -11    1    3    3    0    0  0.14620281353E+01  0.35911821589E+01  0.14420107443E+02  0.14932301045E+02  0.51100000000E-03 0.  1.
        -12    1    3    3    0    0  0.30776115044E+01  0.16399183049E+01 -0.40829472694E+01  0.53694956023E+01  0.00000000000E+00 0.  1.
</event>
<event>
 7    1  0.8986500E-014  0.5052886E+02  0.7816164E-02  0.1300439E+00
        -11   -1    0    0    0    0  0.00000000000E+00  0.00000000000E+00  0.45593999997E+02  0.45594000000E+02  0.51100000000E-03 0. -1.
         11   -1    0    0    0    0 -0.00000000000E+00 -0.00000000000E+00 -0.45593999997E+02  0.45594000000E+02  0.51100000000E-03 0.  1.
    9900012    2    1    2    0    0 -0.66259652448E+01 -0.30172277447E+02 -0.26436643728E+02  0.50528857444E+02  0.29999992688E+02 0.  0.
         12    1    1    2    0    0  0.66259652448E+01  0.30172277447E+02  0.26436643728E+02  0.40659142556E+02  0.00000000000E+00 0. -1.
         11    1    3    3    0    0  0.25310573195E+01  0.22432604217E+01  0.78355781927E+00  0.34716612150E+01  0.51100000000E-03 0. -1.
        -11    1    3    3    0    0 -0.13768256485E+01  0.89221321963E+00  0.16283257850E+01  0.23115229652E+01  0.51100000000E-03 0.  1.
        -12    1    3    3    0    0 -0.77801969159E+01 -0.33307751088E+02 -0.28848527333E+02  0.44745673264E+02  0.00000000000E+00 0.  1.
</event>
<event>
 7    1  0.8986500E-014  0.5052886E+02  0.7816164E-02  0.1300439E+00
        -11   -1    0    0    0    0  0.00000000000E+00  0.00000000000E+00  0.45593999997E+02  0.45594000000E+02  0.51100000000E-03 0. -1.
         11   -1    0    0    0    0 -0.00000000000E+00 -0.00000000000E+00 -0.45593999997E+02  0.45594000000E+02  0.51100000000E-03 0.  1.
    9900012    2    1    2    0    0 -0.27501583679E+01 -0.20318739612E+02 -0.35110556242E+02  0.50528859452E+02  0.29999998791E+02 0.  0.
         12    1    1    2    0    0  0.27501583679E+01  0.20318739612E+02  0.35110556242E+02  0.40659140548E+02  0.00000000000E+00 0. -1.
         11    1    3    3    0    0  0.12023113381E+01  0.27439104155E+01 -0.63991215174E+01  0.70656459985E+01  0.51100000000E-03 0. -1.
        -11    1    3    3    0    0 -0.64843989181E+01 -0.73432261068E+01  0.90499924243E+00  0.98381615597E+01  0.51100000000E-03 0.  1.
        -12    1    3    3    0    0  0.25319292122E+01 -0.15719423921E+02 -0.29616433967E+02  0.33625051894E+02  0.00000000000E+00 0.  1.
</event>
<event>
 7    1  0.8986500E-014  0.5052887E+02  0.7816164E-02  0.1300439E+00
        -11   -1    0    0    0    0  0.00000000000E+00  0.00000000000E+00  0.45593999997E+02  0.45594000000E+02  0.51100000000E-03 0. -1.
         11   -1    0    0    0    0 -0.00000000000E+00 -0.00000000000E+00 -0.45593999997E+02  0.45594000000E+02  0.51100000000E-03 0.  1.
    9900012    2    1    2    0    0  0.42525558014E+01 -0.21801678910E+02  0.34055360519E+02  0.50528868010E+02  0.30000024802E+02 0.  0.
        -12    1    1    2    0    0 -0.42525558014E+01  0.21801678910E+02 -0.34055360519E+02  0.40659131990E+02  0.00000000000E+00 0.  1.
         11    1    3    3    0    0 -0.35753227026E+01 -0.38635578011E+01  0.30640880044E+01  0.60908658555E+01  0.51100000000E-03 0. -1.
        -11    1    3    3    0    0 -0.90215517362E+01 -0.63514048504E+01  0.77591728706E+01  0.13488272803E+02  0.51100000000E-03 0.  1.
         12    1    3    3    0    0  0.16849430240E+02 -0.11586716259E+02  0.23232099644E+02  0.30949729352E+02  0.00000000000E+00 0. -1.
</event>
<event>
 7    1  0.8986500E-014  0.5052887E+02  0.7816164E-02  0.1300439E+00
        -11   -1    0    0    0    0  0.00000000000E+00  0.00000000000E+00  0.45593999997E+02  0.45594000000E+02  0.51100000000E-03 0. -1.
         11   -1    0    0    0    0 -0.00000000000E+00 -0.00000000000E+00 -0.45593999997E+02  0.45594000000E+02  0.51100000000E-03 0.  1.
    9900012    2    1    2    0    0 -0.12645960950E+02 -0.12594610599E+02  0.36532455424E+02  0.50528870105E+02  0.30000031172E+02 0.  0.
        -12    1    1    2    0    0  0.12645960950E+02  0.12594610599E+02 -0.36532455424E+02  0.40659129895E+02  0.00000000000E+00 0.  1.
         11    1    3    3    0    0  0.21659565485E+01  0.60140088384E+01  0.14077667158E+02  0.15460930856E+02  0.51100000000E-03 0. -1.
        -11    1    3    3    0    0  0.85626588440E+00  0.55739398694E+00 -0.64559825535E+00  0.12085845812E+01  0.51100000000E-03 0.  1.
        -12    1    3    3    0    0 -0.15668183382E+02 -0.19166013424E+02  0.23100386522E+02  0.33859354668E+02  0.00000000000E+00 0.  1.
</event>
<event>
 7    1  0.8986500E-014  0.5052887E+02  0.7816164E-02  0.1300439E+00
        -11   -1    0    0    0    0  0.00000000000E+00  0.00000000000E+00  0.45593999997E+02  0.45594000000E+02  0.51100000000E-03 0. -1.
         11   -1    0    0    0    0 -0.00000000000E+00 -0.00000000000E+00 -0.45593999997E+02  0.45594000000E+02  0.51100000000E-03 0.  1.
    9900012    2    1    2    0    0 -0.43334683667E+01  0.26895884607E+02 -0.30182737101E+02  0.50528866022E+02  0.30000018762E+02 0.  0.
         12    1    1    2    0    0  0.43334683667E+01 -0.26895884607E+02  0.30182737101E+02  0.40659133978E+02  0.00000000000E+00 0. -1.
         11    1    3    3    0    0  0.18510322734E+00  0.89475629484E+00 -0.33864758049E+00  0.97444059687E+00  0.51100000000E-03 0. -1.
        -11    1    3    3    0    0  0.13815110041E+01  0.31466675293E+02 -0.24401311636E+02  0.39843245808E+02  0.51100000000E-03 0.  1.
         12    1    3    3    0    0 -0.59000825982E+01 -0.54655469811E+01 -0.54427778845E+01  0.97111796177E+01  0.00000000000E+00 0. -1.
</event>
<event>
 7    1  0.8986500E-014  0.5052888E+02  0.7816164E-02  0.1300439E+00
        -11   -1    0    0    0    0  0.00000000000E+00  0.00000000000E+00  0.45593999997E+02  0.45594000000E+02  0.51100000000E-03 0. -1.
         11   -1    0    0    0    0 -0.00000000000E+00 -0.00000000000E+00 -0.45593999997E+02  0.45594000000E+02  0.51100000000E-03 0.  1.
    9900012    2    1    2    0    0 -0.45058449966E+01 -0.32613668690E+01  0.40276855999E+02  0.50528877012E+02  0.30000052167E+02 0.  0.
        -12    1    1    2    0    0  0.45058449966E+01  0.32613668690E+01 -0.40276855999E+02  0.40659122988E+02  0.00000000000E+00 0.  1.
         11    1    3    3    0    0 -0.49428510542E+01  0.60982553091E+01  0.77936929312E+01  0.11061742364E+02  0.51100000000E-03 0. -1.
        -11    1    3    3    0    0 -0.42433051299E+00  0.47075289587E+01  0.80409543119E+00  0.47945234388E+01  0.51100000000E-03 0.  1.
         12    1    3    3    0    0  0.86133657057E+00 -0.14067151137E+02  0.31679067636E+02  0.34672611210E+02  0.00000000000E+00 0. -1.
</event>
<event>
 7    1  0.8986500E-014  0.5052886E+02  0.7816164E-02  0.1300439E+00
        -11   -1    0    0    0    0  0.00000000000E+00  0.00000000000E+00  0.45593999997E+02  0.45594000000E+02  0.51100000000E-03 0. -1.
         11   -1    0    0    0    0 -0.00000000000E+00 -0.00000000000E+00 -0.45593999997E+02  0.45594000000E+02  0.51100000000E-03 0.  1.
    9900012    2    1    2    0    0 -0.24072976345E+02  0.23816038045E+02 -0.22504521275E+02  0.50528864051E+02  0.30000012769E+02 0.  0.
         12    1    1    2    0    0  0.24072976345E+02 -0.23816038045E+02  0.22504521275E+02  0.40659135949E+02  0.00000000000E+00 0. -1.
         11    1    3    3    0    0 -0.89662942441E+01 -0.21005638709E+01 -0.17518991610E+01  0.93742174062E+01  0.51100000000E-03 0. -1.
        -11    1    3    3    0    0 -0.10365134325E+02  0.38556492670E+01 -0.89275348827E+00  0.11095001122E+02  0.51100000000E-03 0.  1.
        -12    1    3    3    0    0 -0.47415477757E+01  0.22060952649E+02 -0.19859868626E+02  0.30059645523E+02  0.00000000000E+00 0.  1.
</event>
<event>
 7    1  0.8986500E-014  0.5052886E+02  0.7816164E-02  0.1300439E+00
        -11   -1    0    0    0    0  0.00000000000E+00  0.00000000000E+00  0.45593999997E+02  0.45594000000E+02  0.51100000000E-03 0.  1.
         11   -1    0    0    0    0 -0.00000000000E+00 -0.00000000000E+00 -0.45593999997E+02  0.45594000000E+02  0.51100000000E-03 0. -1.
    9900012    2    1    2    0    0 -0.33708523347E+02  0.20176378773E+02  0.10479246267E+02  0.50528863156E+02  0.30000010048E+02 0.  0.
         12    1    1    2    0    0  0.33708523347E+02 -0.20176378773E+02 -0.10479246267E+02  0.40659136844E+02  0.00000000000E+00 0. -1.
         11    1    3    3    0    0 -0.15692990010E+02  0.53906053753E+01  0.15129541931E+01  0.16661860413E+02  0.51100000000E-03 0. -1.
        -11    1    3    3    0    0 -0.99739136889E+01  0.64674255331E+00 -0.60885645772E+01  0.11703326411E+02  0.51100000000E-03 0.  1.
        -12    1    3    3    0    0 -0.80416196477E+01  0.14139030844E+02  0.15054856651E+02  0.22163676332E+02  0.00000000000E+00 0.  1.
</event>
<event>
 7    1  0.8986500E-014  0.5052886E+02  0.7816164E-02  0.1300439E+00
        -11   -1    0    0    0    0  0.00000000000E+00  0.00000000000E+00  0.45593999997E+02  0.45594000000E+02  0.51100000000E-03 0. -1.
         11   -1    0    0    0    0 -0.00000000000E+00 -0.00000000000E+00 -0.45593999997E+02  0.45594000000E+02  0.51100000000E-03 0.  1.
    9900012    2    1    2    0    0  0.32055971453E+01 -0.16355580945E+02 -0.37086176300E+02  0.50528863836E+02  0.30000012115E+02 0.  0.
         12    1    1    2    0    0 -0.32055971453E+01  0.16355580945E+02  0.37086176300E+02  0.40659136164E+02  0.00000000000E+00 0. -1.
         11    1    3    3    0    0 -0.40978581832E+01  0.45320254092E+01 -0.85702232954E+01  0.10525227959E+02  0.51100000000E-03 0. -1.
        -11    1    3    3    0    0  0.28694240872E+01  0.23347955149E+01 -0.12261664352E+01  0.38972232521E+01  0.51100000000E-03 0.  1.
        -12    1    3    3    0    0  0.44340312413E+01 -0.23222401869E+02 -0.27289786569E+02  0.36106412624E+02  0.00000000000E+00 0.  1.
</event>
<event>
 7    1  0.8986500E-014  0.5052886E+02  0.7816164E-02  0.1300439E+00
        -11   -1    0    0    0    0  0.00000000000E+00  0.00000000000E+00  0.45593999997E+02  0.45594000000E+02  0.51100000000E-03 0. -1.
         11   -1    0    0    0    0 -0.00000000000E+00 -0.00000000000E+00 -0.45593999997E+02  0.45594000000E+02  0.51100000000E-03 0.  1.
    9900012    2    1    2    0    0 -0.12786785124E+02 -0.30009160736E+01  0.38479326217E+02  0.50528856905E+02  0.29999991049E+02 0.  0.
        -12    1    1    2    0    0  0.12786785124E+02  0.30009160736E+01 -0.38479326217E+02  0.40659143095E+02  0.00000000000E+00 0.  1.
         11    1    3    3    0    0 -0.40994270889E+01 -0.10037066940E+01  0.57076042512E+01  0.70985545102E+01  0.51100000000E-03 0. -1.
        -11    1    3    3    0    0 -0.12700214277E+02 -0.39498071415E+01  0.34087161324E+01  0.13730104335E+02  0.51100000000E-03 0.  1.
        -12    1    3    3    0    0  0.40128562410E+01  0.19525977618E+01  0.29363005833E+02  0.29700198060E+02  0.00000000000E+00 0.  1.
</event>
<event>
 7    1  0.8986500E-014  0.5052885E+02  0.7816164E-02  0.1300439E+00
        -11   -1    0    0    0    0  0.00000000000E+00  0.00000000000E+00  0.45593999997E+02  0.45594000000E+02  0.51100000000E-03 0. -1.
         11   -1    0    0    0    0 -0.00000000000E+00 -0.00000000000E+00 -0.45593999997E+02  0.45594000000E+02  0.51100000000E-03 0.  1.
    9900012    2    1    2    0    0  0.10732290023E+02  0.41535101828E+01 -0.38996578848E+02  0.50528845338E+02  0.29999955888E+02 0.  0.
         12    1    1    2    0    0 -0.10732290023E+02 -0.41535101828E+01  0.38996578848E+02  0.40659154662E+02  0.00000000000E+00 0. -1.
         11    1    3    3    0    0 -0.35620117459E+01  0.84345499589E+00 -0.24598338731E+02  0.24869210132E+02  0.51100000000E-03 0. -1.
        -11    1    3    3    0    0  0.45537307515E+01 -0.53320998941E+01 -0.93645960100E+01  0.11698863694E+02  0.51100000000E-03 0.  1.
        -12    1    3    3    0    0  0.97405710180E+01  0.86421550811E+01 -0.50336441074E+01  0.13960771512E+02  0.00000000000E+00 0.  1.
</event>
<event>
 7    1  0.8986500E-014  0.5052887E+02  0.7816164E-02  0.1300439E+00
        -11   -1    0    0    0    0  0.00000000000E+00  0.00000000000E+00  0.45593999997E+02  0.45594000000E+02  0.51100000000E-03 0. -1.
         11   -1    0    0    0    0 -0.00000000000E+00 -0.00000000000E+00 -0.45593999997E+02  0.45594000000E+02  0.51100000000E-03 0.  1.
    9900012    2    1    2    0    0  0.26528321978E+02 -0.10798210000E+02 -0.28858471743E+02  0.50528873134E+02  0.30000040378E+02 0.  0.
         12    1    1    2    0    0 -0.26528321978E+02  0.10798210000E+02  0.28858471743E+02  0.40659126866E+02  0.00000000000E+00 0. -1.
         11    1    3    3    0    0  0.10998958923E+02  0.27926091679E+01  0.10609139240E+01  0.11397425234E+02  0.51100000000E-03 0. -1.
        -11    1    3    3    0    0  0.58034892401E+01 -0.27194900709E+01 -0.66681191444E+00  0.64436598293E+01  0.51100000000E-03 0.  1.
         12    1    3    3    0    0  0.97258738157E+01 -0.10871329097E+02 -0.29252573753E+02  0.32687788071E+02  0.00000000000E+00 0. -1.
</event>
<event>
 7    1  0.9281094E-014  0.5052885E+02  0.7816164E-02  0.1300439E+00
        -11   -1    0    0    0    0  0.00000000000E+00  0.00000000000E+00  0.45593999997E+02  0.45594000000E+02  0.51100000000E-03 0. -1.
         11   -1    0    0    0    0 -0.00000000000E+00 -0.00000000000E+00 -0.45593999997E+02  0.45594000000E+02  0.51100000000E-03 0.  1.
    9900012    2    1    2    0    0 -0.11855771862E+02 -0.22139236049E+01  0.38829187044E+02  0.50528849115E+02  0.29999967370E+02 0.  0.
        -12    1    1    2    0    0  0.11855771862E+02  0.22139236049E+01 -0.38829187044E+02  0.40659150885E+02  0.00000000000E+00 0.  1.
         11    1    3    3    0    0 -0.39987480549E+01 -0.12218162262E+02  0.16977528377E+02  0.21295772940E+02  0.51100000000E-03 0. -1.
        -11    1    3    3    0    0  0.16925211379E+01  0.19779833624E+01 -0.13185785007E+01  0.29181664633E+01  0.51100000000E-03 0.  1.
         12    1    3    3    0    0 -0.95495449453E+01  0.80262552944E+01  0.23170237168E+02  0.26314909712E+02  0.00000000000E+00 0. -1.
</event>
<event>
 7    1  0.8986500E-014  0.5052884E+02  0.7816164E-02  0.1300439E+00
        -11   -1    0    0    0    0  0.00000000000E+00  0.00000000000E+00  0.45593999997E+02  0.45594000000E+02  0.51100000000E-03 0. -1.
         11   -1    0    0    0    0 -0.00000000000E+00 -0.00000000000E+00 -0.45593999997E+02  0.45594000000E+02  0.51100000000E-03 0.  1.
    9900012    2    1    2    0    0  0.13672825340E+01  0.27966554290E+02  0.29481679217E+02  0.50528843223E+02  0.29999949461E+02 0.  0.
        -12    1    1    2    0    0 -0.13672825340E+01 -0.27966554290E+02 -0.29481679217E+02  0.40659156777E+02  0.00000000000E+00 0.  1.
         11    1    3    3    0    0  0.12120677976E+01  0.21441589372E+02  0.29707695379E+02  0.36657305250E+02  0.51100000000E-03 0. -1.
        -11    1    3    3    0    0  0.40705515954E+01  0.45334852039E+01  0.43822507699E+01  0.75050649869E+01  0.51100000000E-03 0.  1.
         12    1    3    3    0    0 -0.39153368590E+01  0.19914797135E+01 -0.46082669324E+01  0.63664729866E+01  0.00000000000E+00 0. -1.
</event>
<event>
 7    1  0.8986500E-014  0.5052889E+02  0.7816164E-02  0.1300439E+00
        -11   -1    0    0    0    0  0.00000000000E+00  0.00000000000E+00  0.45593999997E+02  0.45594000000E+02  0.51100000000E-03 0. -1.
         11   -1    0    0    0    0 -0.00000000000E+00 -0.00000000000E+00 -0.45593999997E+02  0.45594000000E+02  0.51100000000E-03 0.  1.
    9900012    2    1    2    0    0 -0.21081968481E+02  0.22157582062E+02  0.26790959966E+02  0.50528888183E+02  0.30000086120E+02 0.  0.
        -12    1    1    2    0    0  0.21081968481E+02 -0.22157582062E+02 -0.26790959966E+02  0.40659111817E+02  0.00000000000E+00 0.  1.
         11    1    3    3    0    0 -0.62802223121E+01  0.24102332079E+01  0.32726063994E+00  0.67347988978E+01  0.51100000000E-03 0. -1.
        -11    1    3    3    0    0 -0.94067551306E+01  0.78356882924E+01 -0.20609080824E+01  0.12415006866E+02  0.51100000000E-03 0.  1.
         12    1    3    3    0    0 -0.53949910384E+01  0.11911660562E+02  0.28524607408E+02  0.31379082419E+02  0.00000000000E+00 0. -1.
</event>
<event>
 7    1  0.8986500E-014  0.5052885E+02  0.7816164E-02  0.1300439E+00
        -11   -1    0    0    0    0  0.00000000000E+00  0.00000000000E+00  0.45593999997E+02  0.45594000000E+02  0.51100000000E-03 0. -1.
         11   -1    0    0    0    0 -0.00000000000E+00 -0.00000000000E+00 -0.45593999997E+02  0.45594000000E+02  0.51100000000E-03 0.  1.
    9900012    2    1    2    0    0 -0.56498410098E+01  0.12612447011E+02 -0.38238354071E+02  0.50528852873E+02  0.29999978791E+02 0.  0.
         12    1    1    2    0    0  0.56498410098E+01 -0.12612447011E+02  0.38238354071E+02  0.40659147127E+02  0.00000000000E+00 0. -1.
         11    1    3    3    0    0 -0.90894347956E-01 -0.47708119939E+01 -0.39708499804E+01  0.62077821073E+01  0.51100000000E-03 0. -1.
        -11    1    3    3    0    0  0.60877157119E+01  0.12164433215E+01 -0.22368517904E+01  0.65987516347E+01  0.51100000000E-03 0.  1.
        -12    1    3    3    0    0 -0.11646662374E+02  0.16166815683E+02 -0.32030652301E+02  0.37722319131E+02  0.00000000000E+00 0.  1.
</event>
<event>
 7    1  0.8986500E-014  0.5052888E+02  0.7816164E-02  0.1300439E+00
        -11   -1    0    0    0    0  0.00000000000E+00  0.00000000000E+00  0.45593999997E+02  0.45594000000E+02  0.51100000000E-03 0. -1.
         11   -1    0    0    0    0 -0.00000000000E+00 -0.00000000000E+00 -0.45593999997E+02  0.45594000000E+02  0.51100000000E-03 0.  1.
    9900012    2    1    2    0    0 -0.15949706316E+02 -0.62780108690E+01 -0.36869461766E+02  0.50528883397E+02  0.30000071573E+02 0.  0.
         12    1    1    2    0    0  0.15949706316E+02  0.62780108690E+01  0.36869461766E+02  0.40659116603E+02  0.00000000000E+00 0. -1.
         11    1    3    3    0    0  0.26883250035E+01  0.32677325975E+01  0.45857630045E+00  0.42562260441E+01  0.51100000000E-03 0. -1.
        -11    1    3    3    0    0 -0.11665176378E+02 -0.82673152264E+01 -0.86043796877E+01  0.16687126507E+02  0.51100000000E-03 0.  1.
        -12    1    3    3    0    0 -0.69728549416E+01 -0.12784282401E+01 -0.28723658379E+02  0.29585530846E+02  0.00000000000E+00 0.  1.
</event>
<event>
 7    1  0.1202630E-013  0.5052885E+02  0.7816164E-02  0.1300439E+00
        -11   -1    0    0    0    0  0.00000000000E+00  0.00000000000E+00  0.45593999997E+02  0.45594000000E+02  0.51100000000E-03 0. -1.
         11   -1    0    0    0    0 -0.00000000000E+00 -0.00000000000E+00 -0.45593999997E+02  0.45594000000E+02  0.51100000000E-03 0.  1.
    9900012    2    1    2    0    0 -0.20222690495E+02  0.17121550349E+02  0.30839286287E+02  0.50528852494E+02  0.29999977641E+02 0.  0.
        -12    1    1    2    0    0  0.20222690495E+02 -0.17121550349E+02 -0.30839286287E+02  0.40659147506E+02  0.00000000000E+00 0.  1.
         11    1    3    3    0    0 -0.38897939364E+01  0.33145484363E+01 -0.10917637321E+01  0.52257704228E+01  0.51100000000E-03 0. -1.
        -11    1    3    3    0    0  0.21939244485E+01 -0.31365910019E+01  0.13835172246E+02  0.14354912015E+02  0.51100000000E-03 0.  1.
         12    1    3    3    0    0 -0.18526821007E+02  0.16943592914E+02  0.18095877773E+02  0.30948170057E+02  0.00000000000E+00 0. -1.
</event>
<event>
 7    1  0.8986500E-014  0.5052892E+02  0.7816164E-02  0.1300439E+00
        -11   -1    0    0    0    0  0.00000000000E+00  0.00000000000E+00  0.45593999997E+02  0.45594000000E+02  0.51100000000E-03 0. -1.
         11   -1    0    0    0    0 -0.00000000000E+00 -0.00000000000E+00 -0.45593999997E+02  0.45594000000E+02  0.51100000000E-03 0.  1.
    9900012    2    1    2    0    0  0.19088626190E+02 -0.42514418158E+01  0.35647025487E+02  0.50528919423E+02  0.30000181077E+02 0.  0.
        -12    1    1    2    0    0 -0.19088626190E+02  0.42514418158E+01 -0.35647025487E+02  0.40659080577E+02  0.00000000000E+00 0.  1.
         11    1    3    3    0    0  0.19610504106E+01 -0.43813966747E+00  0.19521608673E+02  0.19624751986E+02  0.51100000000E-03 0. -1.
        -11    1    3    3    0    0  0.35661202800E+01  0.67213416460E+01  0.10227046077E+02  0.12747004319E+02  0.51100000000E-03 0.  1.
        -12    1    3    3    0    0  0.13561455499E+02 -0.10534643794E+02  0.58983707363E+01  0.18157163118E+02  0.00000000000E+00 0.  1.
</event>
<event>
 7    1  0.8986500E-014  0.5052886E+02  0.7816164E-02  0.1300439E+00
        -11   -1    0    0    0    0  0.00000000000E+00  0.00000000000E+00  0.45593999997E+02  0.45594000000E+02  0.51100000000E-03 0. -1.
         11   -1    0    0    0    0 -0.00000000000E+00 -0.00000000000E+00 -0.45593999997E+02  0.45594000000E+02  0.51100000000E-03 0.  1.
    9900012    2    1    2    0    0  0.32035500754E+02  0.46538853494E+00  0.25033490620E+02  0.50528861449E+02  0.30000004862E+02 0.  0.
        -12    1    1    2    0    0 -0.32035500754E+02 -0.46538853494E+00 -0.25033490620E+02  0.40659138551E+02  0.00000000000E+00 0.  1.
         11    1    3    3    0    0  0.18013107181E+01 -0.41899279139E+01  0.23052389632E+01  0.51102194831E+01  0.51100000000E-03 0. -1.
        -11    1    3    3    0    0  0.40055896669E+01  0.11384884442E+02  0.90274790776E+01  0.15071686073E+02  0.51100000000E-03 0.  1.
         12    1    3    3    0    0  0.26228600369E+02 -0.67295679933E+01  0.13700772579E+02  0.30346955893E+02  0.00000000000E+00 0. -1.
</event>
<event>
 7    1  0.8986500E-014  0.5052886E+02  0.7816164E-02  0.1300439E+00
        -11   -1    0    0    0    0  0.00000000000E+00  0.00000000000E+00  0.45593999997E+02  0.45594000000E+02  0.51100000000E-03 0. -1.
         11   -1    0    0    0    0 -0.00000000000E+00 -0.00000000000E+00 -0.45593999997E+02  0.45594000000E+02  0.51100000000E-03 0.  1.
    9900012    2    1    2    0    0 -0.66506466212E+01  0.17206825312E+02  0.36233403485E+02  0.50528862455E+02  0.30000007918E+02 0.  0.
        -12    1    1    2    0    0  0.66506466212E+01 -0.17206825312E+02 -0.36233403485E+02  0.40659137545E+02  0.00000000000E+00 0.  1.
         11    1    3    3    0    0 -0.41427707143E+01  0.10129322854E+02  0.18178313187E+02  0.21218312875E+02  0.51100000000E-03 0. -1.
        -11    1    3    3    0    0 -0.90619485610E+01  0.98186922696E+01  0.46645387043E+01  0.14152157122E+02  0.51100000000E-03 0.  1.
         12    1    3    3    0    0  0.65540726542E+01 -0.27411898119E+01  0.13390551594E+02  0.15158392458E+02  0.00000000000E+00 0. -1.
</event>
<event>
 7    1  0.8986500E-014  0.5052886E+02  0.7816164E-02  0.1300439E+00
        -11   -1    0    0    0    0  0.00000000000E+00  0.00000000000E+00  0.45593999997E+02  0.45594000000E+02  0.51100000000E-03 0. -1.
         11   -1    0    0    0    0 -0.00000000000E+00 -0.00000000000E+00 -0.45593999997E+02  0.45594000000E+02  0.51100000000E-03 0.  1.
    9900012    2    1    2    0    0 -0.20737087823E+01  0.14956167148E+02  0.37751535879E+02  0.50528860005E+02  0.30000000473E+02 0.  0.
        -12    1    1    2    0    0  0.20737087823E+01 -0.14956167148E+02 -0.37751535879E+02  0.40659139995E+02  0.00000000000E+00 0.  1.
         11    1    3    3    0    0 -0.11418577647E+02  0.49482503504E+01  0.73404456525E+01  0.14448226176E+02  0.51100000000E-03 0. -1.
        -11    1    3    3    0    0 -0.30937382592E+01 -0.34027092144E+00  0.35358520524E+01  0.47105467532E+01  0.51100000000E-03 0.  1.
         12    1    3    3    0    0  0.12438607124E+02  0.10348187719E+02  0.26875238174E+02  0.31370087076E+02  0.00000000000E+00 0. -1.
</event>
<event>
 7    1  0.8986500E-014  0.5052885E+02  0.7816164E-02  0.1300439E+00
        -11   -1    0    0    0    0  0.00000000000E+00  0.00000000000E+00  0.45593999997E+02  0.45594000000E+02  0.51100000000E-03 0. -1.
         11   -1    0    0    0    0 -0.00000000000E+00 -0.00000000000E+00 -0.45593999997E+02  0.45594000000E+02  0.51100000000E-03 0.  1.
    9900012    2    1    2    0    0 -0.29977754731E+01 -0.12606100779E+02 -0.38539153752E+02  0.50528845969E+02  0.29999957807E+02 0.  0.
         12    1    1    2    0    0  0.29977754731E+01  0.12606100779E+02  0.38539153752E+02  0.40659154031E+02  0.00000000000E+00 0. -1.
         11    1    3    3    0    0 -0.23325722882E+01 -0.51104811862E+00  0.12128045658E+01  0.26782380094E+01  0.51100000000E-03 0. -1.
        -11    1    3    3    0    0 -0.55524967961E+01  0.58171188293E+01 -0.13020688101E+02  0.15303836481E+02  0.51100000000E-03 0.  1.
        -12    1    3    3    0    0  0.48872936112E+01 -0.17912171489E+02 -0.26731270217E+02  0.32546771479E+02  0.00000000000E+00 0.  1.
</event>
<event>
 7    1  0.8986500E-014  0.5052885E+02  0.7816164E-02  0.1300439E+00
        -11   -1    0    0    0    0  0.00000000000E+00  0.00000000000E+00  0.45593999997E+02  0.45594000000E+02  0.51100000000E-03 0. -1.
         11   -1    0    0    0    0 -0.00000000000E+00 -0.00000000000E+00 -0.45593999997E+02  0.45594000000E+02  0.51100000000E-03 0.  1.
    9900012    2    1    2    0    0 -0.27765101543E+02 -0.16899299819E+02  0.24427026499E+02  0.50528845783E+02  0.29999957242E+02 0.  0.
        -12    1    1    2    0    0  0.27765101543E+02  0.16899299819E+02 -0.24427026499E+02  0.40659154217E+02  0.00000000000E+00 0.  1.
         11    1    3    3    0    0 -0.93907288373E+01 -0.47943611933E+00  0.79925852850E+01  0.12340869778E+02  0.51100000000E-03 0. -1.
        -11    1    3    3    0    0 -0.30066414191E+01  0.63064815434E+01  0.25250337527E+01  0.74288221000E+01  0.51100000000E-03 0.  1.
        -12    1    3    3    0    0 -0.15367731287E+02 -0.22726345243E+02  0.13909407461E+02  0.30759153904E+02  0.00000000000E+00 0.  1.
</event>
<event>
 7    1  0.8986500E-014  0.5052885E+02  0.7816164E-02  0.1300439E+00
        -11   -1    0    0    0    0  0.00000000000E+00  0.00000000000E+00  0.45593999997E+02  0.45594000000E+02  0.51100000000E-03 0. -1.
         11   -1    0    0    0    0 -0.00000000000E+00 -0.00000000000E+00 -0.45593999997E+02  0.45594000000E+02  0.51100000000E-03 0.  1.
    9900012    2    1    2    0    0  0.87154443447E+01 -0.52455207349E+01 -0.39366124155E+02  0.50528853564E+02  0.29999980892E+02 0.  0.
         12    1    1    2    0    0 -0.87154443447E+01  0.52455207349E+01  0.39366124155E+02  0.40659146436E+02  0.00000000000E+00 0. -1.
         11    1    3    3    0    0 -0.74800580459E+00  0.84294347551E+00  0.79373533790E+00  0.13784347770E+01  0.51100000000E-03 0. -1.
        -11    1    3    3    0    0  0.14252671269E+01  0.89637132322E+01 -0.23959504622E+02  0.25621034392E+02  0.51100000000E-03 0.  1.
         12    1    3    3    0    0  0.80381830224E+01 -0.15052177443E+02 -0.16200354871E+02  0.23529384395E+02  0.00000000000E+00 0. -1.
</event>
<event>
 7    1  0.8986500E-014  0.5052887E+02  0.7816164E-02  0.1300439E+00
        -11   -1    0    0    0    0  0.00000000000E+00  0.00000000000E+00  0.45593999997E+02  0.45594000000E+02  0.51100000000E-03 0. -1.
         11   -1    0    0    0    0 -0.00000000000E+00 -0.00000000000E+00 -0.45593999997E+02  0.45594000000E+02  0.51100000000E-03 0.  1.
    9900012    2    1    2    0    0  0.10424891221E+02  0.33016818860E+02 -0.21316109555E+02  0.50528865587E+02  0.30000017439E+02 0.  0.
         12    1    1    2    0    0 -0.10424891221E+02 -0.33016818860E+02  0.21316109555E+02  0.40659134413E+02  0.00000000000E+00 0. -1.
         11    1    3    3    0    0 -0.50650211688E+01  0.41737301480E+01 -0.52218859835E+01  0.83870469340E+01  0.51100000000E-03 0. -1.
        -11    1    3    3    0    0  0.17924821286E+02  0.13440406636E+02 -0.13972811615E+02  0.26404227187E+02  0.51100000000E-03 0.  1.
         12    1    3    3    0    0 -0.24349088954E+01  0.15402682076E+02 -0.21214119564E+01  0.15737591466E+02  0.00000000000E+00 0. -1.
</event>
<event>
 7    1  0.8986500E-014  0.5052886E+02  0.7816164E-02  0.1300439E+00
        -11   -1    0    0    0    0  0.00000000000E+00  0.00000000000E+00  0.45593999997E+02  0.45594000000E+02  0.51100000000E-03 0. -1.
         11   -1    0    0    0    0 -0.00000000000E+00 -0.00000000000E+00 -0.45593999997E+02  0.45594000000E+02  0.51100000000E-03 0.  1.
    9900012    2    1    2    0    0  0.26537573813E+01 -0.23986860045E+02  0.32722371331E+02  0.50528862422E+02  0.30000007818E+02 0.  0.
        -12    1    1    2    0    0 -0.26537573813E+01  0.23986860045E+02 -0.32722371331E+02  0.40659137578E+02  0.00000000000E+00 0.  1.
         11    1    3    3    0    0 -0.36782934257E+01 -0.16383535450E+02  0.14184988031E+02  0.21980990925E+02  0.51100000000E-03 0. -1.
        -11    1    3    3    0    0 -0.45205147143E+01  0.35091483017E+01  0.25747748911E+01  0.62752403210E+01  0.51100000000E-03 0.  1.
        -12    1    3    3    0    0  0.10852565521E+02 -0.11112472897E+02  0.15962608409E+02  0.22272631176E+02  0.00000000000E+00 0.  1.
</event>
<event>
 7    1  0.8986500E-014  0.5052888E+02  0.7816164E-02  0.1300439E+00
        -11   -1    0    0    0    0  0.00000000000E+00  0.00000000000E+00  0.45593999997E+02  0.45594000000E+02  0.51100000000E-03 0. -1.
         11   -1    0    0    0    0 -0.00000000000E+00 -0.00000000000E+00 -0.45593999997E+02  0.45594000000E+02  0.51100000000E-03 0.  1.
    9900012    2    1    2    0    0  0.25157296312E+01 -0.39925370327E+02  0.72663748053E+01  0.50528876865E+02  0.30000051718E+02 0.  0.
        -12    1    1    2    0    0 -0.25157296312E+01  0.39925370327E+02 -0.72663748053E+01  0.40659123135E+02  0.00000000000E+00 0.  1.
         11    1    3    3    0    0 -0.48682488489E+01 -0.13033860543E+02  0.26842258294E+01  0.14169913058E+02  0.51100000000E-03 0.  1.
        -11    1    3    3    0    0  0.21688990126E+00 -0.22598831524E+02  0.11641011436E+02  0.25421789374E+02  0.51100000000E-03 0. -1.
         12    1    3    3    0    0  0.71670885788E+01 -0.42926782603E+01 -0.70588624599E+01  0.10937174433E+02  0.00000000000E+00 0. -1.
</event>
<event>
 7    1  0.8986500E-014  0.5052887E+02  0.7816164E-02  0.1300439E+00
        -11   -1    0    0    0    0  0.00000000000E+00  0.00000000000E+00  0.45593999997E+02  0.45594000000E+02  0.51100000000E-03 0.  1.
         11   -1    0    0    0    0 -0.00000000000E+00 -0.00000000000E+00 -0.45593999997E+02  0.45594000000E+02  0.51100000000E-03 0. -1.
    9900012    2    1    2    0    0 -0.40389785362E+02 -0.37241183802E+01 -0.28214705095E+01  0.50528874146E+02  0.30000043456E+02 0.  0.
         12    1    1    2    0    0  0.40389785362E+02  0.37241183802E+01  0.28214705095E+01  0.40659125854E+02  0.00000000000E+00 0. -1.
         11    1    3    3    0    0 -0.28083928511E+02 -0.57801211490E+01 -0.10661604555E+02  0.30590630151E+02  0.51100000000E-03 0. -1.
        -11    1    3    3    0    0 -0.56713000020E+01  0.13863086647E+01 -0.34824217141E+01  0.67979965198E+01  0.51100000000E-03 0.  1.
        -12    1    3    3    0    0 -0.66345568497E+01  0.66969410419E+00  0.11322555760E+02  0.13140247476E+02  0.00000000000E+00 0.  1.
</event>
<event>
 7    1  0.8986500E-014  0.5052886E+02  0.7816164E-02  0.1300439E+00
        -11   -1    0    0    0    0  0.00000000000E+00  0.00000000000E+00  0.45593999997E+02  0.45594000000E+02  0.51100000000E-03 0. -1.
         11   -1    0    0    0    0 -0.00000000000E+00 -0.00000000000E+00 -0.45593999997E+02  0.45594000000E+02  0.51100000000E-03 0.  1.
    9900012    2    1    2    0    0 -0.38536901619E+01 -0.19694478674E+02 -0.35361589785E+02  0.50528862648E+02  0.30000008504E+02 0.  0.
         12    1    1    2    0    0  0.38536901619E+01  0.19694478674E+02  0.35361589785E+02  0.40659137352E+02  0.00000000000E+00 0. -1.
         11    1    3    3    0    0 -0.17767319962E+01 -0.25683175816E+01 -0.12310010855E+02  0.12699976350E+02  0.51100000000E-03 0. -1.
        -11    1    3    3    0    0 -0.51437707565E+01 -0.21262100522E+02 -0.24128352514E+02  0.32568584426E+02  0.51100000000E-03 0.  1.
         12    1    3    3    0    0  0.30668125908E+01  0.41359394291E+01  0.10767735842E+01  0.52603018715E+01  0.00000000000E+00 0. -1.
</event>
<event>
 7    1  0.9126763E-014  0.5052890E+02  0.7816164E-02  0.1300439E+00
        -11   -1    0    0    0    0  0.00000000000E+00  0.00000000000E+00  0.45593999997E+02  0.45594000000E+02  0.51100000000E-03 0. -1.
         11   -1    0    0    0    0 -0.00000000000E+00 -0.00000000000E+00 -0.45593999997E+02  0.45594000000E+02  0.51100000000E-03 0.  1.
    9900012    2    1    2    0    0 -0.24776232777E+02  0.13915952769E+02  0.29080003230E+02  0.50528904585E+02  0.30000135977E+02 0.  0.
        -12    1    1    2    0    0  0.24776232777E+02 -0.13915952769E+02 -0.29080003230E+02  0.40659095415E+02  0.00000000000E+00 0.  1.
         11    1    3    3    0    0 -0.11622968752E+02  0.15328358992E+01 -0.11830937657E+00  0.11724205127E+02  0.51100000000E-03 0. -1.
        -11    1    3    3    0    0 -0.95728980188E+01  0.90669292133E+01  0.49716164836E+01  0.14091364468E+02  0.51100000000E-03 0.  1.
         12    1    3    3    0    0 -0.35803660066E+01  0.33161876563E+01  0.24226696123E+02  0.24713334990E+02  0.00000000000E+00 0. -1.
</event>
<event>
 7    1  0.8986500E-014  0.5052886E+02  0.7816164E-02  0.1300439E+00
        -11   -1    0    0    0    0  0.00000000000E+00  0.00000000000E+00  0.45593999997E+02  0.45594000000E+02  0.51100000000E-03 0.  1.
         11   -1    0    0    0    0 -0.00000000000E+00 -0.00000000000E+00 -0.45593999997E+02  0.45594000000E+02  0.51100000000E-03 0. -1.
    9900012    2    1    2    0    0  0.21350812631E+02 -0.31176126978E+02 -0.15011905737E+02  0.50528863177E+02  0.30000010114E+02 0.  0.
         12    1    1    2    0    0 -0.21350812631E+02  0.31176126978E+02  0.15011905737E+02  0.40659136823E+02  0.00000000000E+00 0. -1.
         11    1    3    3    0    0 -0.53850166654E+01 -0.75171223110E+01 -0.14243052489E+00  0.92480170329E+01  0.51100000000E-03 0. -1.
        -11    1    3    3    0    0  0.85677023056E+01 -0.16488333266E+02 -0.43002697700E+01  0.19072571327E+02  0.51100000000E-03 0.  1.
         12    1    3    3    0    0  0.18168126990E+02 -0.71706714008E+01 -0.10569205442E+02  0.22208274817E+02  0.00000000000E+00 0. -1.
</event>
<event>
 7    1  0.8986500E-014  0.5052889E+02  0.7816164E-02  0.1300439E+00
        -11   -1    0    0    0    0  0.00000000000E+00  0.00000000000E+00  0.45593999997E+02  0.45594000000E+02  0.51100000000E-03 0. -1.
         11   -1    0    0    0    0 -0.00000000000E+00 -0.00000000000E+00 -0.45593999997E+02  0.45594000000E+02  0.51100000000E-03 0.  1.
    9900012    2    1    2    0    0 -0.22353041309E+02 -0.29149141366E+01  0.33837966373E+02  0.50528890953E+02  0.30000094542E+02 0.  0.
        -12    1    1    2    0    0  0.22353041309E+02  0.29149141366E+01 -0.33837966373E+02  0.40659109047E+02  0.00000000000E+00 0.  1.
         11    1    3    3    0    0 -0.92234941949E+01 -0.81328339682E+01  0.19190992936E+02  0.22792762967E+02  0.51100000000E-03 0. -1.
        -11    1    3    3    0    0 -0.79262723444E+01 -0.14661337852E+01  0.17110879780E+02  0.18914479867E+02  0.51100000000E-03 0.  1.
        -12    1    3    3    0    0 -0.52032747693E+01  0.66840536169E+01 -0.24639063424E+01  0.88216481194E+01  0.00000000000E+00 0.  1.
</event>
<event>
 7    1  0.8986500E-014  0.5052892E+02  0.7816164E-02  0.1300439E+00
        -11   -1    0    0    0    0  0.00000000000E+00  0.00000000000E+00  0.45593999997E+02  0.45594000000E+02  0.51100000000E-03 0. -1.
         11   -1    0    0    0    0 -0.00000000000E+00 -0.00000000000E+00 -0.45593999997E+02  0.45594000000E+02  0.51100000000E-03 0.  1.
    9900012    2    1    2    0    0  0.77678267735E+01  0.13653869674E+02 -0.37501909032E+02  0.50528923880E+02  0.30000194626E+02 0.  0.
         12    1    1    2    0    0 -0.77678267735E+01 -0.13653869674E+02  0.37501909032E+02  0.40659076120E+02  0.00000000000E+00 0. -1.
         11    1    3    3    0    0  0.15036934099E+02  0.55061003833E+01 -0.25622850291E+02  0.30215178070E+02  0.51100000000E-03 0. -1.
        -11    1    3    3    0    0 -0.18532957943E+01  0.56332630176E+01 -0.12953789813E+02  0.14246719914E+02  0.51100000000E-03 0.  1.
        -12    1    3    3    0    0 -0.54158115314E+01  0.25145062735E+01  0.10747310720E+01  0.60670258958E+01  0.00000000000E+00 0.  1.
</event>
<event>
 7    1  0.8986500E-014  0.5052887E+02  0.7816164E-02  0.1300439E+00
        -11   -1    0    0    0    0  0.00000000000E+00  0.00000000000E+00  0.45593999997E+02  0.45594000000E+02  0.51100000000E-03 0. -1.
         11   -1    0    0    0    0 -0.00000000000E+00 -0.00000000000E+00 -0.45593999997E+02  0.45594000000E+02  0.51100000000E-03 0.  1.
    9900012    2    1    2    0    0 -0.20829401032E+02  0.27614873306E+02  0.21371009643E+02  0.50528865378E+02  0.30000016804E+02 0.  0.
        -12    1    1    2    0    0  0.20829401032E+02 -0.27614873306E+02 -0.21371009643E+02  0.40659134622E+02  0.00000000000E+00 0.  1.
         11    1    3    3    0    0 -0.21032688703E+02  0.23382581459E+02  0.14337640531E+02  0.34564245197E+02  0.51100000000E-03 0. -1.
        -11    1    3    3    0    0 -0.17698226389E+01  0.25727062343E+01  0.10888149367E+02  0.11327086405E+02  0.51100000000E-03 0.  1.
         12    1    3    3    0    0  0.19731103106E+01  0.16595856124E+01 -0.38547802555E+01  0.46375337757E+01  0.00000000000E+00 0. -1.
</event>
<event>
 7    1  0.8986500E-014  0.5052879E+02  0.7816164E-02  0.1300439E+00
        -11   -1    0    0    0    0  0.00000000000E+00  0.00000000000E+00  0.45593999997E+02  0.45594000000E+02  0.51100000000E-03 0.  1.
         11   -1    0    0    0    0 -0.00000000000E+00 -0.00000000000E+00 -0.45593999997E+02  0.45594000000E+02  0.51100000000E-03 0. -1.
    9900012    2    1    2    0    0 -0.21581578507E+02  0.33165018008E+02  0.93535021279E+01  0.50528794986E+02  0.29999802840E+02 0.  0.
         12    1    1    2    0    0  0.21581578507E+02 -0.33165018008E+02 -0.93535021279E+01  0.40659205014E+02  0.00000000000E+00 0. -1.
         11    1    3    3    0    0 -0.52333617070E+01  0.20751027090E+02  0.10252842671E+01  0.21425321657E+02  0.51100000000E-03 0. -1.
        -11    1    3    3    0    0 -0.98411945208E+01  0.34462803309E+01  0.13349366380E+02  0.16939053714E+02  0.51100000000E-03 0.  1.
         12    1    3    3    0    0 -0.65070222789E+01  0.89677105871E+01 -0.50211485194E+01  0.12164419615E+02  0.00000000000E+00 0. -1.
</event>
<event>
 7    1  0.8986500E-014  0.5052886E+02  0.7816164E-02  0.1300439E+00
        -11   -1    0    0    0    0  0.00000000000E+00  0.00000000000E+00  0.45593999997E+02  0.45594000000E+02  0.51100000000E-03 0. -1.
         11   -1    0    0    0    0 -0.00000000000E+00 -0.00000000000E+00 -0.45593999997E+02  0.45594000000E+02  0.51100000000E-03 0.  1.
    9900012    2    1    2    0    0  0.33936798402E+02 -0.75071189836E+01 -0.21097452727E+02  0.50528860403E+02  0.30000001681E+02 0.  0.
         12    1    1    2    0    0 -0.33936798402E+02  0.75071189836E+01  0.21097452727E+02  0.40659139597E+02  0.00000000000E+00 0. -1.
         11    1    3    3    0    0  0.89066092367E+01  0.28851962410E+01  0.40328865994E+01  0.10193930549E+02  0.51100000000E-03 0. -1.
        -11    1    3    3    0    0  0.13850094047E+02 -0.83128267822E+00 -0.37328035499E+01  0.14368366594E+02  0.51100000000E-03 0.  1.
         12    1    3    3    0    0  0.11180095119E+02 -0.95610325464E+01 -0.21397535777E+02  0.25966563260E+02  0.00000000000E+00 0. -1.
</event>
<event>
 7    1  0.8986500E-014  0.5052884E+02  0.7816164E-02  0.1300439E+00
        -11   -1    0    0    0    0  0.00000000000E+00  0.00000000000E+00  0.45593999997E+02  0.45594000000E+02  0.51100000000E-03 0. -1.
         11   -1    0    0    0    0 -0.00000000000E+00 -0.00000000000E+00 -0.45593999997E+02  0.45594000000E+02  0.51100000000E-03 0.  1.
    9900012    2    1    2    0    0  0.76177645624E+00 -0.38890298187E+02  0.11837726406E+02  0.50528839127E+02  0.29999937011E+02 0.  0.
        -12    1    1    2    0    0 -0.76177645624E+00  0.38890298187E+02 -0.11837726406E+02  0.40659160873E+02  0.00000000000E+00 0.  1.
         11    1    3    3    0    0  0.50525547781E+01  0.11765218917E+01  0.14479414645E+01  0.53860048545E+01  0.51100000000E-03 0. -1.
        -11    1    3    3    0    0 -0.78029868209E+00 -0.27296511974E+02  0.14954401838E+02  0.31134266759E+02  0.51100000000E-03 0.  1.
        -12    1    3    3    0    0 -0.35104796397E+01 -0.12770308104E+02 -0.45646168971E+01  0.14008567514E+02  0.00000000000E+00 0.  1.
</event>
<event>
 7    1  0.8986500E-014  0.5052886E+02  0.7816164E-02  0.1300439E+00
        -11   -1    0    0    0    0  0.00000000000E+00  0.00000000000E+00  0.45593999997E+02  0.45594000000E+02  0.51100000000E-03 0. -1.
         11   -1    0    0    0    0 -0.00000000000E+00 -0.00000000000E+00 -0.45593999997E+02  0.45594000000E+02  0.51100000000E-03 0.  1.
    9900012    2    1    2    0    0 -0.33398929532E+02 -0.23266539657E+01 -0.23070847804E+02  0.50528857966E+02  0.29999994275E+02 0.  0.
         12    1    1    2    0    0  0.33398929532E+02  0.23266539657E+01  0.23070847804E+02  0.40659142034E+02  0.00000000000E+00 0. -1.
         11    1    3    3    0    0 -0.42459194256E+01  0.77416393091E+00 -0.87013942318E+00  0.44027610017E+01  0.51100000000E-03 0. -1.
        -11    1    3    3    0    0 -0.23579003521E+02  0.97337053344E+01 -0.94744394087E+01  0.27211751670E+02  0.51100000000E-03 0.  1.
         12    1    3    3    0    0 -0.55740065845E+01 -0.12834523231E+02 -0.12726268972E+02  0.18914345294E+02  0.00000000000E+00 0. -1.
</event>
<event>
 7    1  0.8986500E-014  0.5052885E+02  0.7816164E-02  0.1300439E+00
        -11   -1    0    0    0    0  0.00000000000E+00  0.00000000000E+00  0.45593999997E+02  0.45594000000E+02  0.51100000000E-03 0. -1.
         11   -1    0    0    0    0 -0.00000000000E+00 -0.00000000000E+00 -0.45593999997E+02  0.45594000000E+02  0.51100000000E-03 0.  1.
    9900012    2    1    2    0    0 -0.27217253202E+02 -0.23236918972E+02  0.19298535382E+02  0.50528846750E+02  0.29999960181E+02 0.  0.
        -12    1    1    2    0    0  0.27217253202E+02  0.23236918972E+02 -0.19298535382E+02  0.40659153250E+02  0.00000000000E+00 0.  1.
         11    1    3    3    0    0 -0.87336858381E+01 -0.73116177545E+01  0.92452159291E+01  0.14670072950E+02  0.51100000000E-03 0. -1.
        -11    1    3    3    0    0 -0.18528792330E+02 -0.21727105768E+02  0.91618180474E+01  0.29988700880E+02  0.51100000000E-03 0.  1.
        -12    1    3    3    0    0  0.45224966319E-01  0.58018045504E+01  0.89150140513E+00  0.58700729207E+01  0.00000000000E+00 0.  1.
</event>
<event>
 7    1  0.8986500E-014  0.5052886E+02  0.7816164E-02  0.1300439E+00
        -11   -1    0    0    0    0  0.00000000000E+00  0.00000000000E+00  0.45593999997E+02  0.45594000000E+02  0.51100000000E-03 0.  1.
         11   -1    0    0    0    0 -0.00000000000E+00 -0.00000000000E+00 -0.45593999997E+02  0.45594000000E+02  0.51100000000E-03 0. -1.
    9900012    2    1    2    0    0 -0.38680307165E+02 -0.12449227792E+02  0.14200490720E+01  0.50528856202E+02  0.29999988912E+02 0.  0.
         12    1    1    2    0    0  0.38680307165E+02  0.12449227792E+02 -0.14200490720E+01  0.40659143798E+02  0.00000000000E+00 0. -1.
         11    1    3    3    0    0 -0.63434803477E-01 -0.25548092447E+01  0.27854173452E+00  0.25707314154E+01  0.51100000000E-03 0. -1.
        -11    1    3    3    0    0 -0.14730759607E+02 -0.16410402021E+02 -0.46356901612E+01  0.22534111844E+02  0.51100000000E-03 0.  1.
        -12    1    3    3    0    0 -0.23886112755E+02  0.65159834734E+01  0.57771974987E+01  0.25424012942E+02  0.00000000000E+00 0.  1.
</event>
<event>
 7    1  0.8986500E-014  0.5052887E+02  0.7816164E-02  0.1300439E+00
        -11   -1    0    0    0    0  0.00000000000E+00  0.00000000000E+00  0.45593999997E+02  0.45594000000E+02  0.51100000000E-03 0.  1.
         11   -1    0    0    0    0 -0.00000000000E+00 -0.00000000000E+00 -0.45593999997E+02  0.45594000000E+02  0.51100000000E-03 0. -1.
    9900012    2    1    2    0    0  0.38298828564E+02 -0.93598358894E+01 -0.99377121511E+01  0.50528869168E+02  0.30000028322E+02 0.  0.
         12    1    1    2    0    0 -0.38298828564E+02  0.93598358894E+01  0.99377121511E+01  0.40659130832E+02  0.00000000000E+00 0. -1.
         11    1    3    3    0    0  0.19411802073E+01 -0.34468244496E+01 -0.12406122884E+01  0.41458290480E+01  0.51100000000E-03 0. -1.
        -11    1    3    3    0    0  0.29325668321E+02 -0.13705521601E+02  0.57867942220E+00  0.32375469339E+02  0.51100000000E-03 0.  1.
         12    1    3    3    0    0  0.70319800359E+01  0.77925101609E+01 -0.92757792849E+01  0.14007570781E+02  0.00000000000E+00 0. -1.
</event>
<event>
 7    1  0.8986500E-014  0.5052886E+02  0.7816164E-02  0.1300439E+00
        -11   -1    0    0    0    0  0.00000000000E+00  0.00000000000E+00  0.45593999997E+02  0.45594000000E+02  0.51100000000E-03 0. -1.
         11   -1    0    0    0    0 -0.00000000000E+00 -0.00000000000E+00 -0.45593999997E+02  0.45594000000E+02  0.51100000000E-03 0.  1.
    9900012    2    1    2    0    0 -0.21575542600E+02 -0.31322669589E+02  0.14371903915E+02  0.50528864608E+02  0.30000014461E+02 0.  0.
        -12    1    1    2    0    0  0.21575542600E+02  0.31322669589E+02 -0.14371903915E+02  0.40659135392E+02  0.00000000000E+00 0.  1.
         11    1    3    3    0    0  0.35228719436E+01 -0.43059302653E+01  0.79552263895E+01  0.97075892656E+01  0.51100000000E-03 0. -1.
        -11    1    3    3    0    0  0.18440551499E+01  0.22731223024E+00 -0.40723662775E+00  0.19021178139E+01  0.51100000000E-03 0.  1.
        -12    1    3    3    0    0 -0.26942469694E+02 -0.27244051554E+02  0.68239141535E+01  0.38919157528E+02  0.00000000000E+00 0.  1.
</event>
<event>
 7    1  0.8986500E-014  0.5052885E+02  0.7816164E-02  0.1300439E+00
        -11   -1    0    0    0    0  0.00000000000E+00  0.00000000000E+00  0.45593999997E+02  0.45594000000E+02  0.51100000000E-03 0. -1.
         11   -1    0    0    0    0 -0.00000000000E+00 -0.00000000000E+00 -0.45593999997E+02  0.45594000000E+02  0.51100000000E-03 0.  1.
    9900012    2    1    2    0    0  0.21414140423E+02  0.18314168957E+02 -0.29311984256E+02  0.50528848316E+02  0.29999964940E+02 0.  0.
         12    1    1    2    0    0 -0.21414140423E+02 -0.18314168957E+02  0.29311984256E+02  0.40659151684E+02  0.00000000000E+00 0. -1.
         11    1    3    3    0    0  0.70732015013E+01  0.19084277867E+02 -0.19441562959E+02  0.28146300143E+02  0.51100000000E-03 0. -1.
        -11    1    3    3    0    0  0.53807889116E+01  0.62467772407E+01 -0.18224443933E+01  0.84437206866E+01  0.51100000000E-03 0.  1.
        -12    1    3    3    0    0  0.89601500099E+01 -0.70168861501E+01 -0.80479769039E+01  0.13938827486E+02  0.00000000000E+00 0.  1.
</event>
<event>
 7    1  0.8986500E-014  0.5052886E+02  0.7816164E-02  0.1300439E+00
        -11   -1    0    0    0    0  0.00000000000E+00  0.00000000000E+00  0.45593999997E+02  0.45594000000E+02  0.51100000000E-03 0. -1.
         11   -1    0    0    0    0 -0.00000000000E+00 -0.00000000000E+00 -0.45593999997E+02  0.45594000000E+02  0.51100000000E-03 0.  1.
    9900012    2    1    2    0    0 -0.16157640431E+02  0.11421793166E+01  0.37293321585E+02  0.50528858928E+02  0.29999997196E+02 0.  0.
        -12    1    1    2    0    0  0.16157640431E+02 -0.11421793166E+01 -0.37293321585E+02  0.40659141072E+02  0.00000000000E+00 0.  1.
         11    1    3    3    0    0 -0.26757322599E+01 -0.39604979152E+01  0.42287114464E+01  0.63817777790E+01  0.51100000000E-03 0. -1.
        -11    1    3    3    0    0 -0.16633846813E+02 -0.50307726978E+01  0.13951339366E+02  0.22285273256E+02  0.51100000000E-03 0.  1.
        -12    1    3    3    0    0  0.31519386421E+01  0.10133449930E+02  0.19113270773E+02  0.21861807892E+02  0.00000000000E+00 0.  1.
</event>
<event>
 7    1  0.8986500E-014  0.5052886E+02  0.7816164E-02  0.1300439E+00
        -11   -1    0    0    0    0  0.00000000000E+00  0.00000000000E+00  0.45593999997E+02  0.45594000000E+02  0.51100000000E-03 0.  1.
         11   -1    0    0    0    0 -0.00000000000E+00 -0.00000000000E+00 -0.45593999997E+02  0.45594000000E+02  0.51100000000E-03 0. -1.
    9900012    2    1    2    0    0 -0.21099504369E+02  0.32298319609E+02  0.12837253258E+02  0.50528860740E+02  0.30000002704E+02 0.  0.
        -12    1    1    2    0    0  0.21099504369E+02 -0.32298319609E+02 -0.12837253258E+02  0.40659139260E+02  0.00000000000E+00 0.  1.
         11    1    3    3    0    0 -0.17370042639E+02  0.12014212082E+02  0.23935733673E+01  0.21255325614E+02  0.51100000000E-03 0. -1.
        -11    1    3    3    0    0 -0.46771193469E+01 -0.19542357315E+01  0.23739766077E+01  0.55973429299E+01  0.51100000000E-03 0.  1.
         12    1    3    3    0    0  0.94765761622E+00  0.22238343258E+02  0.80697032832E+01  0.23676192196E+02  0.00000000000E+00 0. -1.
</event>
<event>
 7    1  0.8986500E-014  0.5052885E+02  0.7816164E-02  0.1300439E+00
        -11   -1    0    0    0    0  0.00000000000E+00  0.00000000000E+00  0.45593999997E+02  0.45594000000E+02  0.51100000000E-03 0. -1.
         11   -1    0    0    0    0 -0.00000000000E+00 -0.00000000000E+00 -0.45593999997E+02  0.45594000000E+02  0.51100000000E-03 0.  1.
    9900012    2    1    2    0    0 -0.12573818828E+02  0.84810460638E+01 -0.37724489150E+02  0.50528854118E+02  0.29999982576E+02 0.  0.
         12    1    1    2    0    0  0.12573818828E+02 -0.84810460638E+01  0.37724489150E+02  0.40659145882E+02  0.00000000000E+00 0. -1.
         11    1    3    3    0    0  0.32500608036E+00 -0.10460209991E+01  0.39597158813E+00  0.11647242775E+01  0.51100000000E-03 0. -1.
        -11    1    3    3    0    0 -0.10605842491E+02 -0.76673787669E+01 -0.22457097121E+02  0.25992187354E+02  0.51100000000E-03 0.  1.
        -12    1    3    3    0    0 -0.22929824172E+01  0.17194445830E+02 -0.15663363617E+02  0.23371942486E+02  0.00000000000E+00 0.  1.
</event>
<event>
 7    1  0.8986500E-014  0.5052886E+02  0.7816164E-02  0.1300439E+00
        -11   -1    0    0    0    0  0.00000000000E+00  0.00000000000E+00  0.45593999997E+02  0.45594000000E+02  0.51100000000E-03 0. -1.
         11   -1    0    0    0    0 -0.00000000000E+00 -0.00000000000E+00 -0.45593999997E+02  0.45594000000E+02  0.51100000000E-03 0.  1.
    9900012    2    1    2    0    0  0.22625239117E+02 -0.27605251001E+02 -0.19473431196E+02  0.50528857726E+02  0.29999993543E+02 0.  0.
         12    1    1    2    0    0 -0.22625239117E+02  0.27605251001E+02  0.19473431196E+02  0.40659142274E+02  0.00000000000E+00 0. -1.
         11    1    3    3    0    0 -0.38686217746E+01 -0.15575820823E+01 -0.22345459376E+01  0.47313309106E+01  0.51100000000E-03 0. -1.
        -11    1    3    3    0    0  0.16871483488E+01 -0.13192714007E+02 -0.67561513798E+00  0.13317305602E+02  0.51100000000E-03 0.  1.
        -12    1    3    3    0    0  0.24806712543E+02 -0.12854954912E+02 -0.16563270120E+02  0.32480221213E+02  0.00000000000E+00 0.  1.
</event>
<event>
 7    1  0.8986500E-014  0.5052886E+02  0.7816164E-02  0.1300439E+00
        -11   -1    0    0    0    0  0.00000000000E+00  0.00000000000E+00  0.45593999997E+02  0.45594000000E+02  0.51100000000E-03 0. -1.
         11   -1    0    0    0    0 -0.00000000000E+00 -0.00000000000E+00 -0.45593999997E+02  0.45594000000E+02  0.51100000000E-03 0.  1.
    9900012    2    1    2    0    0 -0.66854355519E+01 -0.70696231123E+01 -0.39477726668E+02  0.50528861761E+02  0.30000005810E+02 0.  0.
         12    1    1    2    0    0  0.66854355519E+01  0.70696231123E+01  0.39477726668E+02  0.40659138239E+02  0.00000000000E+00 0. -1.
         11    1    3    3    0    0  0.17321392977E+00 -0.35114750208E+01 -0.23813029541E+02  0.24071161917E+02  0.51100000000E-03 0. -1.
        -11    1    3    3    0    0 -0.22458036193E+01 -0.68526159453E+01 -0.18689634697E+02  0.20032584071E+02  0.51100000000E-03 0.  1.
         12    1    3    3    0    0 -0.46128458624E+01  0.32944678537E+01  0.30249375703E+01  0.64251157728E+01  0.00000000000E+00 0. -1.
</event>
<event>
 7    1  0.8986500E-014  0.5052888E+02  0.7816164E-02  0.1300439E+00
        -11   -1    0    0    0    0  0.00000000000E+00  0.00000000000E+00  0.45593999997E+02  0.45594000000E+02  0.51100000000E-03 0. -1.
         11   -1    0    0    0    0 -0.00000000000E+00 -0.00000000000E+00 -0.45593999997E+02  0.45594000000E+02  0.51100000000E-03 0.  1.
    9900012    2    1    2    0    0 -0.18987864827E+02 -0.84808465149E+00 -0.35943087216E+02  0.50528883226E+02  0.30000071053E+02 0.  0.
         12    1    1    2    0    0  0.18987864827E+02  0.84808465149E+00  0.35943087216E+02  0.40659116774E+02  0.00000000000E+00 0. -1.
         11    1    3    3    0    0 -0.76508613420E+01  0.60711719146E+01 -0.13840400392E+02  0.16939642587E+02  0.51100000000E-03 0. -1.
        -11    1    3    3    0    0 -0.19609029004E+01  0.31274266711E+01 -0.19189984951E+02  0.19541787545E+02  0.51100000000E-03 0.  1.
         12    1    3    3    0    0 -0.93761005843E+01 -0.10046683237E+02 -0.29127018733E+01  0.14047453094E+02  0.00000000000E+00 0. -1.
</event>
<event>
 7    1  0.8986500E-014  0.5052893E+02  0.7816164E-02  0.1300439E+00
        -11   -1    0    0    0    0  0.00000000000E+00  0.00000000000E+00  0.45593999997E+02  0.45594000000E+02  0.51100000000E-03 0.  1.
         11   -1    0    0    0    0 -0.00000000000E+00 -0.00000000000E+00 -0.45593999997E+02  0.45594000000E+02  0.51100000000E-03 0. -1.
    9900012    2    1    2    0    0 -0.13437987113E+02  0.34400559615E+02 -0.17005354370E+02  0.50528928728E+02  0.30000209360E+02 0.  0.
        -12    1    1    2    0    0  0.13437987113E+02 -0.34400559615E+02  0.17005354370E+02  0.40659071272E+02  0.00000000000E+00 0.  1.
         11    1    3    3    0    0 -0.17196655881E+02  0.10384664953E+02 -0.10604940197E+02  0.22716315645E+02  0.51100000000E-03 0. -1.
        -11    1    3    3    0    0 -0.12589977676E+01 -0.14945310494E+00 -0.25304070461E+01  0.28302600039E+01  0.51100000000E-03 0.  1.
        -12    1    3    3    0    0  0.50176665357E+01  0.24165347767E+02 -0.38700071269E+01  0.24982353078E+02  0.00000000000E+00 0.  1.
</event>
<event>
 7    1  0.1059211E-013  0.5052888E+02  0.7816164E-02  0.1300439E+00
        -11   -1    0    0    0    0  0.00000000000E+00  0.00000000000E+00  0.45593999997E+02  0.45594000000E+02  0.51100000000E-03 0. -1.
         11   -1    0    0    0    0 -0.00000000000E+00 -0.00000000000E+00 -0.45593999997E+02  0.45594000000E+02  0.51100000000E-03 0.  1.
    9900012    2    1    2    0    0 -0.29391504732E+02 -0.48997243733E+01  0.27663981984E+02  0.50528883573E+02  0.30000072110E+02 0.  0.
        -12    1    1    2    0    0  0.29391504732E+02  0.48997243733E+01 -0.27663981984E+02  0.40659116427E+02  0.00000000000E+00 0.  1.
         11    1    3    3    0    0 -0.73918166573E+01  0.16310055822E+01  0.17755404672E+01  0.77750676471E+01  0.51100000000E-03 0. -1.
        -11    1    3    3    0    0 -0.12997335974E+01  0.29425242590E+01 -0.40318586203E+01  0.51578717156E+01  0.51100000000E-03 0.  1.
         12    1    3    3    0    0 -0.20699954478E+02 -0.94732542145E+01  0.29920300137E+02  0.37595944211E+02  0.00000000000E+00 0. -1.
</event>
<event>
 7    1  0.8986500E-014  0.5052884E+02  0.7816164E-02  0.1300439E+00
        -11   -1    0    0    0    0  0.00000000000E+00  0.00000000000E+00  0.45593999997E+02  0.45594000000E+02  0.51100000000E-03 0. -1.
         11   -1    0    0    0    0 -0.00000000000E+00 -0.00000000000E+00 -0.45593999997E+02  0.45594000000E+02  0.51100000000E-03 0.  1.
    9900012    2    1    2    0    0  0.16660073883E+02 -0.26451754286E+02  0.25998336926E+02  0.50528844948E+02  0.29999954705E+02 0.  0.
        -12    1    1    2    0    0 -0.16660073883E+02  0.26451754286E+02 -0.25998336926E+02  0.40659155052E+02  0.00000000000E+00 0.  1.
         11    1    3    3    0    0 -0.40909598790E+01 -0.87770298817E+01  0.90071601163E+01  0.13225019467E+02  0.51100000000E-03 0.  1.
        -11    1    3    3    0    0  0.31513482595E+01 -0.31261116472E+01  0.13491257971E+02  0.14202732546E+02  0.51100000000E-03 0. -1.
         12    1    3    3    0    0  0.17599685502E+02 -0.14548612757E+02  0.34999188390E+01  0.23101092936E+02  0.00000000000E+00 0. -1.
</event>
<event>
 7    1  0.9848959E-014  0.5052886E+02  0.7816164E-02  0.1300439E+00
        -11   -1    0    0    0    0  0.00000000000E+00  0.00000000000E+00  0.45593999997E+02  0.45594000000E+02  0.51100000000E-03 0. -1.
         11   -1    0    0    0    0 -0.00000000000E+00 -0.00000000000E+00 -0.45593999997E+02  0.45594000000E+02  0.51100000000E-03 0.  1.
    9900012    2    1    2    0    0 -0.18485167451E+02 -0.92668995216E+01  0.35008412123E+02  0.50528858816E+02  0.29999996857E+02 0.  0.
        -12    1    1    2    0    0  0.18485167451E+02  0.92668995216E+01 -0.35008412123E+02  0.40659141184E+02  0.00000000000E+00 0.  1.
         11    1    3    3    0    0 -0.12780564485E+02 -0.77848203320E+01  0.13482590722E+02  0.20142653971E+02  0.51100000000E-03 0. -1.
        -11    1    3    3    0    0 -0.56282567714E+01 -0.57879348974E+01 -0.35943901674E+00  0.80812536979E+01  0.51100000000E-03 0.  1.
         12    1    3    3    0    0 -0.76346194748E-01  0.43058557078E+01  0.21885260418E+02  0.22304951147E+02  0.00000000000E+00 0. -1.
</event>
<event>
 7    1  0.8986500E-014  0.5052886E+02  0.7816164E-02  0.1300439E+00
        -11   -1    0    0    0    0  0.00000000000E+00  0.00000000000E+00  0.45593999997E+02  0.45594000000E+02  0.51100000000E-03 0. -1.
         11   -1    0    0    0    0 -0.00000000000E+00 -0.00000000000E+00 -0.45593999997E+02  0.45594000000E+02  0.51100000000E-03 0.  1.
    9900012    2    1    2    0    0 -0.11645246079E+02 -0.22956448362E+02 -0.31473088230E+02  0.50528861293E+02  0.30000004386E+02 0.  0.
         12    1    1    2    0    0  0.11645246079E+02  0.22956448362E+02  0.31473088230E+02  0.40659138707E+02  0.00000000000E+00 0. -1.
         11    1    3    3    0    0 -0.16737919968E+01 -0.20631870951E+01  0.99264419672E+00  0.28361352930E+01  0.51100000000E-03 0. -1.
        -11    1    3    3    0    0  0.63034423897E+00  0.58931550030E+01 -0.75965762563E+01  0.96350703593E+01  0.51100000000E-03 0.  1.
        -12    1    3    3    0    0 -0.10601798321E+02 -0.26786416270E+02 -0.24869156171E+02  0.38057655641E+02  0.00000000000E+00 0.  1.
</event>
<event>
 7    1  0.8986500E-014  0.5052886E+02  0.7816164E-02  0.1300439E+00
        -11   -1    0    0    0    0  0.00000000000E+00  0.00000000000E+00  0.45593999997E+02  0.45594000000E+02  0.51100000000E-03 0. -1.
         11   -1    0    0    0    0 -0.00000000000E+00 -0.00000000000E+00 -0.45593999997E+02  0.45594000000E+02  0.51100000000E-03 0.  1.
    9900012    2    1    2    0    0 -0.19759601593E+02  0.10842994441E+02  0.33840114225E+02  0.50528859401E+02  0.29999998634E+02 0.  0.
        -12    1    1    2    0    0  0.19759601593E+02 -0.10842994441E+02 -0.33840114225E+02  0.40659140599E+02  0.00000000000E+00 0.  1.
         11    1    3    3    0    0 -0.83488197218E+01  0.70463006470E+01 -0.70153350653E+00  0.10947387500E+02  0.51100000000E-03 0. -1.
        -11    1    3    3    0    0 -0.36485724537E+01  0.20023403990E+01  0.29815017773E-01  0.41620111989E+01  0.51100000000E-03 0.  1.
         12    1    3    3    0    0 -0.77622094171E+01  0.17943533949E+01  0.34511832714E+02  0.35419460702E+02  0.00000000000E+00 0. -1.
</event>
<event>
 7    1  0.8986500E-014  0.5052886E+02  0.7816164E-02  0.1300439E+00
        -11   -1    0    0    0    0  0.00000000000E+00  0.00000000000E+00  0.45593999997E+02  0.45594000000E+02  0.51100000000E-03 0.  1.
         11   -1    0    0    0    0 -0.00000000000E+00 -0.00000000000E+00 -0.45593999997E+02  0.45594000000E+02  0.51100000000E-03 0. -1.
    9900012    2    1    2    0    0  0.40019690786E+02  0.54723436571E+01  0.46522717926E+01  0.50528857995E+02  0.29999994363E+02 0.  0.
        -12    1    1    2    0    0 -0.40019690786E+02 -0.54723436571E+01 -0.46522717926E+01  0.40659142005E+02  0.00000000000E+00 0.  1.
         11    1    3    3    0    0  0.41137920114E+02  0.44722133011E+01  0.49927136470E+01  0.41680407303E+02  0.51100000000E-03 0. -1.
        -11    1    3    3    0    0  0.14077977798E+01  0.43308288230E+01  0.51070393110E+00  0.45824438512E+01  0.51100000000E-03 0.  1.
        -12    1    3    3    0    0 -0.25260271074E+01 -0.33306984670E+01 -0.85114578551E+00  0.42660068417E+01  0.00000000000E+00 0.  1.
</event>
<event>
 7    1  0.8986500E-014  0.5052885E+02  0.7816164E-02  0.1300439E+00
        -11   -1    0    0    0    0  0.00000000000E+00  0.00000000000E+00  0.45593999997E+02  0.45594000000E+02  0.51100000000E-03 0. -1.
         11   -1    0    0    0    0 -0.00000000000E+00 -0.00000000000E+00 -0.45593999997E+02  0.45594000000E+02  0.51100000000E-03 0.  1.
    9900012    2    1    2    0    0 -0.10149149500E+02 -0.33059587109E+02  0.21382810217E+02  0.50528854557E+02  0.29999983911E+02 0.  0.
        -12    1    1    2    0    0  0.10149149500E+02  0.33059587109E+02 -0.21382810217E+02  0.40659145443E+02  0.00000000000E+00 0.  1.
         11    1    3    3    0    0 -0.65009296840E+01 -0.32304063673E+01 -0.50076784033E+00  0.72765638007E+01  0.51100000000E-03 0. -1.
        -11    1    3    3    0    0  0.18443265188E+00 -0.10614929880E+02 -0.35073357162E+01  0.11180883500E+02  0.51100000000E-03 0.  1.
        -12    1    3    3    0    0 -0.38326524680E+01 -0.19214250862E+02  0.25390913774E+02  0.32071407256E+02  0.00000000000E+00 0.  1.
</event>
<event>
 7    1  0.8986500E-014  0.5052887E+02  0.7816164E-02  0.1300439E+00
        -11   -1    0    0    0    0  0.00000000000E+00  0.00000000000E+00  0.45593999997E+02  0.45594000000E+02  0.51100000000E-03 0. -1.
         11   -1    0    0    0    0 -0.00000000000E+00 -0.00000000000E+00 -0.45593999997E+02  0.45594000000E+02  0.51100000000E-03 0.  1.
    9900012    2    1    2    0    0  0.30710378698E+02 -0.84359941478E+01  0.25275912811E+02  0.50528866641E+02  0.30000020643E+02 0.  0.
        -12    1    1    2    0    0 -0.30710378698E+02  0.84359941478E+01 -0.25275912811E+02  0.40659133359E+02  0.00000000000E+00 0.  1.
         11    1    3    3    0    0  0.96862803514E+01 -0.48943090429E+01  0.79706285039E+01  0.13465110733E+02  0.51100000000E-03 0. -1.
        -11    1    3    3    0    0  0.23341428948E+02 -0.57747975788E+01  0.52836877986E+01  0.24618853536E+02  0.51100000000E-03 0.  1.
        -12    1    3    3    0    0 -0.23173306013E+01  0.22331124739E+01  0.12021596509E+02  0.12444902372E+02  0.00000000000E+00 0.  1.
</event>
<event>
 7    1  0.8986500E-014  0.5052886E+02  0.7816164E-02  0.1300439E+00
        -11   -1    0    0    0    0  0.00000000000E+00  0.00000000000E+00  0.45593999997E+02  0.45594000000E+02  0.51100000000E-03 0.  1.
         11   -1    0    0    0    0 -0.00000000000E+00 -0.00000000000E+00 -0.45593999997E+02  0.45594000000E+02  0.51100000000E-03 0. -1.
    9900012    2    1    2    0    0 -0.31402095307E+02  0.22955659740E+02  0.11836892774E+02  0.50528856694E+02  0.29999990408E+02 0.  0.
        -12    1    1    2    0    0  0.31402095307E+02 -0.22955659740E+02 -0.11836892774E+02  0.40659143306E+02  0.00000000000E+00 0.  1.
         11    1    3    3    0    0 -0.10462351038E+02  0.13532018319E+01 -0.27283806715E+01  0.10896605242E+02  0.51100000000E-03 0. -1.
        -11    1    3    3    0    0 -0.61545983801E+01  0.19313905660E+02  0.25241044221E+01  0.20427362445E+02  0.51100000000E-03 0.  1.
         12    1    3    3    0    0 -0.14785145889E+02  0.22885522485E+01  0.12041169023E+02  0.19204889008E+02  0.00000000000E+00 0. -1.
</event>
<event>
 7    1  0.8986500E-014  0.5052886E+02  0.7816164E-02  0.1300439E+00
        -11   -1    0    0    0    0  0.00000000000E+00  0.00000000000E+00  0.45593999997E+02  0.45594000000E+02  0.51100000000E-03 0. -1.
         11   -1    0    0    0    0 -0.00000000000E+00 -0.00000000000E+00 -0.45593999997E+02  0.45594000000E+02  0.51100000000E-03 0.  1.
    9900012    2    1    2    0    0  0.93108731795E+01 -0.28719765859E+02  0.27233228488E+02  0.50528855343E+02  0.29999986300E+02 0.  0.
        -12    1    1    2    0    0 -0.93108731795E+01  0.28719765859E+02 -0.27233228488E+02  0.40659144657E+02  0.00000000000E+00 0.  1.
         11    1    3    3    0    0  0.75325869926E+01 -0.41738798971E+00  0.67785338920E+01  0.10142120169E+02  0.51100000000E-03 0. -1.
        -11    1    3    3    0    0 -0.90503157896E+01 -0.14255444846E+02  0.78087380862E+01  0.18603825263E+02  0.51100000000E-03 0.  1.
         12    1    3    3    0    0  0.10828601976E+02 -0.14046933023E+02  0.12645956510E+02  0.21782909911E+02  0.00000000000E+00 0. -1.
</event>
<event>
 7    1  0.8986500E-014  0.5052891E+02  0.7816164E-02  0.1300439E+00
        -11   -1    0    0    0    0  0.00000000000E+00  0.00000000000E+00  0.45593999997E+02  0.45594000000E+02  0.51100000000E-03 0.  1.
         11   -1    0    0    0    0 -0.00000000000E+00 -0.00000000000E+00 -0.45593999997E+02  0.45594000000E+02  0.51100000000E-03 0. -1.
    9900012    2    1    2    0    0  0.35993894563E+02  0.18373466154E+02  0.44740342306E+01  0.50528908930E+02  0.30000149185E+02 0.  0.
        -12    1    1    2    0    0 -0.35993894563E+02 -0.18373466154E+02 -0.44740342306E+01  0.40659091070E+02  0.00000000000E+00 0.  1.
         11    1    3    3    0    0  0.25242755922E+01  0.37467846529E+01  0.17742886862E+01  0.48537061205E+01  0.51100000000E-03 0. -1.
        -11    1    3    3    0    0  0.21323581738E+02  0.22199658640E+02  0.49773492150E+01  0.31181629004E+02  0.51100000000E-03 0.  1.
         12    1    3    3    0    0  0.12146037233E+02 -0.75729771384E+01 -0.22776036707E+01  0.14493573806E+02  0.00000000000E+00 0. -1.
</event>
<event>
 7    1  0.8986500E-014  0.5052887E+02  0.7816164E-02  0.1300439E+00
        -11   -1    0    0    0    0  0.00000000000E+00  0.00000000000E+00  0.45593999997E+02  0.45594000000E+02  0.51100000000E-03 0. -1.
         11   -1    0    0    0    0 -0.00000000000E+00 -0.00000000000E+00 -0.45593999997E+02  0.45594000000E+02  0.51100000000E-03 0.  1.
    9900012    2    1    2    0    0 -0.61689937303E+01  0.33395973407E+02  0.22356595380E+02  0.50528869655E+02  0.30000029803E+02 0.  0.
        -12    1    1    2    0    0  0.61689937303E+01 -0.33395973407E+02 -0.22356595380E+02  0.40659130345E+02  0.00000000000E+00 0.  1.
         11    1    3    3    0    0 -0.50214428492E+01  0.41914298322E+01  0.88180613474E+01  0.10979124670E+02  0.51100000000E-03 0. -1.
        -11    1    3    3    0    0 -0.56206819193E+01  0.20704721449E+01  0.10225319674E+02  0.11850573102E+02  0.51100000000E-03 0.  1.
        -12    1    3    3    0    0  0.44731310383E+01  0.27134071430E+02  0.33132143588E+01  0.27699171883E+02  0.00000000000E+00 0.  1.
</event>
<event>
 7    1  0.8986500E-014  0.5052889E+02  0.7816164E-02  0.1300439E+00
        -11   -1    0    0    0    0  0.00000000000E+00  0.00000000000E+00  0.45593999997E+02  0.45594000000E+02  0.51100000000E-03 0.  1.
         11   -1    0    0    0    0 -0.00000000000E+00 -0.00000000000E+00 -0.45593999997E+02  0.45594000000E+02  0.51100000000E-03 0. -1.
    9900012    2    1    2    0    0  0.83536119738E+01 -0.39284763108E+02  0.63314779318E+01  0.50528892062E+02  0.30000097912E+02 0.  0.
         12    1    1    2    0    0 -0.83536119738E+01  0.39284763108E+02 -0.63314779318E+01  0.40659107938E+02  0.00000000000E+00 0. -1.
         11    1    3    3    0    0  0.80140967536E+01 -0.13258257606E+02  0.11009051333E+02  0.19005429567E+02  0.51100000000E-03 0. -1.
        -11    1    3    3    0    0  0.69074624322E+01 -0.17718668221E+02  0.18107149869E+01  0.19103479521E+02  0.51100000000E-03 0.  1.
         12    1    3    3    0    0 -0.65679472120E+01 -0.83078372815E+01 -0.64882883879E+01  0.12419982974E+02  0.00000000000E+00 0. -1.
</event>
<event>
 7    1  0.8986500E-014  0.5052886E+02  0.7816164E-02  0.1300439E+00
        -11   -1    0    0    0    0  0.00000000000E+00  0.00000000000E+00  0.45593999997E+02  0.45594000000E+02  0.51100000000E-03 0.  1.
         11   -1    0    0    0    0 -0.00000000000E+00 -0.00000000000E+00 -0.45593999997E+02  0.45594000000E+02  0.51100000000E-03 0. -1.
    9900012    2    1    2    0    0  0.82399098569E+01  0.27944552514E+02 -0.28361442836E+02  0.50528861182E+02  0.30000004050E+02 0.  0.
         12    1    1    2    0    0 -0.82399098569E+01 -0.27944552514E+02  0.28361442836E+02  0.40659138818E+02  0.00000000000E+00 0. -1.
         11    1    3    3    0    0  0.10613195145E+01 -0.13593802692E+01 -0.12457528996E+02  0.12576340596E+02  0.51100000000E-03 0. -1.
        -11    1    3    3    0    0  0.19169272120E+01  0.10725958793E+01 -0.78146186507E+01  0.81174710824E+01  0.51100000000E-03 0.  1.
        -12    1    3    3    0    0  0.52616631304E+01  0.28231336904E+02 -0.80892951894E+01  0.29835049504E+02  0.00000000000E+00 0.  1.
</event>
<event>
 7    1  0.8986500E-014  0.5052885E+02  0.7816164E-02  0.1300439E+00
        -11   -1    0    0    0    0  0.00000000000E+00  0.00000000000E+00  0.45593999997E+02  0.45594000000E+02  0.51100000000E-03 0. -1.
         11   -1    0    0    0    0 -0.00000000000E+00 -0.00000000000E+00 -0.45593999997E+02  0.45594000000E+02  0.51100000000E-03 0.  1.
    9900012    2    1    2    0    0 -0.47548229304E+01 -0.20155063740E+02  0.34990448156E+02  0.50528850997E+02  0.29999973092E+02 0.  0.
        -12    1    1    2    0    0  0.47548229304E+01  0.20155063740E+02 -0.34990448156E+02  0.40659149003E+02  0.00000000000E+00 0.  1.
         11    1    3    3    0    0 -0.98119145480E+01 -0.13528012717E+02  0.11997015957E+02  0.20572048691E+02  0.51100000000E-03 0. -1.
        -11    1    3    3    0    0 -0.17750747245E+01  0.52208602299E+01  0.70677562509E+01  0.89644548357E+01  0.51100000000E-03 0.  1.
        -12    1    3    3    0    0  0.68321663421E+01 -0.11847911252E+02  0.15925675948E+02  0.20992347471E+02  0.00000000000E+00 0.  1.
</event>
<event>
 7    1  0.8986500E-014  0.5052886E+02  0.7816164E-02  0.1300439E+00
        -11   -1    0    0    0    0  0.00000000000E+00  0.00000000000E+00  0.45593999997E+02  0.45594000000E+02  0.51100000000E-03 0. -1.
         11   -1    0    0    0    0 -0.00000000000E+00 -0.00000000000E+00 -0.45593999997E+02  0.45594000000E+02  0.51100000000E-03 0.  1.
    9900012    2    1    2    0    0  0.17279526298E+02 -0.36777387240E+02  0.14169190438E+01  0.50528857106E+02  0.29999991659E+02 0.  0.
         12    1    1    2    0    0 -0.17279526298E+02  0.36777387240E+02 -0.14169190438E+01  0.40659142894E+02  0.00000000000E+00 0. -1.
         11    1    3    3    0    0  0.33484621226E+01 -0.73037910007E+01 -0.49436697835E+01  0.94338450675E+01  0.51100000000E-03 0. -1.
        -11    1    3    3    0    0 -0.41570110882E+01 -0.79690718533E+01 -0.55622068441E+01  0.10570004382E+02  0.51100000000E-03 0.  1.
         12    1    3    3    0    0  0.18088075264E+02 -0.21504524386E+02  0.11922795671E+02  0.30525007657E+02  0.00000000000E+00 0. -1.
</event>
<event>
 7    1  0.8986500E-014  0.5052886E+02  0.7816164E-02  0.1300439E+00
        -11   -1    0    0    0    0  0.00000000000E+00  0.00000000000E+00  0.45593999997E+02  0.45594000000E+02  0.51100000000E-03 0. -1.
         11   -1    0    0    0    0 -0.00000000000E+00 -0.00000000000E+00 -0.45593999997E+02  0.45594000000E+02  0.51100000000E-03 0.  1.
    9900012    2    1    2    0    0  0.26348621416E+02 -0.44206844537E+01  0.30649202329E+02  0.50528857056E+02  0.29999991507E+02 0.  0.
        -12    1    1    2    0    0 -0.26348621416E+02  0.44206844537E+01 -0.30649202329E+02  0.40659142944E+02  0.00000000000E+00 0.  1.
         11    1    3    3    0    0  0.95667640229E+01  0.74735822036E+01  0.24171653580E+02  0.27048960088E+02  0.51100000000E-03 0. -1.
        -11    1    3    3    0    0  0.67908669499E+01 -0.39834618682E+00  0.44160808864E+01  0.81102604318E+01  0.51100000000E-03 0.  1.
        -12    1    3    3    0    0  0.99909904430E+01 -0.11495920470E+02  0.20614678629E+01  0.15369636536E+02  0.00000000000E+00 0.  1.
</event>
<event>
 7    1  0.8986500E-014  0.5052885E+02  0.7816164E-02  0.1300439E+00
        -11   -1    0    0    0    0  0.00000000000E+00  0.00000000000E+00  0.45593999997E+02  0.45594000000E+02  0.51100000000E-03 0. -1.
         11   -1    0    0    0    0 -0.00000000000E+00 -0.00000000000E+00 -0.45593999997E+02  0.45594000000E+02  0.51100000000E-03 0.  1.
    9900012    2    1    2    0    0  0.20878810533E+02  0.22352387794E+02  0.26788287370E+02  0.50528852080E+02  0.29999976382E+02 0.  0.
        -12    1    1    2    0    0 -0.20878810533E+02 -0.22352387794E+02 -0.26788287370E+02  0.40659147920E+02  0.00000000000E+00 0.  1.
         11    1    3    3    0    0  0.21630797297E+02  0.76519808664E+01  0.20352870710E+02  0.30670564867E+02  0.51100000000E-03 0. -1.
        -11    1    3    3    0    0  0.51937254379E+01  0.57703352639E+01  0.44479428296E+01  0.89473878119E+01  0.51100000000E-03 0.  1.
        -12    1    3    3    0    0 -0.59457122018E+01  0.89300716639E+01  0.19874738304E+01  0.10910899401E+02  0.00000000000E+00 0.  1.
</event>
<event>
 7    1  0.8986500E-014  0.5052873E+02  0.7816164E-02  0.1300439E+00
        -11   -1    0    0    0    0  0.00000000000E+00  0.00000000000E+00  0.45593999997E+02  0.45594000000E+02  0.51100000000E-03 0. -1.
         11   -1    0    0    0    0 -0.00000000000E+00 -0.00000000000E+00 -0.45593999997E+02  0.45594000000E+02  0.51100000000E-03 0.  1.
    9900012    2    1    2    0    0  0.32795953673E+02  0.11436724646E+02  0.21137721014E+02  0.50528726794E+02  0.29999595562E+02 0.  0.
        -12    1    1    2    0    0 -0.32795953673E+02 -0.11436724646E+02 -0.21137721014E+02  0.40659273206E+02  0.00000000000E+00 0.  1.
         11    1    3    3    0    0  0.33846022086E+01  0.36218623425E+01  0.13454976887E+02  0.14339101166E+02  0.51100000000E-03 0. -1.
        -11    1    3    3    0    0  0.27797614532E+02  0.10364478639E+02  0.11059291377E+02  0.31661296833E+02  0.51100000000E-03 0.  1.
        -12    1    3    3    0    0  0.16137369323E+01 -0.25496163363E+01 -0.33765472503E+01  0.45283287958E+01  0.00000000000E+00 0.  1.
</event>
<event>
 7    1  0.8986500E-014  0.5052885E+02  0.7816164E-02  0.1300439E+00
        -11   -1    0    0    0    0  0.00000000000E+00  0.00000000000E+00  0.45593999997E+02  0.45594000000E+02  0.51100000000E-03 0. -1.
         11   -1    0    0    0    0 -0.00000000000E+00 -0.00000000000E+00 -0.45593999997E+02  0.45594000000E+02  0.51100000000E-03 0.  1.
    9900012    2    1    2    0    0  0.11080834089E+02  0.10477643444E+02 -0.37690851607E+02  0.50528853537E+02  0.29999980810E+02 0.  0.
         12    1    1    2    0    0 -0.11080834089E+02 -0.10477643444E+02  0.37690851607E+02  0.40659146463E+02  0.00000000000E+00 0. -1.
         11    1    3    3    0    0  0.23464717213E+01  0.12066934341E+00 -0.67894968188E+01  0.71845499472E+01  0.51100000000E-03 0.  1.
        -11    1    3    3    0    0  0.12103080060E+02 -0.55446006812E+01 -0.89969757117E+01  0.16067753915E+02  0.51100000000E-03 0. -1.
         12    1    3    3    0    0 -0.33687176917E+01  0.15901574782E+02 -0.21904379077E+02  0.27276549675E+02  0.00000000000E+00 0. -1.
</event>
<event>
 7    1  0.8986500E-014  0.5052884E+02  0.7816164E-02  0.1300439E+00
        -11   -1    0    0    0    0  0.00000000000E+00  0.00000000000E+00  0.45593999997E+02  0.45594000000E+02  0.51100000000E-03 0. -1.
         11   -1    0    0    0    0 -0.00000000000E+00 -0.00000000000E+00 -0.45593999997E+02  0.45594000000E+02  0.51100000000E-03 0.  1.
    9900012    2    1    2    0    0  0.39694495028E+01 -0.23215574137E+02 -0.33142837792E+02  0.50528842252E+02  0.29999946508E+02 0.  0.
         12    1    1    2    0    0 -0.39694495028E+01  0.23215574137E+02  0.33142837792E+02  0.40659157748E+02  0.00000000000E+00 0. -1.
         11    1    3    3    0    0  0.10413025696E+01  0.11612005269E+01  0.13326065839E+01  0.20514722211E+01  0.51100000000E-03 0. -1.
        -11    1    3    3    0    0 -0.10168295052E+02 -0.12934939124E+02 -0.13914296119E+02  0.21547958399E+02  0.51100000000E-03 0.  1.
        -12    1    3    3    0    0  0.13096441985E+02 -0.11441835540E+02 -0.20561148257E+02  0.26929411632E+02  0.00000000000E+00 0.  1.
</event>
<event>
 7    1  0.8986500E-014  0.5052887E+02  0.7816164E-02  0.1300439E+00
        -11   -1    0    0    0    0  0.00000000000E+00  0.00000000000E+00  0.45593999997E+02  0.45594000000E+02  0.51100000000E-03 0. -1.
         11   -1    0    0    0    0 -0.00000000000E+00 -0.00000000000E+00 -0.45593999997E+02  0.45594000000E+02  0.51100000000E-03 0.  1.
    9900012    2    1    2    0    0  0.30449298414E+02 -0.77577001473E+01  0.25803557082E+02  0.50528865189E+02  0.30000016230E+02 0.  0.
        -12    1    1    2    0    0 -0.30449298414E+02  0.77577001473E+01 -0.25803557082E+02  0.40659134811E+02  0.00000000000E+00 0.  1.
         11    1    3    3    0    0  0.18201538499E+02 -0.87131367965E+01  0.23839796840E+02  0.31233806527E+02  0.51100000000E-03 0. -1.
        -11    1    3    3    0    0  0.84564409754E+01 -0.52478620141E+01  0.53227906522E+01  0.11286432132E+02  0.51100000000E-03 0.  1.
         12    1    3    3    0    0  0.37913189390E+01  0.62032986632E+01 -0.33590304097E+01  0.80086265299E+01  0.00000000000E+00 0. -1.
</event>
<event>
 7    1  0.8986500E-014  0.5052887E+02  0.7816164E-02  0.1300439E+00
        -11   -1    0    0    0    0  0.00000000000E+00  0.00000000000E+00  0.45593999997E+02  0.45594000000E+02  0.51100000000E-03 0. -1.
         11   -1    0    0    0    0 -0.00000000000E+00 -0.00000000000E+00 -0.45593999997E+02  0.45594000000E+02  0.51100000000E-03 0.  1.
    9900012    2    1    2    0    0  0.81010745380E+01 -0.24334622538E+02 -0.31549389028E+02  0.50528865592E+02  0.30000017454E+02 0.  0.
         12    1    1    2    0    0 -0.81010745380E+01  0.24334622538E+02  0.31549389028E+02  0.40659134408E+02  0.00000000000E+00 0. -1.
         11    1    3    3    0    0  0.71371733057E+01 -0.26796534026E+02 -0.22973634530E+02  0.36010850620E+02  0.51100000000E-03 0. -1.
        -11    1    3    3    0    0 -0.35236147372E+01 -0.18381135737E+01 -0.70897792009E+01  0.81276990412E+01  0.51100000000E-03 0.  1.
        -12    1    3    3    0    0  0.44875159696E+01  0.43000250621E+01 -0.14859752973E+01  0.63903159308E+01  0.00000000000E+00 0.  1.
</event>
<event>
 7    1  0.8986500E-014  0.5052886E+02  0.7816164E-02  0.1300439E+00
        -11   -1    0    0    0    0  0.00000000000E+00  0.00000000000E+00  0.45593999997E+02  0.45594000000E+02  0.51100000000E-03 0. -1.
         11   -1    0    0    0    0 -0.00000000000E+00 -0.00000000000E+00 -0.45593999997E+02  0.45594000000E+02  0.51100000000E-03 0.  1.
    9900012    2    1    2    0    0 -0.27181946704E+01  0.34710396106E+02  0.20999182530E+02  0.50528857768E+02  0.29999993671E+02 0.  0.
        -12    1    1    2    0    0  0.27181946704E+01 -0.34710396106E+02 -0.20999182530E+02  0.40659142232E+02  0.00000000000E+00 0.  1.
         11    1    3    3    0    0  0.91841556750E+01  0.44266096625E+01  0.82049941692E+01  0.13086845233E+02  0.51100000000E-03 0. -1.
        -11    1    3    3    0    0  0.15884580151E+01  0.31323499936E+01 -0.16246016435E+01  0.38696441838E+01  0.51100000000E-03 0.  1.
         12    1    3    3    0    0 -0.13490808360E+02  0.27151436450E+02  0.14418790004E+02  0.33572368351E+02  0.00000000000E+00 0. -1.
</event>
<event>
 7    1  0.8986500E-014  0.5052886E+02  0.7816164E-02  0.1300439E+00
        -11   -1    0    0    0    0  0.00000000000E+00  0.00000000000E+00  0.45593999997E+02  0.45594000000E+02  0.51100000000E-03 0. -1.
         11   -1    0    0    0    0 -0.00000000000E+00 -0.00000000000E+00 -0.45593999997E+02  0.45594000000E+02  0.51100000000E-03 0.  1.
    9900012    2    1    2    0    0 -0.14741465476E+01  0.71311814665E+01 -0.40001731215E+02  0.50528863790E+02  0.30000011976E+02 0.  0.
         12    1    1    2    0    0  0.14741465476E+01 -0.71311814665E+01  0.40001731215E+02  0.40659136210E+02  0.00000000000E+00 0. -1.
         11    1    3    3    0    0  0.30936371336E+00 -0.31539112804E+01 -0.17044999528E+02  0.17337095243E+02  0.51100000000E-03 0.  1.
        -11    1    3    3    0    0 -0.50144721253E+01 -0.25488865771E+01 -0.18327124900E+02  0.19170948355E+02  0.51100000000E-03 0. -1.
        -12    1    3    3    0    0  0.32309618643E+01  0.12833979324E+02 -0.46296067864E+01  0.14020820192E+02  0.00000000000E+00 0.  1.
</event>
<event>
 7    1  0.8986500E-014  0.5052889E+02  0.7816164E-02  0.1300439E+00
        -11   -1    0    0    0    0  0.00000000000E+00  0.00000000000E+00  0.45593999997E+02  0.45594000000E+02  0.51100000000E-03 0. -1.
         11   -1    0    0    0    0 -0.00000000000E+00 -0.00000000000E+00 -0.45593999997E+02  0.45594000000E+02  0.51100000000E-03 0.  1.
    9900012    2    1    2    0    0  0.48346906475E+01  0.35430715969E+02 -0.19350802468E+02  0.50528887566E+02  0.30000084247E+02 0.  0.
         12    1    1    2    0    0 -0.48346906475E+01 -0.35430715969E+02  0.19350802468E+02  0.40659112434E+02  0.00000000000E+00 0. -1.
         11    1    3    3    0    0  0.83166878136E+01  0.76507731545E+01 -0.41516098290E+01  0.12038998733E+02  0.51100000000E-03 0.  1.
        -11    1    3    3    0    0  0.62433437674E+01  0.24053145016E+02 -0.11991228755E+02  0.27592076651E+02  0.51100000000E-03 0. -1.
        -12    1    3    3    0    0 -0.97253409334E+01  0.37267977985E+01 -0.32079638835E+01  0.10897812183E+02  0.00000000000E+00 0.  1.
</event>
<event>
 7    1  0.8986500E-014  0.5052887E+02  0.7816164E-02  0.1300439E+00
        -11   -1    0    0    0    0  0.00000000000E+00  0.00000000000E+00  0.45593999997E+02  0.45594000000E+02  0.51100000000E-03 0. -1.
         11   -1    0    0    0    0 -0.00000000000E+00 -0.00000000000E+00 -0.45593999997E+02  0.45594000000E+02  0.51100000000E-03 0.  1.
    9900012    2    1    2    0    0  0.23719661189E+02 -0.22051430038E+02  0.24582048525E+02  0.50528868143E+02  0.30000025207E+02 0.  0.
        -12    1    1    2    0    0 -0.23719661189E+02  0.22051430038E+02 -0.24582048525E+02  0.40659131857E+02  0.00000000000E+00 0.  1.
         11    1    3    3    0    0  0.19791917531E+01 -0.31123933229E+01 -0.52301813959E+01  0.63999210845E+01  0.51100000000E-03 0. -1.
        -11    1    3    3    0    0  0.12818314968E+02 -0.26683020098E+01  0.74284191976E+01  0.15053585827E+02  0.51100000000E-03 0.  1.
         12    1    3    3    0    0  0.89221544687E+01 -0.16270734706E+02  0.22383810723E+02  0.29075361231E+02  0.00000000000E+00 0. -1.
</event>
<event>
 7    1  0.8986500E-014  0.5052886E+02  0.7816164E-02  0.1300439E+00
        -11   -1    0    0    0    0  0.00000000000E+00  0.00000000000E+00  0.45593999997E+02  0.45594000000E+02  0.51100000000E-03 0. -1.
         11   -1    0    0    0    0 -0.00000000000E+00 -0.00000000000E+00 -0.45593999997E+02  0.45594000000E+02  0.51100000000E-03 0.  1.
    9900012    2    1    2    0    0 -0.14318800964E+02  0.31145208647E+01 -0.37926737529E+02  0.50528859320E+02  0.29999998388E+02 0.  0.
         12    1    1    2    0    0  0.14318800964E+02 -0.31145208647E+01  0.37926737529E+02  0.40659140680E+02  0.00000000000E+00 0. -1.
         11    1    3    3    0    0 -0.66623510481E+01  0.54965094699E+01 -0.24453054056E+02  0.25933576514E+02  0.51100000000E-03 0.  1.
        -11    1    3    3    0    0 -0.11344572848E+02 -0.77087393687E+01 -0.11269174611E+02  0.17751571549E+02  0.51100000000E-03 0. -1.
        -12    1    3    3    0    0  0.36881229317E+01  0.53267507636E+01 -0.22045088611E+01  0.68437112575E+01  0.00000000000E+00 0.  1.
</event>
<event>
 7    1  0.8986500E-014  0.5052886E+02  0.7816164E-02  0.1300439E+00
        -11   -1    0    0    0    0  0.00000000000E+00  0.00000000000E+00  0.45593999997E+02  0.45594000000E+02  0.51100000000E-03 0. -1.
         11   -1    0    0    0    0 -0.00000000000E+00 -0.00000000000E+00 -0.45593999997E+02  0.45594000000E+02  0.51100000000E-03 0.  1.
    9900012    2    1    2    0    0 -0.34639417410E+02 -0.48794897697E+01  0.20723580013E+02  0.50528862928E+02  0.30000009357E+02 0.  0.
        -12    1    1    2    0    0  0.34639417410E+02  0.48794897697E+01 -0.20723580013E+02  0.40659137072E+02  0.00000000000E+00 0.  1.
         11    1    3    3    0    0 -0.10357499076E+02 -0.72111406785E+01  0.27652578801E+01  0.12919945371E+02  0.51100000000E-03 0. -1.
        -11    1    3    3    0    0 -0.76609388760E+01 -0.34543614782E+01 -0.41323382296E+01  0.93647646628E+01  0.51100000000E-03 0.  1.
        -12    1    3    3    0    0 -0.16620979458E+02  0.57860123871E+01  0.22090660362E+02  0.28244152894E+02  0.00000000000E+00 0.  1.
</event>
<event>
 7    1  0.8986500E-014  0.5052885E+02  0.7816164E-02  0.1300439E+00
        -11   -1    0    0    0    0  0.00000000000E+00  0.00000000000E+00  0.45593999997E+02  0.45594000000E+02  0.51100000000E-03 0. -1.
         11   -1    0    0    0    0 -0.00000000000E+00 -0.00000000000E+00 -0.45593999997E+02  0.45594000000E+02  0.51100000000E-03 0.  1.
    9900012    2    1    2    0    0  0.20022980009E+02 -0.74086426465E+01 -0.34602869365E+02  0.50528852412E+02  0.29999977392E+02 0.  0.
         12    1    1    2    0    0 -0.20022980009E+02  0.74086426465E+01  0.34602869365E+02  0.40659147588E+02  0.00000000000E+00 0. -1.
         11    1    3    3    0    0 -0.12664256225E+01 -0.12089751781E+02 -0.12005241999E+02  0.17084840289E+02  0.51100000000E-03 0. -1.
        -11    1    3    3    0    0  0.62006803157E+01  0.30142296095E+01 -0.88526771627E+00  0.69510945690E+01  0.51100000000E-03 0.  1.
        -12    1    3    3    0    0  0.15088725316E+02  0.16668795246E+01 -0.21712359650E+02  0.26492917555E+02  0.00000000000E+00 0.  1.
</event>
<event>
 7    1  0.8986500E-014  0.5052885E+02  0.7816164E-02  0.1300439E+00
        -11   -1    0    0    0    0  0.00000000000E+00  0.00000000000E+00  0.45593999997E+02  0.45594000000E+02  0.51100000000E-03 0. -1.
         11   -1    0    0    0    0 -0.00000000000E+00 -0.00000000000E+00 -0.45593999997E+02  0.45594000000E+02  0.51100000000E-03 0.  1.
    9900012    2    1    2    0    0 -0.68999380366E+01 -0.18206718642E+00 -0.40068993476E+02  0.50528849350E+02  0.29999968086E+02 0.  0.
         12    1    1    2    0    0  0.68999380366E+01  0.18206718642E+00  0.40068993476E+02  0.40659150650E+02  0.00000000000E+00 0. -1.
         11    1    3    3    0    0 -0.18591650404E+01 -0.66627114680E+01 -0.59689195045E+01  0.91365321137E+01  0.51100000000E-03 0. -1.
        -11    1    3    3    0    0 -0.35506146489E+01 -0.80777841271E+01 -0.13231508382E+02  0.15903781786E+02  0.51100000000E-03 0.  1.
         12    1    3    3    0    0 -0.14901583472E+01  0.14558428409E+02 -0.20868565590E+02  0.25488535451E+02  0.00000000000E+00 0. -1.
</event>
<event>
 7    1  0.8986500E-014  0.5052886E+02  0.7816164E-02  0.1300439E+00
        -11   -1    0    0    0    0  0.00000000000E+00  0.00000000000E+00  0.45593999997E+02  0.45594000000E+02  0.51100000000E-03 0.  1.
         11   -1    0    0    0    0 -0.00000000000E+00 -0.00000000000E+00 -0.45593999997E+02  0.45594000000E+02  0.51100000000E-03 0. -1.
    9900012    2    1    2    0    0  0.14086650072E+02 -0.29952428643E+02  0.23613222370E+02  0.50528856347E+02  0.29999989352E+02 0.  0.
        -12    1    1    2    0    0 -0.14086650072E+02  0.29952428643E+02 -0.23613222370E+02  0.40659143653E+02  0.00000000000E+00 0.  1.
         11    1    3    3    0    0  0.10103702233E+02 -0.41120002821E+01  0.47296220102E+01  0.11889603432E+02  0.51100000000E-03 0. -1.
        -11    1    3    3    0    0  0.63271765634E+01  0.10676049415E+01  0.57037356750E+01  0.85851933284E+01  0.51100000000E-03 0.  1.
        -12    1    3    3    0    0 -0.23442287248E+01 -0.26908033303E+02  0.13179864685E+02  0.30054059587E+02  0.00000000000E+00 0.  1.
</event>
<event>
 7    1  0.8986500E-014  0.5052886E+02  0.7816164E-02  0.1300439E+00
        -11   -1    0    0    0    0  0.00000000000E+00  0.00000000000E+00  0.45593999997E+02  0.45594000000E+02  0.51100000000E-03 0. -1.
         11   -1    0    0    0    0 -0.00000000000E+00 -0.00000000000E+00 -0.45593999997E+02  0.45594000000E+02  0.51100000000E-03 0.  1.
    9900012    2    1    2    0    0  0.34981007278E+01  0.17883036989E+02  0.36347299102E+02  0.50528857452E+02  0.29999992712E+02 0.  0.
        -12    1    1    2    0    0 -0.34981007278E+01 -0.17883036989E+02 -0.36347299102E+02  0.40659142548E+02  0.00000000000E+00 0.  1.
         11    1    3    3    0    0 -0.40296340229E+01  0.78706224667E+01  0.16065265005E+02  0.18337867606E+02  0.51100000000E-03 0. -1.
        -11    1    3    3    0    0  0.11418976342E+02  0.13912634032E+02  0.19647092528E+02  0.26645124347E+02  0.51100000000E-03 0.  1.
        -12    1    3    3    0    0 -0.38912415911E+01 -0.39002195097E+01  0.63494156931E+00  0.55458654997E+01  0.00000000000E+00 0.  1.
</event>
<event>
 7    1  0.8986500E-014  0.5052886E+02  0.7816164E-02  0.1300439E+00
        -11   -1    0    0    0    0  0.00000000000E+00  0.00000000000E+00  0.45593999997E+02  0.45594000000E+02  0.51100000000E-03 0. -1.
         11   -1    0    0    0    0 -0.00000000000E+00 -0.00000000000E+00 -0.45593999997E+02  0.45594000000E+02  0.51100000000E-03 0.  1.
    9900012    2    1    2    0    0  0.20257762193E+02  0.26362740516E+00  0.35252228164E+02  0.50528855653E+02  0.29999987243E+02 0.  0.
        -12    1    1    2    0    0 -0.20257762193E+02 -0.26362740516E+00 -0.35252228164E+02  0.40659144347E+02  0.00000000000E+00 0.  1.
         11    1    3    3    0    0  0.32899859460E+01  0.80798311506E+01  0.16957903226E+02  0.19070347691E+02  0.51100000000E-03 0. -1.
        -11    1    3    3    0    0  0.55022677450E+01  0.29323531659E+01  0.13751957914E+02  0.15099337474E+02  0.51100000000E-03 0.  1.
        -12    1    3    3    0    0  0.11465508502E+02 -0.10748556911E+02  0.45423670240E+01  0.16359170489E+02  0.00000000000E+00 0.  1.
</event>
<event>
 7    1  0.8986500E-014  0.5052884E+02  0.7816164E-02  0.1300439E+00
        -11   -1    0    0    0    0  0.00000000000E+00  0.00000000000E+00  0.45593999997E+02  0.45594000000E+02  0.51100000000E-03 0. -1.
         11   -1    0    0    0    0 -0.00000000000E+00 -0.00000000000E+00 -0.45593999997E+02  0.45594000000E+02  0.51100000000E-03 0.  1.
    9900012    2    1    2    0    0  0.13913382648E+02 -0.29657747277E+02 -0.24083246951E+02  0.50528843909E+02  0.29999951547E+02 0.  0.
         12    1    1    2    0    0 -0.13913382648E+02  0.29657747277E+02  0.24083246951E+02  0.40659156091E+02  0.00000000000E+00 0. -1.
         11    1    3    3    0    0  0.42101044438E+01 -0.57240524542E+01  0.32371219829E+01  0.78082465970E+01  0.51100000000E-03 0. -1.
        -11    1    3    3    0    0  0.90161828457E+01 -0.49988416636E+01 -0.10956340893E+01  0.10367274734E+02  0.51100000000E-03 0.  1.
         12    1    3    3    0    0  0.68709535893E+00 -0.18934853159E+02 -0.26224734845E+02  0.32353322579E+02  0.00000000000E+00 0. -1.
</event>
<event>
 7    1  0.1015412E-013  0.5052886E+02  0.7816164E-02  0.1300439E+00
        -11   -1    0    0    0    0  0.00000000000E+00  0.00000000000E+00  0.45593999997E+02  0.45594000000E+02  0.51100000000E-03 0. -1.
         11   -1    0    0    0    0 -0.00000000000E+00 -0.00000000000E+00 -0.45593999997E+02  0.45594000000E+02  0.51100000000E-03 0.  1.
    9900012    2    1    2    0    0 -0.16592477517E+02 -0.25199362833E+02  0.27255232031E+02  0.50528857481E+02  0.29999992798E+02 0.  0.
        -12    1    1    2    0    0  0.16592477517E+02  0.25199362833E+02 -0.27255232031E+02  0.40659142519E+02  0.00000000000E+00 0.  1.
         11    1    3    3    0    0  0.22414408128E+01 -0.23545164477E+01  0.12833051460E+02  0.13238391694E+02  0.51100000000E-03 0. -1.
        -11    1    3    3    0    0 -0.85717279306E+01  0.97108248120E-01  0.56503824978E+00  0.85908799441E+01  0.51100000000E-03 0.  1.
         12    1    3    3    0    0 -0.10262190399E+02 -0.22941954634E+02  0.13857142322E+02  0.28699585842E+02  0.00000000000E+00 0. -1.
</event>
<event>
 7    1  0.1063316E-013  0.5052886E+02  0.7816164E-02  0.1300439E+00
        -11   -1    0    0    0    0  0.00000000000E+00  0.00000000000E+00  0.45593999997E+02  0.45594000000E+02  0.51100000000E-03 0. -1.
         11   -1    0    0    0    0 -0.00000000000E+00 -0.00000000000E+00 -0.45593999997E+02  0.45594000000E+02  0.51100000000E-03 0.  1.
    9900012    2    1    2    0    0 -0.14365566803E+01  0.41744650300E+00  0.40631606172E+02  0.50528863551E+02  0.30000011250E+02 0.  0.
        -12    1    1    2    0    0  0.14365566803E+01 -0.41744650300E+00 -0.40631606172E+02  0.40659136449E+02  0.00000000000E+00 0.  1.
         11    1    3    3    0    0  0.18258321561E+01 -0.52397809396E+01  0.21616290314E+02  0.22317100496E+02  0.51100000000E-03 0. -1.
        -11    1    3    3    0    0 -0.29426395441E+01 -0.28257179551E+01 -0.27026535488E+01  0.48936842884E+01  0.51100000000E-03 0.  1.
         12    1    3    3    0    0 -0.31974929225E+00  0.84829453977E+01  0.21717969407E+02  0.23318078767E+02  0.00000000000E+00 0. -1.
</event>
<event>
 7    1  0.8986500E-014  0.5052885E+02  0.7816164E-02  0.1300439E+00
        -11   -1    0    0    0    0  0.00000000000E+00  0.00000000000E+00  0.45593999997E+02  0.45594000000E+02  0.51100000000E-03 0.  1.
         11   -1    0    0    0    0 -0.00000000000E+00 -0.00000000000E+00 -0.45593999997E+02  0.45594000000E+02  0.51100000000E-03 0. -1.
    9900012    2    1    2    0    0  0.83554434441E+01 -0.38559070059E+02 -0.98260621187E+01  0.50528845856E+02  0.29999957464E+02 0.  0.
         12    1    1    2    0    0 -0.83554434441E+01  0.38559070059E+02  0.98260621187E+01  0.40659154144E+02  0.00000000000E+00 0. -1.
         11    1    3    3    0    0 -0.59138920876E+01 -0.20886657432E+00 -0.44617245673E+01  0.74111221313E+01  0.51100000000E-03 0. -1.
        -11    1    3    3    0    0  0.44177671661E+01 -0.13597425036E+02 -0.79372529489E+01  0.16352572244E+02  0.51100000000E-03 0.  1.
        -12    1    3    3    0    0  0.98515683657E+01 -0.24752778448E+02  0.25729153974E+01  0.26765151481E+02  0.00000000000E+00 0.  1.
</event>
<event>
 7    1  0.8986500E-014  0.5052886E+02  0.7816164E-02  0.1300439E+00
        -11   -1    0    0    0    0  0.00000000000E+00  0.00000000000E+00  0.45593999997E+02  0.45594000000E+02  0.51100000000E-03 0. -1.
         11   -1    0    0    0    0 -0.00000000000E+00 -0.00000000000E+00 -0.45593999997E+02  0.45594000000E+02  0.51100000000E-03 0.  1.
    9900012    2    1    2    0    0 -0.21505536566E+02  0.10695950932E+02  0.32806616166E+02  0.50528861623E+02  0.30000005388E+02 0.  0.
        -12    1    1    2    0    0  0.21505536566E+02 -0.10695950932E+02 -0.32806616166E+02  0.40659138377E+02  0.00000000000E+00 0.  1.
         11    1    3    3    0    0 -0.42097440491E+01  0.57950702397E+01  0.17756765314E+01  0.73795536076E+01  0.51100000000E-03 0.  1.
        -11    1    3    3    0    0 -0.71475590021E+01  0.14150555926E+02  0.20094063771E+02  0.25594867293E+02  0.51100000000E-03 0. -1.
        -12    1    3    3    0    0 -0.10148233515E+02 -0.92496752330E+01  0.10936875864E+02  0.17554440722E+02  0.00000000000E+00 0.  1.
</event>
<event>
 7    1  0.8986500E-014  0.5052886E+02  0.7816164E-02  0.1300439E+00
        -11   -1    0    0    0    0  0.00000000000E+00  0.00000000000E+00  0.45593999997E+02  0.45594000000E+02  0.51100000000E-03 0. -1.
         11   -1    0    0    0    0 -0.00000000000E+00 -0.00000000000E+00 -0.45593999997E+02  0.45594000000E+02  0.51100000000E-03 0.  1.
    9900012    2    1    2    0    0  0.31607010375E+01 -0.31777647646E+02  0.25166580838E+02  0.50528859428E+02  0.29999998718E+02 0.  0.
        -12    1    1    2    0    0 -0.31607010375E+01  0.31777647646E+02 -0.25166580838E+02  0.40659140572E+02  0.00000000000E+00 0.  1.
         11    1    3    3    0    0 -0.51767981602E+01 -0.14066872839E+02  0.17820724502E+02  0.23286355934E+02  0.51100000000E-03 0. -1.
        -11    1    3    3    0    0 -0.95798593114E+00 -0.81862900912E+01  0.10710820123E+02  0.13514982444E+02  0.51100000000E-03 0.  1.
        -12    1    3    3    0    0  0.92954851289E+01 -0.95244847156E+01 -0.33649637873E+01  0.13727521050E+02  0.00000000000E+00 0.  1.
</event>
<event>
 7    1  0.8986500E-014  0.5052886E+02  0.7816164E-02  0.1300439E+00
        -11   -1    0    0    0    0  0.00000000000E+00  0.00000000000E+00  0.45593999997E+02  0.45594000000E+02  0.51100000000E-03 0. -1.
         11   -1    0    0    0    0 -0.00000000000E+00 -0.00000000000E+00 -0.45593999997E+02  0.45594000000E+02  0.51100000000E-03 0.  1.
    9900012    2    1    2    0    0  0.97541686573E+01 -0.31231875239E+02  0.24136937196E+02  0.50528861122E+02  0.30000003866E+02 0.  0.
        -12    1    1    2    0    0 -0.97541686573E+01  0.31231875239E+02 -0.24136937196E+02  0.40659138878E+02  0.00000000000E+00 0.  1.
         11    1    3    3    0    0  0.54714132747E+01 -0.19469527982E+02  0.13911928833E+02  0.24546703387E+02  0.51100000000E-03 0. -1.
        -11    1    3    3    0    0 -0.40525098966E+00 -0.16914705635E+02  0.72781010338E+01  0.18418530072E+02  0.51100000000E-03 0.  1.
        -12    1    3    3    0    0  0.46880063722E+01  0.51523583787E+01  0.29469073290E+01  0.75636276624E+01  0.00000000000E+00 0.  1.
</event>
<event>
 7    1  0.8986500E-014  0.5052885E+02  0.7816164E-02  0.1300439E+00
        -11   -1    0    0    0    0  0.00000000000E+00  0.00000000000E+00  0.45593999997E+02  0.45594000000E+02  0.51100000000E-03 0. -1.
         11   -1    0    0    0    0 -0.00000000000E+00 -0.00000000000E+00 -0.45593999997E+02  0.45594000000E+02  0.51100000000E-03 0.  1.
    9900012    2    1    2    0    0  0.93993794429E+01  0.38497594724E+02 -0.90968846722E+01  0.50528850425E+02  0.29999971351E+02 0.  0.
         12    1    1    2    0    0 -0.93993794429E+01 -0.38497594724E+02  0.90968846722E+01  0.40659149575E+02  0.00000000000E+00 0. -1.
         11    1    3    3    0    0 -0.12355798901E+01  0.28473960182E+02 -0.51268256808E+01  0.28958201048E+02  0.51100000000E-03 0. -1.
        -11    1    3    3    0    0  0.76443667172E+01  0.40368797662E+01 -0.95324893734E+01  0.12868608886E+02  0.51100000000E-03 0.  1.
         12    1    3    3    0    0  0.29905926158E+01  0.59867547757E+01  0.55624303820E+01  0.87020404902E+01  0.00000000000E+00 0. -1.
</event>
<event>
 7    1  0.8986500E-014  0.5052885E+02  0.7816164E-02  0.1300439E+00
        -11   -1    0    0    0    0  0.00000000000E+00  0.00000000000E+00  0.45593999997E+02  0.45594000000E+02  0.51100000000E-03 0. -1.
         11   -1    0    0    0    0 -0.00000000000E+00 -0.00000000000E+00 -0.45593999997E+02  0.45594000000E+02  0.51100000000E-03 0.  1.
    9900012    2    1    2    0    0 -0.33404885700E+02  0.29234364031E+01 -0.22994200337E+02  0.50528854434E+02  0.29999983536E+02 0.  0.
         12    1    1    2    0    0  0.33404885700E+02 -0.29234364031E+01  0.22994200337E+02  0.40659145566E+02  0.00000000000E+00 0. -1.
         11    1    3    3    0    0 -0.14920655777E+02  0.15209407510E+02 -0.14152707290E+02  0.25578333987E+02  0.51100000000E-03 0. -1.
        -11    1    3    3    0    0 -0.19707904908E+01 -0.11013401771E+01 -0.37320497782E+01  0.43617841708E+01  0.51100000000E-03 0.  1.
         12    1    3    3    0    0 -0.16513439432E+02 -0.11184630930E+02 -0.51094432687E+01  0.20588736276E+02  0.00000000000E+00 0. -1.
</event>
<event>
 7    1  0.8986500E-014  0.5052887E+02  0.7816164E-02  0.1300439E+00
        -11   -1    0    0    0    0  0.00000000000E+00  0.00000000000E+00  0.45593999997E+02  0.45594000000E+02  0.51100000000E-03 0. -1.
         11   -1    0    0    0    0 -0.00000000000E+00 -0.00000000000E+00 -0.45593999997E+02  0.45594000000E+02  0.51100000000E-03 0.  1.
    9900012    2    1    2    0    0 -0.73523407789E+01 -0.11251380736E+02 -0.38373354720E+02  0.50528870203E+02  0.30000031469E+02 0.  0.
         12    1    1    2    0    0  0.73523407789E+01  0.11251380736E+02  0.38373354720E+02  0.40659129797E+02  0.00000000000E+00 0. -1.
         11    1    3    3    0    0 -0.17923454816E+01  0.25317846256E+01 -0.63724718190E+00  0.31667838492E+01  0.51100000000E-03 0. -1.
        -11    1    3    3    0    0 -0.24436818830E+01  0.47326438301E+01 -0.22673648600E+02  0.23290853138E+02  0.51100000000E-03 0.  1.
        -12    1    3    3    0    0 -0.31163134144E+01 -0.18515809191E+02 -0.15062458938E+02  0.24071233216E+02  0.00000000000E+00 0.  1.
</event>
<event>
 7    1  0.8986500E-014  0.5052888E+02  0.7816164E-02  0.1300439E+00
        -11   -1    0    0    0    0  0.00000000000E+00  0.00000000000E+00  0.45593999997E+02  0.45594000000E+02  0.51100000000E-03 0.  1.
         11   -1    0    0    0    0 -0.00000000000E+00 -0.00000000000E+00 -0.45593999997E+02  0.45594000000E+02  0.51100000000E-03 0. -1.
    9900012    2    1    2    0    0 -0.37613442633E+02 -0.15137668533E+02 -0.30404430181E+01  0.50528875943E+02  0.30000048918E+02 0.  0.
        -12    1    1    2    0    0  0.37613442633E+02  0.15137668533E+02  0.30404430181E+01  0.40659124057E+02  0.00000000000E+00 0.  1.
         11    1    3    3    0    0 -0.16759693514E+02 -0.17246681406E+01 -0.51021282804E+01  0.17603792777E+02  0.51100000000E-03 0. -1.
        -11    1    3    3    0    0 -0.20759393313E+02 -0.25572145877E+01  0.53353268405E+01  0.21586048038E+02  0.51100000000E-03 0.  1.
        -12    1    3    3    0    0 -0.94355805947E-01 -0.10855785805E+02 -0.32736415783E+01  0.11339035128E+02  0.00000000000E+00 0.  1.
</event>
<event>
 7    1  0.8986500E-014  0.5052886E+02  0.7816164E-02  0.1300439E+00
        -11   -1    0    0    0    0  0.00000000000E+00  0.00000000000E+00  0.45593999997E+02  0.45594000000E+02  0.51100000000E-03 0. -1.
         11   -1    0    0    0    0 -0.00000000000E+00 -0.00000000000E+00 -0.45593999997E+02  0.45594000000E+02  0.51100000000E-03 0.  1.
    9900012    2    1    2    0    0  0.14427627283E+02 -0.10993935494E+02  0.36388767125E+02  0.50528863026E+02  0.30000009653E+02 0.  0.
        -12    1    1    2    0    0 -0.14427627283E+02  0.10993935494E+02 -0.36388767125E+02  0.40659136974E+02  0.00000000000E+00 0.  1.
         11    1    3    3    0    0  0.79283492527E+01  0.57645058400E+01  0.28499480034E+01  0.10208352136E+02  0.51100000000E-03 0.  1.
        -11    1    3    3    0    0  0.33279989038E+01 -0.77508701228E+01  0.41140633673E+01  0.93849391056E+01  0.51100000000E-03 0. -1.
         12    1    3    3    0    0  0.31712791261E+01 -0.90075712109E+01  0.29424755754E+02  0.30935571784E+02  0.00000000000E+00 0. -1.
</event>
<event>
 7    1  0.8986500E-014  0.5052886E+02  0.7816164E-02  0.1300439E+00
        -11   -1    0    0    0    0  0.00000000000E+00  0.00000000000E+00  0.45593999997E+02  0.45594000000E+02  0.51100000000E-03 0. -1.
         11   -1    0    0    0    0 -0.00000000000E+00 -0.00000000000E+00 -0.45593999997E+02  0.45594000000E+02  0.51100000000E-03 0.  1.
    9900012    2    1    2    0    0  0.32508009915E+02 -0.19142664003E+02  0.15164216468E+02  0.50528858902E+02  0.29999997118E+02 0.  0.
        -12    1    1    2    0    0 -0.32508009915E+02  0.19142664003E+02 -0.15164216468E+02  0.40659141098E+02  0.00000000000E+00 0.  1.
         11    1    3    3    0    0 -0.36794180740E+01 -0.66008989575E+01  0.65209839490E+00  0.75851972281E+01  0.51100000000E-03 0. -1.
        -11    1    3    3    0    0  0.11180637088E+02 -0.36002690703E+00 -0.75748822856E+00  0.11212049489E+02  0.51100000000E-03 0.  1.
         12    1    3    3    0    0  0.25006790901E+02 -0.12181738139E+02  0.15269606301E+02  0.31731612185E+02  0.00000000000E+00 0. -1.
</event>
<event>
 7    1  0.8986500E-014  0.5052886E+02  0.7816164E-02  0.1300439E+00
        -11   -1    0    0    0    0  0.00000000000E+00  0.00000000000E+00  0.45593999997E+02  0.45594000000E+02  0.51100000000E-03 0. -1.
         11   -1    0    0    0    0 -0.00000000000E+00 -0.00000000000E+00 -0.45593999997E+02  0.45594000000E+02  0.51100000000E-03 0.  1.
    9900012    2    1    2    0    0 -0.88567988543E+01 -0.31004642616E+02 -0.24767614910E+02  0.50528862060E+02  0.30000006717E+02 0.  0.
         12    1    1    2    0    0  0.88567988543E+01  0.31004642616E+02  0.24767614910E+02  0.40659137940E+02  0.00000000000E+00 0. -1.
         11    1    3    3    0    0 -0.54822379633E+01 -0.16599455737E+02 -0.29680584218E+01  0.17731504023E+02  0.51100000000E-03 0. -1.
        -11    1    3    3    0    0  0.17008143045E+01  0.44252025098E+01 -0.24988215404E+01  0.53590387107E+01  0.51100000000E-03 0.  1.
         12    1    3    3    0    0 -0.50753751955E+01 -0.18830389389E+02 -0.19300734948E+02  0.27438319326E+02  0.00000000000E+00 0. -1.
</event>
<event>
 7    1  0.8986500E-014  0.5052900E+02  0.7816164E-02  0.1300438E+00
        -11   -1    0    0    0    0  0.00000000000E+00  0.00000000000E+00  0.45593999997E+02  0.45594000000E+02  0.51100000000E-03 0. -1.
         11   -1    0    0    0    0 -0.00000000000E+00 -0.00000000000E+00 -0.45593999997E+02  0.45594000000E+02  0.51100000000E-03 0.  1.
    9900012    2    1    2    0    0 -0.12653173664E+02  0.36125679058E+02 -0.13710838227E+02  0.50528996371E+02  0.30000414967E+02 0.  0.
         12    1    1    2    0    0  0.12653173664E+02 -0.36125679058E+02  0.13710838227E+02  0.40659003629E+02  0.00000000000E+00 0. -1.
         11    1    3    3    0    0 -0.12516977813E+02  0.29660069941E+02 -0.52374419561E+01  0.32616334573E+02  0.51100000000E-03 0. -1.
        -11    1    3    3    0    0 -0.62785628926E+01  0.70501368383E+01 -0.63918044785E+01  0.11400874799E+02  0.51100000000E-03 0.  1.
         12    1    3    3    0    0  0.61423670418E+01 -0.58452772062E+00 -0.20815917923E+01  0.65117869991E+01  0.00000000000E+00 0. -1.
</event>
<event>
 7    1  0.8986500E-014  0.5052886E+02  0.7816164E-02  0.1300439E+00
        -11   -1    0    0    0    0  0.00000000000E+00  0.00000000000E+00  0.45593999997E+02  0.45594000000E+02  0.51100000000E-03 0. -1.
         11   -1    0    0    0    0 -0.00000000000E+00 -0.00000000000E+00 -0.45593999997E+02  0.45594000000E+02  0.51100000000E-03 0.  1.
    9900012    2    1    2    0    0 -0.12228177058E+02  0.98749904091E+01  0.37498295345E+02  0.50528857073E+02  0.29999991560E+02 0.  0.
        -12    1    1    2    0    0  0.12228177058E+02 -0.98749904091E+01 -0.37498295345E+02  0.40659142927E+02  0.00000000000E+00 0.  1.
         11    1    3    3    0    0  0.20387475025E+01  0.29798147551E+01  0.31370298495E+01  0.47829639233E+01  0.51100000000E-03 0. -1.
        -11    1    3    3    0    0  0.36034321821E+00  0.29903590344E+00 -0.40713451539E+01  0.40981851264E+01  0.51100000000E-03 0.  1.
        -12    1    3    3    0    0 -0.14627267779E+02  0.65961397506E+01  0.38432610649E+02  0.41647708024E+02  0.00000000000E+00 0.  1.
</event>
<event>
 7    1  0.8986500E-014  0.5052886E+02  0.7816164E-02  0.1300439E+00
        -11   -1    0    0    0    0  0.00000000000E+00  0.00000000000E+00  0.45593999997E+02  0.45594000000E+02  0.51100000000E-03 0. -1.
         11   -1    0    0    0    0 -0.00000000000E+00 -0.00000000000E+00 -0.45593999997E+02  0.45594000000E+02  0.51100000000E-03 0.  1.
    9900012    2    1    2    0    0 -0.20205564613E+02 -0.87893334243E+01  0.34170871267E+02  0.50528859987E+02  0.30000000418E+02 0.  0.
        -12    1    1    2    0    0  0.20205564613E+02  0.87893334243E+01 -0.34170871267E+02  0.40659140013E+02  0.00000000000E+00 0.  1.
         11    1    3    3    0    0 -0.24988329422E+02 -0.73128003596E+01  0.15651652773E+02  0.30378740777E+02  0.51100000000E-03 0.  1.
        -11    1    3    3    0    0  0.49040507348E+00 -0.32562364999E+01  0.78902984406E+01  0.85498761993E+01  0.51100000000E-03 0. -1.
        -12    1    3    3    0    0  0.42923597348E+01  0.17797034351E+01  0.10628920054E+02  0.11600243012E+02  0.00000000000E+00 0.  1.
</event>
<event>
 7    1  0.8986500E-014  0.5052881E+02  0.7816164E-02  0.1300439E+00
        -11   -1    0    0    0    0  0.00000000000E+00  0.00000000000E+00  0.45593999997E+02  0.45594000000E+02  0.51100000000E-03 0. -1.
         11   -1    0    0    0    0 -0.00000000000E+00 -0.00000000000E+00 -0.45593999997E+02  0.45594000000E+02  0.51100000000E-03 0.  1.
    9900012    2    1    2    0    0  0.22502542591E+01  0.32558209656E+02  0.24250137375E+02  0.50528808875E+02  0.29999845055E+02 0.  0.
        -12    1    1    2    0    0 -0.22502542591E+01 -0.32558209656E+02 -0.24250137375E+02  0.40659191125E+02  0.00000000000E+00 0.  1.
         11    1    3    3    0    0  0.81774203566E-01 -0.15969403250E+00 -0.14414049934E+01  0.14525280791E+01  0.51100000000E-03 0. -1.
        -11    1    3    3    0    0  0.54119318947E+01  0.55024764429E+01 -0.39795917470E+01  0.86835133772E+01  0.51100000000E-03 0.  1.
         12    1    3    3    0    0 -0.32434518392E+01  0.27215427246E+02  0.29671134116E+02  0.40392767418E+02  0.00000000000E+00 0. -1.
</event>
<event>
 7    1  0.8986500E-014  0.5052886E+02  0.7816164E-02  0.1300439E+00
        -11   -1    0    0    0    0  0.00000000000E+00  0.00000000000E+00  0.45593999997E+02  0.45594000000E+02  0.51100000000E-03 0. -1.
         11   -1    0    0    0    0 -0.00000000000E+00 -0.00000000000E+00 -0.45593999997E+02  0.45594000000E+02  0.51100000000E-03 0.  1.
    9900012    2    1    2    0    0 -0.45181362061E+01 -0.33198766918E+02  0.23034623728E+02  0.50528861175E+02  0.30000004028E+02 0.  0.
        -12    1    1    2    0    0  0.45181362061E+01  0.33198766918E+02 -0.23034623728E+02  0.40659138825E+02  0.00000000000E+00 0.  1.
         11    1    3    3    0    0 -0.80855333037E+01 -0.15595504942E+02  0.13806715467E+02  0.22343254362E+02  0.51100000000E-03 0. -1.
        -11    1    3    3    0    0 -0.65728647909E+01 -0.14664175272E+02  0.53090680288E+01  0.16924148179E+02  0.51100000000E-03 0.  1.
        -12    1    3    3    0    0  0.10140261889E+02 -0.29390867035E+01  0.39188402323E+01  0.11261458635E+02  0.00000000000E+00 0.  1.
</event>
<event>
 7    1  0.8986500E-014  0.5052887E+02  0.7816164E-02  0.1300439E+00
        -11   -1    0    0    0    0  0.00000000000E+00  0.00000000000E+00  0.45593999997E+02  0.45594000000E+02  0.51100000000E-03 0. -1.
         11   -1    0    0    0    0 -0.00000000000E+00 -0.00000000000E+00 -0.45593999997E+02  0.45594000000E+02  0.51100000000E-03 0.  1.
    9900012    2    1    2    0    0  0.28832876362E+02 -0.28418268883E+01 -0.28526381683E+02  0.50528865832E+02  0.30000018182E+02 0.  0.
         12    1    1    2    0    0 -0.28832876362E+02  0.28418268883E+01  0.28526381683E+02  0.40659134168E+02  0.00000000000E+00 0. -1.
         11    1    3    3    0    0 -0.54308117374E+01 -0.11836587097E+01  0.43868007780E+00  0.55755900620E+01  0.51100000000E-03 0. -1.
        -11    1    3    3    0    0  0.16681499355E+02  0.25814606159E+00 -0.13580592633E+02  0.21512125805E+02  0.51100000000E-03 0.  1.
        -12    1    3    3    0    0  0.17582188744E+02 -0.19163142402E+01 -0.15384469128E+02  0.23441149965E+02  0.00000000000E+00 0.  1.
</event>
<event>
 7    1  0.8986500E-014  0.5052888E+02  0.7816164E-02  0.1300439E+00
        -11   -1    0    0    0    0  0.00000000000E+00  0.00000000000E+00  0.45593999997E+02  0.45594000000E+02  0.51100000000E-03 0. -1.
         11   -1    0    0    0    0 -0.00000000000E+00 -0.00000000000E+00 -0.45593999997E+02  0.45594000000E+02  0.51100000000E-03 0.  1.
    9900012    2    1    2    0    0  0.18047926676E+02 -0.11903767636E+02 -0.34434533398E+02  0.50528875175E+02  0.30000046582E+02 0.  0.
         12    1    1    2    0    0 -0.18047926676E+02  0.11903767636E+02  0.34434533398E+02  0.40659124825E+02  0.00000000000E+00 0. -1.
         11    1    3    3    0    0  0.13864926106E+01 -0.77432092414E+01 -0.36739791784E+01  0.86820374556E+01  0.51100000000E-03 0. -1.
        -11    1    3    3    0    0  0.21420802914E+02 -0.30509504893E+01 -0.17874544064E+02  0.28065252931E+02  0.51100000000E-03 0.  1.
         12    1    3    3    0    0 -0.47593688484E+01 -0.11096079048E+01 -0.12886010155E+02  0.13781584788E+02  0.00000000000E+00 0. -1.
</event>
<event>
 7    1  0.9466321E-014  0.5052886E+02  0.7816164E-02  0.1300439E+00
        -11   -1    0    0    0    0  0.00000000000E+00  0.00000000000E+00  0.45593999997E+02  0.45594000000E+02  0.51100000000E-03 0. -1.
         11   -1    0    0    0    0 -0.00000000000E+00 -0.00000000000E+00 -0.45593999997E+02  0.45594000000E+02  0.51100000000E-03 0.  1.
    9900012    2    1    2    0    0  0.11309159881E+02 -0.31084386232E+02  0.23643800749E+02  0.50528862301E+02  0.30000007449E+02 0.  0.
        -12    1    1    2    0    0 -0.11309159881E+02  0.31084386232E+02 -0.23643800749E+02  0.40659137699E+02  0.00000000000E+00 0.  1.
         11    1    3    3    0    0  0.50713237944E+01 -0.16345499276E+02  0.15374799780E+02  0.23006045731E+02  0.51100000000E-03 0. -1.
        -11    1    3    3    0    0  0.13267178485E+01  0.50380181848E+01  0.43161105207E+01  0.67653985668E+01  0.51100000000E-03 0.  1.
         12    1    3    3    0    0  0.49111182377E+01 -0.19776905140E+02  0.39528904484E+01  0.20757418003E+02  0.00000000000E+00 0. -1.
</event>
<event>
 7    1  0.1031176E-013  0.5052886E+02  0.7816164E-02  0.1300439E+00
        -11   -1    0    0    0    0  0.00000000000E+00  0.00000000000E+00  0.45593999997E+02  0.45594000000E+02  0.51100000000E-03 0. -1.
         11   -1    0    0    0    0 -0.00000000000E+00 -0.00000000000E+00 -0.45593999997E+02  0.45594000000E+02  0.51100000000E-03 0.  1.
    9900012    2    1    2    0    0  0.22753286450E+02 -0.16431037446E+02  0.29418956370E+02  0.50528855522E+02  0.29999986844E+02 0.  0.
        -12    1    1    2    0    0 -0.22753286450E+02  0.16431037446E+02 -0.29418956370E+02  0.40659144478E+02  0.00000000000E+00 0.  1.
         11    1    3    3    0    0 -0.67968235450E+00 -0.41729517013E+01  0.67588472544E+01  0.79722964366E+01  0.51100000000E-03 0. -1.
        -11    1    3    3    0    0 -0.19559215238E+01 -0.16217869292E+01 -0.36705530887E+01  0.44641664495E+01  0.51100000000E-03 0.  1.
         12    1    3    3    0    0  0.25388890328E+02 -0.10636298815E+02  0.26330662204E+02  0.38092392636E+02  0.00000000000E+00 0. -1.
</event>
<event>
 7    1  0.8986500E-014  0.5052886E+02  0.7816164E-02  0.1300439E+00
        -11   -1    0    0    0    0  0.00000000000E+00  0.00000000000E+00  0.45593999997E+02  0.45594000000E+02  0.51100000000E-03 0. -1.
         11   -1    0    0    0    0 -0.00000000000E+00 -0.00000000000E+00 -0.45593999997E+02  0.45594000000E+02  0.51100000000E-03 0.  1.
    9900012    2    1    2    0    0 -0.81498426091E+01 -0.13948094562E+02  0.37312148342E+02  0.50528859695E+02  0.29999999528E+02 0.  0.
        -12    1    1    2    0    0  0.81498426091E+01  0.13948094562E+02 -0.37312148342E+02  0.40659140305E+02  0.00000000000E+00 0.  1.
         11    1    3    3    0    0  0.35092465461E+01 -0.10163624452E+02  0.19657890086E+02  0.22406399001E+02  0.51100000000E-03 0. -1.
        -11    1    3    3    0    0  0.19581739047E+01 -0.70438362126E+01  0.92559678809E+01  0.11795041980E+02  0.51100000000E-03 0.  1.
        -12    1    3    3    0    0 -0.13617263060E+02  0.32593661023E+01  0.83982903753E+01  0.16327418714E+02  0.00000000000E+00 0.  1.
</event>
<event>
 7    1  0.1189638E-013  0.5052888E+02  0.7816164E-02  0.1300439E+00
        -11   -1    0    0    0    0  0.00000000000E+00  0.00000000000E+00  0.45593999997E+02  0.45594000000E+02  0.51100000000E-03 0. -1.
         11   -1    0    0    0    0 -0.00000000000E+00 -0.00000000000E+00 -0.45593999997E+02  0.45594000000E+02  0.51100000000E-03 0.  1.
    9900012    2    1    2    0    0  0.18314809687E+02 -0.16874615380E+02  0.32139999090E+02  0.50528875076E+02  0.30000046280E+02 0.  0.
        -12    1    1    2    0    0 -0.18314809687E+02  0.16874615380E+02 -0.32139999090E+02  0.40659124924E+02  0.00000000000E+00 0.  1.
         11    1    3    3    0    0  0.30804541448E+01 -0.13504055883E+02  0.40102506828E+01  0.14419806997E+02  0.51100000000E-03 0. -1.
        -11    1    3    3    0    0 -0.25068836361E+01  0.27960083724E+01  0.60560705141E+01  0.71258766981E+01  0.51100000000E-03 0.  1.
         12    1    3    3    0    0  0.17741239179E+02 -0.61665678699E+01  0.22073677893E+02  0.28983191381E+02  0.00000000000E+00 0. -1.
</event>
<event>
 7    1  0.8986500E-014  0.5052886E+02  0.7816164E-02  0.1300439E+00
        -11   -1    0    0    0    0  0.00000000000E+00  0.00000000000E+00  0.45593999997E+02  0.45594000000E+02  0.51100000000E-03 0. -1.
         11   -1    0    0    0    0 -0.00000000000E+00 -0.00000000000E+00 -0.45593999997E+02  0.45594000000E+02  0.51100000000E-03 0.  1.
    9900012    2    1    2    0    0  0.20907127463E+02 -0.23073227355E+02  0.26147346442E+02  0.50528861724E+02  0.30000005697E+02 0.  0.
        -12    1    1    2    0    0 -0.20907127463E+02  0.23073227355E+02 -0.26147346442E+02  0.40659138276E+02  0.00000000000E+00 0.  1.
         11    1    3    3    0    0  0.15938417758E+01  0.13227743883E+00 -0.15708146043E+01  0.22417153497E+01  0.51100000000E-03 0. -1.
        -11    1    3    3    0    0  0.13842363598E+02 -0.14213308580E+02  0.13386212259E+01  0.19885197455E+02  0.51100000000E-03 0.  1.
         12    1    3    3    0    0  0.54709220893E+01 -0.89921962138E+01  0.26379539821E+02  0.28401948919E+02  0.00000000000E+00 0. -1.
</event>
<event>
 7    1  0.8986500E-014  0.5052885E+02  0.7816164E-02  0.1300439E+00
        -11   -1    0    0    0    0  0.00000000000E+00  0.00000000000E+00  0.45593999997E+02  0.45594000000E+02  0.51100000000E-03 0. -1.
         11   -1    0    0    0    0 -0.00000000000E+00 -0.00000000000E+00 -0.45593999997E+02  0.45594000000E+02  0.51100000000E-03 0.  1.
    9900012    2    1    2    0    0 -0.88194542862E+01 -0.43758400537E+01  0.39449149621E+02  0.50528853970E+02  0.29999982126E+02 0.  0.
        -12    1    1    2    0    0  0.88194542862E+01  0.43758400537E+01 -0.39449149621E+02  0.40659146030E+02  0.00000000000E+00 0.  1.
         11    1    3    3    0    0  0.37910574552E+01  0.59306278744E+01  0.36834992215E+01  0.79443458126E+01  0.51100000000E-03 0. -1.
        -11    1    3    3    0    0  0.36751637021E+01 -0.20436272428E+01  0.33407758509E+01  0.53706632823E+01  0.51100000000E-03 0.  1.
         12    1    3    3    0    0 -0.16285675444E+02 -0.82628406852E+01  0.32424874549E+02  0.37213844875E+02  0.00000000000E+00 0. -1.
</event>
<event>
 7    1  0.8986500E-014  0.5052885E+02  0.7816164E-02  0.1300439E+00
        -11   -1    0    0    0    0  0.00000000000E+00  0.00000000000E+00  0.45593999997E+02  0.45594000000E+02  0.51100000000E-03 0. -1.
         11   -1    0    0    0    0 -0.00000000000E+00 -0.00000000000E+00 -0.45593999997E+02  0.45594000000E+02  0.51100000000E-03 0.  1.
    9900012    2    1    2    0    0 -0.34061968937E+01  0.72194995236E+01 -0.39867816433E+02  0.50528854193E+02  0.29999982805E+02 0.  0.
         12    1    1    2    0    0  0.34061968937E+01 -0.72194995236E+01  0.39867816433E+02  0.40659145807E+02  0.00000000000E+00 0. -1.
         11    1    3    3    0    0  0.10377720653E+01  0.10804706288E+01 -0.14513905259E+02  0.14591018943E+02  0.51100000000E-03 0. -1.
        -11    1    3    3    0    0  0.34167316432E+01 -0.24774808559E+01 -0.23800087174E+02  0.24171390449E+02  0.51100000000E-03 0.  1.
         12    1    3    3    0    0 -0.78607006022E+01  0.86165097507E+01 -0.15538239995E+01  0.11766444801E+02  0.00000000000E+00 0. -1.
</event>
<event>
 7    1  0.8986500E-014  0.5052886E+02  0.7816164E-02  0.1300439E+00
        -11   -1    0    0    0    0  0.00000000000E+00  0.00000000000E+00  0.45593999997E+02  0.45594000000E+02  0.51100000000E-03 0. -1.
         11   -1    0    0    0    0 -0.00000000000E+00 -0.00000000000E+00 -0.45593999997E+02  0.45594000000E+02  0.51100000000E-03 0.  1.
    9900012    2    1    2    0    0 -0.13857756479E+02 -0.24068812526E+01 -0.38148855786E+02  0.50528859702E+02  0.29999999550E+02 0.  0.
         12    1    1    2    0    0  0.13857756479E+02  0.24068812526E+01  0.38148855786E+02  0.40659140298E+02  0.00000000000E+00 0. -1.
         11    1    3    3    0    0 -0.98778578507E+01 -0.29139685952E+01 -0.66515802245E+01  0.12259967718E+02  0.51100000000E-03 0. -1.
        -11    1    3    3    0    0 -0.10378510082E+01 -0.10392841399E+02 -0.15311526433E+02  0.18534592767E+02  0.51100000000E-03 0.  1.
         12    1    3    3    0    0 -0.29420476198E+01  0.10899928741E+02 -0.16185749128E+02  0.19734299217E+02  0.00000000000E+00 0. -1.
</event>
<event>
 7    1  0.8986500E-014  0.5052883E+02  0.7816164E-02  0.1300439E+00
        -11   -1    0    0    0    0  0.00000000000E+00  0.00000000000E+00  0.45593999997E+02  0.45594000000E+02  0.51100000000E-03 0. -1.
         11   -1    0    0    0    0 -0.00000000000E+00 -0.00000000000E+00 -0.45593999997E+02  0.45594000000E+02  0.51100000000E-03 0.  1.
    9900012    2    1    2    0    0  0.17469007300E+02  0.28559974390E+02 -0.23072273659E+02  0.50528829263E+02  0.29999907026E+02 0.  0.
         12    1    1    2    0    0 -0.17469007300E+02 -0.28559974390E+02  0.23072273659E+02  0.40659170737E+02  0.00000000000E+00 0. -1.
         11    1    3    3    0    0  0.59591148015E+01  0.71885315755E+01  0.15205104267E+01  0.94603376075E+01  0.51100000000E-03 0. -1.
        -11    1    3    3    0    0  0.73974461174E+01  0.19542243587E+02 -0.57169357044E+01  0.21663444962E+02  0.51100000000E-03 0.  1.
         12    1    3    3    0    0  0.41124463815E+01  0.18291992275E+01 -0.18875848382E+02  0.19405046694E+02  0.00000000000E+00 0. -1.
</event>
<event>
 7    1  0.8986500E-014  0.5052885E+02  0.7816164E-02  0.1300439E+00
        -11   -1    0    0    0    0  0.00000000000E+00  0.00000000000E+00  0.45593999997E+02  0.45594000000E+02  0.51100000000E-03 0. -1.
         11   -1    0    0    0    0 -0.00000000000E+00 -0.00000000000E+00 -0.45593999997E+02  0.45594000000E+02  0.51100000000E-03 0.  1.
    9900012    2    1    2    0    0 -0.14680255183E+02  0.42144873164E+01 -0.37681490124E+02  0.50528849818E+02  0.29999969506E+02 0.  0.
         12    1    1    2    0    0  0.14680255183E+02 -0.42144873164E+01  0.37681490124E+02  0.40659150182E+02  0.00000000000E+00 0. -1.
         11    1    3    3    0    0 -0.41309534886E+01  0.62326472768E+01 -0.14739334690E+02  0.16527512099E+02  0.51100000000E-03 0. -1.
        -11    1    3    3    0    0 -0.13826548651E+02  0.61167977430E+01 -0.19270031785E+02  0.24493321284E+02  0.51100000000E-03 0.  1.
         12    1    3    3    0    0  0.32772469567E+01 -0.81349577034E+01 -0.36721236483E+01  0.95080164356E+01  0.00000000000E+00 0. -1.
</event>
<event>
 7    1  0.8986500E-014  0.5052884E+02  0.7816164E-02  0.1300439E+00
        -11   -1    0    0    0    0  0.00000000000E+00  0.00000000000E+00  0.45593999997E+02  0.45594000000E+02  0.51100000000E-03 0. -1.
         11   -1    0    0    0    0 -0.00000000000E+00 -0.00000000000E+00 -0.45593999997E+02  0.45594000000E+02  0.51100000000E-03 0.  1.
    9900012    2    1    2    0    0 -0.24976011864E+02 -0.15708512559E+02  0.27975150892E+02  0.50528836176E+02  0.29999928039E+02 0.  0.
        -12    1    1    2    0    0  0.24976011864E+02  0.15708512559E+02 -0.27975150892E+02  0.40659163824E+02  0.00000000000E+00 0.  1.
         11    1    3    3    0    0 -0.25356537752E+02 -0.11613424831E+02  0.26614847350E+02  0.38550949960E+02  0.51100000000E-03 0. -1.
        -11    1    3    3    0    0  0.93875646713E-01  0.30222126647E+01  0.34180816003E+01  0.45635363606E+01  0.51100000000E-03 0.  1.
        -12    1    3    3    0    0  0.28665024123E+00 -0.71173003929E+01 -0.20577780580E+01  0.74143498554E+01  0.00000000000E+00 0.  1.
</event>
<event>
 7    1  0.8986500E-014  0.5052886E+02  0.7816164E-02  0.1300439E+00
        -11   -1    0    0    0    0  0.00000000000E+00  0.00000000000E+00  0.45593999997E+02  0.45594000000E+02  0.51100000000E-03 0.  1.
         11   -1    0    0    0    0 -0.00000000000E+00 -0.00000000000E+00 -0.45593999997E+02  0.45594000000E+02  0.51100000000E-03 0. -1.
    9900012    2    1    2    0    0 -0.32638826230E+02 -0.16804036783E+02 -0.17478476172E+02  0.50528858849E+02  0.29999996957E+02 0.  0.
         12    1    1    2    0    0  0.32638826230E+02  0.16804036783E+02  0.17478476172E+02  0.40659141151E+02  0.00000000000E+00 0. -1.
         11    1    3    3    0    0 -0.10722856820E+02 -0.50378036771E-02  0.24753211540E+01  0.11004857965E+02  0.51100000000E-03 0. -1.
        -11    1    3    3    0    0 -0.15136191226E+02 -0.22358538456E+01 -0.19965394117E+01  0.15430148966E+02  0.51100000000E-03 0.  1.
         12    1    3    3    0    0 -0.67797781838E+01 -0.14563145134E+02 -0.17957257914E+02  0.24093851917E+02  0.00000000000E+00 0. -1.
</event>
<event>
 7    1  0.8986500E-014  0.5052885E+02  0.7816164E-02  0.1300439E+00
        -11   -1    0    0    0    0  0.00000000000E+00  0.00000000000E+00  0.45593999997E+02  0.45594000000E+02  0.51100000000E-03 0. -1.
         11   -1    0    0    0    0 -0.00000000000E+00 -0.00000000000E+00 -0.45593999997E+02  0.45594000000E+02  0.51100000000E-03 0.  1.
    9900012    2    1    2    0    0  0.13003811256E+02 -0.97728815371E+01 -0.37263358476E+02  0.50528853358E+02  0.29999980266E+02 0.  0.
         12    1    1    2    0    0 -0.13003811256E+02  0.97728815371E+01  0.37263358476E+02  0.40659146642E+02  0.00000000000E+00 0. -1.
         11    1    3    3    0    0  0.50582315576E+01 -0.35440158689E+01 -0.35324336841E+02  0.35860208149E+02  0.51100000000E-03 0.  1.
        -11    1    3    3    0    0  0.25864965464E+01 -0.79028815337E+01 -0.32077225820E+01  0.89126306635E+01  0.51100000000E-03 0. -1.
        -12    1    3    3    0    0  0.53590831524E+01  0.16740158654E+01  0.12687009466E+01  0.57560145452E+01  0.00000000000E+00 0.  1.
</event>
<event>
 7    1  0.8986500E-014  0.5052885E+02  0.7816164E-02  0.1300439E+00
        -11   -1    0    0    0    0  0.00000000000E+00  0.00000000000E+00  0.45593999997E+02  0.45594000000E+02  0.51100000000E-03 0. -1.
         11   -1    0    0    0    0 -0.00000000000E+00 -0.00000000000E+00 -0.45593999997E+02  0.45594000000E+02  0.51100000000E-03 0.  1.
    9900012    2    1    2    0    0  0.89850182697E+01  0.20113763073E+02 -0.34174147126E+02  0.50528851583E+02  0.29999974870E+02 0.  0.
         12    1    1    2    0    0 -0.89850182697E+01 -0.20113763073E+02  0.34174147126E+02  0.40659148417E+02  0.00000000000E+00 0. -1.
         11    1    3    3    0    0 -0.65196220919E+01  0.12598065960E+02 -0.93738127005E+01  0.17002502844E+02  0.51100000000E-03 0. -1.
        -11    1    3    3    0    0 -0.23746389900E+01  0.32310759996E+01 -0.61149894107E+01  0.73124454324E+01  0.51100000000E-03 0.  1.
         12    1    3    3    0    0  0.17879279352E+02  0.42846211129E+01 -0.18685345015E+02  0.26213903306E+02  0.00000000000E+00 0. -1.
</event>
<event>
 7    1  0.8986500E-014  0.5052885E+02  0.7816164E-02  0.1300439E+00
        -11   -1    0    0    0    0  0.00000000000E+00  0.00000000000E+00  0.45593999997E+02  0.45594000000E+02  0.51100000000E-03 0. -1.
         11   -1    0    0    0    0 -0.00000000000E+00 -0.00000000000E+00 -0.45593999997E+02  0.45594000000E+02  0.51100000000E-03 0.  1.
    9900012    2    1    2    0    0  0.38193869710E+01 -0.16988335135E+02 -0.36742009092E+02  0.50528849989E+02  0.29999970026E+02 0.  0.
         12    1    1    2    0    0 -0.38193869710E+01  0.16988335135E+02  0.36742009092E+02  0.40659150011E+02  0.00000000000E+00 0. -1.
         11    1    3    3    0    0 -0.31647668477E+01  0.56431323187E+01 -0.12173265336E+02  0.13785828984E+02  0.51100000000E-03 0. -1.
        -11    1    3    3    0    0 -0.34908502821E+01 -0.16811302751E+01 -0.40300848131E+01  0.55905114754E+01  0.51100000000E-03 0.  1.
        -12    1    3    3    0    0  0.10475004101E+02 -0.20950337179E+02 -0.20538658943E+02  0.31152509530E+02  0.00000000000E+00 0.  1.
</event>
<event>
 7    1  0.8986500E-014  0.5052886E+02  0.7816164E-02  0.1300439E+00
        -11   -1    0    0    0    0  0.00000000000E+00  0.00000000000E+00  0.45593999997E+02  0.45594000000E+02  0.51100000000E-03 0. -1.
         11   -1    0    0    0    0 -0.00000000000E+00 -0.00000000000E+00 -0.45593999997E+02  0.45594000000E+02  0.51100000000E-03 0.  1.
    9900012    2    1    2    0    0 -0.25463872190E+02 -0.27488852135E+02  0.15783540396E+02  0.50528856796E+02  0.29999990718E+02 0.  0.
        -12    1    1    2    0    0  0.25463872190E+02  0.27488852135E+02 -0.15783540396E+02  0.40659143204E+02  0.00000000000E+00 0.  1.
         11    1    3    3    0    0 -0.17903275784E+01  0.30029626439E+01  0.60995524248E+01  0.70304763369E+01  0.51100000000E-03 0. -1.
        -11    1    3    3    0    0 -0.72748539397E+01 -0.15013966686E+01  0.67932765897E+01  0.10066096507E+02  0.51100000000E-03 0.  1.
        -12    1    3    3    0    0 -0.16398690672E+02 -0.28990418111E+02  0.28907113817E+01  0.33432283952E+02  0.00000000000E+00 0.  1.
</event>
<event>
 7    1  0.8986500E-014  0.5052886E+02  0.7816164E-02  0.1300439E+00
        -11   -1    0    0    0    0  0.00000000000E+00  0.00000000000E+00  0.45593999997E+02  0.45594000000E+02  0.51100000000E-03 0.  1.
         11   -1    0    0    0    0 -0.00000000000E+00 -0.00000000000E+00 -0.45593999997E+02  0.45594000000E+02  0.51100000000E-03 0. -1.
    9900012    2    1    2    0    0  0.33666100116E+02  0.22491072521E+02  0.37297132884E+01  0.50528863249E+02  0.30000010332E+02 0.  0.
        -12    1    1    2    0    0 -0.33666100116E+02 -0.22491072521E+02 -0.37297132884E+01  0.40659136751E+02  0.00000000000E+00 0.  1.
         11    1    3    3    0    0  0.13058907899E+02  0.46453928266E+01  0.29118212447E+01  0.14163101823E+02  0.51100000000E-03 0. -1.
        -11    1    3    3    0    0  0.25069558574E+02  0.12038564144E+02  0.44944885205E+01  0.28171088390E+02  0.51100000000E-03 0.  1.
         12    1    3    3    0    0 -0.44623663573E+01  0.58071155498E+01 -0.36765964767E+01  0.81946730361E+01  0.00000000000E+00 0. -1.
</event>
<event>
 7    1  0.8986500E-014  0.5052886E+02  0.7816164E-02  0.1300439E+00
        -11   -1    0    0    0    0  0.00000000000E+00  0.00000000000E+00  0.45593999997E+02  0.45594000000E+02  0.51100000000E-03 0.  1.
         11   -1    0    0    0    0 -0.00000000000E+00 -0.00000000000E+00 -0.45593999997E+02  0.45594000000E+02  0.51100000000E-03 0. -1.
    9900012    2    1    2    0    0  0.31161245034E+02 -0.13483634227E+02 -0.22368147142E+02  0.50528860922E+02  0.30000003259E+02 0.  0.
         12    1    1    2    0    0 -0.31161245034E+02  0.13483634227E+02  0.22368147142E+02  0.40659139078E+02  0.00000000000E+00 0. -1.
         11    1    3    3    0    0  0.13405327411E+02  0.42898203084E+01  0.14689156567E+01  0.14151433664E+02  0.51100000000E-03 0. -1.
        -11    1    3    3    0    0  0.40446102106E+01 -0.74345170335E+00 -0.91697331262E+01  0.10049656614E+02  0.51100000000E-03 0.  1.
        -12    1    3    3    0    0  0.13711307412E+02 -0.17030002832E+02 -0.14667329672E+02  0.26327770645E+02  0.00000000000E+00 0.  1.
</event>
<event>
 7    1  0.8986500E-014  0.5052886E+02  0.7816164E-02  0.1300439E+00
        -11   -1    0    0    0    0  0.00000000000E+00  0.00000000000E+00  0.45593999997E+02  0.45594000000E+02  0.51100000000E-03 0. -1.
         11   -1    0    0    0    0 -0.00000000000E+00 -0.00000000000E+00 -0.45593999997E+02  0.45594000000E+02  0.51100000000E-03 0.  1.
    9900012    2    1    2    0    0 -0.10737231104E+02  0.27863832692E+02 -0.27595005389E+02  0.50528860480E+02  0.30000001915E+02 0.  0.
         12    1    1    2    0    0  0.10737231104E+02 -0.27863832692E+02  0.27595005389E+02  0.40659139520E+02  0.00000000000E+00 0. -1.
         11    1    3    3    0    0  0.43786758345E+01  0.12681104864E+02 -0.16480293362E+02  0.21250489222E+02  0.51100000000E-03 0. -1.
        -11    1    3    3    0    0 -0.40108989123E+01  0.48053799342E+01 -0.12537255471E+02  0.14012914094E+02  0.51100000000E-03 0.  1.
         12    1    3    3    0    0 -0.11105008026E+02  0.10377347894E+02  0.14225434437E+01  0.15265457164E+02  0.00000000000E+00 0. -1.
</event>
<event>
 7    1  0.1120110E-013  0.5052886E+02  0.7816164E-02  0.1300439E+00
        -11   -1    0    0    0    0  0.00000000000E+00  0.00000000000E+00  0.45593999997E+02  0.45594000000E+02  0.51100000000E-03 0.  1.
         11   -1    0    0    0    0 -0.00000000000E+00 -0.00000000000E+00 -0.45593999997E+02  0.45594000000E+02  0.51100000000E-03 0. -1.
    9900012    2    1    2    0    0 -0.30647661977E+02  0.26525347494E+02  0.32082106532E+01  0.50528857609E+02  0.29999993188E+02 0.  0.
         12    1    1    2    0    0  0.30647661977E+02 -0.26525347494E+02 -0.32082106532E+01  0.40659142391E+02  0.00000000000E+00 0. -1.
         11    1    3    3    0    0 -0.29503937050E+02  0.27740486443E+02  0.32581415464E+01  0.40627975290E+02  0.51100000000E-03 0. -1.
        -11    1    3    3    0    0 -0.45019858912E+01  0.88516985992E+00  0.24655406646E+01  0.52086748483E+01  0.51100000000E-03 0.  1.
         12    1    3    3    0    0  0.33582609636E+01 -0.21003088089E+01 -0.25154715578E+01  0.46922074710E+01  0.00000000000E+00 0. -1.
</event>
<event>
 7    1  0.9228206E-014  0.5052886E+02  0.7816164E-02  0.1300439E+00
        -11   -1    0    0    0    0  0.00000000000E+00  0.00000000000E+00  0.45593999997E+02  0.45594000000E+02  0.51100000000E-03 0. -1.
         11   -1    0    0    0    0 -0.00000000000E+00 -0.00000000000E+00 -0.45593999997E+02  0.45594000000E+02  0.51100000000E-03 0.  1.
    9900012    2    1    2    0    0 -0.12576975041E+02  0.22269079099E+02  0.31608126636E+02  0.50528857676E+02  0.29999993391E+02 0.  0.
        -12    1    1    2    0    0  0.12576975041E+02 -0.22269079099E+02 -0.31608126636E+02  0.40659142324E+02  0.00000000000E+00 0.  1.
         11    1    3    3    0    0 -0.74873091399E+01 -0.10579302802E+01  0.21203845486E+01  0.78533461358E+01  0.51100000000E-03 0. -1.
        -11    1    3    3    0    0 -0.50541214199E+01  0.17954847438E+02  0.76057441985E+01  0.20143684740E+02  0.51100000000E-03 0.  1.
         12    1    3    3    0    0 -0.35544481570E-01  0.53721619417E+01  0.21881997889E+02  0.22531826800E+02  0.00000000000E+00 0. -1.
</event>
<event>
 7    1  0.8986500E-014  0.5052886E+02  0.7816164E-02  0.1300439E+00
        -11   -1    0    0    0    0  0.00000000000E+00  0.00000000000E+00  0.45593999997E+02  0.45594000000E+02  0.51100000000E-03 0. -1.
         11   -1    0    0    0    0 -0.00000000000E+00 -0.00000000000E+00 -0.45593999997E+02  0.45594000000E+02  0.51100000000E-03 0.  1.
    9900012    2    1    2    0    0  0.45648538686E+01  0.25693191650E+01 -0.40320295624E+02  0.50528861654E+02  0.30000005484E+02 0.  0.
         12    1    1    2    0    0 -0.45648538686E+01 -0.25693191650E+01  0.40320295624E+02  0.40659138346E+02  0.00000000000E+00 0. -1.
         11    1    3    3    0    0 -0.29012476396E+01 -0.49674885984E+01 -0.25204480490E+02  0.25852640443E+02  0.51100000000E-03 0. -1.
        -11    1    3    3    0    0  0.49961051731E+01  0.10065985046E+01 -0.16747972091E+02  0.17506252508E+02  0.51100000000E-03 0.  1.
         12    1    3    3    0    0  0.24699963352E+01  0.65302092588E+01  0.16321569577E+01  0.71699687024E+01  0.00000000000E+00 0. -1.
</event>
<event>
 7    1  0.8986500E-014  0.5052886E+02  0.7816164E-02  0.1300439E+00
        -11   -1    0    0    0    0  0.00000000000E+00  0.00000000000E+00  0.45593999997E+02  0.45594000000E+02  0.51100000000E-03 0.  1.
         11   -1    0    0    0    0 -0.00000000000E+00 -0.00000000000E+00 -0.45593999997E+02  0.45594000000E+02  0.51100000000E-03 0. -1.
    9900012    2    1    2    0    0 -0.39676918056E+02 -0.80804561044E+01 -0.36896856763E+01  0.50528863540E+02  0.30000011215E+02 0.  0.
         12    1    1    2    0    0  0.39676918056E+02  0.80804561044E+01  0.36896856763E+01  0.40659136460E+02  0.00000000000E+00 0. -1.
         11    1    3    3    0    0  0.28962140424E-01 -0.42908094094E+01 -0.43162596053E+01  0.60862124047E+01  0.51100000000E-03 0. -1.
        -11    1    3    3    0    0 -0.28380551347E+02 -0.11241287736E+02 -0.21608157367E+01  0.30602146487E+02  0.51100000000E-03 0.  1.
         12    1    3    3    0    0 -0.11325328850E+02  0.74516410409E+01  0.27873896657E+01  0.13840504648E+02  0.00000000000E+00 0. -1.
</event>
<event>
 7    1  0.8986500E-014  0.5052887E+02  0.7816164E-02  0.1300439E+00
        -11   -1    0    0    0    0  0.00000000000E+00  0.00000000000E+00  0.45593999997E+02  0.45594000000E+02  0.51100000000E-03 0.  1.
         11   -1    0    0    0    0 -0.00000000000E+00 -0.00000000000E+00 -0.45593999997E+02  0.45594000000E+02  0.51100000000E-03 0. -1.
    9900012    2    1    2    0    0  0.15532433756E+02  0.36085510805E+02  0.10475890504E+02  0.50528869779E+02  0.30000030182E+02 0.  0.
        -12    1    1    2    0    0 -0.15532433756E+02 -0.36085510805E+02 -0.10475890504E+02  0.40659130221E+02  0.00000000000E+00 0.  1.
         11    1    3    3    0    0 -0.52533627457E+00  0.61597207084E+01 -0.13868765684E+01  0.63357370750E+01  0.51100000000E-03 0. -1.
        -11    1    3    3    0    0  0.19809540726E+01  0.25095575733E+02  0.14541135596E+02  0.29071579336E+02  0.51100000000E-03 0.  1.
         12    1    3    3    0    0  0.14076815958E+02  0.48302143631E+01 -0.26783685234E+01  0.15121553368E+02  0.00000000000E+00 0. -1.
</event>
<event>
 7    1  0.8986500E-014  0.5052887E+02  0.7816164E-02  0.1300439E+00
        -11   -1    0    0    0    0  0.00000000000E+00  0.00000000000E+00  0.45593999997E+02  0.45594000000E+02  0.51100000000E-03 0.  1.
         11   -1    0    0    0    0 -0.00000000000E+00 -0.00000000000E+00 -0.45593999997E+02  0.45594000000E+02  0.51100000000E-03 0. -1.
    9900012    2    1    2    0    0 -0.29537548510E+02 -0.75306348498E+01 -0.26907015589E+02  0.50528871614E+02  0.30000035758E+02 0.  0.
         12    1    1    2    0    0  0.29537548510E+02  0.75306348498E+01  0.26907015589E+02  0.40659128386E+02  0.00000000000E+00 0. -1.
         11    1    3    3    0    0 -0.13937217078E+02 -0.32892185743E+00 -0.11303257902E+02  0.17947641877E+02  0.51100000000E-03 0. -1.
        -11    1    3    3    0    0 -0.14350449808E+02  0.53748710988E+01 -0.11927719863E+02  0.19418937932E+02  0.51100000000E-03 0.  1.
        -12    1    3    3    0    0 -0.12498816230E+01 -0.12576584091E+02 -0.36760378233E+01  0.13162291805E+02  0.00000000000E+00 0.  1.
</event>
<event>
 7    1  0.8986500E-014  0.5052885E+02  0.7816164E-02  0.1300439E+00
        -11   -1    0    0    0    0  0.00000000000E+00  0.00000000000E+00  0.45593999997E+02  0.45594000000E+02  0.51100000000E-03 0. -1.
         11   -1    0    0    0    0 -0.00000000000E+00 -0.00000000000E+00 -0.45593999997E+02  0.45594000000E+02  0.51100000000E-03 0.  1.
    9900012    2    1    2    0    0 -0.40225382200E+02 -0.49755912499E+01  0.32137816898E+01  0.50528852515E+02  0.29999977704E+02 0.  0.
         12    1    1    2    0    0  0.40225382200E+02  0.49755912499E+01 -0.32137816898E+01  0.40659147485E+02  0.00000000000E+00 0. -1.
         11    1    3    3    0    0 -0.86948211320E+01  0.11276864819E+01 -0.84710661929E+01  0.12191413127E+02  0.51100000000E-03 0. -1.
        -11    1    3    3    0    0 -0.23068077641E+01  0.40252580490E+01 -0.12617361545E+01  0.48079146005E+01  0.51100000000E-03 0.  1.
        -12    1    3    3    0    0 -0.29223753304E+02 -0.10128535781E+02  0.12946584037E+02  0.33529524788E+02  0.00000000000E+00 0.  1.
</event>
<event>
 7    1  0.8986500E-014  0.5052886E+02  0.7816164E-02  0.1300439E+00
        -11   -1    0    0    0    0  0.00000000000E+00  0.00000000000E+00  0.45593999997E+02  0.45594000000E+02  0.51100000000E-03 0. -1.
         11   -1    0    0    0    0 -0.00000000000E+00 -0.00000000000E+00 -0.45593999997E+02  0.45594000000E+02  0.51100000000E-03 0.  1.
    9900012    2    1    2    0    0  0.30994900468E+02  0.12412204293E+01 -0.26285762862E+02  0.50528858194E+02  0.29999994966E+02 0.  0.
         12    1    1    2    0    0 -0.30994900468E+02 -0.12412204293E+01  0.26285762862E+02  0.40659141806E+02  0.00000000000E+00 0. -1.
         11    1    3    3    0    0  0.26334702948E+02 -0.45171138405E+01 -0.16977997675E+02  0.31657120875E+02  0.51100000000E-03 0. -1.
        -11    1    3    3    0    0  0.56903749205E+01 -0.23747999082E+01 -0.86833000896E+01  0.10649870518E+02  0.51100000000E-03 0.  1.
        -12    1    3    3    0    0 -0.10301774000E+01  0.81331341780E+01 -0.62446509712E+00  0.82218668008E+01  0.00000000000E+00 0.  1.
</event>
<event>
 7    1  0.8986500E-014  0.5052886E+02  0.7816164E-02  0.1300439E+00
        -11   -1    0    0    0    0  0.00000000000E+00  0.00000000000E+00  0.45593999997E+02  0.45594000000E+02  0.51100000000E-03 0. -1.
         11   -1    0    0    0    0 -0.00000000000E+00 -0.00000000000E+00 -0.45593999997E+02  0.45594000000E+02  0.51100000000E-03 0.  1.
    9900012    2    1    2    0    0 -0.10540271386E+02  0.15090907143E+02  0.36253730232E+02  0.50528858900E+02  0.29999997111E+02 0.  0.
        -12    1    1    2    0    0  0.10540271386E+02 -0.15090907143E+02 -0.36253730232E+02  0.40659141100E+02  0.00000000000E+00 0.  1.
         11    1    3    3    0    0 -0.50152916386E+01  0.10964744589E+02  0.23445304476E+02  0.26364011006E+02  0.51100000000E-03 0. -1.
        -11    1    3    3    0    0 -0.12191054268E+02  0.43197144931E+00  0.10777365141E+02  0.16277592056E+02  0.51100000000E-03 0.  1.
         12    1    3    3    0    0  0.66660745201E+01  0.36941911044E+01  0.20310606155E+01  0.78872558375E+01  0.00000000000E+00 0. -1.
</event>
<event>
 7    1  0.8986500E-014  0.5052886E+02  0.7816164E-02  0.1300439E+00
        -11   -1    0    0    0    0  0.00000000000E+00  0.00000000000E+00  0.45593999997E+02  0.45594000000E+02  0.51100000000E-03 0.  1.
         11   -1    0    0    0    0 -0.00000000000E+00 -0.00000000000E+00 -0.45593999997E+02  0.45594000000E+02  0.51100000000E-03 0. -1.
    9900012    2    1    2    0    0 -0.37368976339E+02 -0.15845794544E+02 -0.23739869500E+01  0.50528863126E+02  0.30000009957E+02 0.  0.
         12    1    1    2    0    0  0.37368976339E+02  0.15845794544E+02  0.23739869500E+01  0.40659136874E+02  0.00000000000E+00 0. -1.
         11    1    3    3    0    0 -0.10786284524E+02  0.28218830266E+01  0.33996900623E+00  0.11154485055E+02  0.51100000000E-03 0. -1.
        -11    1    3    3    0    0 -0.23816373309E+02 -0.38584642489E+01 -0.38439481002E+00  0.24129963605E+02  0.51100000000E-03 0.  1.
         12    1    3    3    0    0 -0.27663185056E+01 -0.14809213321E+02 -0.23295611462E+01  0.15244414466E+02  0.00000000000E+00 0. -1.
</event>
<event>
 7    1  0.8986500E-014  0.5052886E+02  0.7816164E-02  0.1300439E+00
        -11   -1    0    0    0    0  0.00000000000E+00  0.00000000000E+00  0.45593999997E+02  0.45594000000E+02  0.51100000000E-03 0. -1.
         11   -1    0    0    0    0 -0.00000000000E+00 -0.00000000000E+00 -0.45593999997E+02  0.45594000000E+02  0.51100000000E-03 0.  1.
    9900012    2    1    2    0    0  0.33516007134E+02 -0.83300951676E+01  0.21458147312E+02  0.50528864424E+02  0.30000013904E+02 0.  0.
        -12    1    1    2    0    0 -0.33516007134E+02  0.83300951676E+01 -0.21458147312E+02  0.40659135576E+02  0.00000000000E+00 0.  1.
         11    1    3    3    0    0  0.15468515101E+02 -0.90956139533E+01  0.40295324315E+01  0.18391364400E+02  0.51100000000E-03 0. -1.
        -11    1    3    3    0    0 -0.37617527441E+01 -0.30507761431E+01  0.26952731497E+01  0.55427895861E+01  0.51100000000E-03 0.  1.
         12    1    3    3    0    0  0.21809244777E+02  0.38162949287E+01  0.14733341731E+02  0.26594710438E+02  0.00000000000E+00 0. -1.
</event>
<event>
 7    1  0.8986500E-014  0.5052885E+02  0.7816164E-02  0.1300439E+00
        -11   -1    0    0    0    0  0.00000000000E+00  0.00000000000E+00  0.45593999997E+02  0.45594000000E+02  0.51100000000E-03 0. -1.
         11   -1    0    0    0    0 -0.00000000000E+00 -0.00000000000E+00 -0.45593999997E+02  0.45594000000E+02  0.51100000000E-03 0.  1.
    9900012    2    1    2    0    0  0.39646513135E+02 -0.44206361770E+01 -0.78599270370E+01  0.50528849972E+02  0.29999969976E+02 0.  0.
         12    1    1    2    0    0 -0.39646513135E+02  0.44206361770E+01  0.78599270370E+01  0.40659150028E+02  0.00000000000E+00 0. -1.
         11    1    3    3    0    0  0.26263106491E+02 -0.32725975570E+01 -0.92809592507E+01  0.28046334203E+02  0.51100000000E-03 0.  1.
        -11    1    3    3    0    0  0.14706220679E+02 -0.24121424496E+01 -0.50676551441E+01  0.15740790538E+02  0.51100000000E-03 0. -1.
         12    1    3    3    0    0 -0.13228140353E+01  0.12641038295E+01  0.64886873578E+01  0.67417252310E+01  0.00000000000E+00 0. -1.
</event>
<event>
 7    1  0.8986500E-014  0.5052887E+02  0.7816164E-02  0.1300439E+00
        -11   -1    0    0    0    0  0.00000000000E+00  0.00000000000E+00  0.45593999997E+02  0.45594000000E+02  0.51100000000E-03 0. -1.
         11   -1    0    0    0    0 -0.00000000000E+00 -0.00000000000E+00 -0.45593999997E+02  0.45594000000E+02  0.51100000000E-03 0.  1.
    9900012    2    1    2    0    0  0.15473442613E+02 -0.28385720527E+02 -0.24657420862E+02  0.50528868680E+02  0.30000026840E+02 0.  0.
         12    1    1    2    0    0 -0.15473442613E+02  0.28385720527E+02  0.24657420862E+02  0.40659131320E+02  0.00000000000E+00 0. -1.
         11    1    3    3    0    0  0.14918062639E+02 -0.10797147108E+02 -0.42430362519E+01  0.18897892356E+02  0.51100000000E-03 0. -1.
        -11    1    3    3    0    0  0.65039752708E+01 -0.15909913898E+02 -0.18280936543E+02  0.25092223809E+02  0.51100000000E-03 0.  1.
         12    1    3    3    0    0 -0.59485952970E+01 -0.16786595203E+01 -0.21334480677E+01  0.65387525148E+01  0.00000000000E+00 0. -1.
</event>
<event>
 7    1  0.8986500E-014  0.5052886E+02  0.7816164E-02  0.1300439E+00
        -11   -1    0    0    0    0  0.00000000000E+00  0.00000000000E+00  0.45593999997E+02  0.45594000000E+02  0.51100000000E-03 0. -1.
         11   -1    0    0    0    0 -0.00000000000E+00 -0.00000000000E+00 -0.45593999997E+02  0.45594000000E+02  0.51100000000E-03 0.  1.
    9900012    2    1    2    0    0  0.49769999596E+01 -0.61216404189E+00  0.40348732343E+02  0.50528862342E+02  0.30000007574E+02 0.  0.
        -12    1    1    2    0    0 -0.49769999596E+01  0.61216404189E+00 -0.40348732343E+02  0.40659137658E+02  0.00000000000E+00 0.  1.
         11    1    3    3    0    0 -0.68848546689E+01  0.48319939372E+01  0.49350694466E+01  0.97521433503E+01  0.51100000000E-03 0. -1.
        -11    1    3    3    0    0  0.78884494003E+01  0.62479025583E+00  0.46690364392E+01  0.91879213284E+01  0.51100000000E-03 0.  1.
         12    1    3    3    0    0  0.39734052282E+01 -0.60689482349E+01  0.30744626457E+02  0.31588797663E+02  0.00000000000E+00 0. -1.
</event>
<event>
 7    1  0.8986500E-014  0.5052886E+02  0.7816164E-02  0.1300439E+00
        -11   -1    0    0    0    0  0.00000000000E+00  0.00000000000E+00  0.45593999997E+02  0.45594000000E+02  0.51100000000E-03 0. -1.
         11   -1    0    0    0    0 -0.00000000000E+00 -0.00000000000E+00 -0.45593999997E+02  0.45594000000E+02  0.51100000000E-03 0.  1.
    9900012    2    1    2    0    0  0.14084588687E+02 -0.35165604409E+02  0.14770583925E+02  0.50528861772E+02  0.30000005842E+02 0.  0.
        -12    1    1    2    0    0 -0.14084588687E+02  0.35165604409E+02 -0.14770583925E+02  0.40659138228E+02  0.00000000000E+00 0.  1.
         11    1    3    3    0    0  0.95663074470E+01 -0.15999448914E+02  0.44466380304E+01  0.19164268673E+02  0.51100000000E-03 0. -1.
        -11    1    3    3    0    0  0.10538758867E+02 -0.15813160730E+02  0.13953610291E+02  0.23575935424E+02  0.51100000000E-03 0.  1.
        -12    1    3    3    0    0 -0.60204776262E+01 -0.33529947656E+01 -0.36296643970E+01  0.77886576751E+01  0.00000000000E+00 0.  1.
</event>
<event>
 7    1  0.8986500E-014  0.5052887E+02  0.7816164E-02  0.1300439E+00
        -11   -1    0    0    0    0  0.00000000000E+00  0.00000000000E+00  0.45593999997E+02  0.45594000000E+02  0.51100000000E-03 0. -1.
         11   -1    0    0    0    0 -0.00000000000E+00 -0.00000000000E+00 -0.45593999997E+02  0.45594000000E+02  0.51100000000E-03 0.  1.
    9900012    2    1    2    0    0  0.11497179581E+02  0.17346737531E+02 -0.34929508483E+02  0.50528868133E+02  0.30000025179E+02 0.  0.
         12    1    1    2    0    0 -0.11497179581E+02 -0.17346737531E+02  0.34929508483E+02  0.40659131867E+02  0.00000000000E+00 0. -1.
         11    1    3    3    0    0  0.10933189455E+02  0.16198438953E+02 -0.17949219845E+02  0.26534855370E+02  0.51100000000E-03 0. -1.
        -11    1    3    3    0    0  0.35549379137E+01  0.45674528116E+01  0.61624127178E+00  0.58205637461E+01  0.51100000000E-03 0.  1.
        -12    1    3    3    0    0 -0.29909477877E+01 -0.34191542337E+01 -0.17596529909E+02  0.18173449018E+02  0.00000000000E+00 0.  1.
</event>
<event>
 7    1  0.8986500E-014  0.5052885E+02  0.7816164E-02  0.1300439E+00
        -11   -1    0    0    0    0  0.00000000000E+00  0.00000000000E+00  0.45593999997E+02  0.45594000000E+02  0.51100000000E-03 0. -1.
         11   -1    0    0    0    0 -0.00000000000E+00 -0.00000000000E+00 -0.45593999997E+02  0.45594000000E+02  0.51100000000E-03 0.  1.
    9900012    2    1    2    0    0 -0.32627407795E+02  0.59234543662E+01  0.23527246662E+02  0.50528851134E+02  0.29999973506E+02 0.  0.
        -12    1    1    2    0    0  0.32627407795E+02 -0.59234543662E+01 -0.23527246662E+02  0.40659148866E+02  0.00000000000E+00 0.  1.
         11    1    3    3    0    0 -0.88213698799E+01 -0.20806873334E+01  0.45357208016E+01  0.10135017996E+02  0.51100000000E-03 0. -1.
        -11    1    3    3    0    0 -0.15784610703E+02 -0.75090046248E+01  0.54977407532E+01  0.18323870747E+02  0.51100000000E-03 0.  1.
         12    1    3    3    0    0 -0.80214272121E+01  0.15513146324E+02  0.13493785107E+02  0.22069962390E+02  0.00000000000E+00 0. -1.
</event>
<event>
 7    1  0.8986500E-014  0.5052886E+02  0.7816164E-02  0.1300439E+00
        -11   -1    0    0    0    0  0.00000000000E+00  0.00000000000E+00  0.45593999997E+02  0.45594000000E+02  0.51100000000E-03 0. -1.
         11   -1    0    0    0    0 -0.00000000000E+00 -0.00000000000E+00 -0.45593999997E+02  0.45594000000E+02  0.51100000000E-03 0.  1.
    9900012    2    1    2    0    0 -0.16636321051E+02 -0.37098964200E+02  0.25486632543E+00  0.50528864745E+02  0.30000014879E+02 0.  0.
         12    1    1    2    0    0  0.16636321051E+02  0.37098964200E+02 -0.25486632543E+00  0.40659135255E+02  0.00000000000E+00 0. -1.
         11    1    3    3    0    0 -0.19507767466E+01 -0.14368654233E+01  0.44471248834E+01  0.50642898959E+01  0.51100000000E-03 0. -1.
        -11    1    3    3    0    0  0.61395206215E+00  0.24243884996E+01 -0.36399430584E+01  0.44163086918E+01  0.51100000000E-03 0.  1.
        -12    1    3    3    0    0 -0.15299496366E+02 -0.38086487277E+02 -0.55231549962E+00  0.41048266157E+02  0.00000000000E+00 0.  1.
</event>
<event>
 7    1  0.8986500E-014  0.5052888E+02  0.7816164E-02  0.1300439E+00
        -11   -1    0    0    0    0  0.00000000000E+00  0.00000000000E+00  0.45593999997E+02  0.45594000000E+02  0.51100000000E-03 0. -1.
         11   -1    0    0    0    0 -0.00000000000E+00 -0.00000000000E+00 -0.45593999997E+02  0.45594000000E+02  0.51100000000E-03 0.  1.
    9900012    2    1    2    0    0  0.89736217072E+01 -0.36866797598E+02  0.14610871848E+02  0.50528877680E+02  0.30000054195E+02 0.  0.
        -12    1    1    2    0    0 -0.89736217072E+01  0.36866797598E+02 -0.14610871848E+02  0.40659122320E+02  0.00000000000E+00 0.  1.
         11    1    3    3    0    0  0.84628818680E+01 -0.26204545827E+01  0.35269904496E+01  0.95355552342E+01  0.51100000000E-03 0. -1.
        -11    1    3    3    0    0  0.56678337760E+01 -0.73768939587E+01  0.99332288572E+01  0.13609259347E+02  0.51100000000E-03 0.  1.
         12    1    3    3    0    0 -0.51570939369E+01 -0.26869449057E+02  0.11506525414E+01  0.27384063098E+02  0.00000000000E+00 0. -1.
</event>
<event>
 7    1  0.8986500E-014  0.5052886E+02  0.7816164E-02  0.1300439E+00
        -11   -1    0    0    0    0  0.00000000000E+00  0.00000000000E+00  0.45593999997E+02  0.45594000000E+02  0.51100000000E-03 0. -1.
         11   -1    0    0    0    0 -0.00000000000E+00 -0.00000000000E+00 -0.45593999997E+02  0.45594000000E+02  0.51100000000E-03 0.  1.
    9900012    2    1    2    0    0 -0.32052851087E+02  0.16845202694E+02 -0.18493767434E+02  0.50528861414E+02  0.30000004755E+02 0.  0.
         12    1    1    2    0    0  0.32052851087E+02 -0.16845202694E+02  0.18493767434E+02  0.40659138586E+02  0.00000000000E+00 0. -1.
         11    1    3    3    0    0  0.81276315840E-01  0.76112128382E+01  0.91168541999E+00  0.76660509569E+01  0.51100000000E-03 0. -1.
        -11    1    3    3    0    0 -0.76987645340E+01  0.79635553083E+01  0.83488215772E+00  0.11107934866E+02  0.51100000000E-03 0.  1.
        -12    1    3    3    0    0 -0.24435362869E+02  0.12704345479E+01 -0.20240335012E+02  0.31754875592E+02  0.00000000000E+00 0.  1.
</event>
<event>
 7    1  0.8986500E-014  0.5052886E+02  0.7816164E-02  0.1300439E+00
        -11   -1    0    0    0    0  0.00000000000E+00  0.00000000000E+00  0.45593999997E+02  0.45594000000E+02  0.51100000000E-03 0. -1.
         11   -1    0    0    0    0 -0.00000000000E+00 -0.00000000000E+00 -0.45593999997E+02  0.45594000000E+02  0.51100000000E-03 0.  1.
    9900012    2    1    2    0    0  0.23470249328E+02  0.30432296277E+02 -0.13273600507E+02  0.50528859200E+02  0.29999998023E+02 0.  0.
         12    1    1    2    0    0 -0.23470249328E+02 -0.30432296277E+02  0.13273600507E+02  0.40659140800E+02  0.00000000000E+00 0. -1.
         11    1    3    3    0    0 -0.45822178541E+01  0.25343109202E+01 -0.62551911690E-01  0.52367323118E+01  0.51100000000E-03 0. -1.
        -11    1    3    3    0    0  0.29381451425E+00  0.45978396863E+00  0.29850055681E+01  0.30344664719E+01  0.51100000000E-03 0.  1.
        -12    1    3    3    0    0  0.27758652668E+02  0.27438201388E+02 -0.16196054163E+02  0.42257660416E+02  0.00000000000E+00 0.  1.
</event>
<event>
 7    1  0.8986500E-014  0.5052885E+02  0.7816164E-02  0.1300439E+00
        -11   -1    0    0    0    0  0.00000000000E+00  0.00000000000E+00  0.45593999997E+02  0.45594000000E+02  0.51100000000E-03 0.  1.
         11   -1    0    0    0    0 -0.00000000000E+00 -0.00000000000E+00 -0.45593999997E+02  0.45594000000E+02  0.51100000000E-03 0. -1.
    9900012    2    1    2    0    0 -0.11152691250E+02  0.35539372278E+02  0.16301431440E+02  0.50528853784E+02  0.29999981562E+02 0.  0.
        -12    1    1    2    0    0  0.11152691250E+02 -0.35539372278E+02 -0.16301431440E+02  0.40659146216E+02  0.00000000000E+00 0.  1.
         11    1    3    3    0    0  0.16832765681E+01 -0.13383863781E+01  0.45585830989E+01  0.50403748107E+01  0.51100000000E-03 0. -1.
        -11    1    3    3    0    0  0.24180523906E+01  0.10920607236E+02  0.10521811275E+02  0.15356274045E+02  0.51100000000E-03 0.  1.
         12    1    3    3    0    0 -0.15254020209E+02  0.25957151420E+02  0.12210370660E+01  0.30132204929E+02  0.00000000000E+00 0. -1.
</event>
<event>
 7    1  0.8986500E-014  0.5052886E+02  0.7816164E-02  0.1300439E+00
        -11   -1    0    0    0    0  0.00000000000E+00  0.00000000000E+00  0.45593999997E+02  0.45594000000E+02  0.51100000000E-03 0. -1.
         11   -1    0    0    0    0 -0.00000000000E+00 -0.00000000000E+00 -0.45593999997E+02  0.45594000000E+02  0.51100000000E-03 0.  1.
    9900012    2    1    2    0    0  0.11138789245E+02 -0.78016649917E+01  0.38317450784E+02  0.50528860350E+02  0.30000001520E+02 0.  0.
        -12    1    1    2    0    0 -0.11138789245E+02  0.78016649917E+01 -0.38317450784E+02  0.40659139650E+02  0.00000000000E+00 0.  1.
         11    1    3    3    0    0  0.59933067688E+01 -0.22123032146E+01  0.52431770187E+01  0.82646788836E+01  0.51100000000E-03 0. -1.
        -11    1    3    3    0    0  0.38731232841E+01 -0.11902449406E+02  0.50294459287E+01  0.13489429656E+02  0.51100000000E-03 0.  1.
         12    1    3    3    0    0  0.12723591917E+01  0.63130876293E+01  0.28044827837E+02  0.28774751810E+02  0.00000000000E+00 0. -1.
</event>
<event>
 7    1  0.8986500E-014  0.5052886E+02  0.7816164E-02  0.1300439E+00
        -11   -1    0    0    0    0  0.00000000000E+00  0.00000000000E+00  0.45593999997E+02  0.45594000000E+02  0.51100000000E-03 0. -1.
         11   -1    0    0    0    0 -0.00000000000E+00 -0.00000000000E+00 -0.45593999997E+02  0.45594000000E+02  0.51100000000E-03 0.  1.
    9900012    2    1    2    0    0  0.10775174518E+02  0.30612779595E+02 -0.24493238222E+02  0.50528863523E+02  0.30000011164E+02 0.  0.
         12    1    1    2    0    0 -0.10775174518E+02 -0.30612779595E+02  0.24493238222E+02  0.40659136477E+02  0.00000000000E+00 0. -1.
         11    1    3    3    0    0  0.96856551345E+00 -0.10416402933E+01 -0.94180211848E+01  0.95248231979E+01  0.51100000000E-03 0. -1.
        -11    1    3    3    0    0  0.15127816822E+02  0.20082698371E+02 -0.12202313376E+02  0.27947487680E+02  0.51100000000E-03 0.  1.
         12    1    3    3    0    0 -0.53212078171E+01  0.11571721518E+02 -0.28729036614E+01  0.13056552645E+02  0.00000000000E+00 0. -1.
</event>
<event>
 7    1  0.8986500E-014  0.5052887E+02  0.7816164E-02  0.1300439E+00
        -11   -1    0    0    0    0  0.00000000000E+00  0.00000000000E+00  0.45593999997E+02  0.45594000000E+02  0.51100000000E-03 0. -1.
         11   -1    0    0    0    0 -0.00000000000E+00 -0.00000000000E+00 -0.45593999997E+02  0.45594000000E+02  0.51100000000E-03 0.  1.
    9900012    2    1    2    0    0  0.69699762544E+00 -0.24929746273E+02 -0.32112097978E+02  0.50528869519E+02  0.30000029391E+02 0.  0.
         12    1    1    2    0    0 -0.69699762544E+00  0.24929746273E+02  0.32112097978E+02  0.40659130481E+02  0.00000000000E+00 0. -1.
         11    1    3    3    0    0  0.10038790117E+01  0.24611125112E+01 -0.20268010626E+01  0.33425694714E+01  0.51100000000E-03 0. -1.
        -11    1    3    3    0    0  0.57896110280E+01 -0.51348158196E+01 -0.21010124590E+02  0.22389981351E+02  0.51100000000E-03 0.  1.
         12    1    3    3    0    0 -0.60964924142E+01 -0.22256042964E+02 -0.90751723257E+01  0.24796318697E+02  0.00000000000E+00 0. -1.
</event>
<event>
 7    1  0.8986500E-014  0.5052886E+02  0.7816164E-02  0.1300439E+00
        -11   -1    0    0    0    0  0.00000000000E+00  0.00000000000E+00  0.45593999997E+02  0.45594000000E+02  0.51100000000E-03 0. -1.
         11   -1    0    0    0    0 -0.00000000000E+00 -0.00000000000E+00 -0.45593999997E+02  0.45594000000E+02  0.51100000000E-03 0.  1.
    9900012    2    1    2    0    0  0.29598112453E+02 -0.16183121129E+02  0.22698548097E+02  0.50528858888E+02  0.29999997075E+02 0.  0.
        -12    1    1    2    0    0 -0.29598112453E+02  0.16183121129E+02 -0.22698548097E+02  0.40659141112E+02  0.00000000000E+00 0.  1.
         11    1    3    3    0    0  0.18961639224E+02  0.19420574718E+01  0.54310190241E+01  0.19819468135E+02  0.51100000000E-03 0.  1.
        -11    1    3    3    0    0  0.38184278313E+01 -0.61787209891E+01  0.15138051035E+02  0.16790401233E+02  0.51100000000E-03 0. -1.
        -12    1    3    3    0    0  0.68180453985E+01 -0.11946457612E+02  0.21294780375E+01  0.13918989519E+02  0.00000000000E+00 0.  1.
</event>
<event>
 7    1  0.8986500E-014  0.5052885E+02  0.7816164E-02  0.1300439E+00
        -11   -1    0    0    0    0  0.00000000000E+00  0.00000000000E+00  0.45593999997E+02  0.45594000000E+02  0.51100000000E-03 0.  1.
         11   -1    0    0    0    0 -0.00000000000E+00 -0.00000000000E+00 -0.45593999997E+02  0.45594000000E+02  0.51100000000E-03 0. -1.
    9900012    2    1    2    0    0 -0.15404231772E+02  0.35797784236E+02  0.11592890472E+02  0.50528845776E+02  0.29999957221E+02 0.  0.
        -12    1    1    2    0    0  0.15404231772E+02 -0.35797784236E+02 -0.11592890472E+02  0.40659154224E+02  0.00000000000E+00 0.  1.
         11    1    3    3    0    0  0.50309945506E+01  0.26021939942E+01  0.66094129015E+00  0.57025576193E+01  0.51100000000E-03 0.  1.
        -11    1    3    3    0    0 -0.23816800099E+02  0.31987647250E+02  0.99239526666E+01  0.41096646826E+02  0.51100000000E-03 0. -1.
         12    1    3    3    0    0  0.33815737770E+01  0.12079429922E+01  0.10079965150E+01  0.37296413307E+01  0.00000000000E+00 0. -1.
</event>
<event>
 7    1  0.8986500E-014  0.5052886E+02  0.7816164E-02  0.1300439E+00
        -11   -1    0    0    0    0  0.00000000000E+00  0.00000000000E+00  0.45593999997E+02  0.45594000000E+02  0.51100000000E-03 0. -1.
         11   -1    0    0    0    0 -0.00000000000E+00 -0.00000000000E+00 -0.45593999997E+02  0.45594000000E+02  0.51100000000E-03 0.  1.
    9900012    2    1    2    0    0  0.20587166627E+02 -0.74979740667E+00 -0.35053845267E+02  0.50528859651E+02  0.29999999395E+02 0.  0.
         12    1    1    2    0    0 -0.20587166627E+02  0.74979740667E+00  0.35053845267E+02  0.40659140349E+02  0.00000000000E+00 0. -1.
         11    1    3    3    0    0  0.12082605999E+01 -0.36478123768E+00 -0.11199769034E+00  0.12670843589E+01  0.51100000000E-03 0. -1.
        -11    1    3    3    0    0  0.25509254808E+02 -0.29963111711E+01 -0.18893779567E+02  0.31885339392E+02  0.51100000000E-03 0.  1.
         12    1    3    3    0    0 -0.61303487811E+01  0.26112950021E+01 -0.16048068010E+02  0.17376435901E+02  0.00000000000E+00 0. -1.
</event>
<event>
 7    1  0.8986500E-014  0.5052886E+02  0.7816164E-02  0.1300439E+00
        -11   -1    0    0    0    0  0.00000000000E+00  0.00000000000E+00  0.45593999997E+02  0.45594000000E+02  0.51100000000E-03 0. -1.
         11   -1    0    0    0    0 -0.00000000000E+00 -0.00000000000E+00 -0.45593999997E+02  0.45594000000E+02  0.51100000000E-03 0.  1.
    9900012    2    1    2    0    0 -0.17905388127E+02  0.32295605014E+02  0.17016359248E+02  0.50528861922E+02  0.30000006299E+02 0.  0.
        -12    1    1    2    0    0  0.17905388127E+02 -0.32295605014E+02 -0.17016359248E+02  0.40659138078E+02  0.00000000000E+00 0.  1.
         11    1    3    3    0    0  0.40869955801E+00 -0.21622934637E+01  0.55280928939E+01  0.59499882064E+01  0.51100000000E-03 0.  1.
        -11    1    3    3    0    0 -0.17359013036E+01  0.48487082115E+01  0.92298401148E+01  0.10569450008E+02  0.51100000000E-03 0. -1.
        -12    1    3    3    0    0 -0.16578186381E+02  0.29609190266E+02  0.22584262395E+01  0.34009423708E+02  0.00000000000E+00 0.  1.
</event>
<event>
 7    1  0.8986500E-014  0.5052885E+02  0.7816164E-02  0.1300439E+00
        -11   -1    0    0    0    0  0.00000000000E+00  0.00000000000E+00  0.45593999997E+02  0.45594000000E+02  0.51100000000E-03 0. -1.
         11   -1    0    0    0    0 -0.00000000000E+00 -0.00000000000E+00 -0.45593999997E+02  0.45594000000E+02  0.51100000000E-03 0.  1.
    9900012    2    1    2    0    0 -0.67027572088E+01  0.39867222392E+02  0.43409472008E+01  0.50528853452E+02  0.29999980551E+02 0.  0.
        -12    1    1    2    0    0  0.67027572088E+01 -0.39867222392E+02 -0.43409472008E+01  0.40659146548E+02  0.00000000000E+00 0.  1.
         11    1    3    3    0    0 -0.10730326623E+02  0.91880446599E+01 -0.90549257187E+00  0.14155563965E+02  0.51100000000E-03 0. -1.
        -11    1    3    3    0    0  0.81705438776E+01  0.11893106069E+02 -0.40789388795E+01  0.14994715798E+02  0.51100000000E-03 0.  1.
         12    1    3    3    0    0 -0.41429744629E+01  0.18786071663E+02  0.93253786522E+01  0.21378573688E+02  0.00000000000E+00 0. -1.
</event>
<event>
 7    1  0.8986500E-014  0.5052886E+02  0.7816164E-02  0.1300439E+00
        -11   -1    0    0    0    0  0.00000000000E+00  0.00000000000E+00  0.45593999997E+02  0.45594000000E+02  0.51100000000E-03 0. -1.
         11   -1    0    0    0    0 -0.00000000000E+00 -0.00000000000E+00 -0.45593999997E+02  0.45594000000E+02  0.51100000000E-03 0.  1.
    9900012    2    1    2    0    0  0.37323629566E+02 -0.15539453439E+02  0.43171678553E+01  0.50528857419E+02  0.29999992610E+02 0.  0.
        -12    1    1    2    0    0 -0.37323629566E+02  0.15539453439E+02 -0.43171678553E+01  0.40659142581E+02  0.00000000000E+00 0.  1.
         11    1    3    3    0    0  0.30547870080E+01  0.21790332881E+01 -0.44458103318E+00  0.37785661687E+01  0.51100000000E-03 0. -1.
        -11    1    3    3    0    0 -0.24125384659E+01  0.31738007728E+01  0.19630273947E+01  0.44437405424E+01  0.51100000000E-03 0.  1.
        -12    1    3    3    0    0  0.36681381024E+02 -0.20892287500E+02  0.27987214938E+01  0.42306550708E+02  0.00000000000E+00 0.  1.
</event>
<event>
 7    1  0.8986500E-014  0.5052884E+02  0.7816164E-02  0.1300439E+00
        -11   -1    0    0    0    0  0.00000000000E+00  0.00000000000E+00  0.45593999997E+02  0.45594000000E+02  0.51100000000E-03 0. -1.
         11   -1    0    0    0    0 -0.00000000000E+00 -0.00000000000E+00 -0.45593999997E+02  0.45594000000E+02  0.51100000000E-03 0.  1.
    9900012    2    1    2    0    0  0.15954535602E+02  0.30498334246E+02  0.21644208720E+02  0.50528839050E+02  0.29999936775E+02 0.  0.
        -12    1    1    2    0    0 -0.15954535602E+02 -0.30498334246E+02 -0.21644208720E+02  0.40659160950E+02  0.00000000000E+00 0.  1.
         11    1    3    3    0    0 -0.44936111656E+01  0.26666655235E+01  0.56265099713E+01  0.76786236423E+01  0.51100000000E-03 0. -1.
        -11    1    3    3    0    0  0.12423084657E+02  0.18772861158E+01  0.55767699751E+01  0.13746184895E+02  0.51100000000E-03 0.  1.
         12    1    3    3    0    0  0.80250621107E+01  0.25954382607E+02  0.10440928773E+02  0.29104030512E+02  0.00000000000E+00 0. -1.
</event>
<event>
 7    1  0.8986500E-014  0.5052887E+02  0.7816164E-02  0.1300439E+00
        -11   -1    0    0    0    0  0.00000000000E+00  0.00000000000E+00  0.45593999997E+02  0.45594000000E+02  0.51100000000E-03 0. -1.
         11   -1    0    0    0    0 -0.00000000000E+00 -0.00000000000E+00 -0.45593999997E+02  0.45594000000E+02  0.51100000000E-03 0.  1.
    9900012    2    1    2    0    0 -0.82131504702E+01  0.26237342078E+02  0.29955150751E+02  0.50528867981E+02  0.30000024716E+02 0.  0.
        -12    1    1    2    0    0  0.82131504702E+01 -0.26237342078E+02 -0.29955150751E+02  0.40659132019E+02  0.00000000000E+00 0.  1.
         11    1    3    3    0    0  0.45677044894E+00  0.39700068037E+00  0.66267213051E+01  0.66542981823E+01  0.51100000000E-03 0. -1.
        -11    1    3    3    0    0  0.76233174748E+01  0.13548512341E+02  0.46980207776E+01  0.16240337295E+02  0.51100000000E-03 0.  1.
        -12    1    3    3    0    0 -0.16293238394E+02  0.12291829057E+02  0.18630408669E+02  0.27634232504E+02  0.00000000000E+00 0.  1.
</event>
<event>
 7    1  0.8986500E-014  0.5052886E+02  0.7816164E-02  0.1300439E+00
        -11   -1    0    0    0    0  0.00000000000E+00  0.00000000000E+00  0.45593999997E+02  0.45594000000E+02  0.51100000000E-03 0. -1.
         11   -1    0    0    0    0 -0.00000000000E+00 -0.00000000000E+00 -0.45593999997E+02  0.45594000000E+02  0.51100000000E-03 0.  1.
    9900012    2    1    2    0    0  0.10529384513E+02 -0.33118379349E+01 -0.39132200388E+02  0.50528864299E+02  0.30000013522E+02 0.  0.
         12    1    1    2    0    0 -0.10529384513E+02  0.33118379349E+01  0.39132200388E+02  0.40659135701E+02  0.00000000000E+00 0. -1.
         11    1    3    3    0    0 -0.38578691473E+01  0.32674629721E+01 -0.13213352887E+02  0.14147514390E+02  0.51100000000E-03 0.  1.
        -11    1    3    3    0    0  0.21598777030E+01 -0.30554160806E+01 -0.23030700035E+02  0.23332676303E+02  0.51100000000E-03 0. -1.
         12    1    3    3    0    0  0.12227375958E+02 -0.35238848264E+01 -0.28881474664E+01  0.13048673606E+02  0.00000000000E+00 0. -1.
</event>
<event>
 7    1  0.8986500E-014  0.5052886E+02  0.7816164E-02  0.1300439E+00
        -11   -1    0    0    0    0  0.00000000000E+00  0.00000000000E+00  0.45593999997E+02  0.45594000000E+02  0.51100000000E-03 0. -1.
         11   -1    0    0    0    0 -0.00000000000E+00 -0.00000000000E+00 -0.45593999997E+02  0.45594000000E+02  0.51100000000E-03 0.  1.
    9900012    2    1    2    0    0 -0.13906326430E+02  0.13514632222E+02  0.35737015291E+02  0.50528862518E+02  0.30000008109E+02 0.  0.
        -12    1    1    2    0    0  0.13906326430E+02 -0.13514632222E+02 -0.35737015291E+02  0.40659137482E+02  0.00000000000E+00 0.  1.
         11    1    3    3    0    0 -0.35403416621E+01  0.82044798631E+01  0.26159489448E+02  0.27643559781E+02  0.51100000000E-03 0. -1.
        -11    1    3    3    0    0 -0.31202650275E+01  0.10542829456E+02  0.20161066531E+01  0.11178192746E+02  0.51100000000E-03 0.  1.
        -12    1    3    3    0    0 -0.72457197409E+01 -0.52326770972E+01  0.75614191901E+01  0.11707109991E+02  0.00000000000E+00 0.  1.
</event>
<event>
 7    1  0.8986500E-014  0.5052891E+02  0.7816164E-02  0.1300439E+00
        -11   -1    0    0    0    0  0.00000000000E+00  0.00000000000E+00  0.45593999997E+02  0.45594000000E+02  0.51100000000E-03 0. -1.
         11   -1    0    0    0    0 -0.00000000000E+00 -0.00000000000E+00 -0.45593999997E+02  0.45594000000E+02  0.51100000000E-03 0.  1.
    9900012    2    1    2    0    0  0.14429287599E+02 -0.32811628062E+02 -0.19192550968E+02  0.50528913816E+02  0.30000164034E+02 0.  0.
         12    1    1    2    0    0 -0.14429287599E+02  0.32811628062E+02  0.19192550968E+02  0.40659086184E+02  0.00000000000E+00 0. -1.
         11    1    3    3    0    0  0.58714089394E+01  0.22707267681E+01 -0.64545411657E+01  0.90161380264E+01  0.51100000000E-03 0. -1.
        -11    1    3    3    0    0  0.89581628708E+00 -0.25043745542E+01 -0.70902210117E+01  0.75726886232E+01  0.51100000000E-03 0.  1.
        -12    1    3    3    0    0  0.76620623724E+01 -0.32577980276E+02 -0.56477887907E+01  0.33940087166E+02  0.00000000000E+00 0.  1.
</event>
<event>
 7    1  0.8986500E-014  0.5052876E+02  0.7816164E-02  0.1300439E+00
        -11   -1    0    0    0    0  0.00000000000E+00  0.00000000000E+00  0.45593999997E+02  0.45594000000E+02  0.51100000000E-03 0. -1.
         11   -1    0    0    0    0 -0.00000000000E+00 -0.00000000000E+00 -0.45593999997E+02  0.45594000000E+02  0.51100000000E-03 0.  1.
    9900012    2    1    2    0    0 -0.13799534340E+02  0.32829253043E+02  0.19621088125E+02  0.50528756247E+02  0.29999685086E+02 0.  0.
        -12    1    1    2    0    0  0.13799534340E+02 -0.32829253043E+02 -0.19621088125E+02  0.40659243753E+02  0.00000000000E+00 0.  1.
         11    1    3    3    0    0 -0.10344230720E+02  0.23335982897E+02  0.82985865669E+01  0.26840971410E+02  0.51100000000E-03 0. -1.
        -11    1    3    3    0    0 -0.49054807929E+01  0.14217174714E+02  0.11187622890E+02  0.18744457976E+02  0.51100000000E-03 0.  1.
        -12    1    3    3    0    0  0.14501771722E+01 -0.47239045677E+01  0.13487866892E+00  0.49433268606E+01  0.00000000000E+00 0.  1.
</event>
<event>
 7    1  0.8986500E-014  0.5052886E+02  0.7816164E-02  0.1300439E+00
        -11   -1    0    0    0    0  0.00000000000E+00  0.00000000000E+00  0.45593999997E+02  0.45594000000E+02  0.51100000000E-03 0. -1.
         11   -1    0    0    0    0 -0.00000000000E+00 -0.00000000000E+00 -0.45593999997E+02  0.45594000000E+02  0.51100000000E-03 0.  1.
    9900012    2    1    2    0    0 -0.10675362278E+01  0.27952798495E+01  0.40548887969E+02  0.50528861562E+02  0.30000005203E+02 0.  0.
        -12    1    1    2    0    0  0.10675362278E+01 -0.27952798495E+01 -0.40548887969E+02  0.40659138438E+02  0.00000000000E+00 0.  1.
         11    1    3    3    0    0  0.39562182678E+01  0.12881683172E+01  0.41930512629E+01  0.59070059887E+01  0.51100000000E-03 0. -1.
        -11    1    3    3    0    0  0.99021806644E+01 -0.28323073164E+01  0.15528255749E+02  0.18633353791E+02  0.51100000000E-03 0.  1.
         12    1    3    3    0    0 -0.14925935160E+02  0.43394188487E+01  0.20827580957E+02  0.25988501782E+02  0.00000000000E+00 0. -1.
</event>
<event>
 7    1  0.8986500E-014  0.5052885E+02  0.7816164E-02  0.1300439E+00
        -11   -1    0    0    0    0  0.00000000000E+00  0.00000000000E+00  0.45593999997E+02  0.45594000000E+02  0.51100000000E-03 0. -1.
         11   -1    0    0    0    0 -0.00000000000E+00 -0.00000000000E+00 -0.45593999997E+02  0.45594000000E+02  0.51100000000E-03 0.  1.
    9900012    2    1    2    0    0 -0.32905316776E+02  0.19600208873E+02  0.13646914826E+02  0.50528851653E+02  0.29999975085E+02 0.  0.
        -12    1    1    2    0    0  0.32905316776E+02 -0.19600208873E+02 -0.13646914826E+02  0.40659148347E+02  0.00000000000E+00 0.  1.
         11    1    3    3    0    0 -0.10024688202E+02 -0.57585839253E+00  0.45861643385E+01  0.11038971421E+02  0.51100000000E-03 0. -1.
        -11    1    3    3    0    0 -0.35973840076E+01 -0.49611373335E+01  0.42200463186E+01  0.74406213808E+01  0.51100000000E-03 0.  1.
        -12    1    3    3    0    0 -0.19283244566E+02  0.25137204599E+02  0.48407041691E+01  0.32049258851E+02  0.00000000000E+00 0.  1.
</event>
<event>
 7    1  0.8986500E-014  0.5052885E+02  0.7816164E-02  0.1300439E+00
        -11   -1    0    0    0    0  0.00000000000E+00  0.00000000000E+00  0.45593999997E+02  0.45594000000E+02  0.51100000000E-03 0.  1.
         11   -1    0    0    0    0 -0.00000000000E+00 -0.00000000000E+00 -0.45593999997E+02  0.45594000000E+02  0.51100000000E-03 0. -1.
    9900012    2    1    2    0    0  0.10991912175E+01 -0.40603040756E+02  0.18307389067E+01  0.50528846727E+02  0.29999960110E+02 0.  0.
         12    1    1    2    0    0 -0.10991912175E+01  0.40603040756E+02 -0.18307389067E+01  0.40659153273E+02  0.00000000000E+00 0. -1.
         11    1    3    3    0    0 -0.29725126213E+01 -0.22105731573E+02 -0.48409793925E+01  0.22823984784E+02  0.51100000000E-03 0. -1.
        -11    1    3    3    0    0 -0.12369816712E+01 -0.15118989955E+02 -0.36627357225E+01  0.15605435404E+02  0.51100000000E-03 0.  1.
         12    1    3    3    0    0  0.53086855100E+01 -0.33783192280E+01  0.10334454022E+02  0.12099426539E+02  0.00000000000E+00 0. -1.
</event>
<event>
 7    1  0.8986500E-014  0.5052886E+02  0.7816164E-02  0.1300439E+00
        -11   -1    0    0    0    0  0.00000000000E+00  0.00000000000E+00  0.45593999997E+02  0.45594000000E+02  0.51100000000E-03 0. -1.
         11   -1    0    0    0    0 -0.00000000000E+00 -0.00000000000E+00 -0.45593999997E+02  0.45594000000E+02  0.51100000000E-03 0.  1.
    9900012    2    1    2    0    0 -0.34373979483E+02 -0.27250212413E+01  0.21544587164E+02  0.50528862745E+02  0.30000008799E+02 0.  0.
        -12    1    1    2    0    0  0.34373979483E+02  0.27250212413E+01 -0.21544587164E+02  0.40659137255E+02  0.00000000000E+00 0.  1.
         11    1    3    3    0    0 -0.27356425228E+02 -0.69061706634E+01  0.35461834505E+01  0.28436677229E+02  0.51100000000E-03 0. -1.
        -11    1    3    3    0    0 -0.53541094188E+01 -0.12125825785E+01  0.34414434423E+01  0.64792266056E+01  0.51100000000E-03 0.  1.
        -12    1    3    3    0    0 -0.16634448367E+01  0.53937320005E+01  0.14556960271E+02  0.15612958911E+02  0.00000000000E+00 0.  1.
</event>
<event>
 7    1  0.8986500E-014  0.5052887E+02  0.7816164E-02  0.1300439E+00
        -11   -1    0    0    0    0  0.00000000000E+00  0.00000000000E+00  0.45593999997E+02  0.45594000000E+02  0.51100000000E-03 0. -1.
         11   -1    0    0    0    0 -0.00000000000E+00 -0.00000000000E+00 -0.45593999997E+02  0.45594000000E+02  0.51100000000E-03 0.  1.
    9900012    2    1    2    0    0 -0.12104741886E+02 -0.17852504476E+02  0.34466333233E+02  0.50528870414E+02  0.30000032110E+02 0.  0.
        -12    1    1    2    0    0  0.12104741886E+02  0.17852504476E+02 -0.34466333233E+02  0.40659129586E+02  0.00000000000E+00 0.  1.
         11    1    3    3    0    0  0.22935669709E+01  0.31379403151E+01  0.11477475334E+02  0.12117737378E+02  0.51100000000E-03 0. -1.
        -11    1    3    3    0    0 -0.26958052158E+01  0.30075309287E+01  0.24285336574E+01  0.47127894113E+01  0.51100000000E-03 0.  1.
        -12    1    3    3    0    0 -0.11702503642E+02 -0.23997975719E+02  0.20560324242E+02  0.33698343625E+02  0.00000000000E+00 0.  1.
</event>
<event>
 7    1  0.8986500E-014  0.5052886E+02  0.7816164E-02  0.1300439E+00
        -11   -1    0    0    0    0  0.00000000000E+00  0.00000000000E+00  0.45593999997E+02  0.45594000000E+02  0.51100000000E-03 0.  1.
         11   -1    0    0    0    0 -0.00000000000E+00 -0.00000000000E+00 -0.45593999997E+02  0.45594000000E+02  0.51100000000E-03 0. -1.
    9900012    2    1    2    0    0  0.86703129709E+01 -0.35812071080E+02  0.17189729055E+02  0.50528861457E+02  0.30000004885E+02 0.  0.
        -12    1    1    2    0    0 -0.86703129709E+01  0.35812071080E+02 -0.17189729055E+02  0.40659138543E+02  0.00000000000E+00 0.  1.
         11    1    3    3    0    0  0.60018689757E+01 -0.18084585521E+02 -0.61056628627E+01  0.20008842643E+02  0.51100000000E-03 0. -1.
        -11    1    3    3    0    0  0.18973378803E+01 -0.68291291589E+01  0.34888337634E+01  0.78999276827E+01  0.51100000000E-03 0.  1.
         12    1    3    3    0    0  0.77110611495E+00 -0.10898356400E+02  0.19806558155E+02  0.22620091132E+02  0.00000000000E+00 0. -1.
</event>
<event>
 7    1  0.8986500E-014  0.5052886E+02  0.7816164E-02  0.1300439E+00
        -11   -1    0    0    0    0  0.00000000000E+00  0.00000000000E+00  0.45593999997E+02  0.45594000000E+02  0.51100000000E-03 0. -1.
         11   -1    0    0    0    0 -0.00000000000E+00 -0.00000000000E+00 -0.45593999997E+02  0.45594000000E+02  0.51100000000E-03 0.  1.
    9900012    2    1    2    0    0 -0.35877511101E+02  0.68477224139E+01 -0.17862761281E+02  0.50528863934E+02  0.30000012415E+02 0.  0.
         12    1    1    2    0    0  0.35877511101E+02 -0.68477224139E+01  0.17862761281E+02  0.40659136066E+02  0.00000000000E+00 0. -1.
         11    1    3    3    0    0 -0.76330941038E+01  0.12981213036E+02 -0.60669770999E+01  0.16235277296E+02  0.51100000000E-03 0. -1.
        -11    1    3    3    0    0 -0.22817328691E+02  0.13001570905E+01 -0.98479486312E+01  0.24885798953E+02  0.51100000000E-03 0.  1.
         12    1    3    3    0    0 -0.54270883061E+01 -0.74336477128E+01 -0.19478355495E+01  0.94077876851E+01  0.00000000000E+00 0. -1.
</event>
<event>
 7    1  0.8986500E-014  0.5052886E+02  0.7816164E-02  0.1300439E+00
        -11   -1    0    0    0    0  0.00000000000E+00  0.00000000000E+00  0.45593999997E+02  0.45594000000E+02  0.51100000000E-03 0. -1.
         11   -1    0    0    0    0 -0.00000000000E+00 -0.00000000000E+00 -0.45593999997E+02  0.45594000000E+02  0.51100000000E-03 0.  1.
    9900012    2    1    2    0    0 -0.36944642575E+02  0.13229546500E+02  0.10641344561E+02  0.50528859211E+02  0.29999998059E+02 0.  0.
        -12    1    1    2    0    0  0.36944642575E+02 -0.13229546500E+02 -0.10641344561E+02  0.40659140789E+02  0.00000000000E+00 0.  1.
         11    1    3    3    0    0 -0.52769084491E+01 -0.58879659868E+01 -0.70851459119E+00  0.79382554399E+01  0.51100000000E-03 0. -1.
        -11    1    3    3    0    0  0.13682628252E+01  0.48902241860E+01  0.15769118617E+01  0.53172443078E+01  0.51100000000E-03 0.  1.
        -12    1    3    3    0    0 -0.33035996951E+02  0.14227288301E+02  0.97729472909E+01  0.37273359464E+02  0.00000000000E+00 0.  1.
</event>
<event>
 7    1  0.9103375E-014  0.5052886E+02  0.7816164E-02  0.1300439E+00
        -11   -1    0    0    0    0  0.00000000000E+00  0.00000000000E+00  0.45593999997E+02  0.45594000000E+02  0.51100000000E-03 0. -1.
         11   -1    0    0    0    0 -0.00000000000E+00 -0.00000000000E+00 -0.45593999997E+02  0.45594000000E+02  0.51100000000E-03 0.  1.
    9900012    2    1    2    0    0 -0.17457455742E+02  0.18261416990E+01  0.36675170280E+02  0.50528859950E+02  0.30000000305E+02 0.  0.
        -12    1    1    2    0    0  0.17457455742E+02 -0.18261416990E+01 -0.36675170280E+02  0.40659140050E+02  0.00000000000E+00 0.  1.
         11    1    3    3    0    0 -0.84614400896E+01 -0.16621171682E+01  0.14615809394E+02  0.16969987813E+02  0.51100000000E-03 0. -1.
        -11    1    3    3    0    0 -0.11173439629E+02  0.10987360598E+02  0.82872824044E+01  0.17727010350E+02  0.51100000000E-03 0.  1.
         12    1    3    3    0    0  0.21774239770E+01 -0.74991017303E+01  0.13772078482E+02  0.15831861787E+02  0.00000000000E+00 0. -1.
</event>
<event>
 7    1  0.8986500E-014  0.5052885E+02  0.7816164E-02  0.1300439E+00
        -11   -1    0    0    0    0  0.00000000000E+00  0.00000000000E+00  0.45593999997E+02  0.45594000000E+02  0.51100000000E-03 0. -1.
         11   -1    0    0    0    0 -0.00000000000E+00 -0.00000000000E+00 -0.45593999997E+02  0.45594000000E+02  0.51100000000E-03 0.  1.
    9900012    2    1    2    0    0 -0.63698886660E+01  0.13793937502E+02  0.37713636792E+02  0.50528848589E+02  0.29999965771E+02 0.  0.
        -12    1    1    2    0    0  0.63698886660E+01 -0.13793937502E+02 -0.37713636792E+02  0.40659151411E+02  0.00000000000E+00 0.  1.
         11    1    3    3    0    0 -0.66086565462E+01  0.63732927223E+01  0.12904824701E+02  0.15837540917E+02  0.51100000000E-03 0. -1.
        -11    1    3    3    0    0 -0.94274146475E+01  0.18105576995E+01  0.27874674059E+01  0.99962113282E+01  0.51100000000E-03 0.  1.
        -12    1    3    3    0    0  0.96661825277E+01  0.56100870801E+01  0.22021344685E+02  0.24695096344E+02  0.00000000000E+00 0.  1.
</event>
<event>
 7    1  0.8986500E-014  0.5052886E+02  0.7816164E-02  0.1300439E+00
        -11   -1    0    0    0    0  0.00000000000E+00  0.00000000000E+00  0.45593999997E+02  0.45594000000E+02  0.51100000000E-03 0. -1.
         11   -1    0    0    0    0 -0.00000000000E+00 -0.00000000000E+00 -0.45593999997E+02  0.45594000000E+02  0.51100000000E-03 0.  1.
    9900012    2    1    2    0    0  0.56941527858E+01 -0.24337342704E+02 -0.32069236722E+02  0.50528861178E+02  0.30000004037E+02 0.  0.
         12    1    1    2    0    0 -0.56941527858E+01  0.24337342704E+02  0.32069236722E+02  0.40659138822E+02  0.00000000000E+00 0. -1.
         11    1    3    3    0    0  0.10186391892E+02 -0.85807688579E+01 -0.14847162185E+02  0.19945686230E+02  0.51100000000E-03 0. -1.
        -11    1    3    3    0    0  0.69406573230E+01 -0.68807284343E+01 -0.11312044906E+02  0.14949231020E+02  0.51100000000E-03 0.  1.
        -12    1    3    3    0    0 -0.11432896429E+02 -0.88758454114E+01 -0.59100296306E+01  0.15633943928E+02  0.00000000000E+00 0.  1.
</event>
<event>
 7    1  0.8986500E-014  0.5052886E+02  0.7816164E-02  0.1300439E+00
        -11   -1    0    0    0    0  0.00000000000E+00  0.00000000000E+00  0.45593999997E+02  0.45594000000E+02  0.51100000000E-03 0. -1.
         11   -1    0    0    0    0 -0.00000000000E+00 -0.00000000000E+00 -0.45593999997E+02  0.45594000000E+02  0.51100000000E-03 0.  1.
    9900012    2    1    2    0    0  0.36280737354E+02  0.13056174946E+02  0.12900000607E+02  0.50528860525E+02  0.30000002053E+02 0.  0.
        -12    1    1    2    0    0 -0.36280737354E+02 -0.13056174946E+02 -0.12900000607E+02  0.40659139475E+02  0.00000000000E+00 0.  1.
         11    1    3    3    0    0  0.31569569767E+02  0.39739820710E+01  0.15970311768E+02  0.35601701181E+02  0.51100000000E-03 0. -1.
        -11    1    3    3    0    0  0.34298576880E+01  0.11711122397E+01  0.31345245142E+01  0.47917295238E+01  0.51100000000E-03 0.  1.
        -12    1    3    3    0    0  0.12813098984E+01  0.79110806357E+01 -0.62048356752E+01  0.10135429820E+02  0.00000000000E+00 0.  1.
</event>
<event>
 7    1  0.8986500E-014  0.5052886E+02  0.7816164E-02  0.1300439E+00
        -11   -1    0    0    0    0  0.00000000000E+00  0.00000000000E+00  0.45593999997E+02  0.45594000000E+02  0.51100000000E-03 0. -1.
         11   -1    0    0    0    0 -0.00000000000E+00 -0.00000000000E+00 -0.45593999997E+02  0.45594000000E+02  0.51100000000E-03 0.  1.
    9900012    2    1    2    0    0  0.15061762262E+02 -0.27413540810E+02  0.25977047979E+02  0.50528856823E+02  0.29999990799E+02 0.  0.
        -12    1    1    2    0    0 -0.15061762262E+02  0.27413540810E+02 -0.25977047979E+02  0.40659143177E+02  0.00000000000E+00 0.  1.
         11    1    3    3    0    0  0.25049423988E+01 -0.17082595488E+02  0.25363456744E+02  0.30682156758E+02  0.51100000000E-03 0. -1.
        -11    1    3    3    0    0  0.43782249446E+01 -0.10170495956E+02  0.27151869918E+01  0.11400880770E+02  0.51100000000E-03 0.  1.
        -12    1    3    3    0    0  0.81785949190E+01 -0.16044936566E+00 -0.21015957572E+01  0.84458192956E+01  0.00000000000E+00 0.  1.
</event>
<event>
 7    1  0.8986500E-014  0.5052886E+02  0.7816164E-02  0.1300439E+00
        -11   -1    0    0    0    0  0.00000000000E+00  0.00000000000E+00  0.45593999997E+02  0.45594000000E+02  0.51100000000E-03 0. -1.
         11   -1    0    0    0    0 -0.00000000000E+00 -0.00000000000E+00 -0.45593999997E+02  0.45594000000E+02  0.51100000000E-03 0.  1.
    9900012    2    1    2    0    0  0.16431859909E+02 -0.64666723988E+01 -0.36624332926E+02  0.50528860384E+02  0.30000001625E+02 0.  0.
         12    1    1    2    0    0 -0.16431859909E+02  0.64666723988E+01  0.36624332926E+02  0.40659139616E+02  0.00000000000E+00 0. -1.
         11    1    3    3    0    0  0.42815174175E+01  0.21831509615E+01 -0.86399391938E-01  0.48067665466E+01  0.51100000000E-03 0. -1.
        -11    1    3    3    0    0 -0.34935731930E+01  0.30940052256E+01 -0.46900704542E+00  0.46901908128E+01  0.51100000000E-03 0.  1.
        -12    1    3    3    0    0  0.15643915684E+02 -0.11743828586E+02 -0.36068926489E+02  0.41031903025E+02  0.00000000000E+00 0.  1.
</event>
<event>
 7    1  0.8986500E-014  0.5052886E+02  0.7816164E-02  0.1300439E+00
        -11   -1    0    0    0    0  0.00000000000E+00  0.00000000000E+00  0.45593999997E+02  0.45594000000E+02  0.51100000000E-03 0. -1.
         11   -1    0    0    0    0 -0.00000000000E+00 -0.00000000000E+00 -0.45593999997E+02  0.45594000000E+02  0.51100000000E-03 0.  1.
    9900012    2    1    2    0    0 -0.19187815279E+01 -0.10029550395E+01 -0.40601453579E+02  0.50528859895E+02  0.30000000137E+02 0.  0.
         12    1    1    2    0    0  0.19187815279E+01  0.10029550395E+01  0.40601453579E+02  0.40659140105E+02  0.00000000000E+00 0. -1.
         11    1    3    3    0    0  0.43276477883E+01  0.82620050632E+00 -0.61689905716E+01  0.75807379317E+01  0.51100000000E-03 0. -1.
        -11    1    3    3    0    0  0.47460427890E+01  0.89845473897E+01 -0.11951922253E+02  0.15687429992E+02  0.51100000000E-03 0.  1.
         12    1    3    3    0    0 -0.10992472105E+02 -0.10813702936E+02 -0.22480540754E+02  0.27260691971E+02  0.00000000000E+00 0. -1.
</event>
<event>
 7    1  0.8986500E-014  0.5052886E+02  0.7816164E-02  0.1300439E+00
        -11   -1    0    0    0    0  0.00000000000E+00  0.00000000000E+00  0.45593999997E+02  0.45594000000E+02  0.51100000000E-03 0. -1.
         11   -1    0    0    0    0 -0.00000000000E+00 -0.00000000000E+00 -0.45593999997E+02  0.45594000000E+02  0.51100000000E-03 0.  1.
    9900012    2    1    2    0    0 -0.26440309901E+01 -0.94111039309E+01  0.39466515595E+02  0.50528860433E+02  0.30000001773E+02 0.  0.
        -12    1    1    2    0    0  0.26440309901E+01  0.94111039309E+01 -0.39466515595E+02  0.40659139567E+02  0.00000000000E+00 0.  1.
         11    1    3    3    0    0 -0.37393565215E+01 -0.22631865569E+01  0.13821400649E+02  0.14496065561E+02  0.51100000000E-03 0. -1.
        -11    1    3    3    0    0  0.46867202911E+01 -0.45025422929E+01  0.29456968218E+02  0.30165397578E+02  0.51100000000E-03 0.  1.
        -12    1    3    3    0    0 -0.35913947597E+01 -0.26453750810E+01 -0.38118532717E+01  0.58673972939E+01  0.00000000000E+00 0.  1.
</event>
<event>
 7    1  0.8986500E-014  0.5052887E+02  0.7816164E-02  0.1300439E+00
        -11   -1    0    0    0    0  0.00000000000E+00  0.00000000000E+00  0.45593999997E+02  0.45594000000E+02  0.51100000000E-03 0. -1.
         11   -1    0    0    0    0 -0.00000000000E+00 -0.00000000000E+00 -0.45593999997E+02  0.45594000000E+02  0.51100000000E-03 0.  1.
    9900012    2    1    2    0    0 -0.23670032906E+02  0.13369080308E+02  0.30235116425E+02  0.50528867800E+02  0.30000024165E+02 0.  0.
        -12    1    1    2    0    0  0.23670032906E+02 -0.13369080308E+02 -0.30235116425E+02  0.40659132200E+02  0.00000000000E+00 0.  1.
         11    1    3    3    0    0  0.31342784145E+01  0.13842743026E+01  0.11978421571E+02  0.12458832213E+02  0.51100000000E-03 0. -1.
        -11    1    3    3    0    0 -0.86905286300E+01  0.11379595813E+02  0.12629856357E+02  0.19092767233E+02  0.51100000000E-03 0.  1.
        -12    1    3    3    0    0 -0.18113782690E+02  0.60521019311E+00  0.56268384964E+01  0.18977268354E+02  0.00000000000E+00 0.  1.
</event>
<event>
 7    1  0.8986500E-014  0.5052882E+02  0.7816164E-02  0.1300439E+00
        -11   -1    0    0    0    0  0.00000000000E+00  0.00000000000E+00  0.45593999997E+02  0.45594000000E+02  0.51100000000E-03 0. -1.
         11   -1    0    0    0    0 -0.00000000000E+00 -0.00000000000E+00 -0.45593999997E+02  0.45594000000E+02  0.51100000000E-03 0.  1.
    9900012    2    1    2    0    0 -0.32342024015E+02 -0.22644294468E+02  0.97158731370E+01  0.50528821698E+02  0.29999884033E+02 0.  0.
         12    1    1    2    0    0  0.32342024015E+02  0.22644294468E+02 -0.97158731370E+01  0.40659178302E+02  0.00000000000E+00 0. -1.
         11    1    3    3    0    0 -0.34976957746E+00  0.50776420133E+01  0.15506772292E+01  0.53206566609E+01  0.51100000000E-03 0. -1.
        -11    1    3    3    0    0 -0.50773685945E+01 -0.22521176600E+01 -0.32483683998E+01  0.64345631803E+01  0.51100000000E-03 0.  1.
         12    1    3    3    0    0 -0.26914885843E+02 -0.25469818822E+02  0.11413564308E+02  0.38773601857E+02  0.00000000000E+00 0. -1.
</event>
<event>
 7    1  0.8986500E-014  0.5052885E+02  0.7816164E-02  0.1300439E+00
        -11   -1    0    0    0    0  0.00000000000E+00  0.00000000000E+00  0.45593999997E+02  0.45594000000E+02  0.51100000000E-03 0. -1.
         11   -1    0    0    0    0 -0.00000000000E+00 -0.00000000000E+00 -0.45593999997E+02  0.45594000000E+02  0.51100000000E-03 0.  1.
    9900012    2    1    2    0    0  0.28662689255E+02 -0.11276820345E+02  0.26541474503E+02  0.50528852183E+02  0.29999976696E+02 0.  0.
        -12    1    1    2    0    0 -0.28662689255E+02  0.11276820345E+02 -0.26541474503E+02  0.40659147817E+02  0.00000000000E+00 0.  1.
         11    1    3    3    0    0  0.18621968234E+02 -0.86015687660E+01  0.15762181919E+02  0.25869114118E+02  0.51100000000E-03 0. -1.
        -11    1    3    3    0    0  0.16017933595E+02 -0.23460099102E+01  0.80747892562E+01  0.18090886682E+02  0.51100000000E-03 0.  1.
         12    1    3    3    0    0 -0.59772125746E+01 -0.32924166858E+00  0.27045033281E+01  0.65688513828E+01  0.00000000000E+00 0. -1.
</event>
<event>
 7    1  0.8986500E-014  0.5052886E+02  0.7816164E-02  0.1300439E+00
        -11   -1    0    0    0    0  0.00000000000E+00  0.00000000000E+00  0.45593999997E+02  0.45594000000E+02  0.51100000000E-03 0. -1.
         11   -1    0    0    0    0 -0.00000000000E+00 -0.00000000000E+00 -0.45593999997E+02  0.45594000000E+02  0.51100000000E-03 0.  1.
    9900012    2    1    2    0    0  0.41721206404E+01  0.23755546876E+01  0.40374694957E+02  0.50528857811E+02  0.29999993802E+02 0.  0.
        -12    1    1    2    0    0 -0.41721206404E+01 -0.23755546876E+01 -0.40374694957E+02  0.40659142189E+02  0.00000000000E+00 0.  1.
         11    1    3    3    0    0  0.43806953182E+01  0.10890753608E+02  0.20806767640E+02  0.23889759009E+02  0.51100000000E-03 0. -1.
        -11    1    3    3    0    0 -0.19631882270E+01  0.28459918377E+01  0.12887260234E+02  0.13342985204E+02  0.51100000000E-03 0.  1.
        -12    1    3    3    0    0  0.17546135492E+01 -0.11361190758E+02  0.66806670830E+01  0.13296113598E+02  0.00000000000E+00 0.  1.
</event>
<event>
 7    1  0.8986500E-014  0.5052886E+02  0.7816164E-02  0.1300439E+00
        -11   -1    0    0    0    0  0.00000000000E+00  0.00000000000E+00  0.45593999997E+02  0.45594000000E+02  0.51100000000E-03 0. -1.
         11   -1    0    0    0    0 -0.00000000000E+00 -0.00000000000E+00 -0.45593999997E+02  0.45594000000E+02  0.51100000000E-03 0.  1.
    9900012    2    1    2    0    0  0.15894418883E+02  0.87200357387E+01  0.36393601791E+02  0.50528858024E+02  0.29999994449E+02 0.  0.
        -12    1    1    2    0    0 -0.15894418883E+02 -0.87200357387E+01 -0.36393601791E+02  0.40659141976E+02  0.00000000000E+00 0.  1.
         11    1    3    3    0    0 -0.17458496012E+01  0.59255568150E+00  0.50649741933E+01  0.53900906213E+01  0.51100000000E-03 0. -1.
        -11    1    3    3    0    0 -0.59888610238E+00  0.13130932794E+02  0.16559715182E+02  0.21142474495E+02  0.51100000000E-03 0.  1.
        -12    1    3    3    0    0  0.18239154587E+02 -0.50034527372E+01  0.14768912416E+02  0.23996292907E+02  0.00000000000E+00 0.  1.
</event>
<event>
 7    1  0.8986500E-014  0.5052888E+02  0.7816164E-02  0.1300439E+00
        -11   -1    0    0    0    0  0.00000000000E+00  0.00000000000E+00  0.45593999997E+02  0.45594000000E+02  0.51100000000E-03 0.  1.
         11   -1    0    0    0    0 -0.00000000000E+00 -0.00000000000E+00 -0.45593999997E+02  0.45594000000E+02  0.51100000000E-03 0. -1.
    9900012    2    1    2    0    0  0.26453251490E+02 -0.24679238888E+02  0.18555991205E+02  0.50528878563E+02  0.30000056880E+02 0.  0.
        -12    1    1    2    0    0 -0.26453251490E+02  0.24679238888E+02 -0.18555991205E+02  0.40659121437E+02  0.00000000000E+00 0.  1.
         11    1    3    3    0    0  0.20268657523E+01 -0.29396326402E+01 -0.13273678437E+01  0.38094002797E+01  0.51100000000E-03 0. -1.
        -11    1    3    3    0    0 -0.42694606632E+01 -0.85372974119E+00 -0.22406699823E+01  0.48967081857E+01  0.51100000000E-03 0.  1.
         12    1    3    3    0    0  0.28695846400E+02 -0.20885876506E+02  0.22124029031E+02  0.41822770097E+02  0.00000000000E+00 0. -1.
</event>
<event>
 7    1  0.8986500E-014  0.5052883E+02  0.7816164E-02  0.1300439E+00
        -11   -1    0    0    0    0  0.00000000000E+00  0.00000000000E+00  0.45593999997E+02  0.45594000000E+02  0.51100000000E-03 0. -1.
         11   -1    0    0    0    0 -0.00000000000E+00 -0.00000000000E+00 -0.45593999997E+02  0.45594000000E+02  0.51100000000E-03 0.  1.
    9900012    2    1    2    0    0 -0.41372310927E+01 -0.60219928902E+01  0.39997333544E+02  0.50528834119E+02  0.29999921789E+02 0.  0.
        -12    1    1    2    0    0  0.41372310927E+01  0.60219928902E+01 -0.39997333544E+02  0.40659165881E+02  0.00000000000E+00 0.  1.
         11    1    3    3    0    0  0.30345610881E+01  0.53999326017E+00  0.13492379275E+00  0.30851836914E+01  0.51100000000E-03 0. -1.
        -11    1    3    3    0    0 -0.56448714045E+01  0.66131147669E+01  0.47453382969E+01  0.99053569298E+01  0.51100000000E-03 0.  1.
        -12    1    3    3    0    0 -0.15269207763E+01 -0.13175100917E+02  0.35117071454E+02  0.37538293498E+02  0.00000000000E+00 0.  1.
</event>
<event>
 7    1  0.8986500E-014  0.5052887E+02  0.7816164E-02  0.1300439E+00
        -11   -1    0    0    0    0  0.00000000000E+00  0.00000000000E+00  0.45593999997E+02  0.45594000000E+02  0.51100000000E-03 0.  1.
         11   -1    0    0    0    0 -0.00000000000E+00 -0.00000000000E+00 -0.45593999997E+02  0.45594000000E+02  0.51100000000E-03 0. -1.
    9900012    2    1    2    0    0 -0.13052777792E+02 -0.16851152108E+02  0.34624098794E+02  0.50528873685E+02  0.30000042052E+02 0.  0.
        -12    1    1    2    0    0  0.13052777792E+02  0.16851152108E+02 -0.34624098794E+02  0.40659126315E+02  0.00000000000E+00 0.  1.
         11    1    3    3    0    0 -0.10304704425E+02 -0.18876233439E+02  0.11814235935E+02  0.24537222604E+02  0.51100000000E-03 0. -1.
        -11    1    3    3    0    0  0.19889545325E+01 -0.35691868681E+01  0.36554333142E+01  0.54824472645E+01  0.51100000000E-03 0.  1.
         12    1    3    3    0    0 -0.47370278997E+01  0.55942681990E+01  0.19154429545E+02  0.20509203817E+02  0.00000000000E+00 0. -1.
</event>
<event>
 7    1  0.8986500E-014  0.5052887E+02  0.7816164E-02  0.1300439E+00
        -11   -1    0    0    0    0  0.00000000000E+00  0.00000000000E+00  0.45593999997E+02  0.45594000000E+02  0.51100000000E-03 0. -1.
         11   -1    0    0    0    0 -0.00000000000E+00 -0.00000000000E+00 -0.45593999997E+02  0.45594000000E+02  0.51100000000E-03 0.  1.
    9900012    2    1    2    0    0 -0.39563702834E+02 -0.93414108621E+01 -0.78504492885E+00  0.50528870221E+02  0.30000031524E+02 0.  0.
         12    1    1    2    0    0  0.39563702834E+02  0.93414108621E+01  0.78504492885E+00  0.40659129779E+02  0.00000000000E+00 0. -1.
         11    1    3    3    0    0 -0.22740392136E+02  0.11065271246E+01  0.51098757279E+00  0.22773031097E+02  0.51100000000E-03 0. -1.
        -11    1    3    3    0    0 -0.23502979375E+01  0.48632922728E+01  0.31075845700E+01  0.62315803972E+01  0.51100000000E-03 0.  1.
         12    1    3    3    0    0 -0.14473012761E+02 -0.15311230260E+02 -0.44036170717E+01  0.21524258727E+02  0.00000000000E+00 0. -1.
</event>
<event>
 7    1  0.8986500E-014  0.5052886E+02  0.7816164E-02  0.1300439E+00
        -11   -1    0    0    0    0  0.00000000000E+00  0.00000000000E+00  0.45593999997E+02  0.45594000000E+02  0.51100000000E-03 0.  1.
         11   -1    0    0    0    0 -0.00000000000E+00 -0.00000000000E+00 -0.45593999997E+02  0.45594000000E+02  0.51100000000E-03 0. -1.
    9900012    2    1    2    0    0 -0.30920227514E+02 -0.25962635273E+02  0.48006718384E+01  0.50528863881E+02  0.30000012253E+02 0.  0.
        -12    1    1    2    0    0  0.30920227514E+02  0.25962635273E+02 -0.48006718384E+01  0.40659136119E+02  0.00000000000E+00 0.  1.
         11    1    3    3    0    0 -0.81182107035E+01 -0.19082011609E+02  0.60292373824E+01  0.21595837927E+02  0.51100000000E-03 0. -1.
        -11    1    3    3    0    0  0.11801661843E+01 -0.41618455214E+01 -0.20416754424E+01  0.47835331335E+01  0.51100000000E-03 0.  1.
         12    1    3    3    0    0 -0.23982182995E+02 -0.27187781419E+01  0.81310989847E+00  0.24149492821E+02  0.00000000000E+00 0. -1.
</event>
<event>
 7    1  0.8986500E-014  0.5052886E+02  0.7816164E-02  0.1300439E+00
        -11   -1    0    0    0    0  0.00000000000E+00  0.00000000000E+00  0.45593999997E+02  0.45594000000E+02  0.51100000000E-03 0. -1.
         11   -1    0    0    0    0 -0.00000000000E+00 -0.00000000000E+00 -0.45593999997E+02  0.45594000000E+02  0.51100000000E-03 0.  1.
    9900012    2    1    2    0    0  0.70878187057E+01 -0.33052162184E+02 -0.22593868176E+02  0.50528862304E+02  0.30000007459E+02 0.  0.
         12    1    1    2    0    0 -0.70878187057E+01  0.33052162184E+02  0.22593868176E+02  0.40659137696E+02  0.00000000000E+00 0. -1.
         11    1    3    3    0    0  0.98803529628E+01 -0.14380745700E+02 -0.65842105911E+01  0.18648835109E+02  0.51100000000E-03 0. -1.
        -11    1    3    3    0    0  0.45783913241E+01 -0.83969050436E+01  0.21007265222E+01  0.97919729172E+01  0.51100000000E-03 0.  1.
        -12    1    3    3    0    0 -0.73709255811E+01 -0.10274511441E+02 -0.18110384107E+02  0.22088054278E+02  0.00000000000E+00 0.  1.
</event>
<event>
 7    1  0.8986500E-014  0.5052887E+02  0.7816164E-02  0.1300439E+00
        -11   -1    0    0    0    0  0.00000000000E+00  0.00000000000E+00  0.45593999997E+02  0.45594000000E+02  0.51100000000E-03 0. -1.
         11   -1    0    0    0    0 -0.00000000000E+00 -0.00000000000E+00 -0.45593999997E+02  0.45594000000E+02  0.51100000000E-03 0.  1.
    9900012    2    1    2    0    0 -0.35347037386E+02  0.99696356233E+01  0.17445871206E+02  0.50528866849E+02  0.30000021274E+02 0.  0.
        -12    1    1    2    0    0  0.35347037386E+02 -0.99696356233E+01 -0.17445871206E+02  0.40659133151E+02  0.00000000000E+00 0.  1.
         11    1    3    3    0    0 -0.19473176744E+02  0.11878756440E+02  0.71662264575E+01  0.23909501646E+02  0.51100000000E-03 0. -1.
        -11    1    3    3    0    0 -0.11683857133E+02 -0.18716621252E+01 -0.34006172667E+01  0.12311776259E+02  0.51100000000E-03 0.  1.
         12    1    3    3    0    0 -0.41900035096E+01 -0.37458691866E-01  0.13680262015E+02  0.14307588943E+02  0.00000000000E+00 0. -1.
</event>
<event>
 7    1  0.8986500E-014  0.5052886E+02  0.7816164E-02  0.1300439E+00
        -11   -1    0    0    0    0  0.00000000000E+00  0.00000000000E+00  0.45593999997E+02  0.45594000000E+02  0.51100000000E-03 0. -1.
         11   -1    0    0    0    0 -0.00000000000E+00 -0.00000000000E+00 -0.45593999997E+02  0.45594000000E+02  0.51100000000E-03 0.  1.
    9900012    2    1    2    0    0 -0.19213376230E+02 -0.13658810683E+02  0.33127764539E+02  0.50528859345E+02  0.29999998465E+02 0.  0.
        -12    1    1    2    0    0  0.19213376230E+02  0.13658810683E+02 -0.33127764539E+02  0.40659140655E+02  0.00000000000E+00 0.  1.
         11    1    3    3    0    0 -0.63592869891E+01 -0.10702866177E+02  0.18467373142E+02  0.22271859968E+02  0.51100000000E-03 0. -1.
        -11    1    3    3    0    0 -0.52938979145E+01 -0.10623439124E+02  0.12569502269E+02  0.17288007448E+02  0.51100000000E-03 0.  1.
        -12    1    3    3    0    0 -0.75601913268E+01  0.76674946177E+01  0.20908891286E+01  0.10968991930E+02  0.00000000000E+00 0.  1.
</event>
<event>
 7    1  0.8986500E-014  0.5052882E+02  0.7816164E-02  0.1300439E+00
        -11   -1    0    0    0    0  0.00000000000E+00  0.00000000000E+00  0.45593999997E+02  0.45594000000E+02  0.51100000000E-03 0. -1.
         11   -1    0    0    0    0 -0.00000000000E+00 -0.00000000000E+00 -0.45593999997E+02  0.45594000000E+02  0.51100000000E-03 0.  1.
    9900012    2    1    2    0    0  0.28286428253E+01 -0.11675727508E+02  0.38843854871E+02  0.50528820295E+02  0.29999879769E+02 0.  0.
        -12    1    1    2    0    0 -0.28286428253E+01  0.11675727508E+02 -0.38843854871E+02  0.40659179705E+02  0.00000000000E+00 0.  1.
         11    1    3    3    0    0 -0.25008748406E+01 -0.14830240762E+01 -0.30534449907E+01  0.42163090436E+01  0.51100000000E-03 0. -1.
        -11    1    3    3    0    0  0.12745923597E+01 -0.54122447191E+01  0.19743606626E+01  0.59004303970E+01  0.51100000000E-03 0.  1.
         12    1    3    3    0    0  0.40549253062E+01 -0.47804587124E+01  0.39922939199E+02  0.40412080855E+02  0.00000000000E+00 0. -1.
</event>
<event>
 7    1  0.8986500E-014  0.5052891E+02  0.7816164E-02  0.1300439E+00
        -11   -1    0    0    0    0  0.00000000000E+00  0.00000000000E+00  0.45593999997E+02  0.45594000000E+02  0.51100000000E-03 0. -1.
         11   -1    0    0    0    0 -0.00000000000E+00 -0.00000000000E+00 -0.45593999997E+02  0.45594000000E+02  0.51100000000E-03 0.  1.
    9900012    2    1    2    0    0 -0.26801911279E+02  0.16002127492E+02 -0.26052849605E+02  0.50528911164E+02  0.30000155972E+02 0.  0.
         12    1    1    2    0    0  0.26801911279E+02 -0.16002127492E+02  0.26052849605E+02  0.40659088836E+02  0.00000000000E+00 0. -1.
         11    1    3    3    0    0  0.26759575763E+01  0.34606764687E+01 -0.71864404630E+01  0.84132013741E+01  0.51100000000E-03 0. -1.
        -11    1    3    3    0    0 -0.95199266462E+01  0.14769313116E+02 -0.87677722913E+01  0.19637602819E+02  0.51100000000E-03 0.  1.
        -12    1    3    3    0    0 -0.19957942209E+02 -0.22278620928E+01 -0.10098636850E+02  0.22478106970E+02  0.00000000000E+00 0.  1.
</event>
<event>
 7    1  0.8986500E-014  0.5052888E+02  0.7816164E-02  0.1300439E+00
        -11   -1    0    0    0    0  0.00000000000E+00  0.00000000000E+00  0.45593999997E+02  0.45594000000E+02  0.51100000000E-03 0.  1.
         11   -1    0    0    0    0 -0.00000000000E+00 -0.00000000000E+00 -0.45593999997E+02  0.45594000000E+02  0.51100000000E-03 0. -1.
    9900012    2    1    2    0    0  0.70313871228E+01  0.39995222296E+02  0.20261841925E+01  0.50528884985E+02  0.30000076401E+02 0.  0.
         12    1    1    2    0    0 -0.70313871228E+01 -0.39995222296E+02 -0.20261841925E+01  0.40659115015E+02  0.00000000000E+00 0. -1.
         11    1    3    3    0    0  0.47604860970E+01  0.36954144704E+01 -0.43446923992E+01  0.74293114280E+01  0.51100000000E-03 0. -1.
        -11    1    3    3    0    0  0.11530122778E+02  0.12265300521E+02  0.16557364715E+01  0.16915164548E+02  0.51100000000E-03 0.  1.
         12    1    3    3    0    0 -0.92592217519E+01  0.24034507305E+02  0.47151401202E+01  0.26184409009E+02  0.00000000000E+00 0. -1.
</event>
<event>
 7    1  0.8986500E-014  0.5052886E+02  0.7816164E-02  0.1300439E+00
        -11   -1    0    0    0    0  0.00000000000E+00  0.00000000000E+00  0.45593999997E+02  0.45594000000E+02  0.51100000000E-03 0. -1.
         11   -1    0    0    0    0 -0.00000000000E+00 -0.00000000000E+00 -0.45593999997E+02  0.45594000000E+02  0.51100000000E-03 0.  1.
    9900012    2    1    2    0    0 -0.23119823737E+02  0.53221939331E+01  0.33019897227E+02  0.50528860673E+02  0.30000002503E+02 0.  0.
        -12    1    1    2    0    0  0.23119823737E+02 -0.53221939331E+01 -0.33019897227E+02  0.40659139327E+02  0.00000000000E+00 0.  1.
         11    1    3    3    0    0 -0.13239231352E+02  0.16386348897E+01  0.18687730189E+02  0.22960697528E+02  0.51100000000E-03 0. -1.
        -11    1    3    3    0    0 -0.84268572358E+01 -0.78220665915E+01  0.44399354446E+01  0.12325164325E+02  0.51100000000E-03 0.  1.
        -12    1    3    3    0    0 -0.14537351495E+01  0.11505625635E+02  0.98922315933E+01  0.15242998820E+02  0.00000000000E+00 0.  1.
</event>
<event>
 7    1  0.8986500E-014  0.5052884E+02  0.7816164E-02  0.1300439E+00
        -11   -1    0    0    0    0  0.00000000000E+00  0.00000000000E+00  0.45593999997E+02  0.45594000000E+02  0.51100000000E-03 0. -1.
         11   -1    0    0    0    0 -0.00000000000E+00 -0.00000000000E+00 -0.45593999997E+02  0.45594000000E+02  0.51100000000E-03 0.  1.
    9900012    2    1    2    0    0 -0.14361100248E+01  0.32663835961E+02 -0.24169794401E+02  0.50528836788E+02  0.29999929901E+02 0.  0.
         12    1    1    2    0    0  0.14361100248E+01 -0.32663835961E+02  0.24169794401E+02  0.40659163212E+02  0.00000000000E+00 0. -1.
         11    1    3    3    0    0 -0.78846304340E+01  0.22556172396E+02 -0.40036522766E+01  0.24227619406E+02  0.51100000000E-03 0. -1.
        -11    1    3    3    0    0  0.55356204529E+01 -0.14923101853E-01 -0.28588390852E+01  0.62302710755E+01  0.51100000000E-03 0.  1.
        -12    1    3    3    0    0  0.91289995622E+00  0.10122586667E+02 -0.17307303039E+02  0.20070946307E+02  0.00000000000E+00 0.  1.
</event>
<event>
 7    1  0.8986500E-014  0.5052886E+02  0.7816164E-02  0.1300439E+00
        -11   -1    0    0    0    0  0.00000000000E+00  0.00000000000E+00  0.45593999997E+02  0.45594000000E+02  0.51100000000E-03 0. -1.
         11   -1    0    0    0    0 -0.00000000000E+00 -0.00000000000E+00 -0.45593999997E+02  0.45594000000E+02  0.51100000000E-03 0.  1.
    9900012    2    1    2    0    0  0.11994159603E+02  0.16787849782E+02 -0.35035321142E+02  0.50528862129E+02  0.30000006926E+02 0.  0.
         12    1    1    2    0    0 -0.11994159603E+02 -0.16787849782E+02  0.35035321142E+02  0.40659137871E+02  0.00000000000E+00 0. -1.
         11    1    3    3    0    0  0.14954568129E+02  0.18404369640E+02 -0.16689427222E+02  0.28998222549E+02  0.51100000000E-03 0. -1.
        -11    1    3    3    0    0  0.12108259160E+01  0.18990192829E+01 -0.14919897232E+02  0.15088926645E+02  0.51100000000E-03 0.  1.
        -12    1    3    3    0    0 -0.41712344419E+01 -0.35155391403E+01 -0.34259966881E+01  0.64417129339E+01  0.00000000000E+00 0.  1.
</event>
<event>
 7    1  0.8986500E-014  0.5052886E+02  0.7816164E-02  0.1300439E+00
        -11   -1    0    0    0    0  0.00000000000E+00  0.00000000000E+00  0.45593999997E+02  0.45594000000E+02  0.51100000000E-03 0. -1.
         11   -1    0    0    0    0 -0.00000000000E+00 -0.00000000000E+00 -0.45593999997E+02  0.45594000000E+02  0.51100000000E-03 0.  1.
    9900012    2    1    2    0    0  0.25704099219E+02 -0.23722602611E+02 -0.20729286445E+02  0.50528857020E+02  0.29999991398E+02 0.  0.
         12    1    1    2    0    0 -0.25704099219E+02  0.23722602611E+02  0.20729286445E+02  0.40659142980E+02  0.00000000000E+00 0. -1.
         11    1    3    3    0    0  0.25343680139E+01 -0.22719244937E+01  0.10213525315E+01  0.35535648847E+01  0.51100000000E-03 0. -1.
        -11    1    3    3    0    0  0.10962983916E+01  0.56968204595E+01 -0.67662236133E+01  0.89127670090E+01  0.51100000000E-03 0.  1.
        -12    1    3    3    0    0  0.22073432814E+02 -0.27147498577E+02 -0.14984415364E+02  0.38062525126E+02  0.00000000000E+00 0.  1.
</event>
<event>
 7    1  0.8986500E-014  0.5052885E+02  0.7816164E-02  0.1300439E+00
        -11   -1    0    0    0    0  0.00000000000E+00  0.00000000000E+00  0.45593999997E+02  0.45594000000E+02  0.51100000000E-03 0. -1.
         11   -1    0    0    0    0 -0.00000000000E+00 -0.00000000000E+00 -0.45593999997E+02  0.45594000000E+02  0.51100000000E-03 0.  1.
    9900012    2    1    2    0    0  0.20809456813E+02 -0.30081535169E+02 -0.17754827498E+02  0.50528854037E+02  0.29999982331E+02 0.  0.
         12    1    1    2    0    0 -0.20809456813E+02  0.30081535169E+02  0.17754827498E+02  0.40659145963E+02  0.00000000000E+00 0. -1.
         11    1    3    3    0    0  0.17503199866E+02 -0.24213632601E+02 -0.15058091960E+02  0.33457557338E+02  0.51100000000E-03 0. -1.
        -11    1    3    3    0    0  0.87448128723E+01 -0.71190080063E+01 -0.18405175451E+01  0.11425389808E+02  0.51100000000E-03 0.  1.
         12    1    3    3    0    0 -0.54385559255E+01  0.12511054384E+01 -0.85621799229E+00  0.56459068911E+01  0.00000000000E+00 0. -1.
</event>
<event>
 7    1  0.8986500E-014  0.5052886E+02  0.7816164E-02  0.1300439E+00
        -11   -1    0    0    0    0  0.00000000000E+00  0.00000000000E+00  0.45593999997E+02  0.45594000000E+02  0.51100000000E-03 0.  1.
         11   -1    0    0    0    0 -0.00000000000E+00 -0.00000000000E+00 -0.45593999997E+02  0.45594000000E+02  0.51100000000E-03 0. -1.
    9900012    2    1    2    0    0 -0.74758294271E+01 -0.38267423857E+02 -0.11527435921E+02  0.50528861627E+02  0.30000005402E+02 0.  0.
        -12    1    1    2    0    0  0.74758294271E+01  0.38267423857E+02  0.11527435921E+02  0.40659138373E+02  0.00000000000E+00 0.  1.
         11    1    3    3    0    0 -0.71382149437E+01  0.70719948963E+00 -0.20845011559E+01  0.74698988635E+01  0.51100000000E-03 0. -1.
        -11    1    3    3    0    0 -0.38803121162E+01 -0.55674991258E+01 -0.63980962545E+01  0.93268164225E+01  0.51100000000E-03 0.  1.
         12    1    3    3    0    0  0.35426976329E+01 -0.33407124221E+02 -0.30448385108E+01  0.33732146341E+02  0.00000000000E+00 0. -1.
</event>
<event>
 7    1  0.8986500E-014  0.5052886E+02  0.7816164E-02  0.1300439E+00
        -11   -1    0    0    0    0  0.00000000000E+00  0.00000000000E+00  0.45593999997E+02  0.45594000000E+02  0.51100000000E-03 0. -1.
         11   -1    0    0    0    0 -0.00000000000E+00 -0.00000000000E+00 -0.45593999997E+02  0.45594000000E+02  0.51100000000E-03 0.  1.
    9900012    2    1    2    0    0 -0.18238837524E+02 -0.24377264596E+02  0.26949202354E+02  0.50528859196E+02  0.29999998011E+02 0.  0.
        -12    1    1    2    0    0  0.18238837524E+02  0.24377264596E+02 -0.26949202354E+02  0.40659140804E+02  0.00000000000E+00 0.  1.
         11    1    3    3    0    0 -0.11778219266E+02 -0.27248249796E+01  0.17360897448E+02  0.21155422017E+02  0.51100000000E-03 0. -1.
        -11    1    3    3    0    0 -0.19527517301E+01  0.24218965321E+01  0.21297141187E+01  0.37702128083E+01  0.51100000000E-03 0.  1.
        -12    1    3    3    0    0 -0.45078665284E+01 -0.24074336149E+02  0.74585907868E+01  0.25603224371E+02  0.00000000000E+00 0.  1.
</event>
<event>
 7    1  0.8986500E-014  0.5052886E+02  0.7816164E-02  0.1300439E+00
        -11   -1    0    0    0    0  0.00000000000E+00  0.00000000000E+00  0.45593999997E+02  0.45594000000E+02  0.51100000000E-03 0. -1.
         11   -1    0    0    0    0 -0.00000000000E+00 -0.00000000000E+00 -0.45593999997E+02  0.45594000000E+02  0.51100000000E-03 0.  1.
    9900012    2    1    2    0    0 -0.70496507340E+01  0.13727160877E+02  0.37616927329E+02  0.50528859048E+02  0.29999997564E+02 0.  0.
        -12    1    1    2    0    0  0.70496507340E+01 -0.13727160877E+02 -0.37616927329E+02  0.40659140952E+02  0.00000000000E+00 0.  1.
         11    1    3    3    0    0 -0.77057947554E+01  0.84928432062E+01  0.31052246410E+02  0.33102109690E+02  0.51100000000E-03 0. -1.
        -11    1    3    3    0    0 -0.54778867471E+01  0.57613444956E+01  0.78112117687E+01  0.11145194622E+02  0.51100000000E-03 0.  1.
        -12    1    3    3    0    0  0.61340307686E+01 -0.52702682458E+00 -0.12465308497E+01  0.62815547361E+01  0.00000000000E+00 0.  1.
</event>
<event>
 7    1  0.8986500E-014  0.5052886E+02  0.7816164E-02  0.1300439E+00
        -11   -1    0    0    0    0  0.00000000000E+00  0.00000000000E+00  0.45593999997E+02  0.45594000000E+02  0.51100000000E-03 0. -1.
         11   -1    0    0    0    0 -0.00000000000E+00 -0.00000000000E+00 -0.45593999997E+02  0.45594000000E+02  0.51100000000E-03 0.  1.
    9900012    2    1    2    0    0  0.12747220765E+02 -0.15554153116E+02 -0.35337551019E+02  0.50528857997E+02  0.29999994368E+02 0.  0.
         12    1    1    2    0    0 -0.12747220765E+02  0.15554153116E+02  0.35337551019E+02  0.40659142003E+02  0.00000000000E+00 0. -1.
         11    1    3    3    0    0  0.27499898856E+01 -0.60309554492E+01 -0.19938814562E+02  0.21011691850E+02  0.51100000000E-03 0. -1.
        -11    1    3    3    0    0 -0.48927247752E+01 -0.75033234631E+01 -0.10297967700E+02  0.13648690696E+02  0.51100000000E-03 0.  1.
         12    1    3    3    0    0  0.14889955655E+02 -0.20198742034E+01 -0.51007687569E+01  0.15868475450E+02  0.00000000000E+00 0. -1.
</event>
<event>
 7    1  0.8986500E-014  0.5052886E+02  0.7816164E-02  0.1300439E+00
        -11   -1    0    0    0    0  0.00000000000E+00  0.00000000000E+00  0.45593999997E+02  0.45594000000E+02  0.51100000000E-03 0. -1.
         11   -1    0    0    0    0 -0.00000000000E+00 -0.00000000000E+00 -0.45593999997E+02  0.45594000000E+02  0.51100000000E-03 0.  1.
    9900012    2    1    2    0    0  0.15690214717E+02 -0.36685130495E+02 -0.78220333729E+01  0.50528857813E+02  0.29999993809E+02 0.  0.
        -12    1    1    2    0    0 -0.15690214717E+02  0.36685130495E+02  0.78220333729E+01  0.40659142187E+02  0.00000000000E+00 0.  1.
         11    1    3    3    0    0 -0.38127566282E+01 -0.78217873845E+01 -0.43321339973E+01  0.97203321047E+01  0.51100000000E-03 0. -1.
        -11    1    3    3    0    0 -0.35905497156E+01 -0.46859369376E+01  0.31948094006E+01  0.67124406597E+01  0.51100000000E-03 0.  1.
         12    1    3    3    0    0  0.23093521061E+02 -0.24177406173E+02 -0.66847087762E+01  0.34096085049E+02  0.00000000000E+00 0. -1.
</event>
<event>
 7    1  0.8986500E-014  0.5052887E+02  0.7816164E-02  0.1300439E+00
        -11   -1    0    0    0    0  0.00000000000E+00  0.00000000000E+00  0.45593999997E+02  0.45594000000E+02  0.51100000000E-03 0. -1.
         11   -1    0    0    0    0 -0.00000000000E+00 -0.00000000000E+00 -0.45593999997E+02  0.45594000000E+02  0.51100000000E-03 0.  1.
    9900012    2    1    2    0    0  0.16552990000E+01  0.19662268433E+01 -0.40577808067E+02  0.50528873468E+02  0.30000041394E+02 0.  0.
         12    1    1    2    0    0 -0.16552990000E+01 -0.19662268433E+01  0.40577808067E+02  0.40659126532E+02  0.00000000000E+00 0. -1.
         11    1    3    3    0    0  0.57726504349E+01  0.41253026974E+01 -0.11486615010E+02  0.13501256980E+02  0.51100000000E-03 0. -1.
        -11    1    3    3    0    0  0.64687110431E+01  0.10872651161E+01 -0.23927147472E+02  0.24809972882E+02  0.51100000000E-03 0.  1.
         12    1    3    3    0    0 -0.10586062478E+02 -0.32463409702E+01 -0.51640455849E+01  0.12217643606E+02  0.00000000000E+00 0. -1.
</event>
<event>
 7    1  0.8986500E-014  0.5052886E+02  0.7816164E-02  0.1300439E+00
        -11   -1    0    0    0    0  0.00000000000E+00  0.00000000000E+00  0.45593999997E+02  0.45594000000E+02  0.51100000000E-03 0.  1.
         11   -1    0    0    0    0 -0.00000000000E+00 -0.00000000000E+00 -0.45593999997E+02  0.45594000000E+02  0.51100000000E-03 0. -1.
    9900012    2    1    2    0    0 -0.12613274774E+02  0.38646395621E+02 -0.72589354936E+00  0.50528861833E+02  0.30000006027E+02 0.  0.
        -12    1    1    2    0    0  0.12613274774E+02 -0.38646395621E+02  0.72589354936E+00  0.40659138167E+02  0.00000000000E+00 0.  1.
         11    1    3    3    0    0  0.24877600514E+01  0.19417872883E+02  0.13880195734E+01  0.19625731476E+02  0.51100000000E-03 0. -1.
        -11    1    3    3    0    0 -0.12489889154E+02  0.21396602814E+02 -0.62513832497E+01  0.25551746239E+02  0.51100000000E-03 0.  1.
        -12    1    3    3    0    0 -0.26111456707E+01 -0.21680800753E+01  0.41374701270E+01  0.53513841180E+01  0.00000000000E+00 0.  1.
</event>
<event>
 7    1  0.8986500E-014  0.5052886E+02  0.7816164E-02  0.1300439E+00
        -11   -1    0    0    0    0  0.00000000000E+00  0.00000000000E+00  0.45593999997E+02  0.45594000000E+02  0.51100000000E-03 0. -1.
         11   -1    0    0    0    0 -0.00000000000E+00 -0.00000000000E+00 -0.45593999997E+02  0.45594000000E+02  0.51100000000E-03 0.  1.
    9900012    2    1    2    0    0 -0.23951882348E+02  0.71979439584E+01  0.32057182605E+02  0.50528855619E+02  0.29999987140E+02 0.  0.
        -12    1    1    2    0    0  0.23951882348E+02 -0.71979439584E+01 -0.32057182605E+02  0.40659144381E+02  0.00000000000E+00 0.  1.
         11    1    3    3    0    0 -0.16083575350E+02  0.51152243895E+01  0.31600988345E+01  0.17170705912E+02  0.51100000000E-03 0. -1.
        -11    1    3    3    0    0 -0.88697372975E+01 -0.44561666019E+01  0.15309629834E+02  0.18245942739E+02  0.51100000000E-03 0.  1.
         12    1    3    3    0    0  0.10014302994E+01  0.65388861709E+01  0.13587453936E+02  0.15112206969E+02  0.00000000000E+00 0. -1.
</event>
<event>
 7    1  0.8986500E-014  0.5052888E+02  0.7816164E-02  0.1300439E+00
        -11   -1    0    0    0    0  0.00000000000E+00  0.00000000000E+00  0.45593999997E+02  0.45594000000E+02  0.51100000000E-03 0. -1.
         11   -1    0    0    0    0 -0.00000000000E+00 -0.00000000000E+00 -0.45593999997E+02  0.45594000000E+02  0.51100000000E-03 0.  1.
    9900012    2    1    2    0    0  0.37573316824E+01 -0.11442086299E+02  0.38834586124E+02  0.50528880977E+02  0.30000064219E+02 0.  0.
        -12    1    1    2    0    0 -0.37573316824E+01  0.11442086299E+02 -0.38834586124E+02  0.40659119023E+02  0.00000000000E+00 0.  1.
         11    1    3    3    0    0  0.56828336299E+01 -0.96683899854E+01  0.24220976747E+02  0.26691348371E+02  0.51100000000E-03 0. -1.
        -11    1    3    3    0    0  0.60206516802E+01 -0.70461970429E+01  0.78565054512E+01  0.12149971917E+02  0.51100000000E-03 0.  1.
         12    1    3    3    0    0 -0.79461536277E+01  0.52725007290E+01  0.67571039256E+01  0.11687560690E+02  0.00000000000E+00 0. -1.
</event>
<event>
 7    1  0.8986500E-014  0.5052886E+02  0.7816164E-02  0.1300439E+00
        -11   -1    0    0    0    0  0.00000000000E+00  0.00000000000E+00  0.45593999997E+02  0.45594000000E+02  0.51100000000E-03 0. -1.
         11   -1    0    0    0    0 -0.00000000000E+00 -0.00000000000E+00 -0.45593999997E+02  0.45594000000E+02  0.51100000000E-03 0.  1.
    9900012    2    1    2    0    0  0.67140763003E+00  0.12492198646E+01  0.40634396802E+02  0.50528861520E+02  0.30000005076E+02 0.  0.
        -12    1    1    2    0    0 -0.67140763003E+00 -0.12492198646E+01 -0.40634396802E+02  0.40659138480E+02  0.00000000000E+00 0.  1.
         11    1    3    3    0    0  0.76652391229E+01 -0.70230297147E+00  0.51964174323E+01  0.92871887386E+01  0.51100000000E-03 0. -1.
        -11    1    3    3    0    0  0.38249901671E+01 -0.61954015108E+01  0.15674919759E+02  0.17283421518E+02  0.51100000000E-03 0.  1.
         12    1    3    3    0    0 -0.10818821660E+02  0.81469243469E+01  0.19763059611E+02  0.23958251263E+02  0.00000000000E+00 0. -1.
</event>
<event>
 7    1  0.8986500E-014  0.5052887E+02  0.7816164E-02  0.1300439E+00
        -11   -1    0    0    0    0  0.00000000000E+00  0.00000000000E+00  0.45593999997E+02  0.45594000000E+02  0.51100000000E-03 0. -1.
         11   -1    0    0    0    0 -0.00000000000E+00 -0.00000000000E+00 -0.45593999997E+02  0.45594000000E+02  0.51100000000E-03 0.  1.
    9900012    2    1    2    0    0  0.15078402754E+02 -0.12825200760E+02 -0.35515078037E+02  0.50528870986E+02  0.30000033850E+02 0.  0.
         12    1    1    2    0    0 -0.15078402754E+02  0.12825200760E+02  0.35515078037E+02  0.40659129014E+02  0.00000000000E+00 0. -1.
         11    1    3    3    0    0 -0.37998629458E+01 -0.12653684740E+01 -0.45219766329E+01  0.60405619533E+01  0.51100000000E-03 0. -1.
        -11    1    3    3    0    0  0.26702564841E+01  0.36299659903E+01 -0.18420747958E+02  0.18963936257E+02  0.51100000000E-03 0.  1.
        -12    1    3    3    0    0  0.16208009216E+02 -0.15189798276E+02 -0.12572353447E+02  0.25524372776E+02  0.00000000000E+00 0.  1.
</event>
<event>
 7    1  0.8986500E-014  0.5052887E+02  0.7816164E-02  0.1300439E+00
        -11   -1    0    0    0    0  0.00000000000E+00  0.00000000000E+00  0.45593999997E+02  0.45594000000E+02  0.51100000000E-03 0. -1.
         11   -1    0    0    0    0 -0.00000000000E+00 -0.00000000000E+00 -0.45593999997E+02  0.45594000000E+02  0.51100000000E-03 0.  1.
    9900012    2    1    2    0    0 -0.20861425595E+02  0.11672712543E+02 -0.32889416602E+02  0.50528867934E+02  0.30000024571E+02 0.  0.
         12    1    1    2    0    0  0.20861425595E+02 -0.11672712543E+02  0.32889416602E+02  0.40659132066E+02  0.00000000000E+00 0. -1.
         11    1    3    3    0    0 -0.10061863185E+02  0.33565417036E+01 -0.13901152102E+02  0.17485693952E+02  0.51100000000E-03 0. -1.
        -11    1    3    3    0    0  0.42064791635E+01 -0.20506762220E+01 -0.13047373074E+02  0.13861229538E+02  0.51100000000E-03 0.  1.
        -12    1    3    3    0    0 -0.15006041574E+02  0.10366847062E+02 -0.59408914264E+01  0.19181944444E+02  0.00000000000E+00 0.  1.
</event>
<event>
 7    1  0.8986500E-014  0.5052887E+02  0.7816164E-02  0.1300439E+00
        -11   -1    0    0    0    0  0.00000000000E+00  0.00000000000E+00  0.45593999997E+02  0.45594000000E+02  0.51100000000E-03 0. -1.
         11   -1    0    0    0    0 -0.00000000000E+00 -0.00000000000E+00 -0.45593999997E+02  0.45594000000E+02  0.51100000000E-03 0.  1.
    9900012    2    1    2    0    0  0.15916501398E+02  0.50367460686E+01 -0.37073721769E+02  0.50528872199E+02  0.30000037536E+02 0.  0.
         12    1    1    2    0    0 -0.15916501398E+02 -0.50367460686E+01  0.37073721769E+02  0.40659127801E+02  0.00000000000E+00 0. -1.
         11    1    3    3    0    0 -0.17864287132E+01 -0.47784894462E+01 -0.47953826250E+01  0.70014986764E+01  0.51100000000E-03 0.  1.
        -11    1    3    3    0    0  0.94533395638E+01  0.10486607955E+02 -0.49309380326E+01  0.14954889684E+02  0.51100000000E-03 0. -1.
         12    1    3    3    0    0  0.82495905471E+01 -0.67137244051E+00 -0.27347401112E+02  0.28572483839E+02  0.00000000000E+00 0. -1.
</event>
<event>
 7    1  0.8986500E-014  0.5052891E+02  0.7816164E-02  0.1300439E+00
        -11   -1    0    0    0    0  0.00000000000E+00  0.00000000000E+00  0.45593999997E+02  0.45594000000E+02  0.51100000000E-03 0. -1.
         11   -1    0    0    0    0 -0.00000000000E+00 -0.00000000000E+00 -0.45593999997E+02  0.45594000000E+02  0.51100000000E-03 0.  1.
    9900012    2    1    2    0    0  0.44495072105E+01 -0.22952267807E+02  0.33264950369E+02  0.50528909565E+02  0.30000151113E+02 0.  0.
        -12    1    1    2    0    0 -0.44495072105E+01  0.22952267807E+02 -0.33264950369E+02  0.40659090435E+02  0.00000000000E+00 0.  1.
         11    1    3    3    0    0 -0.35691263172E-02 -0.24139704306E+02  0.31319044132E+02  0.39542481742E+02  0.51100000000E-03 0. -1.
        -11    1    3    3    0    0 -0.27012547151E+01 -0.78976285905E+00  0.21804929464E+01  0.35602039492E+01  0.51100000000E-03 0.  1.
        -12    1    3    3    0    0  0.71543310520E+01  0.19771993574E+01 -0.23458670909E+00  0.74262238738E+01  0.00000000000E+00 0.  1.
</event>
<event>
 7    1  0.8986500E-014  0.5052885E+02  0.7816164E-02  0.1300439E+00
        -11   -1    0    0    0    0  0.00000000000E+00  0.00000000000E+00  0.45593999997E+02  0.45594000000E+02  0.51100000000E-03 0. -1.
         11   -1    0    0    0    0 -0.00000000000E+00 -0.00000000000E+00 -0.45593999997E+02  0.45594000000E+02  0.51100000000E-03 0.  1.
    9900012    2    1    2    0    0 -0.37096107965E+02 -0.14547819821E+02  0.80874318028E+01  0.50528845547E+02  0.29999956524E+02 0.  0.
         12    1    1    2    0    0  0.37096107965E+02  0.14547819821E+02 -0.80874318028E+01  0.40659154453E+02  0.00000000000E+00 0. -1.
         11    1    3    3    0    0 -0.17547774043E+01  0.37587096858E+01  0.48022213796E+01  0.63457444544E+01  0.51100000000E-03 0. -1.
        -11    1    3    3    0    0 -0.26090671435E+02 -0.33512030244E+01  0.38705180780E+01  0.26588241914E+02  0.51100000000E-03 0.  1.
        -12    1    3    3    0    0 -0.92506591255E+01 -0.14955326482E+02 -0.58530765479E+00  0.17594859178E+02  0.00000000000E+00 0.  1.
</event>
<event>
 7    1  0.1745770E-013  0.5052886E+02  0.7816164E-02  0.1300439E+00
        -11   -1    0    0    0    0  0.00000000000E+00  0.00000000000E+00  0.45593999997E+02  0.45594000000E+02  0.51100000000E-03 0. -1.
         11   -1    0    0    0    0 -0.00000000000E+00 -0.00000000000E+00 -0.45593999997E+02  0.45594000000E+02  0.51100000000E-03 0.  1.
    9900012    2    1    2    0    0  0.15748443421E+02 -0.45940804715E+01  0.37202773086E+02  0.50528863624E+02  0.30000011470E+02 0.  0.
        -12    1    1    2    0    0 -0.15748443421E+02  0.45940804715E+01 -0.37202773086E+02  0.40659136376E+02  0.00000000000E+00 0.  1.
         11    1    3    3    0    0  0.32692054916E-02  0.56253175979E+01  0.63057253372E+01  0.84502296450E+01  0.51100000000E-03 0. -1.
        -11    1    3    3    0    0  0.26160401805E+01  0.11614453181E+01 -0.29013641402E+01  0.40756024816E+01  0.51100000000E-03 0.  1.
         12    1    3    3    0    0  0.13129134035E+02 -0.11380843388E+02  0.33798411889E+02  0.38003031497E+02  0.00000000000E+00 0. -1.
</event>
<event>
 7    1  0.8986500E-014  0.5052886E+02  0.7816164E-02  0.1300439E+00
        -11   -1    0    0    0    0  0.00000000000E+00  0.00000000000E+00  0.45593999997E+02  0.45594000000E+02  0.51100000000E-03 0. -1.
         11   -1    0    0    0    0 -0.00000000000E+00 -0.00000000000E+00 -0.45593999997E+02  0.45594000000E+02  0.51100000000E-03 0.  1.
    9900012    2    1    2    0    0 -0.12315688217E+01 -0.13358902446E+02  0.38382143591E+02  0.50528856097E+02  0.29999988592E+02 0.  0.
        -12    1    1    2    0    0  0.12315688217E+01  0.13358902446E+02 -0.38382143591E+02  0.40659143903E+02  0.00000000000E+00 0.  1.
         11    1    3    3    0    0 -0.32638030505E-01 -0.49651074494E+01  0.43135363896E+01  0.65772299390E+01  0.51100000000E-03 0. -1.
        -11    1    3    3    0    0  0.86165913558E+01 -0.11955426485E+02  0.10268199199E+02  0.17961452728E+02  0.51100000000E-03 0.  1.
         12    1    3    3    0    0 -0.98155221470E+01  0.35616314883E+01  0.23800408002E+02  0.25990173430E+02  0.00000000000E+00 0. -1.
</event>
<event>
 7    1  0.8986500E-014  0.5052884E+02  0.7816164E-02  0.1300439E+00
        -11   -1    0    0    0    0  0.00000000000E+00  0.00000000000E+00  0.45593999997E+02  0.45594000000E+02  0.51100000000E-03 0. -1.
         11   -1    0    0    0    0 -0.00000000000E+00 -0.00000000000E+00 -0.45593999997E+02  0.45594000000E+02  0.51100000000E-03 0.  1.
    9900012    2    1    2    0    0 -0.14276231583E+02 -0.35491530833E+02 -0.13773447522E+02  0.50528838601E+02  0.29999935410E+02 0.  0.
         12    1    1    2    0    0  0.14276231583E+02  0.35491530833E+02  0.13773447522E+02  0.40659161399E+02  0.00000000000E+00 0. -1.
         11    1    3    3    0    0 -0.90580196402E+01 -0.15721990119E+01  0.34912323222E+01  0.98340344175E+01  0.51100000000E-03 0. -1.
        -11    1    3    3    0    0 -0.98428862843E+00 -0.18536894984E+02 -0.20969953081E+01  0.18681078378E+02  0.51100000000E-03 0.  1.
        -12    1    3    3    0    0 -0.42339233143E+01 -0.15382436837E+02 -0.15167684536E+02  0.22013725806E+02  0.00000000000E+00 0.  1.
</event>
<event>
 7    1  0.8986500E-014  0.5052888E+02  0.7816164E-02  0.1300439E+00
        -11   -1    0    0    0    0  0.00000000000E+00  0.00000000000E+00  0.45593999997E+02  0.45594000000E+02  0.51100000000E-03 0. -1.
         11   -1    0    0    0    0 -0.00000000000E+00 -0.00000000000E+00 -0.45593999997E+02  0.45594000000E+02  0.51100000000E-03 0.  1.
    9900012    2    1    2    0    0  0.31515263764E+02  0.10077260027E+02 -0.23630509120E+02  0.50528880715E+02  0.30000063421E+02 0.  0.
         12    1    1    2    0    0 -0.31515263764E+02 -0.10077260027E+02  0.23630509120E+02  0.40659119285E+02  0.00000000000E+00 0. -1.
         11    1    3    3    0    0  0.11952679472E+02  0.44913662648E+01  0.44481468748E+01  0.13521276876E+02  0.51100000000E-03 0. -1.
        -11    1    3    3    0    0  0.46454358773E+01 -0.40930026233E+01 -0.56204296772E+01  0.83619360786E+01  0.51100000000E-03 0.  1.
         12    1    3    3    0    0  0.14917148415E+02  0.96788963858E+01 -0.22458226318E+02  0.28645667760E+02  0.00000000000E+00 0. -1.
</event>
<event>
 7    1  0.8986500E-014  0.5052886E+02  0.7816164E-02  0.1300439E+00
        -11   -1    0    0    0    0  0.00000000000E+00  0.00000000000E+00  0.45593999997E+02  0.45594000000E+02  0.51100000000E-03 0.  1.
         11   -1    0    0    0    0 -0.00000000000E+00 -0.00000000000E+00 -0.45593999997E+02  0.45594000000E+02  0.51100000000E-03 0. -1.
    9900012    2    1    2    0    0  0.25636804471E+02  0.26082586079E+02  0.17765662130E+02  0.50528858458E+02  0.29999995769E+02 0.  0.
        -12    1    1    2    0    0 -0.25636804471E+02 -0.26082586079E+02 -0.17765662130E+02  0.40659141542E+02  0.00000000000E+00 0.  1.
         11    1    3    3    0    0  0.16650367083E+02  0.72955080811E+01  0.99252195596E+01  0.20711570335E+02  0.51100000000E-03 0. -1.
        -11    1    3    3    0    0  0.95504562203E+01  0.21472930085E+02  0.10727763781E+02  0.25833754208E+02  0.51100000000E-03 0.  1.
        -12    1    3    3    0    0 -0.56401883306E+00 -0.26858520876E+01 -0.28873212110E+01  0.39835339155E+01  0.00000000000E+00 0.  1.
</event>
<event>
 7    1  0.8986500E-014  0.5052886E+02  0.7816164E-02  0.1300439E+00
        -11   -1    0    0    0    0  0.00000000000E+00  0.00000000000E+00  0.45593999997E+02  0.45594000000E+02  0.51100000000E-03 0.  1.
         11   -1    0    0    0    0 -0.00000000000E+00 -0.00000000000E+00 -0.45593999997E+02  0.45594000000E+02  0.51100000000E-03 0. -1.
    9900012    2    1    2    0    0 -0.20004423698E+02  0.32739822036E+02  0.13457080720E+02  0.50528856675E+02  0.29999990349E+02 0.  0.
        -12    1    1    2    0    0  0.20004423698E+02 -0.32739822036E+02 -0.13457080720E+02  0.40659143325E+02  0.00000000000E+00 0.  1.
         11    1    3    3    0    0 -0.16539774633E+02  0.12357467691E+02 -0.22606052828E+01  0.20769725302E+02  0.51100000000E-03 0. -1.
        -11    1    3    3    0    0 -0.40770865587E+01 -0.42846331445E+00  0.87953573202E+00  0.41928270873E+01  0.51100000000E-03 0.  1.
        -12    1    3    3    0    0  0.61243749348E+00  0.20810817659E+02  0.14838150271E+02  0.25566304285E+02  0.00000000000E+00 0.  1.
</event>
<event>
 7    1  0.8986500E-014  0.5052884E+02  0.7816164E-02  0.1300439E+00
        -11   -1    0    0    0    0  0.00000000000E+00  0.00000000000E+00  0.45593999997E+02  0.45594000000E+02  0.51100000000E-03 0.  1.
         11   -1    0    0    0    0 -0.00000000000E+00 -0.00000000000E+00 -0.45593999997E+02  0.45594000000E+02  0.51100000000E-03 0. -1.
    9900012    2    1    2    0    0 -0.23619969557E+02 -0.24376586891E+02 -0.22384063509E+02  0.50528840521E+02  0.29999941248E+02 0.  0.
         12    1    1    2    0    0  0.23619969557E+02  0.24376586891E+02  0.22384063509E+02  0.40659159479E+02  0.00000000000E+00 0. -1.
         11    1    3    3    0    0 -0.26541097025E+01  0.86778139754E+00 -0.93189125340E+01  0.97282821682E+01  0.51100000000E-03 0. -1.
        -11    1    3    3    0    0 -0.45869105583E+01  0.27764654356E+01 -0.50574223549E+01  0.73706193717E+01  0.51100000000E-03 0.  1.
        -12    1    3    3    0    0 -0.16378949296E+02 -0.28020833724E+02 -0.80077286204E+01  0.33429938981E+02  0.00000000000E+00 0.  1.
</event>
<event>
 7    1  0.8986500E-014  0.5052886E+02  0.7816164E-02  0.1300439E+00
        -11   -1    0    0    0    0  0.00000000000E+00  0.00000000000E+00  0.45593999997E+02  0.45594000000E+02  0.51100000000E-03 0. -1.
         11   -1    0    0    0    0 -0.00000000000E+00 -0.00000000000E+00 -0.45593999997E+02  0.45594000000E+02  0.51100000000E-03 0.  1.
    9900012    2    1    2    0    0  0.25726163806E+02 -0.16107348477E+02  0.27053340285E+02  0.50528863269E+02  0.30000010392E+02 0.  0.
        -12    1    1    2    0    0 -0.25726163806E+02  0.16107348477E+02 -0.27053340285E+02  0.40659136731E+02  0.00000000000E+00 0.  1.
         11    1    3    3    0    0  0.64171210434E+01 -0.62215517149E+01  0.44545990447E+01  0.99865209727E+01  0.51100000000E-03 0. -1.
        -11    1    3    3    0    0  0.97622200047E+01 -0.95916773467E+01  0.26812077179E+02  0.30102968237E+02  0.51100000000E-03 0.  1.
        -12    1    3    3    0    0  0.95468227582E+01 -0.29411941528E+00 -0.42133359391E+01  0.10439374059E+02  0.00000000000E+00 0.  1.
</event>
<event>
 7    1  0.8986500E-014  0.5052886E+02  0.7816164E-02  0.1300439E+00
        -11   -1    0    0    0    0  0.00000000000E+00  0.00000000000E+00  0.45593999997E+02  0.45594000000E+02  0.51100000000E-03 0. -1.
         11   -1    0    0    0    0 -0.00000000000E+00 -0.00000000000E+00 -0.45593999997E+02  0.45594000000E+02  0.51100000000E-03 0.  1.
    9900012    2    1    2    0    0  0.28436263280E+02 -0.15540102778E+02  0.24557073550E+02  0.50528859269E+02  0.29999998234E+02 0.  0.
        -12    1    1    2    0    0 -0.28436263280E+02  0.15540102778E+02 -0.24557073550E+02  0.40659140731E+02  0.00000000000E+00 0.  1.
         11    1    3    3    0    0  0.12241675588E+02 -0.19306877817E+02  0.11757587662E+02  0.25707100578E+02  0.51100000000E-03 0. -1.
        -11    1    3    3    0    0  0.44514870138E+01 -0.46113491516E+01  0.17304402752E+01  0.66388780256E+01  0.51100000000E-03 0.  1.
        -12    1    3    3    0    0  0.11743100678E+02  0.83781241911E+01  0.11069045613E+02  0.18182880665E+02  0.00000000000E+00 0.  1.
</event>
<event>
 7    1  0.9537951E-014  0.5052886E+02  0.7816164E-02  0.1300439E+00
        -11   -1    0    0    0    0  0.00000000000E+00  0.00000000000E+00  0.45593999997E+02  0.45594000000E+02  0.51100000000E-03 0. -1.
         11   -1    0    0    0    0 -0.00000000000E+00 -0.00000000000E+00 -0.45593999997E+02  0.45594000000E+02  0.51100000000E-03 0.  1.
    9900012    2    1    2    0    0 -0.11709235900E+02 -0.24149852943E+02  0.30542493199E+02  0.50528862118E+02  0.30000006894E+02 0.  0.
        -12    1    1    2    0    0  0.11709235900E+02  0.24149852943E+02 -0.30542493199E+02  0.40659137882E+02  0.00000000000E+00 0.  1.
         11    1    3    3    0    0 -0.86717318421E+01 -0.16422707870E+02  0.85425246211E+01  0.20442088790E+02  0.51100000000E-03 0. -1.
        -11    1    3    3    0    0 -0.53053090405E+01  0.87898538828E+00  0.20332975657E+02  0.21032090212E+02  0.51100000000E-03 0.  1.
         12    1    3    3    0    0  0.22678049822E+01 -0.86061304607E+01  0.16669929202E+01  0.90546831165E+01  0.00000000000E+00 0. -1.
</event>
<event>
 7    1  0.8986500E-014  0.5052886E+02  0.7816164E-02  0.1300439E+00
        -11   -1    0    0    0    0  0.00000000000E+00  0.00000000000E+00  0.45593999997E+02  0.45594000000E+02  0.51100000000E-03 0.  1.
         11   -1    0    0    0    0 -0.00000000000E+00 -0.00000000000E+00 -0.45593999997E+02  0.45594000000E+02  0.51100000000E-03 0. -1.
    9900012    2    1    2    0    0  0.21986276757E+02  0.28275553821E+02 -0.19242205194E+02  0.50528858713E+02  0.29999996544E+02 0.  0.
         12    1    1    2    0    0 -0.21986276757E+02 -0.28275553821E+02  0.19242205194E+02  0.40659141287E+02  0.00000000000E+00 0. -1.
         11    1    3    3    0    0 -0.35501576922E+01  0.77584123585E+01 -0.15592710947E+01  0.86734023642E+01  0.51100000000E-03 0. -1.
        -11    1    3    3    0    0  0.13050952926E+02  0.11990562178E+02 -0.19817473668E+02  0.26586335145E+02  0.51100000000E-03 0.  1.
        -12    1    3    3    0    0  0.12485481523E+02  0.85265792839E+01  0.21345395689E+01  0.15269121203E+02  0.00000000000E+00 0.  1.
</event>
<event>
 7    1  0.8986500E-014  0.5052886E+02  0.7816164E-02  0.1300439E+00
        -11   -1    0    0    0    0  0.00000000000E+00  0.00000000000E+00  0.45593999997E+02  0.45594000000E+02  0.51100000000E-03 0. -1.
         11   -1    0    0    0    0 -0.00000000000E+00 -0.00000000000E+00 -0.45593999997E+02  0.45594000000E+02  0.51100000000E-03 0.  1.
    9900012    2    1    2    0    0  0.46983570686E+01 -0.32774464142E+02  0.23599268605E+02  0.50528861573E+02  0.30000005238E+02 0.  0.
        -12    1    1    2    0    0 -0.46983570686E+01  0.32774464142E+02 -0.23599268605E+02  0.40659138427E+02  0.00000000000E+00 0.  1.
         11    1    3    3    0    0  0.16512016982E+01 -0.64599409057E+01  0.10630967043E+02  0.12548894934E+02  0.51100000000E-03 0. -1.
        -11    1    3    3    0    0 -0.54358603268E+01 -0.13111637525E+02  0.16631535848E+02  0.21864848524E+02  0.51100000000E-03 0.  1.
        -12    1    3    3    0    0  0.84830156972E+01 -0.13202885711E+02 -0.36632342855E+01  0.16115118115E+02  0.00000000000E+00 0.  1.
</event>
<event>
 7    1  0.8986500E-014  0.5052885E+02  0.7816164E-02  0.1300439E+00
        -11   -1    0    0    0    0  0.00000000000E+00  0.00000000000E+00  0.45593999997E+02  0.45594000000E+02  0.51100000000E-03 0.  1.
         11   -1    0    0    0    0 -0.00000000000E+00 -0.00000000000E+00 -0.45593999997E+02  0.45594000000E+02  0.51100000000E-03 0. -1.
    9900012    2    1    2    0    0 -0.31162584345E+02  0.41644332896E+01  0.25782110586E+02  0.50528851043E+02  0.29999973229E+02 0.  0.
        -12    1    1    2    0    0  0.31162584345E+02 -0.41644332896E+01 -0.25782110586E+02  0.40659148957E+02  0.00000000000E+00 0.  1.
         11    1    3    3    0    0 -0.40117044989E+01  0.51139567907E+01  0.85168271753E+01  0.10713667553E+02  0.51100000000E-03 0. -1.
        -11    1    3    3    0    0 -0.20913905637E+02  0.80311505159E+01  0.18168201463E+02  0.28843965960E+02  0.51100000000E-03 0.  1.
        -12    1    3    3    0    0 -0.62369742084E+01 -0.89806740170E+01 -0.90291805253E+00  0.10971217530E+02  0.00000000000E+00 0.  1.
</event>
<event>
 7    1  0.8986500E-014  0.5052888E+02  0.7816164E-02  0.1300439E+00
        -11   -1    0    0    0    0  0.00000000000E+00  0.00000000000E+00  0.45593999997E+02  0.45594000000E+02  0.51100000000E-03 0.  1.
         11   -1    0    0    0    0 -0.00000000000E+00 -0.00000000000E+00 -0.45593999997E+02  0.45594000000E+02  0.51100000000E-03 0. -1.
    9900012    2    1    2    0    0 -0.87487035715E+01  0.38497700627E+02 -0.97237655699E+01  0.50528875752E+02  0.30000048336E+02 0.  0.
        -12    1    1    2    0    0  0.87487035715E+01 -0.38497700627E+02  0.97237655699E+01  0.40659124248E+02  0.00000000000E+00 0.  1.
         11    1    3    3    0    0 -0.11447518276E+02  0.18153324622E+02  0.94463173533E+00  0.21482113464E+02  0.51100000000E-03 0. -1.
        -11    1    3    3    0    0 -0.73179063800E+01  0.62995624425E+01 -0.25847313204E+01  0.99958529908E+01  0.51100000000E-03 0.  1.
         12    1    3    3    0    0  0.10016721085E+02  0.14044813562E+02 -0.80836659848E+01  0.19050909297E+02  0.00000000000E+00 0. -1.
</event>
<event>
 7    1  0.8986500E-014  0.5052886E+02  0.7816164E-02  0.1300439E+00
        -11   -1    0    0    0    0  0.00000000000E+00  0.00000000000E+00  0.45593999997E+02  0.45594000000E+02  0.51100000000E-03 0.  1.
         11   -1    0    0    0    0 -0.00000000000E+00 -0.00000000000E+00 -0.45593999997E+02  0.45594000000E+02  0.51100000000E-03 0. -1.
    9900012    2    1    2    0    0  0.67986686713E+01  0.17502854146E+02  0.36063751367E+02  0.50528856358E+02  0.29999989387E+02 0.  0.
        -12    1    1    2    0    0 -0.67986686713E+01 -0.17502854146E+02 -0.36063751367E+02  0.40659143642E+02  0.00000000000E+00 0.  1.
         11    1    3    3    0    0  0.45321072573E+01 -0.26718611186E+01  0.44834145345E+01  0.69122965922E+01  0.51100000000E-03 0. -1.
        -11    1    3    3    0    0  0.10133912473E+02  0.40431766583E+01  0.62554780608E+01  0.12576743041E+02  0.51100000000E-03 0.  1.
        -12    1    3    3    0    0 -0.78673510587E+01  0.16131538607E+02  0.25324858772E+02  0.31039816725E+02  0.00000000000E+00 0.  1.
</event>
<event>
 7    1  0.8986500E-014  0.5052886E+02  0.7816164E-02  0.1300439E+00
        -11   -1    0    0    0    0  0.00000000000E+00  0.00000000000E+00  0.45593999997E+02  0.45594000000E+02  0.51100000000E-03 0. -1.
         11   -1    0    0    0    0 -0.00000000000E+00 -0.00000000000E+00 -0.45593999997E+02  0.45594000000E+02  0.51100000000E-03 0.  1.
    9900012    2    1    2    0    0 -0.29155729242E+02 -0.20142785790E+02 -0.19934324630E+02  0.50528860001E+02  0.30000000459E+02 0.  0.
         12    1    1    2    0    0  0.29155729242E+02  0.20142785790E+02  0.19934324630E+02  0.40659139999E+02  0.00000000000E+00 0. -1.
         11    1    3    3    0    0 -0.47012708832E+01 -0.59094942751E+01  0.19749036553E+01  0.78054029501E+01  0.51100000000E-03 0. -1.
        -11    1    3    3    0    0 -0.15183702551E+02 -0.70273704589E+01  0.12292583358E+01  0.16776168664E+02  0.51100000000E-03 0.  1.
         12    1    3    3    0    0 -0.92707558071E+01 -0.72059210562E+01 -0.23138486621E+02  0.25947288387E+02  0.00000000000E+00 0. -1.
</event>
<event>
 7    1  0.8986500E-014  0.5052886E+02  0.7816164E-02  0.1300439E+00
        -11   -1    0    0    0    0  0.00000000000E+00  0.00000000000E+00  0.45593999997E+02  0.45594000000E+02  0.51100000000E-03 0. -1.
         11   -1    0    0    0    0 -0.00000000000E+00 -0.00000000000E+00 -0.45593999997E+02  0.45594000000E+02  0.51100000000E-03 0.  1.
    9900012    2    1    2    0    0  0.14206984705E+02 -0.14103267821E+02  0.35389613380E+02  0.50528864338E+02  0.30000013642E+02 0.  0.
        -12    1    1    2    0    0 -0.14206984705E+02  0.14103267821E+02 -0.35389613380E+02  0.40659135662E+02  0.00000000000E+00 0.  1.
         11    1    3    3    0    0  0.37391536918E+01  0.22771250470E+01  0.87249664259E+01  0.97617420681E+01  0.51100000000E-03 0. -1.
        -11    1    3    3    0    0 -0.71456093672E+01 -0.14663807663E+01  0.35855870900E+01  0.81281265259E+01  0.51100000000E-03 0.  1.
         12    1    3    3    0    0  0.17613440380E+02 -0.14914012101E+02  0.23079059864E+02  0.32638995744E+02  0.00000000000E+00 0. -1.
</event>
<event>
 7    1  0.8986500E-014  0.5052887E+02  0.7816164E-02  0.1300439E+00
        -11   -1    0    0    0    0  0.00000000000E+00  0.00000000000E+00  0.45593999997E+02  0.45594000000E+02  0.51100000000E-03 0. -1.
         11   -1    0    0    0    0 -0.00000000000E+00 -0.00000000000E+00 -0.45593999997E+02  0.45594000000E+02  0.51100000000E-03 0.  1.
    9900012    2    1    2    0    0 -0.65182321661E+01  0.79491757215E+01 -0.39338129620E+02  0.50528865882E+02  0.30000018335E+02 0.  0.
         12    1    1    2    0    0  0.65182321661E+01 -0.79491757215E+01  0.39338129620E+02  0.40659134118E+02  0.00000000000E+00 0. -1.
         11    1    3    3    0    0  0.11093614276E+01 -0.15639288444E+00  0.24104276678E+01  0.26580638281E+01  0.51100000000E-03 0. -1.
        -11    1    3    3    0    0  0.12975916550E+01 -0.18007467275E+01 -0.30051655411E+02  0.30133510019E+02  0.51100000000E-03 0.  1.
         12    1    3    3    0    0 -0.89251852488E+01  0.99063153335E+01 -0.11696901877E+02  0.17737292035E+02  0.00000000000E+00 0. -1.
</event>
<event>
 7    1  0.8986500E-014  0.5052886E+02  0.7816164E-02  0.1300439E+00
        -11   -1    0    0    0    0  0.00000000000E+00  0.00000000000E+00  0.45593999997E+02  0.45594000000E+02  0.51100000000E-03 0. -1.
         11   -1    0    0    0    0 -0.00000000000E+00 -0.00000000000E+00 -0.45593999997E+02  0.45594000000E+02  0.51100000000E-03 0.  1.
    9900012    2    1    2    0    0  0.24658615174E+02 -0.15496249752E+02 -0.28372255872E+02  0.50528856355E+02  0.29999989376E+02 0.  0.
         12    1    1    2    0    0 -0.24658615174E+02  0.15496249752E+02  0.28372255872E+02  0.40659143645E+02  0.00000000000E+00 0. -1.
         11    1    3    3    0    0 -0.54885336499E+01 -0.25785668217E+01 -0.64639885371E+01  0.88631911042E+01  0.51100000000E-03 0. -1.
        -11    1    3    3    0    0  0.29236152785E+01  0.27004941158E+01 -0.16402944866E+01  0.43047370454E+01  0.51100000000E-03 0.  1.
        -12    1    3    3    0    0  0.27223533546E+02 -0.15618177046E+02 -0.20267972849E+02  0.37360928205E+02  0.00000000000E+00 0.  1.
</event>
<event>
 7    1  0.8986500E-014  0.5052885E+02  0.7816164E-02  0.1300439E+00
        -11   -1    0    0    0    0  0.00000000000E+00  0.00000000000E+00  0.45593999997E+02  0.45594000000E+02  0.51100000000E-03 0. -1.
         11   -1    0    0    0    0 -0.00000000000E+00 -0.00000000000E+00 -0.45593999997E+02  0.45594000000E+02  0.51100000000E-03 0.  1.
    9900012    2    1    2    0    0 -0.18576016564E+02  0.17432961220E+02  0.31688950278E+02  0.50528854681E+02  0.29999984290E+02 0.  0.
        -12    1    1    2    0    0  0.18576016564E+02 -0.17432961220E+02 -0.31688950278E+02  0.40659145319E+02  0.00000000000E+00 0.  1.
         11    1    3    3    0    0 -0.59171925502E+01  0.10247222194E+02  0.50579392985E+01  0.12868623881E+02  0.51100000000E-03 0. -1.
        -11    1    3    3    0    0 -0.21174526734E+01  0.12878048733E+01 -0.40157434938E+01  0.47189239541E+01  0.51100000000E-03 0.  1.
         12    1    3    3    0    0 -0.10541371341E+02  0.58979341527E+01  0.30646754474E+02  0.32941306847E+02  0.00000000000E+00 0. -1.
</event>
<event>
 7    1  0.8986500E-014  0.5052884E+02  0.7816164E-02  0.1300439E+00
        -11   -1    0    0    0    0  0.00000000000E+00  0.00000000000E+00  0.45593999997E+02  0.45594000000E+02  0.51100000000E-03 0.  1.
         11   -1    0    0    0    0 -0.00000000000E+00 -0.00000000000E+00 -0.45593999997E+02  0.45594000000E+02  0.51100000000E-03 0. -1.
    9900012    2    1    2    0    0  0.16297998470E+02  0.36542378189E+02  0.72247354945E+01  0.50528844072E+02  0.29999952040E+02 0.  0.
         12    1    1    2    0    0 -0.16297998470E+02 -0.36542378189E+02 -0.72247354945E+01  0.40659155928E+02  0.00000000000E+00 0. -1.
         11    1    3    3    0    0  0.25806983323E+01  0.66157673355E+00 -0.35661399695E+00  0.26879102405E+01  0.51100000000E-03 0. -1.
        -11    1    3    3    0    0  0.28294369080E+01  0.18293128281E+02  0.16981603142E+02  0.25120093572E+02  0.51100000000E-03 0.  1.
        -12    1    3    3    0    0  0.10887863229E+02  0.17587673175E+02 -0.94002536506E+01  0.22720840259E+02  0.00000000000E+00 0.  1.
</event>
<event>
 7    1  0.8986500E-014  0.5052886E+02  0.7816164E-02  0.1300439E+00
        -11   -1    0    0    0    0  0.00000000000E+00  0.00000000000E+00  0.45593999997E+02  0.45594000000E+02  0.51100000000E-03 0. -1.
         11   -1    0    0    0    0 -0.00000000000E+00 -0.00000000000E+00 -0.45593999997E+02  0.45594000000E+02  0.51100000000E-03 0.  1.
    9900012    2    1    2    0    0 -0.71856936372E+01 -0.21844368033E+02 -0.33531403915E+02  0.50528860113E+02  0.30000000800E+02 0.  0.
         12    1    1    2    0    0  0.71856936372E+01  0.21844368033E+02  0.33531403915E+02  0.40659139887E+02  0.00000000000E+00 0. -1.
         11    1    3    3    0    0 -0.73436361192E+01 -0.25605936715E+01 -0.27831802020E+01  0.82602496149E+01  0.51100000000E-03 0. -1.
        -11    1    3    3    0    0 -0.98591855079E+01 -0.12459085465E+02 -0.11863478529E+02  0.19828627602E+02  0.51100000000E-03 0.  1.
         12    1    3    3    0    0  0.10017127990E+02 -0.68246888963E+01 -0.18884745185E+02  0.22439982896E+02  0.00000000000E+00 0. -1.
</event>
<event>
 7    1  0.8986500E-014  0.5052887E+02  0.7816164E-02  0.1300439E+00
        -11   -1    0    0    0    0  0.00000000000E+00  0.00000000000E+00  0.45593999997E+02  0.45594000000E+02  0.51100000000E-03 0. -1.
         11   -1    0    0    0    0 -0.00000000000E+00 -0.00000000000E+00 -0.45593999997E+02  0.45594000000E+02  0.51100000000E-03 0.  1.
    9900012    2    1    2    0    0  0.14080790356E+01  0.70632454756E+01 -0.40016157940E+02  0.50528867944E+02  0.30000024603E+02 0.  0.
         12    1    1    2    0    0 -0.14080790356E+01 -0.70632454756E+01  0.40016157940E+02  0.40659132056E+02  0.00000000000E+00 0. -1.
         11    1    3    3    0    0 -0.46437067817E+00 -0.55706666359E+00 -0.35162265785E+01  0.35902385725E+01  0.51100000000E-03 0. -1.
        -11    1    3    3    0    0  0.14857999249E+02  0.69075690079E+01 -0.18211598971E+02  0.24497693537E+02  0.51100000000E-03 0.  1.
         12    1    3    3    0    0 -0.12985549535E+02  0.71274313127E+00 -0.18288332391E+02  0.22440935835E+02  0.00000000000E+00 0. -1.
</event>
<event>
 7    1  0.8986500E-014  0.5052886E+02  0.7816164E-02  0.1300439E+00
        -11   -1    0    0    0    0  0.00000000000E+00  0.00000000000E+00  0.45593999997E+02  0.45594000000E+02  0.51100000000E-03 0. -1.
         11   -1    0    0    0    0 -0.00000000000E+00 -0.00000000000E+00 -0.45593999997E+02  0.45594000000E+02  0.51100000000E-03 0.  1.
    9900012    2    1    2    0    0  0.27566235027E+02 -0.21504622615E+02  0.20756185165E+02  0.50528864127E+02  0.30000012999E+02 0.  0.
        -12    1    1    2    0    0 -0.27566235027E+02  0.21504622615E+02 -0.20756185165E+02  0.40659135873E+02  0.00000000000E+00 0.  1.
         11    1    3    3    0    0  0.32036402039E+01 -0.15685372832E+02  0.45124328726E+00  0.16015550325E+02  0.51100000000E-03 0. -1.
        -11    1    3    3    0    0  0.51941202720E+01 -0.65486128932E+01  0.36936345621E+01  0.91381700994E+01  0.51100000000E-03 0.  1.
        -12    1    3    3    0    0  0.19168474551E+02  0.72936311078E+00  0.16611307316E+02  0.25375143702E+02  0.00000000000E+00 0.  1.
</event>
<event>
 7    1  0.1218140E-013  0.5052880E+02  0.7816164E-02  0.1300439E+00
        -11   -1    0    0    0    0  0.00000000000E+00  0.00000000000E+00  0.45593999997E+02  0.45594000000E+02  0.51100000000E-03 0. -1.
         11   -1    0    0    0    0 -0.00000000000E+00 -0.00000000000E+00 -0.45593999997E+02  0.45594000000E+02  0.51100000000E-03 0.  1.
    9900012    2    1    2    0    0 -0.42807906499E+00  0.15434016889E+02  0.37613538518E+02  0.50528801670E+02  0.29999823156E+02 0.  0.
        -12    1    1    2    0    0  0.42807906499E+00 -0.15434016889E+02 -0.37613538518E+02  0.40659198330E+02  0.00000000000E+00 0.  1.
         11    1    3    3    0    0 -0.64420071760E+01 -0.44254977380E+00  0.90594839036E+01  0.11125176656E+02  0.51100000000E-03 0. -1.
        -11    1    3    3    0    0 -0.14391717013E+01 -0.36638950896E+01 -0.89830108657E-01  0.39374372532E+01  0.51100000000E-03 0.  1.
         12    1    3    3    0    0  0.74530998123E+01  0.19540461753E+02  0.28643884723E+02  0.35466187761E+02  0.00000000000E+00 0. -1.
</event>
<event>
 7    1  0.8986500E-014  0.5052887E+02  0.7816164E-02  0.1300439E+00
        -11   -1    0    0    0    0  0.00000000000E+00  0.00000000000E+00  0.45593999997E+02  0.45594000000E+02  0.51100000000E-03 0. -1.
         11   -1    0    0    0    0 -0.00000000000E+00 -0.00000000000E+00 -0.45593999997E+02  0.45594000000E+02  0.51100000000E-03 0.  1.
    9900012    2    1    2    0    0  0.26444311730E+02  0.10591335011E+02 -0.29011843072E+02  0.50528867710E+02  0.30000023891E+02 0.  0.
         12    1    1    2    0    0 -0.26444311730E+02 -0.10591335011E+02  0.29011843072E+02  0.40659132290E+02  0.00000000000E+00 0. -1.
         11    1    3    3    0    0  0.18086004570E+02  0.58711240736E+01 -0.20675467458E+02  0.28090009150E+02  0.51100000000E-03 0. -1.
        -11    1    3    3    0    0  0.12314384452E+02  0.80771235229E+01 -0.89200162707E+01  0.17217743155E+02  0.51100000000E-03 0.  1.
         12    1    3    3    0    0 -0.39560772922E+01 -0.33569125855E+01  0.58364065669E+00  0.52211154043E+01  0.00000000000E+00 0. -1.
</event>
<event>
 7    1  0.8986500E-014  0.5052885E+02  0.7816164E-02  0.1300439E+00
        -11   -1    0    0    0    0  0.00000000000E+00  0.00000000000E+00  0.45593999997E+02  0.45594000000E+02  0.51100000000E-03 0. -1.
         11   -1    0    0    0    0 -0.00000000000E+00 -0.00000000000E+00 -0.45593999997E+02  0.45594000000E+02  0.51100000000E-03 0.  1.
    9900012    2    1    2    0    0  0.39131887776E+02  0.53659745112E+01 -0.96471630440E+01  0.50528854926E+02  0.29999985033E+02 0.  0.
         12    1    1    2    0    0 -0.39131887776E+02 -0.53659745112E+01  0.96471630440E+01  0.40659145074E+02  0.00000000000E+00 0. -1.
         11    1    3    3    0    0  0.57294265848E+01  0.52181292766E+01 -0.40986645902E+01  0.87666557947E+01  0.51100000000E-03 0. -1.
        -11    1    3    3    0    0  0.26038046268E+02  0.10689744567E+02 -0.64316780530E+01  0.28872425863E+02  0.51100000000E-03 0.  1.
         12    1    3    3    0    0  0.73644149225E+01 -0.10541899333E+02  0.88317959925E+00  0.12889773268E+02  0.00000000000E+00 0. -1.
</event>
<event>
 7    1  0.8986500E-014  0.5052886E+02  0.7816164E-02  0.1300439E+00
        -11   -1    0    0    0    0  0.00000000000E+00  0.00000000000E+00  0.45593999997E+02  0.45594000000E+02  0.51100000000E-03 0. -1.
         11   -1    0    0    0    0 -0.00000000000E+00 -0.00000000000E+00 -0.45593999997E+02  0.45594000000E+02  0.51100000000E-03 0.  1.
    9900012    2    1    2    0    0 -0.22525198177E+00 -0.27084870292E+02  0.30323666265E+02  0.50528859909E+02  0.30000000180E+02 0.  0.
        -12    1    1    2    0    0  0.22525198177E+00  0.27084870292E+02 -0.30323666265E+02  0.40659140091E+02  0.00000000000E+00 0.  1.
         11    1    3    3    0    0  0.48854260602E+01 -0.68574928014E+01  0.72421969723E+01  0.11105944920E+02  0.51100000000E-03 0.  1.
        -11    1    3    3    0    0  0.36411857626E+01 -0.12566674992E+02  0.24431053433E+02  0.27713821935E+02  0.51100000000E-03 0. -1.
         12    1    3    3    0    0 -0.87518638046E+01 -0.76607024979E+01 -0.13495841403E+01  0.11709093055E+02  0.00000000000E+00 0. -1.
</event>
<event>
 7    1  0.8986500E-014  0.5052886E+02  0.7816164E-02  0.1300439E+00
        -11   -1    0    0    0    0  0.00000000000E+00  0.00000000000E+00  0.45593999997E+02  0.45594000000E+02  0.51100000000E-03 0. -1.
         11   -1    0    0    0    0 -0.00000000000E+00 -0.00000000000E+00 -0.45593999997E+02  0.45594000000E+02  0.51100000000E-03 0.  1.
    9900012    2    1    2    0    0 -0.30532543490E+02  0.11333724732E+02  0.24340833810E+02  0.50528859344E+02  0.29999998463E+02 0.  0.
        -12    1    1    2    0    0  0.30532543490E+02 -0.11333724732E+02 -0.24340833810E+02  0.40659140656E+02  0.00000000000E+00 0.  1.
         11    1    3    3    0    0 -0.18031539999E+02  0.93179537308E+01  0.10369048886E+02  0.22792057203E+02  0.51100000000E-03 0. -1.
        -11    1    3    3    0    0 -0.16104361589E+02  0.13234532953E+01  0.33542461959E+01  0.16503119663E+02  0.51100000000E-03 0.  1.
        -12    1    3    3    0    0  0.36033580980E+01  0.69231770612E+00  0.10617538728E+02  0.11233682479E+02  0.00000000000E+00 0.  1.
</event>
<event>
 7    1  0.8986500E-014  0.5052882E+02  0.7816164E-02  0.1300439E+00
        -11   -1    0    0    0    0  0.00000000000E+00  0.00000000000E+00  0.45593999997E+02  0.45594000000E+02  0.51100000000E-03 0. -1.
         11   -1    0    0    0    0 -0.00000000000E+00 -0.00000000000E+00 -0.45593999997E+02  0.45594000000E+02  0.51100000000E-03 0.  1.
    9900012    2    1    2    0    0  0.16478346621E+02 -0.84791471582E+01  0.36190285093E+02  0.50528824172E+02  0.29999891553E+02 0.  0.
        -12    1    1    2    0    0 -0.16478346621E+02  0.84791471582E+01 -0.36190285093E+02  0.40659175828E+02  0.00000000000E+00 0.  1.
         11    1    3    3    0    0  0.11501300901E+02 -0.16543778887E+01  0.27180413352E+02  0.29559968857E+02  0.51100000000E-03 0. -1.
        -11    1    3    3    0    0  0.87410924122E+01 -0.23679264341E+01  0.11489991068E+02  0.14629889513E+02  0.51100000000E-03 0.  1.
        -12    1    3    3    0    0 -0.37640466918E+01 -0.44568428354E+01 -0.24801193268E+01  0.63389658015E+01  0.00000000000E+00 0.  1.
</event>
<event>
 7    1  0.8986500E-014  0.5052886E+02  0.7816164E-02  0.1300439E+00
        -11   -1    0    0    0    0  0.00000000000E+00  0.00000000000E+00  0.45593999997E+02  0.45594000000E+02  0.51100000000E-03 0. -1.
         11   -1    0    0    0    0 -0.00000000000E+00 -0.00000000000E+00 -0.45593999997E+02  0.45594000000E+02  0.51100000000E-03 0.  1.
    9900012    2    1    2    0    0  0.21126262303E+02  0.16091795218E+02 -0.30787998367E+02  0.50528859876E+02  0.30000000078E+02 0.  0.
         12    1    1    2    0    0 -0.21126262303E+02 -0.16091795218E+02  0.30787998367E+02  0.40659140124E+02  0.00000000000E+00 0. -1.
         11    1    3    3    0    0 -0.36332337386E+00  0.72588443973E+01 -0.12785141996E+02  0.14706552348E+02  0.51100000000E-03 0. -1.
        -11    1    3    3    0    0  0.18252114712E+02  0.14318304745E+02 -0.18144490300E+02  0.29451249052E+02  0.51100000000E-03 0.  1.
         12    1    3    3    0    0  0.32374709642E+01 -0.54853539244E+01  0.14163392868E+00  0.63710584748E+01  0.00000000000E+00 0. -1.
</event>
<event>
 7    1  0.8986500E-014  0.5052887E+02  0.7816164E-02  0.1300439E+00
        -11   -1    0    0    0    0  0.00000000000E+00  0.00000000000E+00  0.45593999997E+02  0.45594000000E+02  0.51100000000E-03 0.  1.
         11   -1    0    0    0    0 -0.00000000000E+00 -0.00000000000E+00 -0.45593999997E+02  0.45594000000E+02  0.51100000000E-03 0. -1.
    9900012    2    1    2    0    0 -0.35118464203E+02  0.20486615373E+02 -0.39650780954E+00  0.50528866267E+02  0.30000019506E+02 0.  0.
        -12    1    1    2    0    0  0.35118464203E+02 -0.20486615373E+02  0.39650780954E+00  0.40659133733E+02  0.00000000000E+00 0.  1.
         11    1    3    3    0    0 -0.81951991377E+01  0.55476674652E+01 -0.47081884413E+01  0.10959240023E+02  0.51100000000E-03 0. -1.
        -11    1    3    3    0    0 -0.21593923864E+02  0.82478416097E+01 -0.81018737673E+01  0.24494178856E+02  0.51100000000E-03 0.  1.
         12    1    3    3    0    0 -0.53293412016E+01  0.66911062986E+01  0.12413554399E+02  0.15075447388E+02  0.00000000000E+00 0. -1.
</event>
<event>
 7    1  0.8986500E-014  0.5052885E+02  0.7816164E-02  0.1300439E+00
        -11   -1    0    0    0    0  0.00000000000E+00  0.00000000000E+00  0.45593999997E+02  0.45594000000E+02  0.51100000000E-03 0.  1.
         11   -1    0    0    0    0 -0.00000000000E+00 -0.00000000000E+00 -0.45593999997E+02  0.45594000000E+02  0.51100000000E-03 0. -1.
    9900012    2    1    2    0    0 -0.29395561729E+02  0.26801733894E+02 -0.84103722545E+01  0.50528851576E+02  0.29999974852E+02 0.  0.
        -12    1    1    2    0    0  0.29395561729E+02 -0.26801733894E+02  0.84103722545E+01  0.40659148424E+02  0.00000000000E+00 0.  1.
         11    1    3    3    0    0  0.79939435950E+00  0.51611044791E+01 -0.70703799599E+01  0.87901253589E+01  0.51100000000E-03 0. -1.
        -11    1    3    3    0    0 -0.23199928421E+01 -0.20701606362E+01  0.36611068879E+01  0.48032942605E+01  0.51100000000E-03 0.  1.
         12    1    3    3    0    0 -0.27874963246E+02  0.23710790051E+02 -0.50010991826E+01  0.36935431957E+02  0.00000000000E+00 0. -1.
</event>
<event>
 7    1  0.8986500E-014  0.5052886E+02  0.7816164E-02  0.1300439E+00
        -11   -1    0    0    0    0  0.00000000000E+00  0.00000000000E+00  0.45593999997E+02  0.45594000000E+02  0.51100000000E-03 0. -1.
         11   -1    0    0    0    0 -0.00000000000E+00 -0.00000000000E+00 -0.45593999997E+02  0.45594000000E+02  0.51100000000E-03 0.  1.
    9900012    2    1    2    0    0 -0.34222313723E+01  0.21195209007E+02 -0.34528500140E+02  0.50528857433E+02  0.29999992652E+02 0.  0.
         12    1    1    2    0    0  0.34222313723E+01 -0.21195209007E+02  0.34528500140E+02  0.40659142567E+02  0.00000000000E+00 0. -1.
         11    1    3    3    0    0 -0.63473629355E+01 -0.15278972778E+01 -0.63892216981E+01  0.91348585372E+01  0.51100000000E-03 0. -1.
        -11    1    3    3    0    0  0.26468020509E+01  0.20285726617E+02 -0.31300213064E+02  0.37392774751E+02  0.51100000000E-03 0.  1.
         12    1    3    3    0    0  0.27832951230E+00  0.24373796681E+01  0.31609346225E+01  0.40012241441E+01  0.00000000000E+00 0. -1.
</event>
<event>
 7    1  0.8986500E-014  0.5052885E+02  0.7816164E-02  0.1300439E+00
        -11   -1    0    0    0    0  0.00000000000E+00  0.00000000000E+00  0.45593999997E+02  0.45594000000E+02  0.51100000000E-03 0.  1.
         11   -1    0    0    0    0 -0.00000000000E+00 -0.00000000000E+00 -0.45593999997E+02  0.45594000000E+02  0.51100000000E-03 0. -1.
    9900012    2    1    2    0    0  0.10648616656E+02 -0.38911306652E+02  0.50679019084E+01  0.50528850331E+02  0.29999971066E+02 0.  0.
        -12    1    1    2    0    0 -0.10648616656E+02  0.38911306652E+02 -0.50679019084E+01  0.40659149669E+02  0.00000000000E+00 0.  1.
         11    1    3    3    0    0 -0.17179030794E+01 -0.84672408702E+01  0.99869762844E+01  0.13205493346E+02  0.51100000000E-03 0. -1.
        -11    1    3    3    0    0 -0.30162601860E+01 -0.29608869257E+01  0.25742836016E+01  0.49489002029E+01  0.51100000000E-03 0.  1.
         12    1    3    3    0    0  0.15382779921E+02 -0.27483178856E+02 -0.74933579776E+01  0.32374456782E+02  0.00000000000E+00 0. -1.
</event>
<event>
 7    1  0.8986500E-014  0.5052886E+02  0.7816164E-02  0.1300439E+00
        -11   -1    0    0    0    0  0.00000000000E+00  0.00000000000E+00  0.45593999997E+02  0.45594000000E+02  0.51100000000E-03 0. -1.
         11   -1    0    0    0    0 -0.00000000000E+00 -0.00000000000E+00 -0.45593999997E+02  0.45594000000E+02  0.51100000000E-03 0.  1.
    9900012    2    1    2    0    0  0.23916024482E+02  0.10802963752E+02  0.31056171655E+02  0.50528855263E+02  0.29999986059E+02 0.  0.
        -12    1    1    2    0    0 -0.23916024482E+02 -0.10802963752E+02 -0.31056171655E+02  0.40659144737E+02  0.00000000000E+00 0.  1.
         11    1    3    3    0    0  0.11658142648E+02  0.84155250883E+00  0.25254688426E+02  0.27828398955E+02  0.51100000000E-03 0. -1.
        -11    1    3    3    0    0  0.69397406461E+01  0.39527897223E+01  0.10660129537E+02  0.13320019100E+02  0.51100000000E-03 0.  1.
        -12    1    3    3    0    0  0.53181411882E+01  0.60086215207E+01 -0.48586463081E+01  0.93804372086E+01  0.00000000000E+00 0.  1.
</event>
<event>
 7    1  0.8986500E-014  0.5052885E+02  0.7816164E-02  0.1300439E+00
        -11   -1    0    0    0    0  0.00000000000E+00  0.00000000000E+00  0.45593999997E+02  0.45594000000E+02  0.51100000000E-03 0. -1.
         11   -1    0    0    0    0 -0.00000000000E+00 -0.00000000000E+00 -0.45593999997E+02  0.45594000000E+02  0.51100000000E-03 0.  1.
    9900012    2    1    2    0    0  0.87191679731E+01  0.31334042068E+02  0.24399185830E+02  0.50528851563E+02  0.29999974811E+02 0.  0.
        -12    1    1    2    0    0 -0.87191679731E+01 -0.31334042068E+02 -0.24399185830E+02  0.40659148437E+02  0.00000000000E+00 0.  1.
         11    1    3    3    0    0  0.96200467697E+01  0.85687694578E+01  0.19449761437E+02  0.23329430557E+02  0.51100000000E-03 0. -1.
        -11    1    3    3    0    0  0.47526888461E+01  0.29878814782E+01  0.34188239089E+01  0.65729631200E+01  0.51100000000E-03 0.  1.
         12    1    3    3    0    0 -0.56535676427E+01  0.19777391132E+02  0.15306004834E+01  0.20626457886E+02  0.00000000000E+00 0. -1.
</event>
<event>
 7    1  0.8986500E-014  0.5052881E+02  0.7816164E-02  0.1300439E+00
        -11   -1    0    0    0    0  0.00000000000E+00  0.00000000000E+00  0.45593999997E+02  0.45594000000E+02  0.51100000000E-03 0. -1.
         11   -1    0    0    0    0 -0.00000000000E+00 -0.00000000000E+00 -0.45593999997E+02  0.45594000000E+02  0.51100000000E-03 0.  1.
    9900012    2    1    2    0    0 -0.37003653286E+02 -0.86204533608E+01  0.14477124644E+02  0.50528810256E+02  0.29999849255E+02 0.  0.
        -12    1    1    2    0    0  0.37003653286E+02  0.86204533608E+01 -0.14477124644E+02  0.40659189744E+02  0.00000000000E+00 0.  1.
         11    1    3    3    0    0 -0.45437590395E+01 -0.24857266343E+01  0.43394456516E+01  0.67568759004E+01  0.51100000000E-03 0. -1.
        -11    1    3    3    0    0 -0.92070123903E+01 -0.14533227909E+02  0.42504040561E+00  0.17209429108E+02  0.51100000000E-03 0.  1.
         12    1    3    3    0    0 -0.23252881856E+02  0.83985011827E+01  0.97126385866E+01  0.26562505248E+02  0.00000000000E+00 0. -1.
</event>
<event>
 7    1  0.8986500E-014  0.5052885E+02  0.7816164E-02  0.1300439E+00
        -11   -1    0    0    0    0  0.00000000000E+00  0.00000000000E+00  0.45593999997E+02  0.45594000000E+02  0.51100000000E-03 0. -1.
         11   -1    0    0    0    0 -0.00000000000E+00 -0.00000000000E+00 -0.45593999997E+02  0.45594000000E+02  0.51100000000E-03 0.  1.
    9900012    2    1    2    0    0 -0.27591701777E+02  0.16584704704E+02 -0.24835700262E+02  0.50528850420E+02  0.29999971337E+02 0.  0.
         12    1    1    2    0    0  0.27591701777E+02 -0.16584704704E+02  0.24835700262E+02  0.40659149580E+02  0.00000000000E+00 0. -1.
         11    1    3    3    0    0 -0.33777674240E+00  0.62437560517E+01  0.19402333251E+01  0.65469907879E+01  0.51100000000E-03 0. -1.
        -11    1    3    3    0    0  0.20369331622E+01  0.37499626864E+01 -0.64182427034E+01  0.77074740686E+01  0.51100000000E-03 0.  1.
         12    1    3    3    0    0 -0.29290858197E+02  0.65909859659E+01 -0.20357690883E+02  0.36274385564E+02  0.00000000000E+00 0. -1.
</event>
<event>
 7    1  0.8986500E-014  0.5052884E+02  0.7816164E-02  0.1300439E+00
        -11   -1    0    0    0    0  0.00000000000E+00  0.00000000000E+00  0.45593999997E+02  0.45594000000E+02  0.51100000000E-03 0. -1.
         11   -1    0    0    0    0 -0.00000000000E+00 -0.00000000000E+00 -0.45593999997E+02  0.45594000000E+02  0.51100000000E-03 0.  1.
    9900012    2    1    2    0    0  0.51227089632E+01 -0.74834127667E+01  0.39634877081E+02  0.50528842421E+02  0.29999947024E+02 0.  0.
        -12    1    1    2    0    0 -0.51227089632E+01  0.74834127667E+01 -0.39634877081E+02  0.40659157579E+02  0.00000000000E+00 0.  1.
         11    1    3    3    0    0  0.44383132010E+01 -0.90864401648E+01  0.14198609188E+02  0.17431652879E+02  0.51100000000E-03 0. -1.
        -11    1    3    3    0    0  0.69790185704E+01 -0.52008422825E+01  0.36819502521E+01  0.94505141962E+01  0.51100000000E-03 0.  1.
         12    1    3    3    0    0 -0.62946228082E+01  0.68038696807E+01  0.21754317641E+02  0.23646675347E+02  0.00000000000E+00 0. -1.
</event>
<event>
 7    1  0.8986500E-014  0.5052885E+02  0.7816164E-02  0.1300439E+00
        -11   -1    0    0    0    0  0.00000000000E+00  0.00000000000E+00  0.45593999997E+02  0.45594000000E+02  0.51100000000E-03 0. -1.
         11   -1    0    0    0    0 -0.00000000000E+00 -0.00000000000E+00 -0.45593999997E+02  0.45594000000E+02  0.51100000000E-03 0.  1.
    9900012    2    1    2    0    0  0.21937059216E+01  0.20616781990E+02  0.34975742966E+02  0.50528848000E+02  0.29999963981E+02 0.  0.
        -12    1    1    2    0    0 -0.21937059216E+01 -0.20616781990E+02 -0.34975742966E+02  0.40659152000E+02  0.00000000000E+00 0.  1.
         11    1    3    3    0    0  0.19021996633E+01  0.28228366256E+01 -0.74388602189E+00  0.34842699162E+01  0.51100000000E-03 0.  1.
        -11    1    3    3    0    0 -0.50022661854E+01  0.19817115454E+02  0.14444742583E+02  0.25027810940E+02  0.51100000000E-03 0. -1.
        -12    1    3    3    0    0  0.52937724437E+01 -0.20231700893E+01  0.21274886405E+02  0.22016767144E+02  0.00000000000E+00 0.  1.
</event>
<event>
 7    1  0.8986500E-014  0.5052885E+02  0.7816164E-02  0.1300439E+00
        -11   -1    0    0    0    0  0.00000000000E+00  0.00000000000E+00  0.45593999997E+02  0.45594000000E+02  0.51100000000E-03 0. -1.
         11   -1    0    0    0    0 -0.00000000000E+00 -0.00000000000E+00 -0.45593999997E+02  0.45594000000E+02  0.51100000000E-03 0.  1.
    9900012    2    1    2    0    0  0.32410171934E+02  0.14988158364E+02  0.19444846100E+02  0.50528853725E+02  0.29999981383E+02 0.  0.
        -12    1    1    2    0    0 -0.32410171934E+02 -0.14988158364E+02 -0.19444846100E+02  0.40659146275E+02  0.00000000000E+00 0.  1.
         11    1    3    3    0    0  0.23413002451E+02  0.63600682882E+01  0.20299678391E+02  0.31633780922E+02  0.51100000000E-03 0. -1.
        -11    1    3    3    0    0  0.10048666399E+02  0.98539456161E+01  0.32842433283E+01  0.14452065427E+02  0.51100000000E-03 0.  1.
        -12    1    3    3    0    0 -0.10514969159E+01 -0.12258555403E+01 -0.41390756185E+01  0.44430073762E+01  0.00000000000E+00 0.  1.
</event>
<event>
 7    1  0.8986500E-014  0.5052886E+02  0.7816164E-02  0.1300439E+00
        -11   -1    0    0    0    0  0.00000000000E+00  0.00000000000E+00  0.45593999997E+02  0.45594000000E+02  0.51100000000E-03 0. -1.
         11   -1    0    0    0    0 -0.00000000000E+00 -0.00000000000E+00 -0.45593999997E+02  0.45594000000E+02  0.51100000000E-03 0.  1.
    9900012    2    1    2    0    0 -0.25988697798E+02  0.10714096808E+02 -0.29376205812E+02  0.50528858942E+02  0.29999997239E+02 0.  0.
         12    1    1    2    0    0  0.25988697798E+02 -0.10714096808E+02  0.29376205812E+02  0.40659141058E+02  0.00000000000E+00 0. -1.
         11    1    3    3    0    0 -0.14637194011E+02  0.63032655013E+01 -0.17158066387E+02  0.23417468841E+02  0.51100000000E-03 0. -1.
        -11    1    3    3    0    0 -0.87237101956E+01  0.20773327396E+01 -0.18134126691E+02  0.20230298614E+02  0.51100000000E-03 0.  1.
         12    1    3    3    0    0 -0.26277935917E+01  0.23334985673E+01  0.59159872660E+01  0.68810914872E+01  0.00000000000E+00 0. -1.
</event>
<event>
 7    1  0.8986500E-014  0.5052885E+02  0.7816164E-02  0.1300439E+00
        -11   -1    0    0    0    0  0.00000000000E+00  0.00000000000E+00  0.45593999997E+02  0.45594000000E+02  0.51100000000E-03 0. -1.
         11   -1    0    0    0    0 -0.00000000000E+00 -0.00000000000E+00 -0.45593999997E+02  0.45594000000E+02  0.51100000000E-03 0.  1.
    9900012    2    1    2    0    0 -0.14990720868E+01  0.35631028125E+02 -0.19528153418E+02  0.50528853941E+02  0.29999982039E+02 0.  0.
         12    1    1    2    0    0  0.14990720868E+01 -0.35631028125E+02  0.19528153418E+02  0.40659146059E+02  0.00000000000E+00 0. -1.
         11    1    3    3    0    0  0.16531079835E+01 -0.10204926214E+01  0.18952590207E+01  0.27140704140E+01  0.51100000000E-03 0. -1.
        -11    1    3    3    0    0 -0.82537445238E+01  0.58300610031E+01 -0.31265728091E+00  0.10109978477E+02  0.51100000000E-03 0.  1.
        -12    1    3    3    0    0  0.51015644535E+01  0.30821459743E+02 -0.21110755157E+02  0.37704805050E+02  0.00000000000E+00 0.  1.
</event>
<event>
 7    1  0.8986500E-014  0.5052886E+02  0.7816164E-02  0.1300439E+00
        -11   -1    0    0    0    0  0.00000000000E+00  0.00000000000E+00  0.45593999997E+02  0.45594000000E+02  0.51100000000E-03 0. -1.
         11   -1    0    0    0    0 -0.00000000000E+00 -0.00000000000E+00 -0.45593999997E+02  0.45594000000E+02  0.51100000000E-03 0.  1.
    9900012    2    1    2    0    0  0.34923687328E+01 -0.19706686923E+02 -0.35392313870E+02  0.50528855519E+02  0.29999986836E+02 0.  0.
         12    1    1    2    0    0 -0.34923687328E+01  0.19706686923E+02  0.35392313870E+02  0.40659144481E+02  0.00000000000E+00 0. -1.
         11    1    3    3    0    0 -0.39604620081E+01 -0.13591237376E+02 -0.79793304664E+01  0.16250437153E+02  0.51100000000E-03 0. -1.
        -11    1    3    3    0    0 -0.41044944643E+01 -0.76128454225E+01 -0.14506009946E+02  0.16888653441E+02  0.51100000000E-03 0.  1.
         12    1    3    3    0    0  0.11557325205E+02  0.14973958749E+01 -0.12906973457E+02  0.17389764925E+02  0.00000000000E+00 0. -1.
</event>
<event>
 7    1  0.8986500E-014  0.5052887E+02  0.7816164E-02  0.1300439E+00
        -11   -1    0    0    0    0  0.00000000000E+00  0.00000000000E+00  0.45593999997E+02  0.45594000000E+02  0.51100000000E-03 0. -1.
         11   -1    0    0    0    0 -0.00000000000E+00 -0.00000000000E+00 -0.45593999997E+02  0.45594000000E+02  0.51100000000E-03 0.  1.
    9900012    2    1    2    0    0  0.27008335408E+02  0.36564219690E+01  0.30171933893E+02  0.50528865750E+02  0.30000017933E+02 0.  0.
        -12    1    1    2    0    0 -0.27008335408E+02 -0.36564219690E+01 -0.30171933893E+02  0.40659134250E+02  0.00000000000E+00 0.  1.
         11    1    3    3    0    0  0.11298791441E+02  0.12191399829E+02  0.16919461609E+02  0.23718370501E+02  0.51100000000E-03 0. -1.
        -11    1    3    3    0    0  0.10407236393E+02  0.27927423027E+01  0.55353635127E+01  0.12114050866E+02  0.51100000000E-03 0.  1.
        -12    1    3    3    0    0  0.53023075737E+01 -0.11327720163E+02  0.77171087714E+01  0.14696444382E+02  0.00000000000E+00 0.  1.
</event>
<event>
 7    1  0.8986500E-014  0.5052886E+02  0.7816164E-02  0.1300439E+00
        -11   -1    0    0    0    0  0.00000000000E+00  0.00000000000E+00  0.45593999997E+02  0.45594000000E+02  0.51100000000E-03 0. -1.
         11   -1    0    0    0    0 -0.00000000000E+00 -0.00000000000E+00 -0.45593999997E+02  0.45594000000E+02  0.51100000000E-03 0.  1.
    9900012    2    1    2    0    0  0.27447528591E+02  0.67199477971E+01  0.29234241974E+02  0.50528862922E+02  0.30000009337E+02 0.  0.
        -12    1    1    2    0    0 -0.27447528591E+02 -0.67199477971E+01 -0.29234241974E+02  0.40659137078E+02  0.00000000000E+00 0.  1.
         11    1    3    3    0    0  0.13862068840E+02  0.33981170094E+01  0.20397389590E+02  0.24894932297E+02  0.51100000000E-03 0. -1.
        -11    1    3    3    0    0  0.87011697506E+01  0.25108495709E+01  0.15125939574E+02  0.17629769393E+02  0.51100000000E-03 0.  1.
        -12    1    3    3    0    0  0.48842900005E+01  0.81098121681E+00 -0.62890871897E+01  0.80041612317E+01  0.00000000000E+00 0.  1.
</event>
<event>
 7    1  0.1190498E-013  0.5052886E+02  0.7816164E-02  0.1300439E+00
        -11   -1    0    0    0    0  0.00000000000E+00  0.00000000000E+00  0.45593999997E+02  0.45594000000E+02  0.51100000000E-03 0. -1.
         11   -1    0    0    0    0 -0.00000000000E+00 -0.00000000000E+00 -0.45593999997E+02  0.45594000000E+02  0.51100000000E-03 0.  1.
    9900012    2    1    2    0    0 -0.25150559431E+02 -0.54671648207E+01  0.31475787824E+02  0.50528858961E+02  0.29999997298E+02 0.  0.
        -12    1    1    2    0    0  0.25150559431E+02  0.54671648207E+01 -0.31475787824E+02  0.40659141039E+02  0.00000000000E+00 0.  1.
         11    1    3    3    0    0  0.32060311049E+01 -0.49782861415E+01  0.21784973590E+01  0.63093438134E+01  0.51100000000E-03 0. -1.
        -11    1    3    3    0    0 -0.59318878240E+00 -0.10558700374E+00  0.10888819364E+02  0.10905476099E+02  0.51100000000E-03 0.  1.
         12    1    3    3    0    0 -0.27763401754E+02 -0.38329167554E+00  0.18408471101E+02  0.33314039049E+02  0.00000000000E+00 0. -1.
</event>
<event>
 7    1  0.8986500E-014  0.5052886E+02  0.7816164E-02  0.1300439E+00
        -11   -1    0    0    0    0  0.00000000000E+00  0.00000000000E+00  0.45593999997E+02  0.45594000000E+02  0.51100000000E-03 0. -1.
         11   -1    0    0    0    0 -0.00000000000E+00 -0.00000000000E+00 -0.45593999997E+02  0.45594000000E+02  0.51100000000E-03 0.  1.
    9900012    2    1    2    0    0 -0.63037986669E+01 -0.10208604567E+02 -0.38848577457E+02  0.50528862586E+02  0.30000008316E+02 0.  0.
         12    1    1    2    0    0  0.63037986669E+01  0.10208604567E+02  0.38848577457E+02  0.40659137414E+02  0.00000000000E+00 0. -1.
         11    1    3    3    0    0 -0.92258269324E+01  0.63066317019E+01 -0.12489765710E+02  0.16759586324E+02  0.51100000000E-03 0. -1.
        -11    1    3    3    0    0  0.59549593984E+01 -0.76586727786E+01 -0.61205521982E+01  0.11470744075E+02  0.51100000000E-03 0.  1.
        -12    1    3    3    0    0 -0.30329311330E+01 -0.88565634902E+01 -0.20238259549E+02  0.22298532187E+02  0.00000000000E+00 0.  1.
</event>
<event>
 7    1  0.8986500E-014  0.5052886E+02  0.7816164E-02  0.1300439E+00
        -11   -1    0    0    0    0  0.00000000000E+00  0.00000000000E+00  0.45593999997E+02  0.45594000000E+02  0.51100000000E-03 0. -1.
         11   -1    0    0    0    0 -0.00000000000E+00 -0.00000000000E+00 -0.45593999997E+02  0.45594000000E+02  0.51100000000E-03 0.  1.
    9900012    2    1    2    0    0  0.28853068177E+02 -0.13891256007E+02  0.25053919582E+02  0.50528862982E+02  0.30000009519E+02 0.  0.
        -12    1    1    2    0    0 -0.28853068177E+02  0.13891256007E+02 -0.25053919582E+02  0.40659137018E+02  0.00000000000E+00 0.  1.
         11    1    3    3    0    0  0.11130054092E+02 -0.93472709124E+01  0.28857258425E+01  0.14818130500E+02  0.51100000000E-03 0. -1.
        -11    1    3    3    0    0  0.19115982006E+02 -0.39658934825E+01  0.74198534938E+01  0.20885480729E+02  0.51100000000E-03 0.  1.
         12    1    3    3    0    0 -0.13929679212E+01 -0.57809161180E+00  0.14748340245E+02  0.14825251753E+02  0.00000000000E+00 0. -1.
</event>
<event>
 7    1  0.8986500E-014  0.5052887E+02  0.7816164E-02  0.1300439E+00
        -11   -1    0    0    0    0  0.00000000000E+00  0.00000000000E+00  0.45593999997E+02  0.45594000000E+02  0.51100000000E-03 0.  1.
         11   -1    0    0    0    0 -0.00000000000E+00 -0.00000000000E+00 -0.45593999997E+02  0.45594000000E+02  0.51100000000E-03 0. -1.
    9900012    2    1    2    0    0 -0.17588575275E+02  0.30906712923E+02 -0.19712492378E+02  0.50528865237E+02  0.30000016374E+02 0.  0.
         12    1    1    2    0    0  0.17588575275E+02 -0.30906712923E+02  0.19712492378E+02  0.40659134763E+02  0.00000000000E+00 0. -1.
         11    1    3    3    0    0 -0.31813804034E+01  0.13325384693E+01 -0.69684764789E+01  0.77753781092E+01  0.51100000000E-03 0. -1.
        -11    1    3    3    0    0 -0.20072380891E+01  0.13039639583E+02 -0.17133918943E+02  0.21624809451E+02  0.51100000000E-03 0.  1.
        -12    1    3    3    0    0 -0.12399956783E+02  0.16534534871E+02  0.43899030443E+01  0.21128677676E+02  0.00000000000E+00 0.  1.
</event>
<event>
 7    1  0.8986500E-014  0.5052884E+02  0.7816164E-02  0.1300439E+00
        -11   -1    0    0    0    0  0.00000000000E+00  0.00000000000E+00  0.45593999997E+02  0.45594000000E+02  0.51100000000E-03 0. -1.
         11   -1    0    0    0    0 -0.00000000000E+00 -0.00000000000E+00 -0.45593999997E+02  0.45594000000E+02  0.51100000000E-03 0.  1.
    9900012    2    1    2    0    0 -0.37839411987E+02  0.12631086809E+02 -0.78613985980E+01  0.50528843080E+02  0.29999949026E+02 0.  0.
         12    1    1    2    0    0  0.37839411987E+02 -0.12631086809E+02  0.78613985980E+01  0.40659156920E+02  0.00000000000E+00 0. -1.
         11    1    3    3    0    0 -0.25629950613E+01 -0.25697171925E+01 -0.33953550121E+01  0.49699925607E+01  0.51100000000E-03 0. -1.
        -11    1    3    3    0    0 -0.15304754809E+02 -0.17974045321E+01 -0.10500581522E+02  0.18647476917E+02  0.51100000000E-03 0.  1.
         12    1    3    3    0    0 -0.19971662118E+02  0.16998208534E+02  0.60345379357E+01  0.26911373603E+02  0.00000000000E+00 0. -1.
</event>
<event>
 7    1  0.8986500E-014  0.5052886E+02  0.7816164E-02  0.1300439E+00
        -11   -1    0    0    0    0  0.00000000000E+00  0.00000000000E+00  0.45593999997E+02  0.45594000000E+02  0.51100000000E-03 0. -1.
         11   -1    0    0    0    0 -0.00000000000E+00 -0.00000000000E+00 -0.45593999997E+02  0.45594000000E+02  0.51100000000E-03 0.  1.
    9900012    2    1    2    0    0  0.31739797204E+02  0.13037805738E+02 -0.21812066943E+02  0.50528863642E+02  0.30000011527E+02 0.  0.
         12    1    1    2    0    0 -0.31739797204E+02 -0.13037805738E+02  0.21812066943E+02  0.40659136358E+02  0.00000000000E+00 0. -1.
         11    1    3    3    0    0  0.16312596128E+02  0.14083826068E+01 -0.11181686000E+02  0.19827113660E+02  0.51100000000E-03 0. -1.
        -11    1    3    3    0    0  0.19245529881E+02  0.69798929330E+01 -0.12982796910E+02  0.24241747908E+02  0.51100000000E-03 0.  1.
         12    1    3    3    0    0 -0.38183288054E+01  0.46495301977E+01  0.23524159663E+01  0.64600020746E+01  0.00000000000E+00 0. -1.
</event>
<event>
 7    1  0.8986500E-014  0.5052886E+02  0.7816164E-02  0.1300439E+00
        -11   -1    0    0    0    0  0.00000000000E+00  0.00000000000E+00  0.45593999997E+02  0.45594000000E+02  0.51100000000E-03 0. -1.
         11   -1    0    0    0    0 -0.00000000000E+00 -0.00000000000E+00 -0.45593999997E+02  0.45594000000E+02  0.51100000000E-03 0.  1.
    9900012    2    1    2    0    0  0.36335292909E+02  0.10307255934E+02 -0.15055652490E+02  0.50528859483E+02  0.29999998885E+02 0.  0.
         12    1    1    2    0    0 -0.36335292909E+02 -0.10307255934E+02  0.15055652490E+02  0.40659140517E+02  0.00000000000E+00 0. -1.
         11    1    3    3    0    0  0.35569346350E+01 -0.37930700119E+01 -0.61511154006E-01  0.52002834535E+01  0.51100000000E-03 0. -1.
        -11    1    3    3    0    0  0.16996198296E+02 -0.20534359281E+01 -0.14974798265E+02  0.22744932160E+02  0.51100000000E-03 0.  1.
         12    1    3    3    0    0  0.15782159978E+02  0.16153761874E+02 -0.19343070366E-01  0.22583643869E+02  0.00000000000E+00 0. -1.
</event>
<event>
 7    1  0.8986500E-014  0.5052886E+02  0.7816164E-02  0.1300439E+00
        -11   -1    0    0    0    0  0.00000000000E+00  0.00000000000E+00  0.45593999997E+02  0.45594000000E+02  0.51100000000E-03 0. -1.
         11   -1    0    0    0    0 -0.00000000000E+00 -0.00000000000E+00 -0.45593999997E+02  0.45594000000E+02  0.51100000000E-03 0.  1.
    9900012    2    1    2    0    0 -0.41767595637E+01  0.11132262404E+02  0.38881780325E+02  0.50528862922E+02  0.30000009336E+02 0.  0.
        -12    1    1    2    0    0  0.41767595637E+01 -0.11132262404E+02 -0.38881780325E+02  0.40659137078E+02  0.00000000000E+00 0.  1.
         11    1    3    3    0    0  0.75412583584E+00  0.81775650285E+01  0.20947302687E+02  0.22499572567E+02  0.51100000000E-03 0. -1.
        -11    1    3    3    0    0 -0.59800244839E+00  0.82335683395E+01  0.19365457150E+02  0.21051607668E+02  0.51100000000E-03 0.  1.
        -12    1    3    3    0    0 -0.43328829511E+01 -0.52788709639E+01 -0.14309795108E+01  0.69776826871E+01  0.00000000000E+00 0.  1.
</event>
<event>
 7    1  0.8986500E-014  0.5052889E+02  0.7816164E-02  0.1300439E+00
        -11   -1    0    0    0    0  0.00000000000E+00  0.00000000000E+00  0.45593999997E+02  0.45594000000E+02  0.51100000000E-03 0. -1.
         11   -1    0    0    0    0 -0.00000000000E+00 -0.00000000000E+00 -0.45593999997E+02  0.45594000000E+02  0.51100000000E-03 0.  1.
    9900012    2    1    2    0    0 -0.97487559446E+01  0.26262264280E+02 -0.29468938877E+02  0.50528891229E+02  0.30000095378E+02 0.  0.
         12    1    1    2    0    0  0.97487559446E+01 -0.26262264280E+02  0.29468938877E+02  0.40659108771E+02  0.00000000000E+00 0. -1.
         11    1    3    3    0    0 -0.84174979970E+01  0.15369327999E+02 -0.93732875723E+01  0.19872821537E+02  0.51100000000E-03 0. -1.
        -11    1    3    3    0    0 -0.99392367167E+01  0.12299074256E+01 -0.10756289612E+02  0.14696899852E+02  0.51100000000E-03 0.  1.
         12    1    3    3    0    0  0.86079787691E+01  0.96630288552E+01 -0.93393616927E+01  0.15959169840E+02  0.00000000000E+00 0. -1.
</event>
<event>
 7    1  0.8986500E-014  0.5052888E+02  0.7816164E-02  0.1300439E+00
        -11   -1    0    0    0    0  0.00000000000E+00  0.00000000000E+00  0.45593999997E+02  0.45594000000E+02  0.51100000000E-03 0. -1.
         11   -1    0    0    0    0 -0.00000000000E+00 -0.00000000000E+00 -0.45593999997E+02  0.45594000000E+02  0.51100000000E-03 0.  1.
    9900012    2    1    2    0    0  0.46180816749E+01  0.79120342615E+01 -0.39613592519E+02  0.50528884457E+02  0.30000074794E+02 0.  0.
         12    1    1    2    0    0 -0.46180816749E+01 -0.79120342615E+01  0.39613592519E+02  0.40659115543E+02  0.00000000000E+00 0. -1.
         11    1    3    3    0    0 -0.28397915132E+01 -0.53811131606E+01 -0.54783112341E+01  0.81873493222E+01  0.51100000000E-03 0.  1.
        -11    1    3    3    0    0 -0.49423552362E+01 -0.24619587089E+00 -0.15120752846E+02  0.15909891721E+02  0.51100000000E-03 0. -1.
         12    1    3    3    0    0  0.12400228424E+02  0.13539343293E+02 -0.19014528439E+02  0.26431643414E+02  0.00000000000E+00 0. -1.
</event>
<event>
 7    1  0.8986500E-014  0.5052886E+02  0.7816164E-02  0.1300439E+00
        -11   -1    0    0    0    0  0.00000000000E+00  0.00000000000E+00  0.45593999997E+02  0.45594000000E+02  0.51100000000E-03 0. -1.
         11   -1    0    0    0    0 -0.00000000000E+00 -0.00000000000E+00 -0.45593999997E+02  0.45594000000E+02  0.51100000000E-03 0.  1.
    9900012    2    1    2    0    0  0.19350726467E+02  0.18287515787E+02 -0.30729170382E+02  0.50528858828E+02  0.29999996892E+02 0.  0.
         12    1    1    2    0    0 -0.19350726467E+02 -0.18287515787E+02  0.30729170382E+02  0.40659141172E+02  0.00000000000E+00 0. -1.
         11    1    3    3    0    0  0.68717893251E+01  0.12668599701E+02 -0.93939728111E+01  0.17203535461E+02  0.51100000000E-03 0.  1.
        -11    1    3    3    0    0  0.92301806093E+01  0.13038795471E+02 -0.83626091300E+01  0.18031629243E+02  0.51100000000E-03 0. -1.
        -12    1    3    3    0    0  0.32487565328E+01 -0.74198793848E+01 -0.12972588441E+02  0.15293694124E+02  0.00000000000E+00 0.  1.
</event>
<event>
 7    1  0.8986500E-014  0.5052886E+02  0.7816164E-02  0.1300439E+00
        -11   -1    0    0    0    0  0.00000000000E+00  0.00000000000E+00  0.45593999997E+02  0.45594000000E+02  0.51100000000E-03 0. -1.
         11   -1    0    0    0    0 -0.00000000000E+00 -0.00000000000E+00 -0.45593999997E+02  0.45594000000E+02  0.51100000000E-03 0.  1.
    9900012    2    1    2    0    0  0.61510052652E+01  0.26580452466E+02 -0.30146483830E+02  0.50528858268E+02  0.29999995191E+02 0.  0.
         12    1    1    2    0    0 -0.61510052652E+01 -0.26580452466E+02  0.30146483830E+02  0.40659141732E+02  0.00000000000E+00 0. -1.
         11    1    3    3    0    0  0.44790353032E+01  0.17143739661E+01  0.32668025823E+01  0.58028298886E+01  0.51100000000E-03 0. -1.
        -11    1    3    3    0    0  0.41058450716E+01  0.14127083500E+00 -0.17154137437E+01  0.44520293995E+01  0.51100000000E-03 0.  1.
        -12    1    3    3    0    0 -0.24338751096E+01  0.24724807665E+02 -0.31697872668E+02  0.40273998980E+02  0.00000000000E+00 0.  1.
</event>
<event>
 7    1  0.8986500E-014  0.5052880E+02  0.7816164E-02  0.1300439E+00
        -11   -1    0    0    0    0  0.00000000000E+00  0.00000000000E+00  0.45593999997E+02  0.45594000000E+02  0.51100000000E-03 0. -1.
         11   -1    0    0    0    0 -0.00000000000E+00 -0.00000000000E+00 -0.45593999997E+02  0.45594000000E+02  0.51100000000E-03 0.  1.
    9900012    2    1    2    0    0 -0.23275478338E+01  0.70188685149E+01  0.39981103852E+02  0.50528798589E+02  0.29999813790E+02 0.  0.
        -12    1    1    2    0    0  0.23275478338E+01 -0.70188685149E+01 -0.39981103852E+02  0.40659201411E+02  0.00000000000E+00 0.  1.
         11    1    3    3    0    0 -0.11991901653E+02  0.34148870699E+01  0.21251306523E+02  0.24639098769E+02  0.51100000000E-03 0. -1.
        -11    1    3    3    0    0 -0.37376526147E+01  0.70736189870E+00  0.21314940571E+01  0.43604673030E+01  0.51100000000E-03 0.  1.
        -12    1    3    3    0    0  0.13402006434E+02  0.28966195463E+01  0.16598303272E+02  0.21529232516E+02  0.00000000000E+00 0.  1.
</event>
<event>
 7    1  0.8986500E-014  0.5052887E+02  0.7816164E-02  0.1300439E+00
        -11   -1    0    0    0    0  0.00000000000E+00  0.00000000000E+00  0.45593999997E+02  0.45594000000E+02  0.51100000000E-03 0.  1.
         11   -1    0    0    0    0 -0.00000000000E+00 -0.00000000000E+00 -0.45593999997E+02  0.45594000000E+02  0.51100000000E-03 0. -1.
    9900012    2    1    2    0    0 -0.26964057917E+02  0.30196679869E+02  0.37768908311E+01  0.50528870659E+02  0.30000032854E+02 0.  0.
        -12    1    1    2    0    0  0.26964057917E+02 -0.30196679869E+02 -0.37768908311E+01  0.40659129341E+02  0.00000000000E+00 0.  1.
         11    1    3    3    0    0 -0.34112759625E+01 -0.38317378667E+01 -0.20240478098E+01  0.55150510939E+01  0.51100000000E-03 0.  1.
        -11    1    3    3    0    0 -0.97232404588E+01  0.21316679937E+02  0.10463212567E+02  0.25659716796E+02  0.51100000000E-03 0. -1.
         12    1    3    3    0    0 -0.13829541495E+02  0.12711737799E+02 -0.46622739260E+01  0.19354102769E+02  0.00000000000E+00 0. -1.
</event>
<event>
 7    1  0.8986500E-014  0.5052885E+02  0.7816164E-02  0.1300439E+00
        -11   -1    0    0    0    0  0.00000000000E+00  0.00000000000E+00  0.45593999997E+02  0.45594000000E+02  0.51100000000E-03 0. -1.
         11   -1    0    0    0    0 -0.00000000000E+00 -0.00000000000E+00 -0.45593999997E+02  0.45594000000E+02  0.51100000000E-03 0.  1.
    9900012    2    1    2    0    0  0.30571996807E+01 -0.18785790178E+02  0.35929292497E+02  0.50528850454E+02  0.29999971439E+02 0.  0.
        -12    1    1    2    0    0 -0.30571996807E+01  0.18785790178E+02 -0.35929292497E+02  0.40659149546E+02  0.00000000000E+00 0.  1.
         11    1    3    3    0    0 -0.38507046496E+01 -0.67192437299E+01  0.14912787692E+02  0.16803791227E+02  0.51100000000E-03 0.  1.
        -11    1    3    3    0    0  0.73508832620E+00 -0.43233010397E+01  0.23178074663E+02  0.23589286383E+02  0.51100000000E-03 0. -1.
        -12    1    3    3    0    0  0.61728160042E+01 -0.77432454088E+01 -0.21615698582E+01  0.10135772843E+02  0.00000000000E+00 0.  1.
</event>
<event>
 7    1  0.8986500E-014  0.5052888E+02  0.7816164E-02  0.1300439E+00
        -11   -1    0    0    0    0  0.00000000000E+00  0.00000000000E+00  0.45593999997E+02  0.45594000000E+02  0.51100000000E-03 0.  1.
         11   -1    0    0    0    0 -0.00000000000E+00 -0.00000000000E+00 -0.45593999997E+02  0.45594000000E+02  0.51100000000E-03 0. -1.
    9900012    2    1    2    0    0 -0.16015424478E+02  0.27602822852E+02 -0.25194335069E+02  0.50528878389E+02  0.30000056351E+02 0.  0.
        -12    1    1    2    0    0  0.16015424478E+02 -0.27602822852E+02  0.25194335069E+02  0.40659121611E+02  0.00000000000E+00 0.  1.
         11    1    3    3    0    0 -0.12357531585E+01 -0.39703189970E+01 -0.33891017900E+01  0.53643760131E+01  0.51100000000E-03 0. -1.
        -11    1    3    3    0    0  0.26530240519E+01  0.42361216557E+01  0.15191273891E+01  0.52240799752E+01  0.51100000000E-03 0.  1.
         12    1    3    3    0    0 -0.17432695372E+02  0.27337020193E+02 -0.23324360668E+02  0.39940422401E+02  0.00000000000E+00 0. -1.
</event>
<event>
 7    1  0.8986500E-014  0.5052886E+02  0.7816164E-02  0.1300439E+00
        -11   -1    0    0    0    0  0.00000000000E+00  0.00000000000E+00  0.45593999997E+02  0.45594000000E+02  0.51100000000E-03 0. -1.
         11   -1    0    0    0    0 -0.00000000000E+00 -0.00000000000E+00 -0.45593999997E+02  0.45594000000E+02  0.51100000000E-03 0.  1.
    9900012    2    1    2    0    0 -0.28458475935E+01 -0.39046209718E+01  0.40371036120E+02  0.50528862394E+02  0.30000007733E+02 0.  0.
        -12    1    1    2    0    0  0.28458475935E+01  0.39046209718E+01 -0.40371036120E+02  0.40659137606E+02  0.00000000000E+00 0.  1.
         11    1    3    3    0    0  0.61122128508E+01  0.38613417916E+01  0.36787587437E+01  0.81118661552E+01  0.51100000000E-03 0. -1.
        -11    1    3    3    0    0  0.50712994200E+01  0.63601447178E-01  0.68301229490E+01  0.85072147446E+01  0.51100000000E-03 0.  1.
         12    1    3    3    0    0 -0.14029359864E+02 -0.78295642105E+01  0.29862154427E+02  0.33909781494E+02  0.00000000000E+00 0. -1.
</event>
<event>
 7    1  0.8986500E-014  0.5052886E+02  0.7816164E-02  0.1300439E+00
        -11   -1    0    0    0    0  0.00000000000E+00  0.00000000000E+00  0.45593999997E+02  0.45594000000E+02  0.51100000000E-03 0. -1.
         11   -1    0    0    0    0 -0.00000000000E+00 -0.00000000000E+00 -0.45593999997E+02  0.45594000000E+02  0.51100000000E-03 0.  1.
    9900012    2    1    2    0    0 -0.17784674551E+02 -0.26591398562E+02 -0.25095192765E+02  0.50528858023E+02  0.29999994447E+02 0.  0.
         12    1    1    2    0    0  0.17784674551E+02  0.26591398562E+02  0.25095192765E+02  0.40659141977E+02  0.00000000000E+00 0. -1.
         11    1    3    3    0    0 -0.71209319653E+01 -0.67145190063E+01 -0.12242508249E+02  0.15673909723E+02  0.51100000000E-03 0. -1.
        -11    1    3    3    0    0 -0.12106046742E+02 -0.18567306683E+02 -0.18506158010E+02  0.28875233847E+02  0.51100000000E-03 0.  1.
         12    1    3    3    0    0  0.14423041559E+01 -0.13095728736E+01  0.56534734939E+01  0.59797144527E+01  0.00000000000E+00 0. -1.
</event>
<event>
 7    1  0.8986500E-014  0.5052889E+02  0.7816164E-02  0.1300439E+00
        -11   -1    0    0    0    0  0.00000000000E+00  0.00000000000E+00  0.45593999997E+02  0.45594000000E+02  0.51100000000E-03 0. -1.
         11   -1    0    0    0    0 -0.00000000000E+00 -0.00000000000E+00 -0.45593999997E+02  0.45594000000E+02  0.51100000000E-03 0.  1.
    9900012    2    1    2    0    0  0.21067152222E+02  0.92896100270E+01  0.33511805586E+02  0.50528894368E+02  0.30000104920E+02 0.  0.
        -12    1    1    2    0    0 -0.21067152222E+02 -0.92896100270E+01 -0.33511805586E+02  0.40659105632E+02  0.00000000000E+00 0.  1.
         11    1    3    3    0    0  0.16707796257E+02 -0.20821034342E+01  0.83998116896E+01  0.18816015709E+02  0.51100000000E-03 0. -1.
        -11    1    3    3    0    0 -0.10439852079E+01 -0.61017625496E+00  0.15206310956E+02  0.15254314580E+02  0.51100000000E-03 0.  1.
         12    1    3    3    0    0  0.54033411729E+01  0.11981889716E+02  0.99056829407E+01  0.16458564078E+02  0.00000000000E+00 0. -1.
</event>
<event>
 7    1  0.8986500E-014  0.5052886E+02  0.7816164E-02  0.1300439E+00
        -11   -1    0    0    0    0  0.00000000000E+00  0.00000000000E+00  0.45593999997E+02  0.45594000000E+02  0.51100000000E-03 0. -1.
         11   -1    0    0    0    0 -0.00000000000E+00 -0.00000000000E+00 -0.45593999997E+02  0.45594000000E+02  0.51100000000E-03 0.  1.
    9900012    2    1    2    0    0  0.72926546105E+01 -0.57381655612E+01 -0.39586063796E+02  0.50528858321E+02  0.29999995351E+02 0.  0.
         12    1    1    2    0    0 -0.72926546105E+01  0.57381655612E+01  0.39586063796E+02  0.40659141679E+02  0.00000000000E+00 0. -1.
         11    1    3    3    0    0  0.13432960800E+01 -0.14038331618E+02 -0.26996089678E+02  0.30457643657E+02  0.51100000000E-03 0.  1.
        -11    1    3    3    0    0  0.64706446408E+00 -0.26688394747E+01 -0.29449696772E+00  0.27619060968E+01  0.51100000000E-03 0. -1.
         12    1    3    3    0    0  0.53022940664E+01  0.10969005531E+02 -0.12295477150E+02  0.17309308567E+02  0.00000000000E+00 0. -1.
</event>
<event>
 7    1  0.8986500E-014  0.5052886E+02  0.7816164E-02  0.1300439E+00
        -11   -1    0    0    0    0  0.00000000000E+00  0.00000000000E+00  0.45593999997E+02  0.45594000000E+02  0.51100000000E-03 0. -1.
         11   -1    0    0    0    0 -0.00000000000E+00 -0.00000000000E+00 -0.45593999997E+02  0.45594000000E+02  0.51100000000E-03 0.  1.
    9900012    2    1    2    0    0 -0.24128466454E+02  0.15949571643E+02 -0.28576112641E+02  0.50528856592E+02  0.29999990096E+02 0.  0.
         12    1    1    2    0    0  0.24128466454E+02 -0.15949571643E+02  0.28576112641E+02  0.40659143408E+02  0.00000000000E+00 0. -1.
         11    1    3    3    0    0 -0.17832291426E+02  0.28660026442E+00 -0.20855058808E+02  0.27440959083E+02  0.51100000000E-03 0. -1.
        -11    1    3    3    0    0 -0.49119075410E+01  0.84689111199E+01 -0.11285900497E+02  0.14940577015E+02  0.51100000000E-03 0.  1.
        -12    1    3    3    0    0 -0.13842674867E+01  0.71940602590E+01  0.35648466644E+01  0.81473204936E+01  0.00000000000E+00 0.  1.
</event>
<event>
 7    1  0.8986500E-014  0.5052886E+02  0.7816164E-02  0.1300439E+00
        -11   -1    0    0    0    0  0.00000000000E+00  0.00000000000E+00  0.45593999997E+02  0.45594000000E+02  0.51100000000E-03 0. -1.
         11   -1    0    0    0    0 -0.00000000000E+00 -0.00000000000E+00 -0.45593999997E+02  0.45594000000E+02  0.51100000000E-03 0.  1.
    9900012    2    1    2    0    0  0.30372165485E+02  0.14772312432E+01 -0.26991018320E+02  0.50528859350E+02  0.29999998481E+02 0.  0.
         12    1    1    2    0    0 -0.30372165485E+02 -0.14772312432E+01  0.26991018320E+02  0.40659140650E+02  0.00000000000E+00 0. -1.
         11    1    3    3    0    0  0.16646875479E+02 -0.43906260765E+01 -0.86940459337E+01  0.19286847734E+02  0.51100000000E-03 0. -1.
        -11    1    3    3    0    0  0.13193255424E+02  0.13515811998E+01 -0.93595399524E+00  0.13295291293E+02  0.51100000000E-03 0.  1.
        -12    1    3    3    0    0  0.53203458227E+00  0.45162761198E+01 -0.17361018391E+02  0.17946720324E+02  0.00000000000E+00 0.  1.
</event>
<event>
 7    1  0.8986500E-014  0.5052886E+02  0.7816164E-02  0.1300439E+00
        -11   -1    0    0    0    0  0.00000000000E+00  0.00000000000E+00  0.45593999997E+02  0.45594000000E+02  0.51100000000E-03 0.  1.
         11   -1    0    0    0    0 -0.00000000000E+00 -0.00000000000E+00 -0.45593999997E+02  0.45594000000E+02  0.51100000000E-03 0. -1.
    9900012    2    1    2    0    0  0.35364933078E+02 -0.14935140974E+02 -0.13395106623E+02  0.50528858237E+02  0.29999995096E+02 0.  0.
         12    1    1    2    0    0 -0.35364933078E+02  0.14935140974E+02  0.13395106623E+02  0.40659141763E+02  0.00000000000E+00 0. -1.
         11    1    3    3    0    0  0.76060768878E+01 -0.90923780599E+01 -0.74680994725E+01  0.14010576519E+02  0.51100000000E-03 0. -1.
        -11    1    3    3    0    0  0.71560091629E+01 -0.12439078298E+02 -0.14193708094E+01  0.14420601576E+02  0.51100000000E-03 0.  1.
        -12    1    3    3    0    0  0.20602847027E+02  0.65963153842E+01 -0.45076363412E+01  0.22097680142E+02  0.00000000000E+00 0.  1.
</event>
<event>
 7    1  0.8986500E-014  0.5052885E+02  0.7816164E-02  0.1300439E+00
        -11   -1    0    0    0    0  0.00000000000E+00  0.00000000000E+00  0.45593999997E+02  0.45594000000E+02  0.51100000000E-03 0.  1.
         11   -1    0    0    0    0 -0.00000000000E+00 -0.00000000000E+00 -0.45593999997E+02  0.45594000000E+02  0.51100000000E-03 0. -1.
    9900012    2    1    2    0    0  0.33044932211E+02 -0.98565210494E+01 -0.21541778506E+02  0.50528846378E+02  0.29999959052E+02 0.  0.
         12    1    1    2    0    0 -0.33044932211E+02  0.98565210494E+01  0.21541778506E+02  0.40659153622E+02  0.00000000000E+00 0. -1.
         11    1    3    3    0    0  0.37092698851E+00 -0.30293219643E+01  0.96611678133E+00  0.32012123157E+01  0.51100000000E-03 0. -1.
        -11    1    3    3    0    0  0.11941016387E+02 -0.15149151748E+02 -0.10164933469E+02  0.21803911203E+02  0.51100000000E-03 0.  1.
        -12    1    3    3    0    0  0.20732988835E+02  0.83219526632E+01 -0.12342961818E+02  0.25523722860E+02  0.00000000000E+00 0.  1.
</event>
<event>
 7    1  0.8986500E-014  0.5052886E+02  0.7816164E-02  0.1300439E+00
        -11   -1    0    0    0    0  0.00000000000E+00  0.00000000000E+00  0.45593999997E+02  0.45594000000E+02  0.51100000000E-03 0. -1.
         11   -1    0    0    0    0 -0.00000000000E+00 -0.00000000000E+00 -0.45593999997E+02  0.45594000000E+02  0.51100000000E-03 0.  1.
    9900012    2    1    2    0    0  0.83921824924E+01  0.32863789120E+02  0.22421157782E+02  0.50528859840E+02  0.29999999969E+02 0.  0.
        -12    1    1    2    0    0 -0.83921824924E+01 -0.32863789120E+02 -0.22421157782E+02  0.40659140160E+02  0.00000000000E+00 0.  1.
         11    1    3    3    0    0  0.11981313412E+01  0.71096931149E+01  0.18861743682E+02  0.20192786580E+02  0.51100000000E-03 0. -1.
        -11    1    3    3    0    0  0.15066179241E+01 -0.14217739575E+01  0.13734976311E+01  0.24855250470E+01  0.51100000000E-03 0.  1.
         12    1    3    3    0    0  0.56874332271E+01  0.27175869962E+02  0.21859164689E+01  0.27850548213E+02  0.00000000000E+00 0. -1.
</event>
<event>
 7    1  0.8986500E-014  0.5052885E+02  0.7816164E-02  0.1300439E+00
        -11   -1    0    0    0    0  0.00000000000E+00  0.00000000000E+00  0.45593999997E+02  0.45594000000E+02  0.51100000000E-03 0. -1.
         11   -1    0    0    0    0 -0.00000000000E+00 -0.00000000000E+00 -0.45593999997E+02  0.45594000000E+02  0.51100000000E-03 0.  1.
    9900012    2    1    2    0    0 -0.24057153008E+02 -0.20488008817E+02  0.25586350889E+02  0.50528850133E+02  0.29999970464E+02 0.  0.
        -12    1    1    2    0    0  0.24057153008E+02  0.20488008817E+02 -0.25586350889E+02  0.40659149867E+02  0.00000000000E+00 0.  1.
         11    1    3    3    0    0 -0.54407272682E+01  0.63961807416E+00  0.74219963091E+01  0.92247847650E+01  0.51100000000E-03 0. -1.
        -11    1    3    3    0    0 -0.17376062644E+02 -0.17369374102E+01  0.10755498250E+02  0.20509150335E+02  0.51100000000E-03 0.  1.
        -12    1    3    3    0    0 -0.12403630955E+01 -0.19390689481E+02  0.74088563293E+01  0.20794915033E+02  0.00000000000E+00 0.  1.
</event>
<event>
 7    1  0.8986500E-014  0.5052884E+02  0.7816164E-02  0.1300439E+00
        -11   -1    0    0    0    0  0.00000000000E+00  0.00000000000E+00  0.45593999997E+02  0.45594000000E+02  0.51100000000E-03 0. -1.
         11   -1    0    0    0    0 -0.00000000000E+00 -0.00000000000E+00 -0.45593999997E+02  0.45594000000E+02  0.51100000000E-03 0.  1.
    9900012    2    1    2    0    0 -0.74998750373E+01  0.95750485491E+01  0.38797389604E+02  0.50528842109E+02  0.29999946076E+02 0.  0.
        -12    1    1    2    0    0  0.74998750373E+01 -0.95750485491E+01 -0.38797389604E+02  0.40659157891E+02  0.00000000000E+00 0.  1.
         11    1    3    3    0    0  0.88134302243E+01 -0.86846494124E+00  0.84417490820E+01  0.12234946322E+02  0.51100000000E-03 0. -1.
        -11    1    3    3    0    0  0.33331296517E+00  0.47244213684E+01  0.25329329661E+01  0.53709407435E+01  0.51100000000E-03 0.  1.
        -12    1    3    3    0    0 -0.16646618227E+02  0.57190921220E+01  0.27822707556E+02  0.32922955044E+02  0.00000000000E+00 0.  1.
</event>
<event>
 7    1  0.8986500E-014  0.5052886E+02  0.7816164E-02  0.1300439E+00
        -11   -1    0    0    0    0  0.00000000000E+00  0.00000000000E+00  0.45593999997E+02  0.45594000000E+02  0.51100000000E-03 0.  1.
         11   -1    0    0    0    0 -0.00000000000E+00 -0.00000000000E+00 -0.45593999997E+02  0.45594000000E+02  0.51100000000E-03 0. -1.
    9900012    2    1    2    0    0 -0.17730195827E+02 -0.33629005032E+02  0.14418586571E+02  0.50528862500E+02  0.30000008055E+02 0.  0.
        -12    1    1    2    0    0  0.17730195827E+02  0.33629005032E+02 -0.14418586571E+02  0.40659137500E+02  0.00000000000E+00 0.  1.
         11    1    3    3    0    0 -0.47030204130E+01 -0.41765514630E+01 -0.15854227050E+01  0.64865667763E+01  0.51100000000E-03 0. -1.
        -11    1    3    3    0    0 -0.41004640176E+01  0.63520712783E+00  0.11638637037E+02  0.12356179247E+02  0.51100000000E-03 0.  1.
         12    1    3    3    0    0 -0.89267113962E+01 -0.30087660697E+02  0.43653722397E+01  0.31686116477E+02  0.00000000000E+00 0. -1.
</event>
<event>
 7    1  0.8986500E-014  0.5052886E+02  0.7816164E-02  0.1300439E+00
        -11   -1    0    0    0    0  0.00000000000E+00  0.00000000000E+00  0.45593999997E+02  0.45594000000E+02  0.51100000000E-03 0. -1.
         11   -1    0    0    0    0 -0.00000000000E+00 -0.00000000000E+00 -0.45593999997E+02  0.45594000000E+02  0.51100000000E-03 0.  1.
    9900012    2    1    2    0    0 -0.20980412806E+02 -0.19715907121E+01  0.34772121910E+02  0.50528863836E+02  0.30000012116E+02 0.  0.
        -12    1    1    2    0    0  0.20980412806E+02  0.19715907121E+01 -0.34772121910E+02  0.40659136164E+02  0.00000000000E+00 0.  1.
         11    1    3    3    0    0 -0.79590341524E+01 -0.77680379220E+01  0.26594618173E+02  0.28826417638E+02  0.51100000000E-03 0.  1.
        -11    1    3    3    0    0 -0.18208097727E+01  0.25986018775E+01  0.94656387076E+01  0.99833058828E+01  0.51100000000E-03 0. -1.
        -12    1    3    3    0    0 -0.11200568881E+02  0.31978453324E+01 -0.12881349705E+01  0.11719140316E+02  0.00000000000E+00 0.  1.
</event>
<event>
 7    1  0.8986500E-014  0.5052886E+02  0.7816164E-02  0.1300439E+00
        -11   -1    0    0    0    0  0.00000000000E+00  0.00000000000E+00  0.45593999997E+02  0.45594000000E+02  0.51100000000E-03 0. -1.
         11   -1    0    0    0    0 -0.00000000000E+00 -0.00000000000E+00 -0.45593999997E+02  0.45594000000E+02  0.51100000000E-03 0.  1.
    9900012    2    1    2    0    0 -0.21312181362E+02 -0.31304247837E+02 -0.14798669034E+02  0.50528860655E+02  0.30000002447E+02 0.  0.
         12    1    1    2    0    0  0.21312181362E+02  0.31304247837E+02  0.14798669034E+02  0.40659139345E+02  0.00000000000E+00 0. -1.
         11    1    3    3    0    0 -0.53751689289E+01 -0.72750156878E+01  0.20847246018E+01  0.92824765660E+01  0.51100000000E-03 0.  1.
        -11    1    3    3    0    0 -0.95699480267E+01 -0.11445566532E+02  0.45426984590E+01  0.15595544493E+02  0.51100000000E-03 0. -1.
        -12    1    3    3    0    0 -0.63670644065E+01 -0.12583665617E+02 -0.21426092095E+02  0.25650839596E+02  0.00000000000E+00 0.  1.
</event>
<event>
 7    1  0.8986500E-014  0.5052886E+02  0.7816164E-02  0.1300439E+00
        -11   -1    0    0    0    0  0.00000000000E+00  0.00000000000E+00  0.45593999997E+02  0.45594000000E+02  0.51100000000E-03 0. -1.
         11   -1    0    0    0    0 -0.00000000000E+00 -0.00000000000E+00 -0.45593999997E+02  0.45594000000E+02  0.51100000000E-03 0.  1.
    9900012    2    1    2    0    0  0.19982982078E+02  0.34295274220E+02 -0.88136422100E+01  0.50528859631E+02  0.29999999334E+02 0.  0.
         12    1    1    2    0    0 -0.19982982078E+02 -0.34295274220E+02  0.88136422100E+01  0.40659140369E+02  0.00000000000E+00 0. -1.
         11    1    3    3    0    0 -0.12784414076E+01  0.78814663101E+00 -0.31415187012E+01  0.34820579484E+01  0.51100000000E-03 0. -1.
        -11    1    3    3    0    0  0.97710064244E+01  0.22813979660E+02 -0.14793300914E+02  0.28892767031E+02  0.51100000000E-03 0.  1.
         12    1    3    3    0    0  0.11490417061E+02  0.10693147929E+02  0.91211774056E+01  0.18154034652E+02  0.00000000000E+00 0. -1.
</event>
<event>
 7    1  0.8986500E-014  0.5052886E+02  0.7816164E-02  0.1300439E+00
        -11   -1    0    0    0    0  0.00000000000E+00  0.00000000000E+00  0.45593999997E+02  0.45594000000E+02  0.51100000000E-03 0. -1.
         11   -1    0    0    0    0 -0.00000000000E+00 -0.00000000000E+00 -0.45593999997E+02  0.45594000000E+02  0.51100000000E-03 0.  1.
    9900012    2    1    2    0    0  0.16427657045E+02 -0.28277557984E+01 -0.37085059681E+02  0.50528858710E+02  0.29999996536E+02 0.  0.
         12    1    1    2    0    0 -0.16427657045E+02  0.28277557984E+01  0.37085059681E+02  0.40659141290E+02  0.00000000000E+00 0. -1.
         11    1    3    3    0    0  0.13036946434E+02 -0.10485737838E+01 -0.12993872193E+02  0.18436436590E+02  0.51100000000E-03 0. -1.
        -11    1    3    3    0    0  0.85212172291E+01 -0.55362699317E+01 -0.23623279815E+02  0.25716157903E+02  0.51100000000E-03 0.  1.
         12    1    3    3    0    0 -0.51305066181E+01  0.37570879171E+01 -0.46790767334E+00  0.63762642171E+01  0.00000000000E+00 0. -1.
</event>
<event>
 7    1  0.8986500E-014  0.5052886E+02  0.7816164E-02  0.1300439E+00
        -11   -1    0    0    0    0  0.00000000000E+00  0.00000000000E+00  0.45593999997E+02  0.45594000000E+02  0.51100000000E-03 0. -1.
         11   -1    0    0    0    0 -0.00000000000E+00 -0.00000000000E+00 -0.45593999997E+02  0.45594000000E+02  0.51100000000E-03 0.  1.
    9900012    2    1    2    0    0  0.81071668224E+01  0.14843289518E+02  0.36974533895E+02  0.50528861368E+02  0.30000004613E+02 0.  0.
        -12    1    1    2    0    0 -0.81071668224E+01 -0.14843289518E+02 -0.36974533895E+02  0.40659138632E+02  0.00000000000E+00 0.  1.
         11    1    3    3    0    0  0.48943479264E+01 -0.33897143522E+01  0.25305730049E+02  0.25996630140E+02  0.51100000000E-03 0. -1.
        -11    1    3    3    0    0  0.15614522351E+01 -0.68330411898E+00  0.34370431575E+01  0.38364441257E+01  0.51100000000E-03 0.  1.
        -12    1    3    3    0    0  0.16513666609E+01  0.18916307989E+02  0.82317606877E+01  0.20695787103E+02  0.00000000000E+00 0.  1.
</event>
<event>
 7    1  0.8986500E-014  0.5052885E+02  0.7816164E-02  0.1300439E+00
        -11   -1    0    0    0    0  0.00000000000E+00  0.00000000000E+00  0.45593999997E+02  0.45594000000E+02  0.51100000000E-03 0. -1.
         11   -1    0    0    0    0 -0.00000000000E+00 -0.00000000000E+00 -0.45593999997E+02  0.45594000000E+02  0.51100000000E-03 0.  1.
    9900012    2    1    2    0    0 -0.78591248650E+01 -0.77383446015E+01 -0.39134625693E+02  0.50528846677E+02  0.29999959960E+02 0.  0.
         12    1    1    2    0    0  0.78591248650E+01  0.77383446015E+01  0.39134625693E+02  0.40659153323E+02  0.00000000000E+00 0. -1.
         11    1    3    3    0    0 -0.53716081562E+01  0.77833383782E+01 -0.21434577316E+01  0.96968521594E+01  0.51100000000E-03 0. -1.
        -11    1    3    3    0    0  0.14218232473E+01 -0.56701682596E+00 -0.61039441233E+01  0.62929503057E+01  0.51100000000E-03 0.  1.
         12    1    3    3    0    0 -0.39093399561E+01 -0.14954666154E+02 -0.30887223838E+02  0.34539044212E+02  0.00000000000E+00 0. -1.
</event>
<event>
 7    1  0.8986500E-014  0.5052885E+02  0.7816164E-02  0.1300439E+00
        -11   -1    0    0    0    0  0.00000000000E+00  0.00000000000E+00  0.45593999997E+02  0.45594000000E+02  0.51100000000E-03 0. -1.
         11   -1    0    0    0    0 -0.00000000000E+00 -0.00000000000E+00 -0.45593999997E+02  0.45594000000E+02  0.51100000000E-03 0.  1.
    9900012    2    1    2    0    0  0.26155223970E+02  0.40771358283E+00 -0.31127236957E+02  0.50528845411E+02  0.29999956111E+02 0.  0.
         12    1    1    2    0    0 -0.26155223970E+02 -0.40771358283E+00  0.31127236957E+02  0.40659154589E+02  0.00000000000E+00 0. -1.
         11    1    3    3    0    0  0.21779972323E+02  0.67479895647E+01 -0.18322126652E+02  0.29250690297E+02  0.51100000000E-03 0.  1.
        -11    1    3    3    0    0  0.68509717632E+01  0.17163543604E+01 -0.15735821291E+01  0.72358722604E+01  0.51100000000E-03 0. -1.
        -12    1    3    3    0    0 -0.24757201157E+01 -0.80566303423E+01 -0.11231528176E+02  0.14042282853E+02  0.00000000000E+00 0.  1.
</event>
<event>
 7    1  0.1010326E-013  0.5052882E+02  0.7816164E-02  0.1300439E+00
        -11   -1    0    0    0    0  0.00000000000E+00  0.00000000000E+00  0.45593999997E+02  0.45594000000E+02  0.51100000000E-03 0. -1.
         11   -1    0    0    0    0 -0.00000000000E+00 -0.00000000000E+00 -0.45593999997E+02  0.45594000000E+02  0.51100000000E-03 0.  1.
    9900012    2    1    2    0    0 -0.24022429095E+02  0.23758539931E+02  0.22619103905E+02  0.50528816773E+02  0.29999869063E+02 0.  0.
        -12    1    1    2    0    0  0.24022429095E+02 -0.23758539931E+02 -0.22619103905E+02  0.40659183227E+02  0.00000000000E+00 0.  1.
         11    1    3    3    0    0 -0.11646729060E+02  0.57794372958E+01 -0.20951214368E+01  0.13169575822E+02  0.51100000000E-03 0. -1.
        -11    1    3    3    0    0 -0.49559444663E+01  0.11401393040E+02  0.20220923242E+01  0.12595316845E+02  0.51100000000E-03 0.  1.
         12    1    3    3    0    0 -0.74197555689E+01  0.65777095948E+01  0.22692133017E+02  0.24763924105E+02  0.00000000000E+00 0. -1.
</event>
<event>
 7    1  0.8986500E-014  0.5052890E+02  0.7816164E-02  0.1300439E+00
        -11   -1    0    0    0    0  0.00000000000E+00  0.00000000000E+00  0.45593999997E+02  0.45594000000E+02  0.51100000000E-03 0.  1.
         11   -1    0    0    0    0 -0.00000000000E+00 -0.00000000000E+00 -0.45593999997E+02  0.45594000000E+02  0.51100000000E-03 0. -1.
    9900012    2    1    2    0    0 -0.15994751031E+02  0.32209750255E+02  0.18970043621E+02  0.50528897366E+02  0.30000114033E+02 0.  0.
        -12    1    1    2    0    0  0.15994751031E+02 -0.32209750255E+02 -0.18970043621E+02  0.40659102634E+02  0.00000000000E+00 0.  1.
         11    1    3    3    0    0 -0.96380643319E+01  0.20143704600E+02  0.15868932537E+02  0.27394965581E+02  0.51100000000E-03 0. -1.
        -11    1    3    3    0    0 -0.36355986127E+01  0.62049107980E+01  0.10867014780E+02  0.13031136013E+02  0.51100000000E-03 0.  1.
        -12    1    3    3    0    0 -0.27210880860E+01  0.58611348572E+01 -0.77659036965E+01  0.10102795772E+02  0.00000000000E+00 0.  1.
</event>
<event>
 7    1  0.8986500E-014  0.5052886E+02  0.7816164E-02  0.1300439E+00
        -11   -1    0    0    0    0  0.00000000000E+00  0.00000000000E+00  0.45593999997E+02  0.45594000000E+02  0.51100000000E-03 0.  1.
         11   -1    0    0    0    0 -0.00000000000E+00 -0.00000000000E+00 -0.45593999997E+02  0.45594000000E+02  0.51100000000E-03 0. -1.
    9900012    2    1    2    0    0  0.26898726936E+02  0.30482400987E+02  0.66881702933E+00  0.50528860844E+02  0.30000003021E+02 0.  0.
         12    1    1    2    0    0 -0.26898726936E+02 -0.30482400987E+02 -0.66881702933E+00  0.40659139156E+02  0.00000000000E+00 0. -1.
         11    1    3    3    0    0  0.25378029894E+01  0.55803372697E+01 -0.82925985587E+01  0.10312506930E+02  0.51100000000E-03 0. -1.
        -11    1    3    3    0    0 -0.11585635031E+01  0.74439394848E+01 -0.12864445003E+01  0.76426071571E+01  0.51100000000E-03 0.  1.
        -12    1    3    3    0    0  0.25519487449E+02  0.17458124233E+02  0.10247860088E+02  0.32573746757E+02  0.00000000000E+00 0.  1.
</event>
<event>
 7    1  0.8986500E-014  0.5052890E+02  0.7816164E-02  0.1300439E+00
        -11   -1    0    0    0    0  0.00000000000E+00  0.00000000000E+00  0.45593999997E+02  0.45594000000E+02  0.51100000000E-03 0. -1.
         11   -1    0    0    0    0 -0.00000000000E+00 -0.00000000000E+00 -0.45593999997E+02  0.45594000000E+02  0.51100000000E-03 0.  1.
    9900012    2    1    2    0    0  0.32702568836E+02 -0.22251249728E+02  0.94120313718E+01  0.50528899450E+02  0.30000120369E+02 0.  0.
        -12    1    1    2    0    0 -0.32702568836E+02  0.22251249728E+02 -0.94120313718E+01  0.40659100550E+02  0.00000000000E+00 0.  1.
         11    1    3    3    0    0  0.44223506979E+01  0.45343730650E+01 -0.89197947016E+00  0.63963546200E+01  0.51100000000E-03 0. -1.
        -11    1    3    3    0    0 -0.11387013901E+01 -0.23691380212E+01 -0.26825334303E+01  0.37557211938E+01  0.51100000000E-03 0.  1.
         12    1    3    3    0    0  0.29418919528E+02 -0.24416484772E+02  0.12986544272E+02  0.40376823637E+02  0.00000000000E+00 0. -1.
</event>
<event>
 7    1  0.8986500E-014  0.5052893E+02  0.7816164E-02  0.1300439E+00
        -11   -1    0    0    0    0  0.00000000000E+00  0.00000000000E+00  0.45593999997E+02  0.45594000000E+02  0.51100000000E-03 0. -1.
         11   -1    0    0    0    0 -0.00000000000E+00 -0.00000000000E+00 -0.45593999997E+02  0.45594000000E+02  0.51100000000E-03 0.  1.
    9900012    2    1    2    0    0 -0.30102731663E+02 -0.82941941075E+01 -0.26042117882E+02  0.50528929508E+02  0.30000211732E+02 0.  0.
         12    1    1    2    0    0  0.30102731663E+02  0.82941941075E+01  0.26042117882E+02  0.40659070492E+02  0.00000000000E+00 0. -1.
         11    1    3    3    0    0 -0.21492839859E+02 -0.13803189101E+02 -0.21040560874E+02  0.33093434345E+02  0.51100000000E-03 0.  1.
        -11    1    3    3    0    0 -0.70382849064E+01 -0.18191697111E+01  0.16049078626E+01  0.74446331253E+01  0.51100000000E-03 0. -1.
        -12    1    3    3    0    0 -0.15716068976E+01  0.73281647048E+01 -0.66064648703E+01  0.99908620380E+01  0.00000000000E+00 0.  1.
</event>
<event>
 7    1  0.8986500E-014  0.5052886E+02  0.7816164E-02  0.1300439E+00
        -11   -1    0    0    0    0  0.00000000000E+00  0.00000000000E+00  0.45593999997E+02  0.45594000000E+02  0.51100000000E-03 0. -1.
         11   -1    0    0    0    0 -0.00000000000E+00 -0.00000000000E+00 -0.45593999997E+02  0.45594000000E+02  0.51100000000E-03 0.  1.
    9900012    2    1    2    0    0 -0.11138201362E+02 -0.14742619799E+02 -0.36218241476E+02  0.50528863466E+02  0.30000010991E+02 0.  0.
         12    1    1    2    0    0  0.11138201362E+02  0.14742619799E+02  0.36218241476E+02  0.40659136534E+02  0.00000000000E+00 0. -1.
         11    1    3    3    0    0 -0.44677632727E+01 -0.12216318293E+01 -0.33834132702E+01  0.57359200313E+01  0.51100000000E-03 0. -1.
        -11    1    3    3    0    0 -0.12895597143E+02 -0.12934291496E+01 -0.26868388517E+02  0.29830851252E+02  0.51100000000E-03 0.  1.
        -12    1    3    3    0    0  0.62251590539E+01 -0.12227558820E+02 -0.59664396885E+01  0.14962092183E+02  0.00000000000E+00 0.  1.
</event>
<event>
 7    1  0.8986500E-014  0.5052885E+02  0.7816164E-02  0.1300439E+00
        -11   -1    0    0    0    0  0.00000000000E+00  0.00000000000E+00  0.45593999997E+02  0.45594000000E+02  0.51100000000E-03 0. -1.
         11   -1    0    0    0    0 -0.00000000000E+00 -0.00000000000E+00 -0.45593999997E+02  0.45594000000E+02  0.51100000000E-03 0.  1.
    9900012    2    1    2    0    0  0.70134437347E+01  0.10897838686E+02 -0.38538490852E+02  0.50528849023E+02  0.29999967089E+02 0.  0.
         12    1    1    2    0    0 -0.70134437347E+01 -0.10897838686E+02  0.38538490852E+02  0.40659150977E+02  0.00000000000E+00 0. -1.
         11    1    3    3    0    0  0.69260737922E+01  0.75471937422E+00 -0.17402341427E+01  0.71811221018E+01  0.51100000000E-03 0. -1.
        -11    1    3    3    0    0  0.47256623862E+01  0.67752994535E+01 -0.25819980811E+01  0.86546682215E+01  0.51100000000E-03 0.  1.
        -12    1    3    3    0    0 -0.46382924437E+01  0.33678198580E+01 -0.34216258628E+02  0.34693058699E+02  0.00000000000E+00 0.  1.
</event>
<event>
 7    1  0.8986500E-014  0.5052886E+02  0.7816164E-02  0.1300439E+00
        -11   -1    0    0    0    0  0.00000000000E+00  0.00000000000E+00  0.45593999997E+02  0.45594000000E+02  0.51100000000E-03 0.  1.
         11   -1    0    0    0    0 -0.00000000000E+00 -0.00000000000E+00 -0.45593999997E+02  0.45594000000E+02  0.51100000000E-03 0. -1.
    9900012    2    1    2    0    0 -0.17235705307E+02 -0.36046231410E+02  0.75342832500E+01  0.50528858834E+02  0.29999996911E+02 0.  0.
        -12    1    1    2    0    0  0.17235705307E+02  0.36046231410E+02 -0.75342832500E+01  0.40659141166E+02  0.00000000000E+00 0.  1.
         11    1    3    3    0    0  0.57693113865E+01 -0.49754065844E+01  0.36580501039E+01  0.84510919637E+01  0.51100000000E-03 0. -1.
        -11    1    3    3    0    0 -0.65069857790E+00 -0.71195318834E+01  0.58762961003E+01  0.92542962454E+01  0.51100000000E-03 0.  1.
         12    1    3    3    0    0 -0.22354318116E+02 -0.23951292942E+02 -0.20000629542E+01  0.32823470625E+02  0.00000000000E+00 0. -1.
</event>
<event>
 7    1  0.8986500E-014  0.5052885E+02  0.7816164E-02  0.1300439E+00
        -11   -1    0    0    0    0  0.00000000000E+00  0.00000000000E+00  0.45593999997E+02  0.45594000000E+02  0.51100000000E-03 0. -1.
         11   -1    0    0    0    0 -0.00000000000E+00 -0.00000000000E+00 -0.45593999997E+02  0.45594000000E+02  0.51100000000E-03 0.  1.
    9900012    2    1    2    0    0 -0.21142950934E+02  0.24321734080E+02  0.24791025839E+02  0.50528854842E+02  0.29999984777E+02 0.  0.
        -12    1    1    2    0    0  0.21142950934E+02 -0.24321734080E+02 -0.24791025839E+02  0.40659145158E+02  0.00000000000E+00 0.  1.
         11    1    3    3    0    0 -0.23270960744E+02  0.23131557067E+02  0.18921394692E+02  0.37876453419E+02  0.51100000000E-03 0. -1.
        -11    1    3    3    0    0 -0.39874140993E+01  0.17258473595E+01  0.28635614756E+00  0.43543105553E+01  0.51100000000E-03 0.  1.
        -12    1    3    3    0    0  0.61154239094E+01 -0.53567034711E+00  0.55832750001E+01  0.82980908671E+01  0.00000000000E+00 0.  1.
</event>
<event>
 7    1  0.8986500E-014  0.5052885E+02  0.7816164E-02  0.1300439E+00
        -11   -1    0    0    0    0  0.00000000000E+00  0.00000000000E+00  0.45593999997E+02  0.45594000000E+02  0.51100000000E-03 0.  1.
         11   -1    0    0    0    0 -0.00000000000E+00 -0.00000000000E+00 -0.45593999997E+02  0.45594000000E+02  0.51100000000E-03 0. -1.
    9900012    2    1    2    0    0 -0.15189134446E+02 -0.25334891973E+02 -0.27939213835E+02  0.50528853105E+02  0.29999979498E+02 0.  0.
         12    1    1    2    0    0  0.15189134446E+02  0.25334891973E+02  0.27939213835E+02  0.40659146895E+02  0.00000000000E+00 0. -1.
         11    1    3    3    0    0  0.21004886532E+01 -0.14950319190E+01  0.23319058157E+01  0.34763426205E+01  0.51100000000E-03 0. -1.
        -11    1    3    3    0    0 -0.20679806771E+02 -0.12464287431E+02 -0.19871565933E+02  0.31271264800E+02  0.51100000000E-03 0.  1.
         12    1    3    3    0    0  0.33901836722E+01 -0.11375572623E+02 -0.10399553718E+02  0.15781245685E+02  0.00000000000E+00 0. -1.
</event>
<event>
 7    1  0.8986500E-014  0.5052887E+02  0.7816164E-02  0.1300439E+00
        -11   -1    0    0    0    0  0.00000000000E+00  0.00000000000E+00  0.45593999997E+02  0.45594000000E+02  0.51100000000E-03 0. -1.
         11   -1    0    0    0    0 -0.00000000000E+00 -0.00000000000E+00 -0.45593999997E+02  0.45594000000E+02  0.51100000000E-03 0.  1.
    9900012    2    1    2    0    0 -0.14359004470E+02  0.36232901498E+02  0.11582780239E+02  0.50528868696E+02  0.30000026888E+02 0.  0.
        -12    1    1    2    0    0  0.14359004470E+02 -0.36232901498E+02 -0.11582780239E+02  0.40659131304E+02  0.00000000000E+00 0.  1.
         11    1    3    3    0    0 -0.56511092133E+01  0.92875921382E+01 -0.16517653731E+01  0.10996487265E+02  0.51100000000E-03 0. -1.
        -11    1    3    3    0    0  0.32713354009E+01  0.74093122491E+01 -0.56186929635E+01  0.98574466364E+01  0.51100000000E-03 0.  1.
        -12    1    3    3    0    0 -0.11979230657E+02  0.19535997110E+02  0.18853238576E+02  0.29674934794E+02  0.00000000000E+00 0.  1.
</event>
<event>
 7    1  0.8986500E-014  0.5052888E+02  0.7816164E-02  0.1300439E+00
        -11   -1    0    0    0    0  0.00000000000E+00  0.00000000000E+00  0.45593999997E+02  0.45594000000E+02  0.51100000000E-03 0. -1.
         11   -1    0    0    0    0 -0.00000000000E+00 -0.00000000000E+00 -0.45593999997E+02  0.45594000000E+02  0.51100000000E-03 0.  1.
    9900012    2    1    2    0    0  0.29774391608E+02  0.13381672905E+02 -0.24240062844E+02  0.50528877874E+02  0.30000054786E+02 0.  0.
         12    1    1    2    0    0 -0.29774391608E+02 -0.13381672905E+02  0.24240062844E+02  0.40659122126E+02  0.00000000000E+00 0. -1.
         11    1    3    3    0    0  0.32407153102E+01  0.94886330816E+01 -0.14112345500E+02  0.17311692270E+02  0.51100000000E-03 0. -1.
        -11    1    3    3    0    0  0.61312512617E+01  0.38292715086E+01 -0.10575171736E+02  0.12809754870E+02  0.51100000000E-03 0.  1.
         12    1    3    3    0    0  0.20402425036E+02  0.63768315179E-01  0.44745439152E+00  0.20407430734E+02  0.00000000000E+00 0. -1.
</event>
<event>
 7    1  0.8986500E-014  0.5052886E+02  0.7816164E-02  0.1300439E+00
        -11   -1    0    0    0    0  0.00000000000E+00  0.00000000000E+00  0.45593999997E+02  0.45594000000E+02  0.51100000000E-03 0. -1.
         11   -1    0    0    0    0 -0.00000000000E+00 -0.00000000000E+00 -0.45593999997E+02  0.45594000000E+02  0.51100000000E-03 0.  1.
    9900012    2    1    2    0    0  0.20373555923E+01 -0.33261522060E+02 -0.23295621732E+02  0.50528860075E+02  0.30000000684E+02 0.  0.
         12    1    1    2    0    0 -0.20373555923E+01  0.33261522060E+02  0.23295621732E+02  0.40659139925E+02  0.00000000000E+00 0. -1.
         11    1    3    3    0    0 -0.15978371831E+01  0.31063206912E+00  0.17440140649E+01  0.23856154899E+01  0.51100000000E-03 0. -1.
        -11    1    3    3    0    0 -0.69970488646E+01 -0.13035799385E+02 -0.19296093153E+02  0.24315220945E+02  0.51100000000E-03 0.  1.
         12    1    3    3    0    0  0.10632241640E+02 -0.20536354744E+02 -0.57435426442E+01  0.23828023640E+02  0.00000000000E+00 0. -1.
</event>
<event>
 7    1  0.8986500E-014  0.5052885E+02  0.7816164E-02  0.1300439E+00
        -11   -1    0    0    0    0  0.00000000000E+00  0.00000000000E+00  0.45593999997E+02  0.45594000000E+02  0.51100000000E-03 0. -1.
         11   -1    0    0    0    0 -0.00000000000E+00 -0.00000000000E+00 -0.45593999997E+02  0.45594000000E+02  0.51100000000E-03 0.  1.
    9900012    2    1    2    0    0  0.46179590808E+01 -0.74151148089E+01  0.39709655876E+02  0.50528852893E+02  0.29999978852E+02 0.  0.
        -12    1    1    2    0    0 -0.46179590808E+01  0.74151148089E+01 -0.39709655876E+02  0.40659147107E+02  0.00000000000E+00 0.  1.
         11    1    3    3    0    0 -0.46136445568E+00 -0.78207545865E+01 -0.30058889567E+00  0.78401156502E+01  0.51100000000E-03 0. -1.
        -11    1    3    3    0    0 -0.31430859660E+01  0.40390438284E+01  0.21639865482E+02  0.22236830771E+02  0.51100000000E-03 0.  1.
        -12    1    3    3    0    0  0.82224095025E+01 -0.36334040508E+01  0.18370379290E+02  0.20451906471E+02  0.00000000000E+00 0.  1.
</event>
<event>
 7    1  0.8986500E-014  0.5052881E+02  0.7816164E-02  0.1300439E+00
        -11   -1    0    0    0    0  0.00000000000E+00  0.00000000000E+00  0.45593999997E+02  0.45594000000E+02  0.51100000000E-03 0. -1.
         11   -1    0    0    0    0 -0.00000000000E+00 -0.00000000000E+00 -0.45593999997E+02  0.45594000000E+02  0.51100000000E-03 0.  1.
    9900012    2    1    2    0    0 -0.13932461843E+02 -0.29709268417E+02  0.24008660486E+02  0.50528807913E+02  0.29999842131E+02 0.  0.
        -12    1    1    2    0    0  0.13932461843E+02  0.29709268417E+02 -0.24008660486E+02  0.40659192087E+02  0.00000000000E+00 0.  1.
         11    1    3    3    0    0  0.33817140202E+01 -0.94649149091E+01  0.93050214998E+01  0.13696862025E+02  0.51100000000E-03 0. -1.
        -11    1    3    3    0    0  0.41633165360E+01 -0.23504964351E+01 -0.82802389988E+00  0.48521811497E+01  0.51100000000E-03 0.  1.
         12    1    3    3    0    0 -0.21477492399E+02 -0.17893857072E+02  0.15531662886E+02  0.31979764738E+02  0.00000000000E+00 0. -1.
</event>
<event>
 7    1  0.8986500E-014  0.5052887E+02  0.7816164E-02  0.1300439E+00
        -11   -1    0    0    0    0  0.00000000000E+00  0.00000000000E+00  0.45593999997E+02  0.45594000000E+02  0.51100000000E-03 0. -1.
         11   -1    0    0    0    0 -0.00000000000E+00 -0.00000000000E+00 -0.45593999997E+02  0.45594000000E+02  0.51100000000E-03 0.  1.
    9900012    2    1    2    0    0 -0.25219051390E+02 -0.94562739809E+01 -0.30458878765E+02  0.50528868600E+02  0.30000026596E+02 0.  0.
         12    1    1    2    0    0  0.25219051390E+02  0.94562739809E+01  0.30458878765E+02  0.40659131400E+02  0.00000000000E+00 0. -1.
         11    1    3    3    0    0 -0.50531038995E+01 -0.71027081261E+01 -0.10496498276E+01  0.87797543681E+01  0.51100000000E-03 0. -1.
        -11    1    3    3    0    0 -0.29767424529E+01  0.25779480446E+01  0.28526588115E+01  0.48625584117E+01  0.51100000000E-03 0.  1.
        -12    1    3    3    0    0 -0.17189205037E+02 -0.49315138994E+01 -0.32261887749E+02  0.36886555820E+02  0.00000000000E+00 0.  1.
</event>
<event>
 7    1  0.8986500E-014  0.5052886E+02  0.7816164E-02  0.1300439E+00
        -11   -1    0    0    0    0  0.00000000000E+00  0.00000000000E+00  0.45593999997E+02  0.45594000000E+02  0.51100000000E-03 0. -1.
         11   -1    0    0    0    0 -0.00000000000E+00 -0.00000000000E+00 -0.45593999997E+02  0.45594000000E+02  0.51100000000E-03 0.  1.
    9900012    2    1    2    0    0 -0.18144384985E+02  0.18487459287E+02  0.31339446839E+02  0.50528858524E+02  0.29999995970E+02 0.  0.
        -12    1    1    2    0    0  0.18144384985E+02 -0.18487459287E+02 -0.31339446839E+02  0.40659141476E+02  0.00000000000E+00 0.  1.
         11    1    3    3    0    0 -0.24803966281E+01  0.69946313510E+01  0.65429176263E+01  0.98937862568E+01  0.51100000000E-03 0. -1.
        -11    1    3    3    0    0 -0.63024046754E+01  0.11295276778E+02 -0.12130344653E+01  0.12991344621E+02  0.51100000000E-03 0.  1.
        -12    1    3    3    0    0 -0.93615836820E+01  0.19755115873E+00  0.26009563678E+02  0.27643727647E+02  0.00000000000E+00 0.  1.
</event>
<event>
 7    1  0.8986500E-014  0.5052886E+02  0.7816164E-02  0.1300439E+00
        -11   -1    0    0    0    0  0.00000000000E+00  0.00000000000E+00  0.45593999997E+02  0.45594000000E+02  0.51100000000E-03 0. -1.
         11   -1    0    0    0    0 -0.00000000000E+00 -0.00000000000E+00 -0.45593999997E+02  0.45594000000E+02  0.51100000000E-03 0.  1.
    9900012    2    1    2    0    0  0.24101296388E+02  0.29582765526E+02 -0.14041115756E+02  0.50528862830E+02  0.30000009058E+02 0.  0.
         12    1    1    2    0    0 -0.24101296388E+02 -0.29582765526E+02  0.14041115756E+02  0.40659137170E+02  0.00000000000E+00 0. -1.
         11    1    3    3    0    0  0.16578706932E+02  0.16955605424E+02 -0.11259216117E+01  0.23740551354E+02  0.51100000000E-03 0. -1.
        -11    1    3    3    0    0  0.39563689056E+01 -0.43330035892E+01 -0.51101852475E+01  0.77808591137E+01  0.51100000000E-03 0.  1.
        -12    1    3    3    0    0  0.35662205505E+01  0.16960163691E+02 -0.78050088964E+01  0.19007452362E+02  0.00000000000E+00 0.  1.
</event>
<event>
 7    1  0.8986500E-014  0.5052886E+02  0.7816164E-02  0.1300439E+00
        -11   -1    0    0    0    0  0.00000000000E+00  0.00000000000E+00  0.45593999997E+02  0.45594000000E+02  0.51100000000E-03 0.  1.
         11   -1    0    0    0    0 -0.00000000000E+00 -0.00000000000E+00 -0.45593999997E+02  0.45594000000E+02  0.51100000000E-03 0. -1.
    9900012    2    1    2    0    0  0.10374942574E+02  0.30268700984E+02  0.25086494845E+02  0.50528856917E+02  0.29999991084E+02 0.  0.
        -12    1    1    2    0    0 -0.10374942574E+02 -0.30268700984E+02 -0.25086494845E+02  0.40659143083E+02  0.00000000000E+00 0.  1.
         11    1    3    3    0    0  0.45961114087E+01  0.53852654779E+01  0.31378599030E+01  0.77441261212E+01  0.51100000000E-03 0. -1.
        -11    1    3    3    0    0  0.82312049699E+01  0.75003157643E+01  0.22624391786E+02  0.25216474293E+02  0.51100000000E-03 0.  1.
         12    1    3    3    0    0 -0.24523738045E+01  0.17383119742E+02 -0.67575684404E+00  0.17568256503E+02  0.00000000000E+00 0. -1.
</event>
<event>
 7    1  0.8986500E-014  0.5052886E+02  0.7816164E-02  0.1300439E+00
        -11   -1    0    0    0    0  0.00000000000E+00  0.00000000000E+00  0.45593999997E+02  0.45594000000E+02  0.51100000000E-03 0. -1.
         11   -1    0    0    0    0 -0.00000000000E+00 -0.00000000000E+00 -0.45593999997E+02  0.45594000000E+02  0.51100000000E-03 0.  1.
    9900012    2    1    2    0    0  0.14860549963E+02  0.11782023287E+02 -0.35965452199E+02  0.50528858718E+02  0.29999996558E+02 0.  0.
         12    1    1    2    0    0 -0.14860549963E+02 -0.11782023287E+02  0.35965452199E+02  0.40659141282E+02  0.00000000000E+00 0. -1.
         11    1    3    3    0    0  0.85946560521E+01  0.15044616398E+02 -0.33898788855E+02  0.38070152105E+02  0.51100000000E-03 0. -1.
        -11    1    3    3    0    0  0.44842626361E+01  0.24122065670E+00 -0.55966139465E+01  0.71755757066E+01  0.51100000000E-03 0.  1.
         12    1    3    3    0    0  0.17816312744E+01 -0.35038137682E+01  0.35299506016E+01  0.52831309060E+01  0.00000000000E+00 0. -1.
</event>
<event>
 7    1  0.8986500E-014  0.5052886E+02  0.7816164E-02  0.1300439E+00
        -11   -1    0    0    0    0  0.00000000000E+00  0.00000000000E+00  0.45593999997E+02  0.45594000000E+02  0.51100000000E-03 0. -1.
         11   -1    0    0    0    0 -0.00000000000E+00 -0.00000000000E+00 -0.45593999997E+02  0.45594000000E+02  0.51100000000E-03 0.  1.
    9900012    2    1    2    0    0  0.21367083453E+02  0.23235436629E+02 -0.25626707092E+02  0.50528857277E+02  0.29999992179E+02 0.  0.
         12    1    1    2    0    0 -0.21367083453E+02 -0.23235436629E+02  0.25626707092E+02  0.40659142723E+02  0.00000000000E+00 0. -1.
         11    1    3    3    0    0  0.13297981291E+02  0.10768611791E+02 -0.36985158524E+01  0.17506522387E+02  0.51100000000E-03 0. -1.
        -11    1    3    3    0    0  0.10640637685E+02  0.10815860026E+02 -0.52327681424E+01  0.16049543954E+02  0.51100000000E-03 0.  1.
         12    1    3    3    0    0 -0.25715355230E+01  0.16509648114E+01 -0.16695423097E+02  0.16972790936E+02  0.00000000000E+00 0. -1.
</event>
<event>
 7    1  0.8986500E-014  0.5052885E+02  0.7816164E-02  0.1300439E+00
        -11   -1    0    0    0    0  0.00000000000E+00  0.00000000000E+00  0.45593999997E+02  0.45594000000E+02  0.51100000000E-03 0.  1.
         11   -1    0    0    0    0 -0.00000000000E+00 -0.00000000000E+00 -0.45593999997E+02  0.45594000000E+02  0.51100000000E-03 0. -1.
    9900012    2    1    2    0    0 -0.53682138714E+01  0.37982857670E+02 -0.13477793410E+02  0.50528854508E+02  0.29999983761E+02 0.  0.
        -12    1    1    2    0    0  0.53682138714E+01 -0.37982857670E+02  0.13477793410E+02  0.40659145492E+02  0.00000000000E+00 0.  1.
         11    1    3    3    0    0 -0.26739833039E+01  0.63607586723E+01  0.30619435111E+01  0.75488367265E+01  0.51100000000E-03 0. -1.
        -11    1    3    3    0    0 -0.75009219359E+01  0.20373447183E+02 -0.20761240756E+02  0.30039478990E+02  0.51100000000E-03 0.  1.
         12    1    3    3    0    0  0.48066913685E+01  0.11248651815E+02  0.42215038351E+01  0.12940538791E+02  0.00000000000E+00 0. -1.
</event>
<event>
 7    1  0.8986500E-014  0.5052885E+02  0.7816164E-02  0.1300439E+00
        -11   -1    0    0    0    0  0.00000000000E+00  0.00000000000E+00  0.45593999997E+02  0.45594000000E+02  0.51100000000E-03 0. -1.
         11   -1    0    0    0    0 -0.00000000000E+00 -0.00000000000E+00 -0.45593999997E+02  0.45594000000E+02  0.51100000000E-03 0.  1.
    9900012    2    1    2    0    0 -0.24054445807E+02  0.32697456913E+02 -0.23295123135E+01  0.50528847534E+02  0.29999962564E+02 0.  0.
        -12    1    1    2    0    0  0.24054445807E+02 -0.32697456913E+02  0.23295123135E+01  0.40659152466E+02  0.00000000000E+00 0.  1.
         11    1    3    3    0    0 -0.12361099032E+02  0.87958484361E+01 -0.16618297232E+01  0.15261893633E+02  0.51100000000E-03 0. -1.
        -11    1    3    3    0    0 -0.13514022481E+02  0.20715347749E+02 -0.88740500068E+01  0.26277427571E+02  0.51100000000E-03 0.  1.
        -12    1    3    3    0    0  0.18206757059E+01  0.31862607283E+01  0.82063674165E+01  0.89895263295E+01  0.00000000000E+00 0.  1.
</event>
<event>
 7    1  0.8986500E-014  0.5052886E+02  0.7816164E-02  0.1300439E+00
        -11   -1    0    0    0    0  0.00000000000E+00  0.00000000000E+00  0.45593999997E+02  0.45594000000E+02  0.51100000000E-03 0.  1.
         11   -1    0    0    0    0 -0.00000000000E+00 -0.00000000000E+00 -0.45593999997E+02  0.45594000000E+02  0.51100000000E-03 0. -1.
    9900012    2    1    2    0    0 -0.12181028437E+02 -0.31967878729E+02 -0.21973688688E+02  0.50528859346E+02  0.29999998468E+02 0.  0.
         12    1    1    2    0    0  0.12181028437E+02  0.31967878729E+02  0.21973688688E+02  0.40659140654E+02  0.00000000000E+00 0. -1.
         11    1    3    3    0    0  0.41787985794E+01 -0.62864983053E+01 -0.23742486888E+01  0.79132468436E+01  0.51100000000E-03 0. -1.
        -11    1    3    3    0    0 -0.58459721375E+00 -0.88437347782E+01  0.38994451223E+01  0.96829267917E+01  0.51100000000E-03 0.  1.
        -12    1    3    3    0    0 -0.15775229802E+02 -0.16837645645E+02 -0.23498885121E+02  0.32932685711E+02  0.00000000000E+00 0.  1.
</event>
<event>
 7    1  0.8986500E-014  0.5052886E+02  0.7816164E-02  0.1300439E+00
        -11   -1    0    0    0    0  0.00000000000E+00  0.00000000000E+00  0.45593999997E+02  0.45594000000E+02  0.51100000000E-03 0. -1.
         11   -1    0    0    0    0 -0.00000000000E+00 -0.00000000000E+00 -0.45593999997E+02  0.45594000000E+02  0.51100000000E-03 0.  1.
    9900012    2    1    2    0    0  0.17129157057E+02 -0.54522350285E+01 -0.36469585238E+02  0.50528861596E+02  0.30000005308E+02 0.  0.
         12    1    1    2    0    0 -0.17129157057E+02  0.54522350285E+01  0.36469585238E+02  0.40659138404E+02  0.00000000000E+00 0. -1.
         11    1    3    3    0    0 -0.32525270359E+01  0.35811609465E+01 -0.86160137846E+00  0.49138582642E+01  0.51100000000E-03 0. -1.
        -11    1    3    3    0    0  0.47606146735E+01  0.37711866112E+01 -0.17369650452E+02  0.18400816765E+02  0.51100000000E-03 0.  1.
        -12    1    3    3    0    0  0.15621069420E+02 -0.12804582586E+02 -0.18238333407E+02  0.27214186567E+02  0.00000000000E+00 0.  1.
</event>
<event>
 7    1  0.8986500E-014  0.5052884E+02  0.7816164E-02  0.1300439E+00
        -11   -1    0    0    0    0  0.00000000000E+00  0.00000000000E+00  0.45593999997E+02  0.45594000000E+02  0.51100000000E-03 0. -1.
         11   -1    0    0    0    0 -0.00000000000E+00 -0.00000000000E+00 -0.45593999997E+02  0.45594000000E+02  0.51100000000E-03 0.  1.
    9900012    2    1    2    0    0 -0.39276694661E+01 -0.31763101281E+02 -0.25076799409E+02  0.50528842864E+02  0.29999948368E+02 0.  0.
         12    1    1    2    0    0  0.39276694661E+01  0.31763101281E+02  0.25076799409E+02  0.40659157136E+02  0.00000000000E+00 0. -1.
         11    1    3    3    0    0  0.29008370094E+01 -0.30906002451E+01 -0.33035205404E+01  0.53740034845E+01  0.51100000000E-03 0. -1.
        -11    1    3    3    0    0 -0.44018488845E+01 -0.24082867362E+02 -0.27903915495E+02  0.37121277916E+02  0.51100000000E-03 0.  1.
        -12    1    3    3    0    0 -0.24266575909E+01 -0.45896336747E+01  0.61306366262E+01  0.80335614626E+01  0.00000000000E+00 0.  1.
</event>
<event>
 7    1  0.8986500E-014  0.5052879E+02  0.7816164E-02  0.1300439E+00
        -11   -1    0    0    0    0  0.00000000000E+00  0.00000000000E+00  0.45593999997E+02  0.45594000000E+02  0.51100000000E-03 0.  1.
         11   -1    0    0    0    0 -0.00000000000E+00 -0.00000000000E+00 -0.45593999997E+02  0.45594000000E+02  0.51100000000E-03 0. -1.
    9900012    2    1    2    0    0  0.32192623056E+02 -0.22289292784E+02 -0.10954172214E+02  0.50528788978E+02  0.29999784576E+02 0.  0.
         12    1    1    2    0    0 -0.32192623056E+02  0.22289292784E+02  0.10954172214E+02  0.40659211022E+02  0.00000000000E+00 0. -1.
         11    1    3    3    0    0  0.21114089552E+02 -0.11151976261E+02 -0.43306563713E+00  0.23882187886E+02  0.51100000000E-03 0.  1.
        -11    1    3    3    0    0  0.24307893987E+01 -0.10163329651E+02  0.27233020867E+01  0.10798999084E+02  0.51100000000E-03 0. -1.
        -12    1    3    3    0    0  0.86477441060E+01 -0.97398687172E+00 -0.13244408664E+02  0.15847602008E+02  0.00000000000E+00 0.  1.
</event>
<event>
 7    1  0.1296475E-013  0.5052885E+02  0.7816164E-02  0.1300439E+00
        -11   -1    0    0    0    0  0.00000000000E+00  0.00000000000E+00  0.45593999997E+02  0.45594000000E+02  0.51100000000E-03 0. -1.
         11   -1    0    0    0    0 -0.00000000000E+00 -0.00000000000E+00 -0.45593999997E+02  0.45594000000E+02  0.51100000000E-03 0.  1.
    9900012    2    1    2    0    0 -0.42768085647E+01  0.36298887342E+02  0.17811964778E+02  0.50528850931E+02  0.29999972890E+02 0.  0.
        -12    1    1    2    0    0  0.42768085647E+01 -0.36298887342E+02 -0.17811964778E+02  0.40659149069E+02  0.00000000000E+00 0.  1.
         11    1    3    3    0    0 -0.16274981154E+01  0.71713143916E+01  0.11736927685E+02  0.13850341944E+02  0.51100000000E-03 0. -1.
        -11    1    3    3    0    0  0.48883687402E+01  0.91088074299E+00  0.55718729250E+01  0.74680399585E+01  0.51100000000E-03 0.  1.
         12    1    3    3    0    0 -0.75376791896E+01  0.28216692207E+02  0.50316416749E+00  0.29210469028E+02  0.00000000000E+00 0. -1.
</event>
<event>
 7    1  0.8986500E-014  0.5052886E+02  0.7816164E-02  0.1300439E+00
        -11   -1    0    0    0    0  0.00000000000E+00  0.00000000000E+00  0.45593999997E+02  0.45594000000E+02  0.51100000000E-03 0. -1.
         11   -1    0    0    0    0 -0.00000000000E+00 -0.00000000000E+00 -0.45593999997E+02  0.45594000000E+02  0.51100000000E-03 0.  1.
    9900012    2    1    2    0    0 -0.15571378674E+02 -0.27749313744E+02 -0.25311522107E+02  0.50528863284E+02  0.30000010439E+02 0.  0.
         12    1    1    2    0    0  0.15571378674E+02  0.27749313744E+02  0.25311522107E+02  0.40659136716E+02  0.00000000000E+00 0. -1.
         11    1    3    3    0    0 -0.12189641583E+02 -0.92899238704E+01 -0.72555528814E+01  0.16956800857E+02  0.51100000000E-03 0. -1.
        -11    1    3    3    0    0 -0.98531506584E+01 -0.17649849559E+02 -0.83325488360E+01  0.21863968938E+02  0.51100000000E-03 0.  1.
         12    1    3    3    0    0  0.64714135674E+01 -0.80954031499E+00 -0.97234203900E+01  0.11708093490E+02  0.00000000000E+00 0. -1.
</event>
<event>
 7    1  0.8986500E-014  0.5052886E+02  0.7816164E-02  0.1300439E+00
        -11   -1    0    0    0    0  0.00000000000E+00  0.00000000000E+00  0.45593999997E+02  0.45594000000E+02  0.51100000000E-03 0. -1.
         11   -1    0    0    0    0 -0.00000000000E+00 -0.00000000000E+00 -0.45593999997E+02  0.45594000000E+02  0.51100000000E-03 0.  1.
    9900012    2    1    2    0    0  0.37369470551E+02  0.33111899338E+01 -0.15675594811E+02  0.50528861043E+02  0.30000003627E+02 0.  0.
         12    1    1    2    0    0 -0.37369470551E+02 -0.33111899338E+01  0.15675594811E+02  0.40659138957E+02  0.00000000000E+00 0. -1.
         11    1    3    3    0    0  0.63632798185E+01  0.61398758621E+01 -0.11720867350E+02  0.14682238840E+02  0.51100000000E-03 0. -1.
        -11    1    3    3    0    0  0.12762838280E+02  0.42368100021E+01 -0.83043557458E+01  0.15805155000E+02  0.51100000000E-03 0.  1.
        -12    1    3    3    0    0  0.18243352453E+02 -0.70654959305E+01  0.43496282849E+01  0.20041467204E+02  0.00000000000E+00 0.  1.
</event>
<event>
 7    1  0.8986500E-014  0.5052885E+02  0.7816164E-02  0.1300439E+00
        -11   -1    0    0    0    0  0.00000000000E+00  0.00000000000E+00  0.45593999997E+02  0.45594000000E+02  0.51100000000E-03 0.  1.
         11   -1    0    0    0    0 -0.00000000000E+00 -0.00000000000E+00 -0.45593999997E+02  0.45594000000E+02  0.51100000000E-03 0. -1.
    9900012    2    1    2    0    0 -0.23525015768E+02  0.31870844921E+02 -0.91645557429E+01  0.50528853368E+02  0.29999980297E+02 0.  0.
         12    1    1    2    0    0  0.23525015768E+02 -0.31870844921E+02  0.91645557429E+01  0.40659146632E+02  0.00000000000E+00 0. -1.
         11    1    3    3    0    0 -0.74758203316E+01  0.13537436172E+02  0.80765906123E+01  0.17446529280E+02  0.51100000000E-03 0. -1.
        -11    1    3    3    0    0 -0.20665475126E+01  0.97225157615E+01 -0.10063334096E+01  0.99905274409E+01  0.51100000000E-03 0.  1.
        -12    1    3    3    0    0 -0.13982647924E+02  0.86108929877E+01 -0.16234812946E+02  0.23091796647E+02  0.00000000000E+00 0.  1.
</event>
<event>
 7    1  0.8986500E-014  0.5052884E+02  0.7816164E-02  0.1300439E+00
        -11   -1    0    0    0    0  0.00000000000E+00  0.00000000000E+00  0.45593999997E+02  0.45594000000E+02  0.51100000000E-03 0. -1.
         11   -1    0    0    0    0 -0.00000000000E+00 -0.00000000000E+00 -0.45593999997E+02  0.45594000000E+02  0.51100000000E-03 0.  1.
    9900012    2    1    2    0    0  0.77855950093E+01  0.32976052278E+02 -0.22475131885E+02  0.50528842769E+02  0.29999948081E+02 0.  0.
         12    1    1    2    0    0 -0.77855950093E+01 -0.32976052278E+02  0.22475131885E+02  0.40659157231E+02  0.00000000000E+00 0. -1.
         11    1    3    3    0    0  0.47904676263E+01  0.30482810357E+02 -0.21566854696E+02  0.37646773156E+02  0.51100000000E-03 0. -1.
        -11    1    3    3    0    0  0.38615867397E+01  0.69354300488E+01 -0.20818872957E+01  0.82064789699E+01  0.51100000000E-03 0.  1.
         12    1    3    3    0    0 -0.86645935664E+00 -0.44421881280E+01  0.11736101065E+01  0.46755906432E+01  0.00000000000E+00 0. -1.
</event>
<event>
 7    1  0.8986500E-014  0.5052891E+02  0.7816164E-02  0.1300439E+00
        -11   -1    0    0    0    0  0.00000000000E+00  0.00000000000E+00  0.45593999997E+02  0.45594000000E+02  0.51100000000E-03 0.  1.
         11   -1    0    0    0    0 -0.00000000000E+00 -0.00000000000E+00 -0.45593999997E+02  0.45594000000E+02  0.51100000000E-03 0. -1.
    9900012    2    1    2    0    0  0.29729561172E+02 -0.24543886253E+02 -0.12919461462E+02  0.50528909450E+02  0.30000150764E+02 0.  0.
         12    1    1    2    0    0 -0.29729561172E+02  0.24543886253E+02  0.12919461462E+02  0.40659090550E+02  0.00000000000E+00 0. -1.
         11    1    3    3    0    0 -0.66037183970E+00 -0.36386387583E+01  0.33842243733E+01  0.50128592490E+01  0.51100000000E-03 0. -1.
        -11    1    3    3    0    0  0.11737388632E+02 -0.16020785969E+02  0.60684779824E+00  0.19869578241E+02  0.51100000000E-03 0.  1.
        -12    1    3    3    0    0  0.18652544380E+02 -0.48844615257E+01 -0.16910533633E+02  0.25646471960E+02  0.00000000000E+00 0.  1.
</event>
<event>
 7    1  0.8986500E-014  0.5052886E+02  0.7816164E-02  0.1300439E+00
        -11   -1    0    0    0    0  0.00000000000E+00  0.00000000000E+00  0.45593999997E+02  0.45594000000E+02  0.51100000000E-03 0. -1.
         11   -1    0    0    0    0 -0.00000000000E+00 -0.00000000000E+00 -0.45593999997E+02  0.45594000000E+02  0.51100000000E-03 0.  1.
    9900012    2    1    2    0    0 -0.12152384907E+02  0.38122880370E+02 -0.72201758703E+01  0.50528863189E+02  0.30000010150E+02 0.  0.
         12    1    1    2    0    0  0.12152384907E+02 -0.38122880370E+02  0.72201758703E+01  0.40659136811E+02  0.00000000000E+00 0. -1.
         11    1    3    3    0    0 -0.21969728791E+01  0.18377387232E+02  0.34716223443E+01  0.18831017319E+02  0.51100000000E-03 0. -1.
        -11    1    3    3    0    0 -0.25847536270E+01  0.59880785900E+01  0.59884720611E+01  0.88543680972E+01  0.51100000000E-03 0.  1.
        -12    1    3    3    0    0 -0.73706584006E+01  0.13757414547E+02 -0.16680270276E+02  0.22843477773E+02  0.00000000000E+00 0.  1.
</event>
<event>
 7    1  0.8986500E-014  0.5052885E+02  0.7816164E-02  0.1300439E+00
        -11   -1    0    0    0    0  0.00000000000E+00  0.00000000000E+00  0.45593999997E+02  0.45594000000E+02  0.51100000000E-03 0.  1.
         11   -1    0    0    0    0 -0.00000000000E+00 -0.00000000000E+00 -0.45593999997E+02  0.45594000000E+02  0.51100000000E-03 0. -1.
    9900012    2    1    2    0    0  0.23993749294E+02 -0.30895694760E+02  0.11087029101E+02  0.50528853746E+02  0.29999981445E+02 0.  0.
        -12    1    1    2    0    0 -0.23993749294E+02  0.30895694760E+02 -0.11087029101E+02  0.40659146254E+02  0.00000000000E+00 0.  1.
         11    1    3    3    0    0  0.13461372632E+02 -0.51443642917E+01  0.46805956580E+01  0.15151931001E+02  0.51100000000E-03 0. -1.
        -11    1    3    3    0    0 -0.63090854396E+01 -0.52701852267E+01  0.67517565777E+00  0.82483497645E+01  0.51100000000E-03 0.  1.
         12    1    3    3    0    0  0.16841462102E+02 -0.20481145241E+02  0.57312577850E+01  0.27128572980E+02  0.00000000000E+00 0. -1.
</event>
<event>
 7    1  0.8986500E-014  0.5052886E+02  0.7816164E-02  0.1300439E+00
        -11   -1    0    0    0    0  0.00000000000E+00  0.00000000000E+00  0.45593999997E+02  0.45594000000E+02  0.51100000000E-03 0. -1.
         11   -1    0    0    0    0 -0.00000000000E+00 -0.00000000000E+00 -0.45593999997E+02  0.45594000000E+02  0.51100000000E-03 0.  1.
    9900012    2    1    2    0    0  0.27486075000E+02  0.10613056874E+02  0.28018637044E+02  0.50528864287E+02  0.30000013488E+02 0.  0.
        -12    1    1    2    0    0 -0.27486075000E+02 -0.10613056874E+02 -0.28018637044E+02  0.40659135713E+02  0.00000000000E+00 0.  1.
         11    1    3    3    0    0  0.97509695987E+01 -0.22339113169E+01  0.22133532971E+01  0.10245521020E+02  0.51100000000E-03 0. -1.
        -11    1    3    3    0    0  0.14342351984E+02  0.54192817413E+01  0.24308052614E+01  0.15523546293E+02  0.51100000000E-03 0.  1.
         12    1    3    3    0    0  0.33927534165E+01  0.74276864498E+01  0.23374478486E+02  0.24759796974E+02  0.00000000000E+00 0. -1.
</event>
<event>
 7    1  0.8986500E-014  0.5052886E+02  0.7816164E-02  0.1300439E+00
        -11   -1    0    0    0    0  0.00000000000E+00  0.00000000000E+00  0.45593999997E+02  0.45594000000E+02  0.51100000000E-03 0. -1.
         11   -1    0    0    0    0 -0.00000000000E+00 -0.00000000000E+00 -0.45593999997E+02  0.45594000000E+02  0.51100000000E-03 0.  1.
    9900012    2    1    2    0    0  0.28312960518E+02 -0.12776044306E+02 -0.26235752403E+02  0.50528859017E+02  0.29999997467E+02 0.  0.
         12    1    1    2    0    0 -0.28312960518E+02  0.12776044306E+02  0.26235752403E+02  0.40659140983E+02  0.00000000000E+00 0. -1.
         11    1    3    3    0    0  0.67033557429E+01 -0.69436293180E+01 -0.68078729160E+01  0.11810846719E+02  0.51100000000E-03 0. -1.
        -11    1    3    3    0    0  0.20377170749E+02 -0.13683334089E+02 -0.10308954723E+02  0.26622119887E+02  0.51100000000E-03 0.  1.
         12    1    3    3    0    0  0.12324340262E+01  0.78509191016E+01 -0.91189247636E+01  0.12095892411E+02  0.00000000000E+00 0. -1.
</event>
<event>
 7    1  0.8986500E-014  0.5052886E+02  0.7816164E-02  0.1300439E+00
        -11   -1    0    0    0    0  0.00000000000E+00  0.00000000000E+00  0.45593999997E+02  0.45594000000E+02  0.51100000000E-03 0. -1.
         11   -1    0    0    0    0 -0.00000000000E+00 -0.00000000000E+00 -0.45593999997E+02  0.45594000000E+02  0.51100000000E-03 0.  1.
    9900012    2    1    2    0    0 -0.35451017885E+02 -0.12945969360E+01 -0.19867435393E+02  0.50528860321E+02  0.30000001431E+02 0.  0.
         12    1    1    2    0    0  0.35451017885E+02  0.12945969360E+01  0.19867435393E+02  0.40659139679E+02  0.00000000000E+00 0. -1.
         11    1    3    3    0    0 -0.27018865320E+02 -0.91152899973E+01 -0.32953482399E+01  0.28704823901E+02  0.51100000000E-03 0.  1.
        -11    1    3    3    0    0  0.14474914830E+01  0.27044325603E+01 -0.38737892635E+01  0.49411972826E+01  0.51100000000E-03 0. -1.
        -12    1    3    3    0    0 -0.98796440489E+01  0.51162605010E+01 -0.12698297890E+02  0.16882839138E+02  0.00000000000E+00 0.  1.
</event>
<event>
 7    1  0.8986500E-014  0.5052886E+02  0.7816164E-02  0.1300439E+00
        -11   -1    0    0    0    0  0.00000000000E+00  0.00000000000E+00  0.45593999997E+02  0.45594000000E+02  0.51100000000E-03 0. -1.
         11   -1    0    0    0    0 -0.00000000000E+00 -0.00000000000E+00 -0.45593999997E+02  0.45594000000E+02  0.51100000000E-03 0.  1.
    9900012    2    1    2    0    0  0.15297553613E+02  0.20502667037E+02 -0.31603658132E+02  0.50528859459E+02  0.29999998812E+02 0.  0.
         12    1    1    2    0    0 -0.15297553613E+02 -0.20502667037E+02  0.31603658132E+02  0.40659140541E+02  0.00000000000E+00 0. -1.
         11    1    3    3    0    0 -0.37015188473E+01  0.42807359133E+01 -0.23192011088E+01  0.61159329444E+01  0.51100000000E-03 0. -1.
        -11    1    3    3    0    0  0.48230584975E+01  0.16864373920E+02 -0.91594778284E+01  0.19788002307E+02  0.51100000000E-03 0.  1.
        -12    1    3    3    0    0  0.14176013963E+02 -0.64244279589E+00 -0.20124979195E+02  0.24624924207E+02  0.00000000000E+00 0.  1.
</event>
<event>
 7    1  0.8986500E-014  0.5052886E+02  0.7816164E-02  0.1300439E+00
        -11   -1    0    0    0    0  0.00000000000E+00  0.00000000000E+00  0.45593999997E+02  0.45594000000E+02  0.51100000000E-03 0. -1.
         11   -1    0    0    0    0 -0.00000000000E+00 -0.00000000000E+00 -0.45593999997E+02  0.45594000000E+02  0.51100000000E-03 0.  1.
    9900012    2    1    2    0    0 -0.23517103413E+02 -0.27261437782E+02 -0.18892473105E+02  0.50528859786E+02  0.29999999805E+02 0.  0.
         12    1    1    2    0    0  0.23517103413E+02  0.27261437782E+02  0.18892473105E+02  0.40659140214E+02  0.00000000000E+00 0. -1.
         11    1    3    3    0    0  0.25363258228E+00  0.14636453168E+01  0.10041336614E+01  0.17930063501E+01  0.51100000000E-03 0. -1.
        -11    1    3    3    0    0 -0.18513183717E+02 -0.32825733518E+02 -0.15501664369E+02  0.40750071789E+02  0.51100000000E-03 0.  1.
         12    1    3    3    0    0 -0.52575522792E+01  0.41006504193E+01 -0.43949423984E+01  0.79857816471E+01  0.00000000000E+00 0. -1.
</event>
<event>
 7    1  0.8986500E-014  0.5052886E+02  0.7816164E-02  0.1300439E+00
        -11   -1    0    0    0    0  0.00000000000E+00  0.00000000000E+00  0.45593999997E+02  0.45594000000E+02  0.51100000000E-03 0. -1.
         11   -1    0    0    0    0 -0.00000000000E+00 -0.00000000000E+00 -0.45593999997E+02  0.45594000000E+02  0.51100000000E-03 0.  1.
    9900012    2    1    2    0    0 -0.28686447620E+02 -0.28787669439E+02  0.12341315867E+01  0.50528864870E+02  0.30000015258E+02 0.  0.
         12    1    1    2    0    0  0.28686447620E+02  0.28787669439E+02 -0.12341315867E+01  0.40659135130E+02  0.00000000000E+00 0. -1.
         11    1    3    3    0    0 -0.56821722176E+01 -0.12526663530E+02  0.54941995616E+01  0.14811840176E+02  0.51100000000E-03 0. -1.
        -11    1    3    3    0    0 -0.19843052075E+02 -0.16361724960E+02  0.47626754235E+01  0.26155990457E+02  0.51100000000E-03 0.  1.
         12    1    3    3    0    0 -0.31612233275E+01  0.10071905173E+00 -0.90227433983E+01  0.95610342373E+01  0.00000000000E+00 0. -1.
</event>
<event>
 7    1  0.8986500E-014  0.5052887E+02  0.7816164E-02  0.1300439E+00
        -11   -1    0    0    0    0  0.00000000000E+00  0.00000000000E+00  0.45593999997E+02  0.45594000000E+02  0.51100000000E-03 0. -1.
         11   -1    0    0    0    0 -0.00000000000E+00 -0.00000000000E+00 -0.45593999997E+02  0.45594000000E+02  0.51100000000E-03 0.  1.
    9900012    2    1    2    0    0  0.42502536409E+01 -0.31772340307E+02 -0.25012368700E+02  0.50528869998E+02  0.30000030845E+02 0.  0.
         12    1    1    2    0    0 -0.42502536409E+01  0.31772340307E+02  0.25012368700E+02  0.40659130002E+02  0.00000000000E+00 0. -1.
         11    1    3    3    0    0  0.26247465531E+01 -0.12168905205E+01  0.62963608971E+00  0.29608375291E+01  0.51100000000E-03 0. -1.
        -11    1    3    3    0    0  0.13214512081E+02 -0.19868903333E+02 -0.11945774171E+02  0.26685167603E+02  0.51100000000E-03 0.  1.
        -12    1    3    3    0    0 -0.11589004993E+02 -0.10686546453E+02 -0.13696230619E+02  0.20882864865E+02  0.00000000000E+00 0.  1.
</event>
<event>
 7    1  0.8986500E-014  0.5052885E+02  0.7816164E-02  0.1300439E+00
        -11   -1    0    0    0    0  0.00000000000E+00  0.00000000000E+00  0.45593999997E+02  0.45594000000E+02  0.51100000000E-03 0. -1.
         11   -1    0    0    0    0 -0.00000000000E+00 -0.00000000000E+00 -0.45593999997E+02  0.45594000000E+02  0.51100000000E-03 0.  1.
    9900012    2    1    2    0    0 -0.30793868013E+02  0.77007341744E+01  0.25408714802E+02  0.50528850944E+02  0.29999972931E+02 0.  0.
        -12    1    1    2    0    0  0.30793868013E+02 -0.77007341744E+01 -0.25408714802E+02  0.40659149056E+02  0.00000000000E+00 0.  1.
         11    1    3    3    0    0 -0.27099524607E+01 -0.33279203562E+01  0.12768001750E+02  0.13469994996E+02  0.51100000000E-03 0. -1.
        -11    1    3    3    0    0 -0.52280788113E+01 -0.41406181601E+01  0.56742929770E+01  0.87564335123E+01  0.51100000000E-03 0.  1.
         12    1    3    3    0    0 -0.22855836741E+02  0.15169272691E+02  0.69664200750E+01  0.28302422437E+02  0.00000000000E+00 0. -1.
</event>
<event>
 7    1  0.8986500E-014  0.5052885E+02  0.7816164E-02  0.1300439E+00
        -11   -1    0    0    0    0  0.00000000000E+00  0.00000000000E+00  0.45593999997E+02  0.45594000000E+02  0.51100000000E-03 0. -1.
         11   -1    0    0    0    0 -0.00000000000E+00 -0.00000000000E+00 -0.45593999997E+02  0.45594000000E+02  0.51100000000E-03 0.  1.
    9900012    2    1    2    0    0  0.10513577181E+02  0.33237068873E+02 -0.20926744180E+02  0.50528847594E+02  0.29999962746E+02 0.  0.
         12    1    1    2    0    0 -0.10513577181E+02 -0.33237068873E+02  0.20926744180E+02  0.40659152406E+02  0.00000000000E+00 0. -1.
         11    1    3    3    0    0  0.30633864956E+01  0.25311102715E+01 -0.11553059082E+02  0.12217365938E+02  0.51100000000E-03 0.  1.
        -11    1    3    3    0    0  0.23837075936E+01  0.56450045060E+01  0.59186168311E+01  0.85192818488E+01  0.51100000000E-03 0. -1.
        -12    1    3    3    0    0  0.50664830920E+01  0.25060954096E+02 -0.15292301928E+02  0.29792199808E+02  0.00000000000E+00 0.  1.
</event>
<event>
 7    1  0.8986500E-014  0.5052886E+02  0.7816164E-02  0.1300439E+00
        -11   -1    0    0    0    0  0.00000000000E+00  0.00000000000E+00  0.45593999997E+02  0.45594000000E+02  0.51100000000E-03 0. -1.
         11   -1    0    0    0    0 -0.00000000000E+00 -0.00000000000E+00 -0.45593999997E+02  0.45594000000E+02  0.51100000000E-03 0.  1.
    9900012    2    1    2    0    0  0.28264770654E+02  0.17474911241E+02 -0.23428521172E+02  0.50528863421E+02  0.30000010855E+02 0.  0.
         12    1    1    2    0    0 -0.28264770654E+02 -0.17474911241E+02  0.23428521172E+02  0.40659136579E+02  0.00000000000E+00 0. -1.
         11    1    3    3    0    0  0.10124130505E+02  0.74840854901E+01 -0.11499403827E+02  0.17051271001E+02  0.51100000000E-03 0. -1.
        -11    1    3    3    0    0  0.18341356429E+02  0.15735026408E+02 -0.13278224515E+02  0.27573676909E+02  0.51100000000E-03 0.  1.
         12    1    3    3    0    0 -0.20071628030E+00 -0.57442006567E+01  0.13491071705E+01  0.59039155115E+01  0.00000000000E+00 0. -1.
</event>
<event>
 7    1  0.8986500E-014  0.5052886E+02  0.7816164E-02  0.1300439E+00
        -11   -1    0    0    0    0  0.00000000000E+00  0.00000000000E+00  0.45593999997E+02  0.45594000000E+02  0.51100000000E-03 0. -1.
         11   -1    0    0    0    0 -0.00000000000E+00 -0.00000000000E+00 -0.45593999997E+02  0.45594000000E+02  0.51100000000E-03 0.  1.
    9900012    2    1    2    0    0 -0.11774778800E+02 -0.15108093826E+01  0.38887502739E+02  0.50528857977E+02  0.29999994307E+02 0.  0.
        -12    1    1    2    0    0  0.11774778800E+02  0.15108093826E+01 -0.38887502739E+02  0.40659142023E+02  0.00000000000E+00 0.  1.
         11    1    3    3    0    0 -0.10824927626E+02 -0.27029052073E+01  0.25241013454E+01  0.11439223860E+02  0.51100000000E-03 0.  1.
        -11    1    3    3    0    0 -0.58963607504E+01  0.25607505699E+01  0.79860914473E+01  0.10251934961E+02  0.51100000000E-03 0. -1.
        -12    1    3    3    0    0  0.49465095764E+01 -0.13686547451E+01  0.28377309946E+02  0.28837699155E+02  0.00000000000E+00 0.  1.
</event>
<event>
 7    1  0.8986500E-014  0.5052886E+02  0.7816164E-02  0.1300439E+00
        -11   -1    0    0    0    0  0.00000000000E+00  0.00000000000E+00  0.45593999997E+02  0.45594000000E+02  0.51100000000E-03 0. -1.
         11   -1    0    0    0    0 -0.00000000000E+00 -0.00000000000E+00 -0.45593999997E+02  0.45594000000E+02  0.51100000000E-03 0.  1.
    9900012    2    1    2    0    0  0.22087083076E+02  0.15084276834E+02  0.30623376562E+02  0.50528857873E+02  0.29999993991E+02 0.  0.
        -12    1    1    2    0    0 -0.22087083076E+02 -0.15084276834E+02 -0.30623376562E+02  0.40659142127E+02  0.00000000000E+00 0.  1.
         11    1    3    3    0    0  0.65813163690E+01  0.47184108818E+00  0.11384966149E+02  0.13158792256E+02  0.51100000000E-03 0. -1.
        -11    1    3    3    0    0 -0.15126438598E+01  0.31170811545E+01  0.16251790321E+02  0.16617008614E+02  0.51100000000E-03 0.  1.
        -12    1    3    3    0    0  0.17018410567E+02  0.11495354591E+02  0.29866200921E+01  0.20753057003E+02  0.00000000000E+00 0.  1.
</event>
<event>
 7    1  0.8986500E-014  0.5052887E+02  0.7816164E-02  0.1300439E+00
        -11   -1    0    0    0    0  0.00000000000E+00  0.00000000000E+00  0.45593999997E+02  0.45594000000E+02  0.51100000000E-03 0. -1.
         11   -1    0    0    0    0 -0.00000000000E+00 -0.00000000000E+00 -0.45593999997E+02  0.45594000000E+02  0.51100000000E-03 0.  1.
    9900012    2    1    2    0    0 -0.15406796375E+02  0.24831457357E+02 -0.28270017259E+02  0.50528874028E+02  0.30000043094E+02 0.  0.
         12    1    1    2    0    0  0.15406796375E+02 -0.24831457357E+02  0.28270017259E+02  0.40659125972E+02  0.00000000000E+00 0. -1.
         11    1    3    3    0    0 -0.46329234326E+01  0.45109609404E+01 -0.68265138157E+01  0.94028739902E+01  0.51100000000E-03 0. -1.
        -11    1    3    3    0    0 -0.15735104312E+02  0.16132767016E+02 -0.25053286948E+02  0.33697579534E+02  0.51100000000E-03 0.  1.
         12    1    3    3    0    0  0.49612313692E+01  0.41877294001E+01  0.36097835044E+01  0.74284205035E+01  0.00000000000E+00 0. -1.
</event>
<event>
 7    1  0.8986500E-014  0.5052888E+02  0.7816164E-02  0.1300439E+00
        -11   -1    0    0    0    0  0.00000000000E+00  0.00000000000E+00  0.45593999997E+02  0.45594000000E+02  0.51100000000E-03 0.  1.
         11   -1    0    0    0    0 -0.00000000000E+00 -0.00000000000E+00 -0.45593999997E+02  0.45594000000E+02  0.51100000000E-03 0. -1.
    9900012    2    1    2    0    0 -0.23783678777E+02 -0.17622481090E+02 -0.27873806814E+02  0.50528876519E+02  0.30000050668E+02 0.  0.
         12    1    1    2    0    0  0.23783678777E+02  0.17622481090E+02  0.27873806814E+02  0.40659123481E+02  0.00000000000E+00 0. -1.
         11    1    3    3    0    0 -0.75474598359E+01  0.66908828143E+01 -0.87743275894E+01  0.13368653175E+02  0.51100000000E-03 0. -1.
        -11    1    3    3    0    0 -0.65661755744E+01 -0.14365133196E+02 -0.16867712816E+02  0.23108255004E+02  0.51100000000E-03 0.  1.
        -12    1    3    3    0    0 -0.96700433668E+01 -0.99482307082E+01 -0.22317664082E+01  0.14051968340E+02  0.00000000000E+00 0.  1.
</event>
<event>
 7    1  0.8986500E-014  0.5052887E+02  0.7816164E-02  0.1300439E+00
        -11   -1    0    0    0    0  0.00000000000E+00  0.00000000000E+00  0.45593999997E+02  0.45594000000E+02  0.51100000000E-03 0.  1.
         11   -1    0    0    0    0 -0.00000000000E+00 -0.00000000000E+00 -0.45593999997E+02  0.45594000000E+02  0.51100000000E-03 0. -1.
    9900012    2    1    2    0    0  0.29064412643E+02 -0.26888650624E+02 -0.92425716768E+01  0.50528871309E+02  0.30000034832E+02 0.  0.
         12    1    1    2    0    0 -0.29064412643E+02  0.26888650624E+02  0.92425716768E+01  0.40659128691E+02  0.00000000000E+00 0. -1.
         11    1    3    3    0    0 -0.15391922531E+01 -0.90911059403E+01 -0.10581837869E+02  0.14035405693E+02  0.51100000000E-03 0. -1.
        -11    1    3    3    0    0  0.12455902207E+02 -0.11121262541E+02  0.34204732898E+01  0.17044988063E+02  0.51100000000E-03 0.  1.
        -12    1    3    3    0    0  0.18147702690E+02 -0.66762821426E+01 -0.20812070973E+01  0.19448477553E+02  0.00000000000E+00 0.  1.
</event>
<event>
 7    1  0.8986500E-014  0.5052886E+02  0.7816164E-02  0.1300439E+00
        -11   -1    0    0    0    0  0.00000000000E+00  0.00000000000E+00  0.45593999997E+02  0.45594000000E+02  0.51100000000E-03 0. -1.
         11   -1    0    0    0    0 -0.00000000000E+00 -0.00000000000E+00 -0.45593999997E+02  0.45594000000E+02  0.51100000000E-03 0.  1.
    9900012    2    1    2    0    0 -0.78896528048E+01  0.10779707464E+02 -0.38402041764E+02  0.50528861716E+02  0.30000005671E+02 0.  0.
         12    1    1    2    0    0  0.78896528048E+01 -0.10779707464E+02  0.38402041764E+02  0.40659138284E+02  0.00000000000E+00 0. -1.
         11    1    3    3    0    0  0.21270589878E+01 -0.32494576346E+01 -0.48966027861E+01  0.62498059140E+01  0.51100000000E-03 0. -1.
        -11    1    3    3    0    0 -0.24331506267E+01 -0.65299961148E+01 -0.94112572726E+01  0.11710372963E+02  0.51100000000E-03 0.  1.
        -12    1    3    3    0    0 -0.75835611658E+01  0.20559161214E+02 -0.24094181705E+02  0.32568682838E+02  0.00000000000E+00 0.  1.
</event>
<event>
 7    1  0.8986500E-014  0.5052886E+02  0.7816164E-02  0.1300439E+00
        -11   -1    0    0    0    0  0.00000000000E+00  0.00000000000E+00  0.45593999997E+02  0.45594000000E+02  0.51100000000E-03 0. -1.
         11   -1    0    0    0    0 -0.00000000000E+00 -0.00000000000E+00 -0.45593999997E+02  0.45594000000E+02  0.51100000000E-03 0.  1.
    9900012    2    1    2    0    0  0.19063627944E+02  0.76147182373E+01  0.35096433545E+02  0.50528862136E+02  0.30000006950E+02 0.  0.
        -12    1    1    2    0    0 -0.19063627944E+02 -0.76147182373E+01 -0.35096433545E+02  0.40659137864E+02  0.00000000000E+00 0.  1.
         11    1    3    3    0    0  0.10219043221E+01  0.46731142643E+01  0.56895382505E+01  0.74332449936E+01  0.51100000000E-03 0. -1.
        -11    1    3    3    0    0  0.22904661793E+02  0.48577419213E+00  0.29851773538E+02  0.37629614561E+02  0.51100000000E-03 0.  1.
        -12    1    3    3    0    0 -0.48629381715E+01  0.24558297808E+01 -0.44487824269E+00  0.54660025817E+01  0.00000000000E+00 0.  1.
</event>
<event>
 7    1  0.8986500E-014  0.5052886E+02  0.7816164E-02  0.1300439E+00
        -11   -1    0    0    0    0  0.00000000000E+00  0.00000000000E+00  0.45593999997E+02  0.45594000000E+02  0.51100000000E-03 0.  1.
         11   -1    0    0    0    0 -0.00000000000E+00 -0.00000000000E+00 -0.45593999997E+02  0.45594000000E+02  0.51100000000E-03 0. -1.
    9900012    2    1    2    0    0 -0.32557250596E+02 -0.24165153252E+02 -0.30390920145E+01  0.50528864762E+02  0.30000014929E+02 0.  0.
        -12    1    1    2    0    0  0.32557250596E+02  0.24165153252E+02  0.30390920145E+01  0.40659135238E+02  0.00000000000E+00 0.  1.
         11    1    3    3    0    0 -0.89091578185E+01 -0.38386810478E+01  0.40629009652E+01  0.10517401282E+02  0.51100000000E-03 0. -1.
        -11    1    3    3    0    0 -0.16549956249E+02 -0.23285229122E+02  0.13311370969E+01  0.28598511733E+02  0.51100000000E-03 0.  1.
         12    1    3    3    0    0 -0.70981365283E+01  0.29587569176E+01 -0.84331300766E+01  0.11412951746E+02  0.00000000000E+00 0. -1.
</event>
<event>
 7    1  0.8986500E-014  0.5052886E+02  0.7816164E-02  0.1300439E+00
        -11   -1    0    0    0    0  0.00000000000E+00  0.00000000000E+00  0.45593999997E+02  0.45594000000E+02  0.51100000000E-03 0. -1.
         11   -1    0    0    0    0 -0.00000000000E+00 -0.00000000000E+00 -0.45593999997E+02  0.45594000000E+02  0.51100000000E-03 0.  1.
    9900012    2    1    2    0    0  0.30004779824E+02 -0.45680669297E+01 -0.27055716543E+02  0.50528857788E+02  0.29999993733E+02 0.  0.
         12    1    1    2    0    0 -0.30004779824E+02  0.45680669297E+01  0.27055716543E+02  0.40659142212E+02  0.00000000000E+00 0. -1.
         11    1    3    3    0    0  0.88760916596E+01 -0.48448095289E+01  0.46702668416E-01  0.10112337214E+02  0.51100000000E-03 0. -1.
        -11    1    3    3    0    0  0.24934508983E+02  0.17494606731E+01 -0.19186077460E+02  0.31510251021E+02  0.51100000000E-03 0.  1.
        -12    1    3    3    0    0 -0.38058208187E+01 -0.14727180739E+01 -0.79163417515E+01  0.89062695533E+01  0.00000000000E+00 0.  1.
</event>
<event>
 7    1  0.8986500E-014  0.5052886E+02  0.7816164E-02  0.1300439E+00
        -11   -1    0    0    0    0  0.00000000000E+00  0.00000000000E+00  0.45593999997E+02  0.45594000000E+02  0.51100000000E-03 0. -1.
         11   -1    0    0    0    0 -0.00000000000E+00 -0.00000000000E+00 -0.45593999997E+02  0.45594000000E+02  0.51100000000E-03 0.  1.
    9900012    2    1    2    0    0 -0.25573621508E+02 -0.28583937357E+02  0.13494956664E+02  0.50528862685E+02  0.30000008617E+02 0.  0.
        -12    1    1    2    0    0  0.25573621508E+02  0.28583937357E+02 -0.13494956664E+02  0.40659137315E+02  0.00000000000E+00 0.  1.
         11    1    3    3    0    0 -0.12330530741E+02 -0.98363112748E+01  0.49326497741E+01  0.16526525403E+02  0.51100000000E-03 0. -1.
        -11    1    3    3    0    0 -0.17534627469E+02 -0.80252524804E+01 -0.54903651881E+00  0.19291689382E+02  0.51100000000E-03 0.  1.
        -12    1    3    3    0    0  0.42915367022E+01 -0.10722373602E+02  0.91113434083E+01  0.14710647900E+02  0.00000000000E+00 0.  1.
</event>
<event>
 7    1  0.8986500E-014  0.5052887E+02  0.7816164E-02  0.1300439E+00
        -11   -1    0    0    0    0  0.00000000000E+00  0.00000000000E+00  0.45593999997E+02  0.45594000000E+02  0.51100000000E-03 0. -1.
         11   -1    0    0    0    0 -0.00000000000E+00 -0.00000000000E+00 -0.45593999997E+02  0.45594000000E+02  0.51100000000E-03 0.  1.
    9900012    2    1    2    0    0 -0.11426814846E+02  0.71044326314E+01  0.38368218466E+02  0.50528865125E+02  0.30000016034E+02 0.  0.
        -12    1    1    2    0    0  0.11426814846E+02 -0.71044326314E+01 -0.38368218466E+02  0.40659134875E+02  0.00000000000E+00 0.  1.
         11    1    3    3    0    0 -0.28646514150E+01  0.12524185112E+02  0.24412941642E+02  0.27587191962E+02  0.51100000000E-03 0. -1.
        -11    1    3    3    0    0 -0.13047439932E+01  0.28327947314E+01  0.11180053925E+02  0.11606924180E+02  0.51100000000E-03 0.  1.
        -12    1    3    3    0    0 -0.72574194376E+01 -0.82525472121E+01  0.27752228986E+01  0.11334748984E+02  0.00000000000E+00 0.  1.
</event>
<event>
 7    1  0.8986500E-014  0.5052886E+02  0.7816164E-02  0.1300439E+00
        -11   -1    0    0    0    0  0.00000000000E+00  0.00000000000E+00  0.45593999997E+02  0.45594000000E+02  0.51100000000E-03 0. -1.
         11   -1    0    0    0    0 -0.00000000000E+00 -0.00000000000E+00 -0.45593999997E+02  0.45594000000E+02  0.51100000000E-03 0.  1.
    9900012    2    1    2    0    0 -0.31671013773E+02  0.14753780829E+02  0.20795161289E+02  0.50528857176E+02  0.29999991874E+02 0.  0.
        -12    1    1    2    0    0  0.31671013773E+02 -0.14753780829E+02 -0.20795161289E+02  0.40659142824E+02  0.00000000000E+00 0.  1.
         11    1    3    3    0    0 -0.28398547985E+02  0.44408419873E+01  0.12129865813E+02  0.31198273192E+02  0.51100000000E-03 0. -1.
        -11    1    3    3    0    0 -0.58308306257E+01  0.91560842121E+01  0.11164449682E+02  0.15571685871E+02  0.51100000000E-03 0.  1.
         12    1    3    3    0    0  0.25583648385E+01  0.11568546295E+01 -0.24991542072E+01  0.37588981141E+01  0.00000000000E+00 0. -1.
</event>
<event>
 7    1  0.8986500E-014  0.5052885E+02  0.7816164E-02  0.1300439E+00
        -11   -1    0    0    0    0  0.00000000000E+00  0.00000000000E+00  0.45593999997E+02  0.45594000000E+02  0.51100000000E-03 0. -1.
         11   -1    0    0    0    0 -0.00000000000E+00 -0.00000000000E+00 -0.45593999997E+02  0.45594000000E+02  0.51100000000E-03 0.  1.
    9900012    2    1    2    0    0 -0.34104103058E+02  0.14420868470E+02 -0.16796286514E+02  0.50528849327E+02  0.29999968013E+02 0.  0.
         12    1    1    2    0    0  0.34104103058E+02 -0.14420868470E+02  0.16796286514E+02  0.40659150673E+02  0.00000000000E+00 0. -1.
         11    1    3    3    0    0 -0.11485237180E+02  0.13099035529E+02 -0.26428367616E+00  0.17423124031E+02  0.51100000000E-03 0. -1.
        -11    1    3    3    0    0 -0.52493210421E+01  0.58078713149E+01 -0.12451434839E+02  0.14707990019E+02  0.51100000000E-03 0.  1.
         12    1    3    3    0    0 -0.17369544836E+02 -0.44860383742E+01 -0.40805679994E+01  0.18397735276E+02  0.00000000000E+00 0. -1.
</event>
<event>
 7    1  0.8986500E-014  0.5052886E+02  0.7816164E-02  0.1300439E+00
        -11   -1    0    0    0    0  0.00000000000E+00  0.00000000000E+00  0.45593999997E+02  0.45594000000E+02  0.51100000000E-03 0. -1.
         11   -1    0    0    0    0 -0.00000000000E+00 -0.00000000000E+00 -0.45593999997E+02  0.45594000000E+02  0.51100000000E-03 0.  1.
    9900012    2    1    2    0    0  0.18637266703E+02 -0.34328875908E+02  0.11284776023E+02  0.50528860792E+02  0.30000002863E+02 0.  0.
        -12    1    1    2    0    0 -0.18637266703E+02  0.34328875908E+02 -0.11284776023E+02  0.40659139208E+02  0.00000000000E+00 0.  1.
         11    1    3    3    0    0  0.81081604931E+01 -0.22310208879E+02  0.15998111016E+02  0.28625639611E+02  0.51100000000E-03 0. -1.
        -11    1    3    3    0    0  0.78712752649E+01 -0.91878533268E+00  0.26084686425E+01  0.83429760700E+01  0.51100000000E-03 0.  1.
        -12    1    3    3    0    0  0.26578309452E+01 -0.11099881696E+02 -0.73218036353E+01  0.13560245111E+02  0.00000000000E+00 0.  1.
</event>
<event>
 7    1  0.8986500E-014  0.5052886E+02  0.7816164E-02  0.1300439E+00
        -11   -1    0    0    0    0  0.00000000000E+00  0.00000000000E+00  0.45593999997E+02  0.45594000000E+02  0.51100000000E-03 0. -1.
         11   -1    0    0    0    0 -0.00000000000E+00 -0.00000000000E+00 -0.45593999997E+02  0.45594000000E+02  0.51100000000E-03 0.  1.
    9900012    2    1    2    0    0 -0.20778591068E+02  0.11730728035E+02 -0.32921201953E+02  0.50528863696E+02  0.30000011690E+02 0.  0.
         12    1    1    2    0    0  0.20778591068E+02 -0.11730728035E+02  0.32921201953E+02  0.40659136304E+02  0.00000000000E+00 0. -1.
         11    1    3    3    0    0 -0.14882112436E+02  0.80134780827E+01 -0.12652126497E+02  0.21113251922E+02  0.51100000000E-03 0. -1.
        -11    1    3    3    0    0 -0.56800449173E+01  0.11851260426E+02 -0.11649159678E+02  0.17561839465E+02  0.51100000000E-03 0.  1.
         12    1    3    3    0    0 -0.21643371445E+00 -0.81340104738E+01 -0.86199157777E+01  0.11853772309E+02  0.00000000000E+00 0. -1.
</event>
<event>
 7    1  0.8986500E-014  0.5052884E+02  0.7816164E-02  0.1300439E+00
        -11   -1    0    0    0    0  0.00000000000E+00  0.00000000000E+00  0.45593999997E+02  0.45594000000E+02  0.51100000000E-03 0. -1.
         11   -1    0    0    0    0 -0.00000000000E+00 -0.00000000000E+00 -0.45593999997E+02  0.45594000000E+02  0.51100000000E-03 0.  1.
    9900012    2    1    2    0    0 -0.72386702206E+01 -0.65653615417E+01 -0.39467264278E+02  0.50528840290E+02  0.29999940545E+02 0.  0.
         12    1    1    2    0    0  0.72386702206E+01  0.65653615417E+01  0.39467264278E+02  0.40659159710E+02  0.00000000000E+00 0. -1.
         11    1    3    3    0    0 -0.26500375463E+00  0.37048938515E+01  0.14350967750E+01  0.39819553558E+01  0.51100000000E-03 0. -1.
        -11    1    3    3    0    0  0.46988630795E+01  0.12195131931E+01 -0.44566964500E+01  0.65900432607E+01  0.51100000000E-03 0.  1.
        -12    1    3    3    0    0 -0.11672529545E+02 -0.11489768586E+02 -0.36445664603E+02  0.39956841673E+02  0.00000000000E+00 0.  1.
</event>
<event>
 7    1  0.8986500E-014  0.5052886E+02  0.7816164E-02  0.1300439E+00
        -11   -1    0    0    0    0  0.00000000000E+00  0.00000000000E+00  0.45593999997E+02  0.45594000000E+02  0.51100000000E-03 0. -1.
         11   -1    0    0    0    0 -0.00000000000E+00 -0.00000000000E+00 -0.45593999997E+02  0.45594000000E+02  0.51100000000E-03 0.  1.
    9900012    2    1    2    0    0 -0.23134320964E+02  0.31810059981E+02 -0.10299957696E+02  0.50528857719E+02  0.29999993523E+02 0.  0.
         12    1    1    2    0    0  0.23134320964E+02 -0.31810059981E+02  0.10299957696E+02  0.40659142281E+02  0.00000000000E+00 0. -1.
         11    1    3    3    0    0 -0.12202510444E+01 -0.13849949749E+01 -0.39676613690E+00  0.18880273622E+01  0.51100000000E-03 0. -1.
        -11    1    3    3    0    0 -0.17160953962E+02  0.29191377842E+02  0.33256907936E+01  0.34024918820E+02  0.51100000000E-03 0.  1.
         12    1    3    3    0    0 -0.47531159586E+01  0.40036771142E+01 -0.13228882353E+02  0.14615911537E+02  0.00000000000E+00 0. -1.
</event>
<event>
 7    1  0.8986500E-014  0.5052886E+02  0.7816164E-02  0.1300439E+00
        -11   -1    0    0    0    0  0.00000000000E+00  0.00000000000E+00  0.45593999997E+02  0.45594000000E+02  0.51100000000E-03 0. -1.
         11   -1    0    0    0    0 -0.00000000000E+00 -0.00000000000E+00 -0.45593999997E+02  0.45594000000E+02  0.51100000000E-03 0.  1.
    9900012    2    1    2    0    0  0.33462989858E+02  0.11508191836E+02  0.20023879763E+02  0.50528856744E+02  0.29999990558E+02 0.  0.
        -12    1    1    2    0    0 -0.33462989858E+02 -0.11508191836E+02 -0.20023879763E+02  0.40659143256E+02  0.00000000000E+00 0.  1.
         11    1    3    3    0    0  0.12559395847E+02 -0.52562773057E+01  0.21523746189E+01  0.13784033949E+02  0.51100000000E-03 0. -1.
        -11    1    3    3    0    0  0.85019572198E+00 -0.34964037794E+01  0.19225748027E+01  0.40797017400E+01  0.51100000000E-03 0.  1.
         12    1    3    3    0    0  0.20053398289E+02  0.20260872921E+02  0.15948930342E+02  0.32665121054E+02  0.00000000000E+00 0. -1.
</event>
<event>
 7    1  0.8986500E-014  0.5052887E+02  0.7816164E-02  0.1300439E+00
        -11   -1    0    0    0    0  0.00000000000E+00  0.00000000000E+00  0.45593999997E+02  0.45594000000E+02  0.51100000000E-03 0. -1.
         11   -1    0    0    0    0 -0.00000000000E+00 -0.00000000000E+00 -0.45593999997E+02  0.45594000000E+02  0.51100000000E-03 0.  1.
    9900012    2    1    2    0    0 -0.13301143150E+02 -0.41664066922E+01 -0.38195360388E+02  0.50528869304E+02  0.30000028735E+02 0.  0.
         12    1    1    2    0    0  0.13301143150E+02  0.41664066922E+01  0.38195360388E+02  0.40659130696E+02  0.00000000000E+00 0. -1.
         11    1    3    3    0    0 -0.42879453812E+01  0.68666491570E+01 -0.17448111599E+01  0.82814076389E+01  0.51100000000E-03 0. -1.
        -11    1    3    3    0    0 -0.66585400675E+01  0.20341264494E+01 -0.66729261924E+01  0.96437425553E+01  0.51100000000E-03 0.  1.
         12    1    3    3    0    0 -0.23546577012E+01 -0.13067182299E+02 -0.29777623036E+02  0.32603719109E+02  0.00000000000E+00 0. -1.
</event>
<event>
 7    1  0.8986500E-014  0.5052886E+02  0.7816164E-02  0.1300439E+00
        -11   -1    0    0    0    0  0.00000000000E+00  0.00000000000E+00  0.45593999997E+02  0.45594000000E+02  0.51100000000E-03 0. -1.
         11   -1    0    0    0    0 -0.00000000000E+00 -0.00000000000E+00 -0.45593999997E+02  0.45594000000E+02  0.51100000000E-03 0.  1.
    9900012    2    1    2    0    0 -0.24036435427E+02  0.20925146036E+01 -0.32726700791E+02  0.50528858468E+02  0.29999995801E+02 0.  0.
         12    1    1    2    0    0  0.24036435427E+02 -0.20925146036E+01  0.32726700791E+02  0.40659141532E+02  0.00000000000E+00 0. -1.
         11    1    3    3    0    0 -0.55606549439E+01 -0.45847777121E+01  0.15772147289E+01  0.73775793209E+01  0.51100000000E-03 0. -1.
        -11    1    3    3    0    0 -0.10296477011E+02 -0.48084717495E+01 -0.10432800000E+02  0.15426670266E+02  0.51100000000E-03 0.  1.
        -12    1    3    3    0    0 -0.81793034728E+01  0.11485764065E+02 -0.23871115520E+02  0.27724608881E+02  0.00000000000E+00 0.  1.
</event>
<event>
 7    1  0.8986500E-014  0.5052886E+02  0.7816164E-02  0.1300439E+00
        -11   -1    0    0    0    0  0.00000000000E+00  0.00000000000E+00  0.45593999997E+02  0.45594000000E+02  0.51100000000E-03 0. -1.
         11   -1    0    0    0    0 -0.00000000000E+00 -0.00000000000E+00 -0.45593999997E+02  0.45594000000E+02  0.51100000000E-03 0.  1.
    9900012    2    1    2    0    0  0.18862892078E+02 -0.10714096805E+02 -0.34388445190E+02  0.50528859201E+02  0.29999998028E+02 0.  0.
         12    1    1    2    0    0 -0.18862892078E+02  0.10714096805E+02  0.34388445190E+02  0.40659140799E+02  0.00000000000E+00 0. -1.
         11    1    3    3    0    0  0.12691431588E+02 -0.47624538568E+01 -0.73388379234E+01  0.15414666549E+02  0.51100000000E-03 0. -1.
        -11    1    3    3    0    0 -0.43750642098E+01 -0.93834865907E+01 -0.80510038823E+01  0.13115245755E+02  0.51100000000E-03 0.  1.
         12    1    3    3    0    0  0.10546524700E+02  0.34318436428E+01 -0.18998603385E+02  0.21998946898E+02  0.00000000000E+00 0. -1.
</event>
<event>
 7    1  0.8986500E-014  0.5052889E+02  0.7816164E-02  0.1300439E+00
        -11   -1    0    0    0    0  0.00000000000E+00  0.00000000000E+00  0.45593999997E+02  0.45594000000E+02  0.51100000000E-03 0. -1.
         11   -1    0    0    0    0 -0.00000000000E+00 -0.00000000000E+00 -0.45593999997E+02  0.45594000000E+02  0.51100000000E-03 0.  1.
    9900012    2    1    2    0    0  0.26439509199E+02 -0.23454181317E+02 -0.20100181309E+02  0.50528885934E+02  0.30000079286E+02 0.  0.
         12    1    1    2    0    0 -0.26439509199E+02  0.23454181317E+02  0.20100181309E+02  0.40659114066E+02  0.00000000000E+00 0. -1.
         11    1    3    3    0    0  0.12064111944E+02 -0.18932134598E+02 -0.17773087293E+01  0.22519488094E+02  0.51100000000E-03 0. -1.
        -11    1    3    3    0    0 -0.29832972659E+01 -0.57334354875E+00 -0.10758133342E+01  0.32227565829E+01  0.51100000000E-03 0.  1.
        -12    1    3    3    0    0  0.17358694521E+02 -0.39487031701E+01 -0.17247059246E+02  0.24786641257E+02  0.00000000000E+00 0.  1.
</event>
<event>
 7    1  0.8986500E-014  0.5052892E+02  0.7816164E-02  0.1300439E+00
        -11   -1    0    0    0    0  0.00000000000E+00  0.00000000000E+00  0.45593999997E+02  0.45594000000E+02  0.51100000000E-03 0. -1.
         11   -1    0    0    0    0 -0.00000000000E+00 -0.00000000000E+00 -0.45593999997E+02  0.45594000000E+02  0.51100000000E-03 0.  1.
    9900012    2    1    2    0    0  0.45020857696E+01 -0.16524568843E+01 -0.40375257517E+02  0.50528919715E+02  0.30000181966E+02 0.  0.
         12    1    1    2    0    0 -0.45020857696E+01  0.16524568843E+01  0.40375257517E+02  0.40659080285E+02  0.00000000000E+00 0. -1.
         11    1    3    3    0    0  0.53910736365E+01  0.11260054825E+02 -0.31024487835E+02  0.33442059675E+02  0.51100000000E-03 0. -1.
        -11    1    3    3    0    0 -0.70740977744E+00 -0.15472107833E+01 -0.43459386798E+01  0.46670625741E+01  0.51100000000E-03 0.  1.
        -12    1    3    3    0    0 -0.18157808946E+00 -0.11365300926E+02 -0.50048310022E+01  0.12419797466E+02  0.00000000000E+00 0.  1.
</event>
<event>
 7    1  0.8986500E-014  0.5052888E+02  0.7816164E-02  0.1300439E+00
        -11   -1    0    0    0    0  0.00000000000E+00  0.00000000000E+00  0.45593999997E+02  0.45594000000E+02  0.51100000000E-03 0. -1.
         11   -1    0    0    0    0 -0.00000000000E+00 -0.00000000000E+00 -0.45593999997E+02  0.45594000000E+02  0.51100000000E-03 0.  1.
    9900012    2    1    2    0    0 -0.19509771338E+02  0.25236168257E+02 -0.25212464696E+02  0.50528883655E+02  0.30000072356E+02 0.  0.
         12    1    1    2    0    0  0.19509771338E+02 -0.25236168257E+02  0.25212464696E+02  0.40659116345E+02  0.00000000000E+00 0. -1.
         11    1    3    3    0    0 -0.16337150707E+01 -0.21920538334E+01  0.13208108340E+01  0.30362256934E+01  0.51100000000E-03 0. -1.
        -11    1    3    3    0    0 -0.11169785850E+02  0.10562824351E+02 -0.33518002821E-01  0.15373304717E+02  0.51100000000E-03 0.  1.
        -12    1    3    3    0    0 -0.67062704169E+01  0.16865397739E+02 -0.26499757528E+02  0.32119353244E+02  0.00000000000E+00 0.  1.
</event>
<event>
 7    1  0.8986500E-014  0.5052884E+02  0.7816164E-02  0.1300439E+00
        -11   -1    0    0    0    0  0.00000000000E+00  0.00000000000E+00  0.45593999997E+02  0.45594000000E+02  0.51100000000E-03 0. -1.
         11   -1    0    0    0    0 -0.00000000000E+00 -0.00000000000E+00 -0.45593999997E+02  0.45594000000E+02  0.51100000000E-03 0.  1.
    9900012    2    1    2    0    0  0.30609247060E+02 -0.10153757985E+02 -0.24761709572E+02  0.50528842757E+02  0.29999948044E+02 0.  0.
         12    1    1    2    0    0 -0.30609247060E+02  0.10153757985E+02  0.24761709572E+02  0.40659157243E+02  0.00000000000E+00 0. -1.
         11    1    3    3    0    0  0.41203245382E+01 -0.44447178807E+01 -0.78606526165E+00  0.61115047407E+01  0.51100000000E-03 0. -1.
        -11    1    3    3    0    0 -0.40969528346E+00 -0.94931158302E+01 -0.25983069918E+01  0.98508018900E+01  0.51100000000E-03 0.  1.
        -12    1    3    3    0    0  0.26898617805E+02  0.37840757260E+01 -0.21377337319E+02  0.34566536126E+02  0.00000000000E+00 0.  1.
</event>
<event>
 7    1  0.8986500E-014  0.5052879E+02  0.7816164E-02  0.1300439E+00
        -11   -1    0    0    0    0  0.00000000000E+00  0.00000000000E+00  0.45593999997E+02  0.45594000000E+02  0.51100000000E-03 0.  1.
         11   -1    0    0    0    0 -0.00000000000E+00 -0.00000000000E+00 -0.45593999997E+02  0.45594000000E+02  0.51100000000E-03 0. -1.
    9900012    2    1    2    0    0 -0.19499658490E+02  0.35502514398E+02 -0.35363495411E+01  0.50528794672E+02  0.29999801884E+02 0.  0.
        -12    1    1    2    0    0  0.19499658490E+02 -0.35502514398E+02  0.35363495411E+01  0.40659205328E+02  0.00000000000E+00 0.  1.
         11    1    3    3    0    0 -0.10498990248E+02  0.37878049883E+01  0.45283743119E+01  0.12045017104E+02  0.51100000000E-03 0. -1.
        -11    1    3    3    0    0 -0.50063269956E+01  0.12872285521E+02  0.55623188308E+01  0.14889541147E+02  0.51100000000E-03 0.  1.
         12    1    3    3    0    0 -0.39943412468E+01  0.18842423888E+02 -0.13627042684E+02  0.23594236421E+02  0.00000000000E+00 0. -1.
</event>
<event>
 7    1  0.8986500E-014  0.5052883E+02  0.7816164E-02  0.1300439E+00
        -11   -1    0    0    0    0  0.00000000000E+00  0.00000000000E+00  0.45593999997E+02  0.45594000000E+02  0.51100000000E-03 0. -1.
         11   -1    0    0    0    0 -0.00000000000E+00 -0.00000000000E+00 -0.45593999997E+02  0.45594000000E+02  0.51100000000E-03 0.  1.
    9900012    2    1    2    0    0 -0.19391370453E+02  0.33018686022E+02 -0.13671464397E+02  0.50528833586E+02  0.29999920169E+02 0.  0.
         12    1    1    2    0    0  0.19391370453E+02 -0.33018686022E+02  0.13671464397E+02  0.40659166414E+02  0.00000000000E+00 0. -1.
         11    1    3    3    0    0  0.59678741953E+00  0.52414850546E+01 -0.52260364039E+01  0.74256836425E+01  0.51100000000E-03 0. -1.
        -11    1    3    3    0    0 -0.21684856076E+02  0.28087665505E+02 -0.10402571043E+01  0.35499747487E+02  0.51100000000E-03 0.  1.
         12    1    3    3    0    0  0.16966982041E+01 -0.31046453676E+00 -0.74051708889E+01  0.76034024567E+01  0.00000000000E+00 0. -1.
</event>
<event>
 7    1  0.8986500E-014  0.5052886E+02  0.7816164E-02  0.1300439E+00
        -11   -1    0    0    0    0  0.00000000000E+00  0.00000000000E+00  0.45593999997E+02  0.45594000000E+02  0.51100000000E-03 0. -1.
         11   -1    0    0    0    0 -0.00000000000E+00 -0.00000000000E+00 -0.45593999997E+02  0.45594000000E+02  0.51100000000E-03 0.  1.
    9900012    2    1    2    0    0 -0.22719766330E+02  0.41749205227E+01 -0.33459646867E+02  0.50528859429E+02  0.29999998721E+02 0.  0.
         12    1    1    2    0    0  0.22719766330E+02 -0.41749205227E+01  0.33459646867E+02  0.40659140571E+02  0.00000000000E+00 0. -1.
         11    1    3    3    0    0 -0.32991565935E+01  0.35381098692E+01 -0.64177475449E+01  0.80367990821E+01  0.51100000000E-03 0. -1.
        -11    1    3    3    0    0 -0.20659987451E+02 -0.12801015393E+01 -0.31378712594E+02  0.37591187075E+02  0.51100000000E-03 0.  1.
        -12    1    3    3    0    0  0.12393777143E+01  0.19169121927E+01  0.43368132713E+01  0.49008732715E+01  0.00000000000E+00 0.  1.
</event>
<event>
 7    1  0.8986500E-014  0.5052886E+02  0.7816164E-02  0.1300439E+00
        -11   -1    0    0    0    0  0.00000000000E+00  0.00000000000E+00  0.45593999997E+02  0.45594000000E+02  0.51100000000E-03 0. -1.
         11   -1    0    0    0    0 -0.00000000000E+00 -0.00000000000E+00 -0.45593999997E+02  0.45594000000E+02  0.51100000000E-03 0.  1.
    9900012    2    1    2    0    0 -0.15882702452E+02  0.12220881216E+02 -0.35377327813E+02  0.50528862060E+02  0.30000006717E+02 0.  0.
         12    1    1    2    0    0  0.15882702452E+02 -0.12220881216E+02  0.35377327813E+02  0.40659137940E+02  0.00000000000E+00 0. -1.
         11    1    3    3    0    0 -0.15241526156E+02  0.13127275509E+01 -0.21630257181E+02  0.26493308573E+02  0.51100000000E-03 0. -1.
        -11    1    3    3    0    0 -0.33847564168E+00  0.87454295735E+01 -0.17572120529E+02  0.19631009254E+02  0.51100000000E-03 0.  1.
        -12    1    3    3    0    0 -0.30270065402E+00  0.21627240919E+01  0.38250498969E+01  0.44045442326E+01  0.00000000000E+00 0.  1.
</event>
<event>
 7    1  0.8986500E-014  0.5052887E+02  0.7816164E-02  0.1300439E+00
        -11   -1    0    0    0    0  0.00000000000E+00  0.00000000000E+00  0.45593999997E+02  0.45594000000E+02  0.51100000000E-03 0.  1.
         11   -1    0    0    0    0 -0.00000000000E+00 -0.00000000000E+00 -0.45593999997E+02  0.45594000000E+02  0.51100000000E-03 0. -1.
    9900012    2    1    2    0    0  0.11884602971E+02 -0.34817003453E+02  0.17311769718E+02  0.50528869562E+02  0.30000029520E+02 0.  0.
        -12    1    1    2    0    0 -0.11884602971E+02  0.34817003453E+02 -0.17311769718E+02  0.40659130438E+02  0.00000000000E+00 0.  1.
         11    1    3    3    0    0  0.15726880501E+02 -0.29675749113E+02  0.14917404049E+02  0.36749337402E+02  0.51100000000E-03 0. -1.
        -11    1    3    3    0    0  0.43013763129E+01 -0.25986694646E+01  0.59533851378E+00  0.50605680885E+01  0.51100000000E-03 0.  1.
        -12    1    3    3    0    0 -0.81436538429E+01 -0.25425848757E+01  0.17990271552E+01  0.87189640709E+01  0.00000000000E+00 0.  1.
</event>
<event>
 7    1  0.8986500E-014  0.5052886E+02  0.7816164E-02  0.1300439E+00
        -11   -1    0    0    0    0  0.00000000000E+00  0.00000000000E+00  0.45593999997E+02  0.45594000000E+02  0.51100000000E-03 0. -1.
         11   -1    0    0    0    0 -0.00000000000E+00 -0.00000000000E+00 -0.45593999997E+02  0.45594000000E+02  0.51100000000E-03 0.  1.
    9900012    2    1    2    0    0  0.20858559861E+02 -0.13026579708E+02 -0.32378919892E+02  0.50528858940E+02  0.29999997234E+02 0.  0.
         12    1    1    2    0    0 -0.20858559861E+02  0.13026579708E+02  0.32378919892E+02  0.40659141060E+02  0.00000000000E+00 0. -1.
         11    1    3    3    0    0  0.12562642368E+02  0.30852631539E+01 -0.10756814024E+02  0.16824026872E+02  0.51100000000E-03 0. -1.
        -11    1    3    3    0    0 -0.40556903190E+01  0.81790758323E+00 -0.70687933073E+01  0.81905699351E+01  0.51100000000E-03 0.  1.
        -12    1    3    3    0    0  0.12351607812E+02 -0.16929750445E+02 -0.14553312560E+02  0.25514262133E+02  0.00000000000E+00 0.  1.
</event>
<event>
 7    1  0.8986500E-014  0.5052885E+02  0.7816164E-02  0.1300439E+00
        -11   -1    0    0    0    0  0.00000000000E+00  0.00000000000E+00  0.45593999997E+02  0.45594000000E+02  0.51100000000E-03 0. -1.
         11   -1    0    0    0    0 -0.00000000000E+00 -0.00000000000E+00 -0.45593999997E+02  0.45594000000E+02  0.51100000000E-03 0.  1.
    9900012    2    1    2    0    0  0.28269320251E+02 -0.18223497551E+02  0.22845477350E+02  0.50528853848E+02  0.29999981756E+02 0.  0.
        -12    1    1    2    0    0 -0.28269320251E+02  0.18223497551E+02 -0.22845477350E+02  0.40659146152E+02  0.00000000000E+00 0.  1.
         11    1    3    3    0    0 -0.20701596398E+01  0.53416791746E+00  0.54415018753E+00  0.22061269198E+01  0.51100000000E-03 0. -1.
        -11    1    3    3    0    0 -0.20166245784E+01 -0.73145899955E+01  0.37550681007E+00  0.75967761003E+01  0.51100000000E-03 0.  1.
         12    1    3    3    0    0  0.32356104469E+02 -0.11443075473E+02  0.21925820352E+02  0.40725950828E+02  0.00000000000E+00 0. -1.
</event>
<event>
 7    1  0.8986500E-014  0.5052886E+02  0.7816164E-02  0.1300439E+00
        -11   -1    0    0    0    0  0.00000000000E+00  0.00000000000E+00  0.45593999997E+02  0.45594000000E+02  0.51100000000E-03 0. -1.
         11   -1    0    0    0    0 -0.00000000000E+00 -0.00000000000E+00 -0.45593999997E+02  0.45594000000E+02  0.51100000000E-03 0.  1.
    9900012    2    1    2    0    0 -0.33931420058E+02  0.46656918944E+01 -0.21910178389E+02  0.50528857547E+02  0.29999992999E+02 0.  0.
         12    1    1    2    0    0  0.33931420058E+02 -0.46656918944E+01  0.21910178389E+02  0.40659142453E+02  0.00000000000E+00 0. -1.
         11    1    3    3    0    0 -0.15252912049E+02 -0.55065660076E+01  0.34701955307E+00  0.16220173180E+02  0.51100000000E-03 0. -1.
        -11    1    3    3    0    0 -0.18509857258E+02  0.59764170966E+01 -0.11117558799E+02  0.22403849913E+02  0.51100000000E-03 0.  1.
         12    1    3    3    0    0 -0.16865075196E+00  0.41958408053E+01 -0.11139639142E+02  0.11904834453E+02  0.00000000000E+00 0. -1.
</event>
<event>
 7    1  0.8986500E-014  0.5052887E+02  0.7816164E-02  0.1300439E+00
        -11   -1    0    0    0    0  0.00000000000E+00  0.00000000000E+00  0.45593999997E+02  0.45594000000E+02  0.51100000000E-03 0. -1.
         11   -1    0    0    0    0 -0.00000000000E+00 -0.00000000000E+00 -0.45593999997E+02  0.45594000000E+02  0.51100000000E-03 0.  1.
    9900012    2    1    2    0    0 -0.32329819306E+02  0.12826934795E+02 -0.21057478439E+02  0.50528869773E+02  0.30000030162E+02 0.  0.
         12    1    1    2    0    0  0.32329819306E+02 -0.12826934795E+02  0.21057478439E+02  0.40659130227E+02  0.00000000000E+00 0. -1.
         11    1    3    3    0    0 -0.22566121011E+02  0.14649592787E+02 -0.13168724440E+02  0.29954226579E+02  0.51100000000E-03 0. -1.
        -11    1    3    3    0    0 -0.11152806056E+02  0.18193239604E+01 -0.10860529838E+02  0.15673102157E+02  0.51100000000E-03 0.  1.
         12    1    3    3    0    0  0.13891077604E+01 -0.36419819521E+01  0.29717758385E+01  0.49015410377E+01  0.00000000000E+00 0. -1.
</event>
<event>
 7    1  0.1328841E-013  0.5052885E+02  0.7816164E-02  0.1300439E+00
        -11   -1    0    0    0    0  0.00000000000E+00  0.00000000000E+00  0.45593999997E+02  0.45594000000E+02  0.51100000000E-03 0. -1.
         11   -1    0    0    0    0 -0.00000000000E+00 -0.00000000000E+00 -0.45593999997E+02  0.45594000000E+02  0.51100000000E-03 0.  1.
    9900012    2    1    2    0    0  0.27249317726E+02 -0.62136427214E+01  0.29530181352E+02  0.50528852406E+02  0.29999977372E+02 0.  0.
        -12    1    1    2    0    0 -0.27249317726E+02  0.62136427214E+01 -0.29530181352E+02  0.40659147594E+02  0.00000000000E+00 0.  1.
         11    1    3    3    0    0 -0.54854320076E+00  0.29980531307E+00 -0.17675529417E+01  0.18748404017E+01  0.51100000000E-03 0. -1.
        -11    1    3    3    0    0 -0.35643619639E+01 -0.43933729554E+01  0.64938558093E+01  0.86125818236E+01  0.51100000000E-03 0.  1.
         12    1    3    3    0    0  0.31362222891E+02 -0.21200750790E+01  0.24803878485E+02  0.40041430180E+02  0.00000000000E+00 0. -1.
</event>
<event>
 7    1  0.8986500E-014  0.5052886E+02  0.7816164E-02  0.1300439E+00
        -11   -1    0    0    0    0  0.00000000000E+00  0.00000000000E+00  0.45593999997E+02  0.45594000000E+02  0.51100000000E-03 0. -1.
         11   -1    0    0    0    0 -0.00000000000E+00 -0.00000000000E+00 -0.45593999997E+02  0.45594000000E+02  0.51100000000E-03 0.  1.
    9900012    2    1    2    0    0  0.65406049019E+01  0.20470890106E+01  0.40077370047E+02  0.50528859874E+02  0.30000000074E+02 0.  0.
        -12    1    1    2    0    0 -0.65406049019E+01 -0.20470890106E+01 -0.40077370047E+02  0.40659140126E+02  0.00000000000E+00 0.  1.
         11    1    3    3    0    0  0.11999419740E+02 -0.12202760234E+01  0.30909637970E+02  0.33179524821E+02  0.51100000000E-03 0. -1.
        -11    1    3    3    0    0 -0.91617065339E+00 -0.22220040401E+01  0.98990776712E+01  0.10186678046E+02  0.51100000000E-03 0.  1.
        -12    1    3    3    0    0 -0.45426441848E+01  0.54893690741E+01 -0.73134559411E+00  0.71626570070E+01  0.00000000000E+00 0.  1.
</event>
<event>
 7    1  0.8986500E-014  0.5052886E+02  0.7816164E-02  0.1300439E+00
        -11   -1    0    0    0    0  0.00000000000E+00  0.00000000000E+00  0.45593999997E+02  0.45594000000E+02  0.51100000000E-03 0.  1.
         11   -1    0    0    0    0 -0.00000000000E+00 -0.00000000000E+00 -0.45593999997E+02  0.45594000000E+02  0.51100000000E-03 0. -1.
    9900012    2    1    2    0    0 -0.36507806639E+02  0.17750719515E+02 -0.22929103681E+01  0.50528862935E+02  0.30000009378E+02 0.  0.
         12    1    1    2    0    0  0.36507806639E+02 -0.17750719515E+02  0.22929103681E+01  0.40659137065E+02  0.00000000000E+00 0. -1.
         11    1    3    3    0    0 -0.61297650442E+01 -0.55962945237E+01 -0.96001488257E+00  0.83554868637E+01  0.51100000000E-03 0.  1.
        -11    1    3    3    0    0 -0.46229187275E+01  0.74586907857E+01  0.64930738429E+01  0.10916201445E+02  0.51100000000E-03 0. -1.
        -12    1    3    3    0    0 -0.25755122867E+02  0.15888323253E+02 -0.78259693284E+01  0.31257174627E+02  0.00000000000E+00 0.  1.
</event>
<event>
 7    1  0.8986500E-014  0.5052886E+02  0.7816164E-02  0.1300439E+00
        -11   -1    0    0    0    0  0.00000000000E+00  0.00000000000E+00  0.45593999997E+02  0.45594000000E+02  0.51100000000E-03 0.  1.
         11   -1    0    0    0    0 -0.00000000000E+00 -0.00000000000E+00 -0.45593999997E+02  0.45594000000E+02  0.51100000000E-03 0. -1.
    9900012    2    1    2    0    0 -0.15420220864E+02 -0.28314534858E+02  0.24772354707E+02  0.50528860148E+02  0.30000000906E+02 0.  0.
        -12    1    1    2    0    0  0.15420220864E+02  0.28314534858E+02 -0.24772354707E+02  0.40659139852E+02  0.00000000000E+00 0.  1.
         11    1    3    3    0    0 -0.13875148368E+02 -0.20202341689E+02  0.14621165187E+02  0.28538269458E+02  0.51100000000E-03 0. -1.
        -11    1    3    3    0    0 -0.20838586357E+01 -0.18459874753E+01  0.14226510417E+02  0.14496335243E+02  0.51100000000E-03 0.  1.
         12    1    3    3    0    0  0.53878613970E+00 -0.62662056940E+01 -0.40753208965E+01  0.74942554476E+01  0.00000000000E+00 0. -1.
</event>
<event>
 7    1  0.8986500E-014  0.5052886E+02  0.7816164E-02  0.1300439E+00
        -11   -1    0    0    0    0  0.00000000000E+00  0.00000000000E+00  0.45593999997E+02  0.45594000000E+02  0.51100000000E-03 0. -1.
         11   -1    0    0    0    0 -0.00000000000E+00 -0.00000000000E+00 -0.45593999997E+02  0.45594000000E+02  0.51100000000E-03 0.  1.
    9900012    2    1    2    0    0  0.18140180770E+02 -0.31330790814E+02 -0.18506249593E+02  0.50528857296E+02  0.29999992238E+02 0.  0.
         12    1    1    2    0    0 -0.18140180770E+02  0.31330790814E+02  0.18506249593E+02  0.40659142704E+02  0.00000000000E+00 0. -1.
         11    1    3    3    0    0 -0.49528451936E+00  0.76775062762E+00  0.13057090443E+01  0.15936198263E+01  0.51100000000E-03 0. -1.
        -11    1    3    3    0    0 -0.39265682931E+01 -0.61135557084E+01  0.27682804756E+01  0.77754021769E+01  0.51100000000E-03 0.  1.
        -12    1    3    3    0    0  0.22562033583E+02 -0.25984985733E+02 -0.22580239113E+02  0.41159835293E+02  0.00000000000E+00 0.  1.
</event>
<event>
 7    1  0.8986500E-014  0.5052886E+02  0.7816164E-02  0.1300439E+00
        -11   -1    0    0    0    0  0.00000000000E+00  0.00000000000E+00  0.45593999997E+02  0.45594000000E+02  0.51100000000E-03 0. -1.
         11   -1    0    0    0    0 -0.00000000000E+00 -0.00000000000E+00 -0.45593999997E+02  0.45594000000E+02  0.51100000000E-03 0.  1.
    9900012    2    1    2    0    0 -0.44542886291E+01 -0.21313140292E+02  0.34337658020E+02  0.50528863332E+02  0.30000010584E+02 0.  0.
        -12    1    1    2    0    0  0.44542886291E+01  0.21313140292E+02 -0.34337658020E+02  0.40659136668E+02  0.00000000000E+00 0.  1.
         11    1    3    3    0    0 -0.86076871853E+01 -0.92252166592E+01  0.30366605270E+02  0.32883546295E+02  0.51100000000E-03 0. -1.
        -11    1    3    3    0    0  0.28311957615E+01 -0.11197220308E+01  0.57010431795E+01  0.64630751552E+01  0.51100000000E-03 0.  1.
        -12    1    3    3    0    0  0.13222027947E+01 -0.10968201602E+02 -0.17299904293E+01  0.11182241881E+02  0.00000000000E+00 0.  1.
</event>
<event>
 7    1  0.8986500E-014  0.5052886E+02  0.7816164E-02  0.1300439E+00
        -11   -1    0    0    0    0  0.00000000000E+00  0.00000000000E+00  0.45593999997E+02  0.45594000000E+02  0.51100000000E-03 0. -1.
         11   -1    0    0    0    0 -0.00000000000E+00 -0.00000000000E+00 -0.45593999997E+02  0.45594000000E+02  0.51100000000E-03 0.  1.
    9900012    2    1    2    0    0  0.33332205213E+02  0.10943384839E+02 -0.20551689185E+02  0.50528861981E+02  0.30000006478E+02 0.  0.
         12    1    1    2    0    0 -0.33332205213E+02 -0.10943384839E+02  0.20551689185E+02  0.40659138019E+02  0.00000000000E+00 0. -1.
         11    1    3    3    0    0  0.12661702443E+02  0.91495731501E+01 -0.78160052509E+01  0.17467779937E+02  0.51100000000E-03 0. -1.
        -11    1    3    3    0    0  0.11087513467E+02  0.12069307786E+02 -0.79703915008E+01  0.18224387130E+02  0.51100000000E-03 0.  1.
         12    1    3    3    0    0  0.95829893028E+01 -0.10275496097E+02 -0.47652924332E+01  0.14836694914E+02  0.00000000000E+00 0. -1.
</event>
<event>
 7    1  0.8986500E-014  0.5052884E+02  0.7816164E-02  0.1300439E+00
        -11   -1    0    0    0    0  0.00000000000E+00  0.00000000000E+00  0.45593999997E+02  0.45594000000E+02  0.51100000000E-03 0.  1.
         11   -1    0    0    0    0 -0.00000000000E+00 -0.00000000000E+00 -0.45593999997E+02  0.45594000000E+02  0.51100000000E-03 0. -1.
    9900012    2    1    2    0    0 -0.34845405516E+02  0.13085096131E+02 -0.16362929133E+02  0.50528837734E+02  0.29999932777E+02 0.  0.
         12    1    1    2    0    0  0.34845405516E+02 -0.13085096131E+02  0.16362929133E+02  0.40659162266E+02  0.00000000000E+00 0. -1.
         11    1    3    3    0    0 -0.14834922983E+02  0.93711403096E+01 -0.38842875375E+01  0.17971669387E+02  0.51100000000E-03 0.  1.
        -11    1    3    3    0    0  0.48512436559E+01  0.16111880544E+01 -0.18332906484E+01  0.54306028043E+01  0.51100000000E-03 0. -1.
         12    1    3    3    0    0 -0.24861726189E+02  0.21027677674E+01 -0.10645350947E+02  0.27126565543E+02  0.00000000000E+00 0. -1.
</event>
<event>
 7    1  0.8986500E-014  0.5052884E+02  0.7816164E-02  0.1300439E+00
        -11   -1    0    0    0    0  0.00000000000E+00  0.00000000000E+00  0.45593999997E+02  0.45594000000E+02  0.51100000000E-03 0. -1.
         11   -1    0    0    0    0 -0.00000000000E+00 -0.00000000000E+00 -0.45593999997E+02  0.45594000000E+02  0.51100000000E-03 0.  1.
    9900012    2    1    2    0    0 -0.10593241999E+01 -0.35393154525E+01 -0.40490963153E+02  0.50528843360E+02  0.29999949876E+02 0.  0.
         12    1    1    2    0    0  0.10593241999E+01  0.35393154525E+01  0.40490963153E+02  0.40659156640E+02  0.00000000000E+00 0. -1.
         11    1    3    3    0    0  0.91001447042E+01 -0.41504351925E+01 -0.10518249642E+02  0.14514555512E+02  0.51100000000E-03 0. -1.
        -11    1    3    3    0    0 -0.79791588146E+01 -0.77622293522E+01 -0.19238303553E+02  0.22226819470E+02  0.51100000000E-03 0.  1.
         12    1    3    3    0    0 -0.21803100895E+01  0.83733490922E+01 -0.10734409958E+02  0.13787468378E+02  0.00000000000E+00 0. -1.
</event>
<event>
 7    1  0.8986500E-014  0.5052884E+02  0.7816164E-02  0.1300439E+00
        -11   -1    0    0    0    0  0.00000000000E+00  0.00000000000E+00  0.45593999997E+02  0.45594000000E+02  0.51100000000E-03 0. -1.
         11   -1    0    0    0    0 -0.00000000000E+00 -0.00000000000E+00 -0.45593999997E+02  0.45594000000E+02  0.51100000000E-03 0.  1.
    9900012    2    1    2    0    0  0.20751097969E+02  0.95888735236E+01  0.33624590815E+02  0.50528835352E+02  0.29999925536E+02 0.  0.
        -12    1    1    2    0    0 -0.20751097969E+02 -0.95888735236E+01 -0.33624590815E+02  0.40659164648E+02  0.00000000000E+00 0.  1.
         11    1    3    3    0    0  0.34709806617E+01  0.64407037429E+01  0.69405332559E+01  0.10084709891E+02  0.51100000000E-03 0. -1.
        -11    1    3    3    0    0 -0.25496206867E+01  0.47033648962E+01  0.17932136769E+02  0.18713196851E+02  0.51100000000E-03 0.  1.
         12    1    3    3    0    0  0.19829737994E+02 -0.15551951154E+01  0.87519207901E+01  0.21730928610E+02  0.00000000000E+00 0. -1.
</event>
<event>
 7    1  0.8986500E-014  0.5052886E+02  0.7816164E-02  0.1300439E+00
        -11   -1    0    0    0    0  0.00000000000E+00  0.00000000000E+00  0.45593999997E+02  0.45594000000E+02  0.51100000000E-03 0. -1.
         11   -1    0    0    0    0 -0.00000000000E+00 -0.00000000000E+00 -0.45593999997E+02  0.45594000000E+02  0.51100000000E-03 0.  1.
    9900012    2    1    2    0    0 -0.30022703883E+02  0.19605128259E+02 -0.19168768951E+02  0.50528861967E+02  0.30000006433E+02 0.  0.
         12    1    1    2    0    0  0.30022703883E+02 -0.19605128259E+02  0.19168768951E+02  0.40659138033E+02  0.00000000000E+00 0. -1.
         11    1    3    3    0    0 -0.11072009449E+02  0.93603570605E-01  0.30443975100E+01  0.11483314475E+02  0.51100000000E-03 0. -1.
        -11    1    3    3    0    0 -0.15378035012E+02  0.65135417249E+01 -0.55199590406E+01  0.17589205062E+02  0.51100000000E-03 0.  1.
         12    1    3    3    0    0 -0.35726594218E+01  0.12997982964E+02 -0.16693207421E+02  0.21456342430E+02  0.00000000000E+00 0. -1.
</event>
<event>
 7    1  0.8986500E-014  0.5052887E+02  0.7816164E-02  0.1300439E+00
        -11   -1    0    0    0    0  0.00000000000E+00  0.00000000000E+00  0.45593999997E+02  0.45594000000E+02  0.51100000000E-03 0. -1.
         11   -1    0    0    0    0 -0.00000000000E+00 -0.00000000000E+00 -0.45593999997E+02  0.45594000000E+02  0.51100000000E-03 0.  1.
    9900012    2    1    2    0    0 -0.25884298050E+02 -0.12363323141E+02  0.28815202114E+02  0.50528874118E+02  0.30000043369E+02 0.  0.
        -12    1    1    2    0    0  0.25884298050E+02  0.12363323141E+02 -0.28815202114E+02  0.40659125882E+02  0.00000000000E+00 0.  1.
         11    1    3    3    0    0 -0.14060424522E+02  0.25112787454E+01  0.18244769561E+01  0.14398985211E+02  0.51100000000E-03 0. -1.
        -11    1    3    3    0    0 -0.26907439113E+01  0.24714593129E+00 -0.11233167385E+01  0.29262646263E+01  0.51100000000E-03 0.  1.
         12    1    3    3    0    0 -0.91331296170E+01 -0.15121747817E+02  0.28114041896E+02  0.33203624281E+02  0.00000000000E+00 0. -1.
</event>
<event>
 7    1  0.8986500E-014  0.5052888E+02  0.7816164E-02  0.1300439E+00
        -11   -1    0    0    0    0  0.00000000000E+00  0.00000000000E+00  0.45593999997E+02  0.45594000000E+02  0.51100000000E-03 0. -1.
         11   -1    0    0    0    0 -0.00000000000E+00 -0.00000000000E+00 -0.45593999997E+02  0.45594000000E+02  0.51100000000E-03 0.  1.
    9900012    2    1    2    0    0 -0.56073658297E+01  0.98096708013E+01 -0.39057545928E+02  0.50528879416E+02  0.30000059472E+02 0.  0.
         12    1    1    2    0    0  0.56073658297E+01 -0.98096708013E+01  0.39057545928E+02  0.40659120584E+02  0.00000000000E+00 0. -1.
         11    1    3    3    0    0 -0.77234325622E+01  0.30856193021E+01 -0.48691770779E+01  0.96374967028E+01  0.51100000000E-03 0. -1.
        -11    1    3    3    0    0 -0.15564621571E+01  0.86631967490E+01 -0.28102880798E+01  0.92396575538E+01  0.51100000000E-03 0.  1.
         12    1    3    3    0    0  0.36725288895E+01 -0.19391452497E+01 -0.31378080770E+02  0.31651725159E+02  0.00000000000E+00 0. -1.
</event>
<event>
 7    1  0.8986500E-014  0.5052884E+02  0.7816164E-02  0.1300439E+00
        -11   -1    0    0    0    0  0.00000000000E+00  0.00000000000E+00  0.45593999997E+02  0.45594000000E+02  0.51100000000E-03 0. -1.
         11   -1    0    0    0    0 -0.00000000000E+00 -0.00000000000E+00 -0.45593999997E+02  0.45594000000E+02  0.51100000000E-03 0.  1.
    9900012    2    1    2    0    0 -0.25347022473E+02 -0.20741508232E+02 -0.24093260622E+02  0.50528844581E+02  0.29999953589E+02 0.  0.
         12    1    1    2    0    0  0.25347022473E+02  0.20741508232E+02  0.24093260622E+02  0.40659155419E+02  0.00000000000E+00 0. -1.
         11    1    3    3    0    0 -0.17039884122E+02 -0.17900979621E+01 -0.84520276100E+01  0.19104943668E+02  0.51100000000E-03 0. -1.
        -11    1    3    3    0    0 -0.13506346145E+02 -0.14940755687E+02 -0.89201893879E+01  0.22027649572E+02  0.51100000000E-03 0.  1.
         12    1    3    3    0    0  0.51992077938E+01 -0.40106545830E+01 -0.67210436236E+01  0.93962513407E+01  0.00000000000E+00 0. -1.
</event>
<event>
 7    1  0.8986500E-014  0.5052885E+02  0.7816164E-02  0.1300439E+00
        -11   -1    0    0    0    0  0.00000000000E+00  0.00000000000E+00  0.45593999997E+02  0.45594000000E+02  0.51100000000E-03 0. -1.
         11   -1    0    0    0    0 -0.00000000000E+00 -0.00000000000E+00 -0.45593999997E+02  0.45594000000E+02  0.51100000000E-03 0.  1.
    9900012    2    1    2    0    0  0.37665851090E+02 -0.42232603950E+01  0.14717806982E+02  0.50528854545E+02  0.29999983876E+02 0.  0.
        -12    1    1    2    0    0 -0.37665851090E+02  0.42232603950E+01 -0.14717806982E+02  0.40659145455E+02  0.00000000000E+00 0.  1.
         11    1    3    3    0    0  0.42120596561E+01  0.24931330996E+01 -0.32740673489E+01  0.58886905561E+01  0.51100000000E-03 0. -1.
        -11    1    3    3    0    0  0.47406195554E+01  0.22271523609E+01 -0.46436181279E+01  0.69997764955E+01  0.51100000000E-03 0.  1.
         12    1    3    3    0    0  0.28713171879E+02 -0.89435458555E+01  0.22635492459E+02  0.37640387494E+02  0.00000000000E+00 0. -1.
</event>
<event>
 7    1  0.8986500E-014  0.5052887E+02  0.7816164E-02  0.1300439E+00
        -11   -1    0    0    0    0  0.00000000000E+00  0.00000000000E+00  0.45593999997E+02  0.45594000000E+02  0.51100000000E-03 0. -1.
         11   -1    0    0    0    0 -0.00000000000E+00 -0.00000000000E+00 -0.45593999997E+02  0.45594000000E+02  0.51100000000E-03 0.  1.
    9900012    2    1    2    0    0  0.30005175935E+01 -0.18067361123E+02  0.36300585341E+02  0.50528866465E+02  0.30000020106E+02 0.  0.
        -12    1    1    2    0    0 -0.30005175935E+01  0.18067361123E+02 -0.36300585341E+02  0.40659133535E+02  0.00000000000E+00 0.  1.
         11    1    3    3    0    0 -0.43153268221E+00  0.11576292706E+01  0.12362071160E+02  0.12423652024E+02  0.51100000000E-03 0. -1.
        -11    1    3    3    0    0  0.89498697286E+01  0.50428057219E+00  0.93674550789E+01  0.12965480399E+02  0.51100000000E-03 0.  1.
        -12    1    3    3    0    0 -0.55178194529E+01 -0.19729270966E+02  0.14571059102E+02  0.25139734042E+02  0.00000000000E+00 0.  1.
</event>
<event>
 7    1  0.8986500E-014  0.5052886E+02  0.7816164E-02  0.1300439E+00
        -11   -1    0    0    0    0  0.00000000000E+00  0.00000000000E+00  0.45593999997E+02  0.45594000000E+02  0.51100000000E-03 0. -1.
         11   -1    0    0    0    0 -0.00000000000E+00 -0.00000000000E+00 -0.45593999997E+02  0.45594000000E+02  0.51100000000E-03 0.  1.
    9900012    2    1    2    0    0  0.41201703457E+01  0.31436956431E+02 -0.25454026314E+02  0.50528862172E+02  0.30000007057E+02 0.  0.
         12    1    1    2    0    0 -0.41201703457E+01 -0.31436956431E+02  0.25454026314E+02  0.40659137828E+02  0.00000000000E+00 0. -1.
         11    1    3    3    0    0 -0.14217752700E+01  0.86896972221E+01 -0.24539812335E+01  0.91408044988E+01  0.51100000000E-03 0. -1.
        -11    1    3    3    0    0 -0.69384876167E+01  0.72885741576E+01  0.11354935096E+01  0.10126957560E+02  0.51100000000E-03 0.  1.
         12    1    3    3    0    0  0.12480433232E+02  0.15458685051E+02 -0.24135538591E+02  0.31261100112E+02  0.00000000000E+00 0. -1.
</event>
<event>
 7    1  0.8986500E-014  0.5052886E+02  0.7816164E-02  0.1300439E+00
        -11   -1    0    0    0    0  0.00000000000E+00  0.00000000000E+00  0.45593999997E+02  0.45594000000E+02  0.51100000000E-03 0. -1.
         11   -1    0    0    0    0 -0.00000000000E+00 -0.00000000000E+00 -0.45593999997E+02  0.45594000000E+02  0.51100000000E-03 0.  1.
    9900012    2    1    2    0    0 -0.23912767178E+02 -0.27139512003E+02  0.18568581551E+02  0.50528858756E+02  0.29999996676E+02 0.  0.
        -12    1    1    2    0    0  0.23912767178E+02  0.27139512003E+02 -0.18568581551E+02  0.40659141244E+02  0.00000000000E+00 0.  1.
         11    1    3    3    0    0 -0.12812230670E+02 -0.12098371969E+02  0.73079504852E+01  0.19076949431E+02  0.51100000000E-03 0. -1.
        -11    1    3    3    0    0  0.37709573924E+01 -0.13955377844E+02  0.55180277924E+01  0.15473245341E+02  0.51100000000E-03 0.  1.
         12    1    3    3    0    0 -0.14871493900E+02 -0.10857621904E+01  0.57426032737E+01  0.15978663984E+02  0.00000000000E+00 0. -1.
</event>
<event>
 7    1  0.8986500E-014  0.5052887E+02  0.7816164E-02  0.1300439E+00
        -11   -1    0    0    0    0  0.00000000000E+00  0.00000000000E+00  0.45593999997E+02  0.45594000000E+02  0.51100000000E-03 0. -1.
         11   -1    0    0    0    0 -0.00000000000E+00 -0.00000000000E+00 -0.45593999997E+02  0.45594000000E+02  0.51100000000E-03 0.  1.
    9900012    2    1    2    0    0 -0.69060095977E+01  0.36098219401E+02 -0.17389372537E+02  0.50528872000E+02  0.30000036931E+02 0.  0.
         12    1    1    2    0    0  0.69060095977E+01 -0.36098219401E+02  0.17389372537E+02  0.40659128000E+02  0.00000000000E+00 0. -1.
         11    1    3    3    0    0 -0.28510785698E+01  0.20269717228E+01 -0.65135629566E-01  0.34987864021E+01  0.51100000000E-03 0. -1.
        -11    1    3    3    0    0 -0.12550427840E+02  0.30375566182E+02 -0.78743719284E+01  0.33796360653E+02  0.51100000000E-03 0.  1.
         12    1    3    3    0    0  0.84954968122E+01  0.36956814966E+01 -0.94498649789E+01  0.13233724945E+02  0.00000000000E+00 0. -1.
</event>
<event>
 7    1  0.8986500E-014  0.5052886E+02  0.7816164E-02  0.1300439E+00
        -11   -1    0    0    0    0  0.00000000000E+00  0.00000000000E+00  0.45593999997E+02  0.45594000000E+02  0.51100000000E-03 0.  1.
         11   -1    0    0    0    0 -0.00000000000E+00 -0.00000000000E+00 -0.45593999997E+02  0.45594000000E+02  0.51100000000E-03 0. -1.
    9900012    2    1    2    0    0  0.19942164309E+02 -0.30667419936E+02  0.17747814337E+02  0.50528862324E+02  0.30000007519E+02 0.  0.
         12    1    1    2    0    0 -0.19942164309E+02  0.30667419936E+02 -0.17747814337E+02  0.40659137676E+02  0.00000000000E+00 0. -1.
         11    1    3    3    0    0  0.62504167338E+00 -0.76940817777E+01  0.10505651031E+02  0.13036804645E+02  0.51100000000E-03 0. -1.
        -11    1    3    3    0    0  0.44470097285E+00  0.28247701230E+01  0.46032089900E+01  0.54190975697E+01  0.51100000000E-03 0.  1.
        -12    1    3    3    0    0  0.18872421662E+02 -0.25798108281E+02  0.26389543161E+01  0.32072960109E+02  0.00000000000E+00 0.  1.
</event>
<event>
 7    1  0.8986500E-014  0.5052886E+02  0.7816164E-02  0.1300439E+00
        -11   -1    0    0    0    0  0.00000000000E+00  0.00000000000E+00  0.45593999997E+02  0.45594000000E+02  0.51100000000E-03 0. -1.
         11   -1    0    0    0    0 -0.00000000000E+00 -0.00000000000E+00 -0.45593999997E+02  0.45594000000E+02  0.51100000000E-03 0.  1.
    9900012    2    1    2    0    0 -0.27279615906E+02 -0.37409293846E+01 -0.29916450249E+02  0.50528855984E+02  0.29999988249E+02 0.  0.
         12    1    1    2    0    0  0.27279615906E+02  0.37409293846E+01  0.29916450249E+02  0.40659144016E+02  0.00000000000E+00 0. -1.
         11    1    3    3    0    0 -0.79615848567E+01  0.52283944374E+01 -0.11364686196E+01  0.95924190383E+01  0.51100000000E-03 0. -1.
        -11    1    3    3    0    0 -0.47669540039E+01  0.56864792173E+01 -0.12910472916E+02  0.14890943810E+02  0.51100000000E-03 0.  1.
         12    1    3    3    0    0 -0.14551077045E+02 -0.14655803039E+02 -0.15869508713E+02  0.26045493136E+02  0.00000000000E+00 0. -1.
</event>
<event>
 7    1  0.8986500E-014  0.5052887E+02  0.7816164E-02  0.1300439E+00
        -11   -1    0    0    0    0  0.00000000000E+00  0.00000000000E+00  0.45593999997E+02  0.45594000000E+02  0.51100000000E-03 0. -1.
         11   -1    0    0    0    0 -0.00000000000E+00 -0.00000000000E+00 -0.45593999997E+02  0.45594000000E+02  0.51100000000E-03 0.  1.
    9900012    2    1    2    0    0 -0.39932302159E+01 -0.22965075968E+02  0.33314021695E+02  0.50528872571E+02  0.30000038668E+02 0.  0.
        -12    1    1    2    0    0  0.39932302159E+01  0.22965075968E+02 -0.33314021695E+02  0.40659127429E+02  0.00000000000E+00 0.  1.
         11    1    3    3    0    0 -0.32527133327E+01 -0.31781877521E+01  0.14047864619E+02  0.14765619595E+02  0.51100000000E-03 0. -1.
        -11    1    3    3    0    0 -0.54516561729E+01  0.33891140361E+01  0.32029815811E+01  0.71739626600E+01  0.51100000000E-03 0.  1.
        -12    1    3    3    0    0  0.47111392897E+01 -0.23176002252E+02  0.16063175494E+02  0.28589290316E+02  0.00000000000E+00 0.  1.
</event>
<event>
 7    1  0.8986500E-014  0.5052886E+02  0.7816164E-02  0.1300439E+00
        -11   -1    0    0    0    0  0.00000000000E+00  0.00000000000E+00  0.45593999997E+02  0.45594000000E+02  0.51100000000E-03 0. -1.
         11   -1    0    0    0    0 -0.00000000000E+00 -0.00000000000E+00 -0.45593999997E+02  0.45594000000E+02  0.51100000000E-03 0.  1.
    9900012    2    1    2    0    0 -0.24984324400E+02  0.90139328824E+00 -0.32064569803E+02  0.50528860656E+02  0.30000002450E+02 0.  0.
         12    1    1    2    0    0  0.24984324400E+02 -0.90139328824E+00  0.32064569803E+02  0.40659139344E+02  0.00000000000E+00 0. -1.
         11    1    3    3    0    0 -0.26016498602E+00 -0.10709798234E+01 -0.13460024064E+02  0.13505070591E+02  0.51100000000E-03 0. -1.
        -11    1    3    3    0    0 -0.24118043030E+02  0.13218673171E+01 -0.22510801113E+02  0.33017624079E+02  0.51100000000E-03 0.  1.
         12    1    3    3    0    0 -0.60611638355E+00  0.65050579449E+00  0.39062553745E+01  0.40061659863E+01  0.00000000000E+00 0. -1.
</event>
<event>
 7    1  0.8986500E-014  0.5052886E+02  0.7816164E-02  0.1300439E+00
        -11   -1    0    0    0    0  0.00000000000E+00  0.00000000000E+00  0.45593999997E+02  0.45594000000E+02  0.51100000000E-03 0. -1.
         11   -1    0    0    0    0 -0.00000000000E+00 -0.00000000000E+00 -0.45593999997E+02  0.45594000000E+02  0.51100000000E-03 0.  1.
    9900012    2    1    2    0    0  0.28035982663E+01 -0.22618916326E+02 -0.33670312680E+02  0.50528862098E+02  0.30000006832E+02 0.  0.
         12    1    1    2    0    0 -0.28035982663E+01  0.22618916326E+02  0.33670312680E+02  0.40659137902E+02  0.00000000000E+00 0. -1.
         11    1    3    3    0    0 -0.19274968621E+01 -0.73440993943E+01 -0.18389905860E+02  0.19895720089E+02  0.51100000000E-03 0. -1.
        -11    1    3    3    0    0 -0.55155912439E+01 -0.11534808239E+02 -0.15016173284E+02  0.19722043714E+02  0.51100000000E-03 0.  1.
         12    1    3    3    0    0  0.10246686372E+02 -0.37400086931E+01 -0.26423353514E+00  0.10911098295E+02  0.00000000000E+00 0. -1.
</event>
<event>
 7    1  0.8986500E-014  0.5052887E+02  0.7816164E-02  0.1300439E+00
        -11   -1    0    0    0    0  0.00000000000E+00  0.00000000000E+00  0.45593999997E+02  0.45594000000E+02  0.51100000000E-03 0. -1.
         11   -1    0    0    0    0 -0.00000000000E+00 -0.00000000000E+00 -0.45593999997E+02  0.45594000000E+02  0.51100000000E-03 0.  1.
    9900012    2    1    2    0    0  0.33174864631E+02  0.10708872409E+02  0.20926385847E+02  0.50528865526E+02  0.30000017253E+02 0.  0.
        -12    1    1    2    0    0 -0.33174864631E+02 -0.10708872409E+02 -0.20926385847E+02  0.40659134474E+02  0.00000000000E+00 0.  1.
         11    1    3    3    0    0  0.71223620115E+01  0.92250709416E+01 -0.26536154052E+01  0.11952892934E+02  0.51100000000E-03 0. -1.
        -11    1    3    3    0    0  0.22811371853E+02  0.31080113640E+01  0.11058732617E+02  0.25540438286E+02  0.51100000000E-03 0.  1.
        -12    1    3    3    0    0  0.32411307660E+01 -0.16242098971E+01  0.12521268635E+02  0.13035534307E+02  0.00000000000E+00 0.  1.
</event>
<event>
 7    1  0.8986500E-014  0.5052886E+02  0.7816164E-02  0.1300439E+00
        -11   -1    0    0    0    0  0.00000000000E+00  0.00000000000E+00  0.45593999997E+02  0.45594000000E+02  0.51100000000E-03 0. -1.
         11   -1    0    0    0    0 -0.00000000000E+00 -0.00000000000E+00 -0.45593999997E+02  0.45594000000E+02  0.51100000000E-03 0.  1.
    9900012    2    1    2    0    0 -0.82297150830E+01 -0.19735723362E+01 -0.39768612365E+02  0.50528859237E+02  0.29999998137E+02 0.  0.
         12    1    1    2    0    0  0.82297150830E+01  0.19735723362E+01  0.39768612365E+02  0.40659140763E+02  0.00000000000E+00 0. -1.
         11    1    3    3    0    0  0.41864886708E+01 -0.27948185516E+01 -0.26891393379E+01  0.57069404033E+01  0.51100000000E-03 0. -1.
        -11    1    3    3    0    0 -0.59326262368E+01 -0.66149834788E+01 -0.30552640809E+01  0.93962066471E+01  0.51100000000E-03 0.  1.
        -12    1    3    3    0    0 -0.64835775170E+01  0.74362296942E+01 -0.34024208947E+02  0.35425712187E+02  0.00000000000E+00 0.  1.
</event>
<event>
 7    1  0.8986500E-014  0.5052888E+02  0.7816164E-02  0.1300439E+00
        -11   -1    0    0    0    0  0.00000000000E+00  0.00000000000E+00  0.45593999997E+02  0.45594000000E+02  0.51100000000E-03 0. -1.
         11   -1    0    0    0    0 -0.00000000000E+00 -0.00000000000E+00 -0.45593999997E+02  0.45594000000E+02  0.51100000000E-03 0.  1.
    9900012    2    1    2    0    0  0.37972981607E+02 -0.11654106948E+02  0.86832307718E+01  0.50528880020E+02  0.30000061308E+02 0.  0.
        -12    1    1    2    0    0 -0.37972981607E+02  0.11654106948E+02 -0.86832307718E+01  0.40659119980E+02  0.00000000000E+00 0.  1.
         11    1    3    3    0    0  0.16854466631E+02 -0.73193076882E+01  0.12353214923E+02  0.22141527265E+02  0.51100000000E-03 0. -1.
        -11    1    3    3    0    0  0.21761538025E+02 -0.77308833118E+01 -0.64207656080E+01  0.23969925432E+02  0.51100000000E-03 0.  1.
        -12    1    3    3    0    0 -0.64302304777E+00  0.33960840515E+01  0.27507814572E+01  0.44174273226E+01  0.00000000000E+00 0.  1.
</event>
<event>
 7    1  0.8986500E-014  0.5052886E+02  0.7816164E-02  0.1300439E+00
        -11   -1    0    0    0    0  0.00000000000E+00  0.00000000000E+00  0.45593999997E+02  0.45594000000E+02  0.51100000000E-03 0.  1.
         11   -1    0    0    0    0 -0.00000000000E+00 -0.00000000000E+00 -0.45593999997E+02  0.45594000000E+02  0.51100000000E-03 0. -1.
    9900012    2    1    2    0    0  0.31287776925E+02 -0.11668528639E+02  0.23196679969E+02  0.50528861948E+02  0.30000006379E+02 0.  0.
        -12    1    1    2    0    0 -0.31287776925E+02  0.11668528639E+02 -0.23196679969E+02  0.40659138052E+02  0.00000000000E+00 0.  1.
         11    1    3    3    0    0 -0.42124645188E+00 -0.17514344563E+01  0.59351130311E+01  0.62024622676E+01  0.51100000000E-03 0. -1.
        -11    1    3    3    0    0  0.31162682561E+01 -0.96967720771E+01  0.11122107090E+02  0.15081106821E+02  0.51100000000E-03 0.  1.
         12    1    3    3    0    0  0.28592755121E+02 -0.22032210588E+00  0.61394598472E+01  0.29245292860E+02  0.00000000000E+00 0. -1.
</event>
<event>
 7    1  0.8986500E-014  0.5052886E+02  0.7816164E-02  0.1300439E+00
        -11   -1    0    0    0    0  0.00000000000E+00  0.00000000000E+00  0.45593999997E+02  0.45594000000E+02  0.51100000000E-03 0.  1.
         11   -1    0    0    0    0 -0.00000000000E+00 -0.00000000000E+00 -0.45593999997E+02  0.45594000000E+02  0.51100000000E-03 0. -1.
    9900012    2    1    2    0    0  0.36277240065E+02  0.17221304187E+02  0.63681880822E+01  0.50528864691E+02  0.30000014714E+02 0.  0.
        -12    1    1    2    0    0 -0.36277240065E+02 -0.17221304187E+02 -0.63681880822E+01  0.40659135309E+02  0.00000000000E+00 0.  1.
         11    1    3    3    0    0  0.21412263533E+02  0.16411963865E+02  0.35276199049E+01  0.27208118089E+02  0.51100000000E-03 0. -1.
        -11    1    3    3    0    0  0.10987769109E+02  0.75213931218E+01  0.64204763739E+01  0.14782589138E+02  0.51100000000E-03 0.  1.
        -12    1    3    3    0    0  0.38772074238E+01 -0.67120527998E+01 -0.35799081966E+01  0.85381574646E+01  0.00000000000E+00 0.  1.
</event>
<event>
 7    1  0.8986500E-014  0.5052889E+02  0.7816164E-02  0.1300439E+00
        -11   -1    0    0    0    0  0.00000000000E+00  0.00000000000E+00  0.45593999997E+02  0.45594000000E+02  0.51100000000E-03 0.  1.
         11   -1    0    0    0    0 -0.00000000000E+00 -0.00000000000E+00 -0.45593999997E+02  0.45594000000E+02  0.51100000000E-03 0. -1.
    9900012    2    1    2    0    0  0.32646742945E+02 -0.13474981835E+02 -0.20143942240E+02  0.50528888237E+02  0.30000086284E+02 0.  0.
         12    1    1    2    0    0 -0.32646742945E+02  0.13474981835E+02  0.20143942240E+02  0.40659111763E+02  0.00000000000E+00 0. -1.
         11    1    3    3    0    0  0.76086104851E+01 -0.99592695342E+01  0.16772189766E+01  0.12644803950E+02  0.51100000000E-03 0. -1.
        -11    1    3    3    0    0  0.74916889906E+01 -0.20235641330E+01  0.22310088706E+01  0.80745041070E+01  0.51100000000E-03 0.  1.
         12    1    3    3    0    0  0.17546443469E+02 -0.14921481683E+01 -0.24052170088E+02  0.29809580180E+02  0.00000000000E+00 0. -1.
</event>
<event>
 7    1  0.8986500E-014  0.5052886E+02  0.7816164E-02  0.1300439E+00
        -11   -1    0    0    0    0  0.00000000000E+00  0.00000000000E+00  0.45593999997E+02  0.45594000000E+02  0.51100000000E-03 0. -1.
         11   -1    0    0    0    0 -0.00000000000E+00 -0.00000000000E+00 -0.45593999997E+02  0.45594000000E+02  0.51100000000E-03 0.  1.
    9900012    2    1    2    0    0  0.29478969904E+02  0.25867197227E+02 -0.10725865824E+02  0.50528858880E+02  0.29999997051E+02 0.  0.
         12    1    1    2    0    0 -0.29478969904E+02 -0.25867197227E+02  0.10725865824E+02  0.40659141120E+02  0.00000000000E+00 0. -1.
         11    1    3    3    0    0  0.16609351010E+02  0.26881145383E+02 -0.37299452384E+01  0.31817903919E+02  0.51100000000E-03 0.  1.
        -11    1    3    3    0    0  0.11348758612E+02 -0.12187150101E+01 -0.10104624292E+02  0.15244114295E+02  0.51100000000E-03 0. -1.
        -12    1    3    3    0    0  0.15208602820E+01  0.20476685405E+00  0.31087037066E+01  0.34668406652E+01  0.00000000000E+00 0.  1.
</event>
<event>
 7    1  0.8986500E-014  0.5052887E+02  0.7816164E-02  0.1300439E+00
        -11   -1    0    0    0    0  0.00000000000E+00  0.00000000000E+00  0.45593999997E+02  0.45594000000E+02  0.51100000000E-03 0. -1.
         11   -1    0    0    0    0 -0.00000000000E+00 -0.00000000000E+00 -0.45593999997E+02  0.45594000000E+02  0.51100000000E-03 0.  1.
    9900012    2    1    2    0    0 -0.76563677535E+01 -0.36769915174E+02 -0.15572999910E+02  0.50528868734E+02  0.30000027005E+02 0.  0.
         12    1    1    2    0    0  0.76563677535E+01  0.36769915174E+02  0.15572999910E+02  0.40659131266E+02  0.00000000000E+00 0. -1.
         11    1    3    3    0    0  0.75859917610E+01 -0.14155555421E+02 -0.92550048516E+01  0.18535968691E+02  0.51100000000E-03 0. -1.
        -11    1    3    3    0    0 -0.12548004358E+01 -0.13751055503E+02 -0.68733599727E+01  0.15424303199E+02  0.51100000000E-03 0.  1.
         12    1    3    3    0    0 -0.13987559079E+02 -0.88633042501E+01  0.55536491447E+00  0.16568596844E+02  0.00000000000E+00 0. -1.
</event>
<event>
 7    1  0.8986500E-014  0.5052884E+02  0.7816164E-02  0.1300439E+00
        -11   -1    0    0    0    0  0.00000000000E+00  0.00000000000E+00  0.45593999997E+02  0.45594000000E+02  0.51100000000E-03 0. -1.
         11   -1    0    0    0    0 -0.00000000000E+00 -0.00000000000E+00 -0.45593999997E+02  0.45594000000E+02  0.51100000000E-03 0.  1.
    9900012    2    1    2    0    0  0.16936314373E+02 -0.86735052715E+00  0.36953707513E+02  0.50528836944E+02  0.29999930374E+02 0.  0.
        -12    1    1    2    0    0 -0.16936314373E+02  0.86735052715E+00 -0.36953707513E+02  0.40659163056E+02  0.00000000000E+00 0.  1.
         11    1    3    3    0    0 -0.23113776563E-01 -0.60199746653E+00  0.20118531573E+02  0.20127549481E+02  0.51100000000E-03 0. -1.
        -11    1    3    3    0    0  0.78933393851E+01  0.40847368242E+01  0.18199273206E+02  0.20253479382E+02  0.51100000000E-03 0.  1.
        -12    1    3    3    0    0  0.90660887646E+01 -0.43500898848E+01 -0.13640972666E+01  0.10147808081E+02  0.00000000000E+00 0.  1.
</event>
<event>
 7    1  0.8986500E-014  0.5052887E+02  0.7816164E-02  0.1300439E+00
        -11   -1    0    0    0    0  0.00000000000E+00  0.00000000000E+00  0.45593999997E+02  0.45594000000E+02  0.51100000000E-03 0. -1.
         11   -1    0    0    0    0 -0.00000000000E+00 -0.00000000000E+00 -0.45593999997E+02  0.45594000000E+02  0.51100000000E-03 0.  1.
    9900012    2    1    2    0    0 -0.35613409648E+01  0.25704821721E+02  0.31300866000E+02  0.50528865460E+02  0.30000017053E+02 0.  0.
        -12    1    1    2    0    0  0.35613409648E+01 -0.25704821721E+02 -0.31300866000E+02  0.40659134540E+02  0.00000000000E+00 0.  1.
         11    1    3    3    0    0 -0.72212422680E+01  0.12839777110E+02  0.20725218532E+02  0.25427168533E+02  0.51100000000E-03 0. -1.
        -11    1    3    3    0    0 -0.68234933846E+01  0.13610286143E+01  0.50034097460E+01  0.85700974444E+01  0.51100000000E-03 0.  1.
        -12    1    3    3    0    0  0.10483394688E+02  0.11504015997E+02  0.55722377218E+01  0.16531599483E+02  0.00000000000E+00 0.  1.
</event>
<event>
 7    1  0.8986500E-014  0.5052890E+02  0.7816164E-02  0.1300439E+00
        -11   -1    0    0    0    0  0.00000000000E+00  0.00000000000E+00  0.45593999997E+02  0.45594000000E+02  0.51100000000E-03 0. -1.
         11   -1    0    0    0    0 -0.00000000000E+00 -0.00000000000E+00 -0.45593999997E+02  0.45594000000E+02  0.51100000000E-03 0.  1.
    9900012    2    1    2    0    0 -0.19790234187E+02  0.59862463019E+01 -0.35009625518E+02  0.50528900245E+02  0.30000122785E+02 0.  0.
         12    1    1    2    0    0  0.19790234187E+02 -0.59862463019E+01  0.35009625518E+02  0.40659099755E+02  0.00000000000E+00 0. -1.
         11    1    3    3    0    0 -0.12512654192E+02  0.40355771193E+01 -0.93590156005E+01  0.16138264184E+02  0.51100000000E-03 0. -1.
        -11    1    3    3    0    0 -0.76708601026E+01  0.46603892047E+01 -0.39210750873E+00  0.89841566556E+01  0.51100000000E-03 0.  1.
         12    1    3    3    0    0  0.39328010773E+00 -0.27097200221E+01 -0.25258502409E+02  0.25406479405E+02  0.00000000000E+00 0. -1.
</event>
<event>
 7    1  0.8986500E-014  0.5052881E+02  0.7816164E-02  0.1300439E+00
        -11   -1    0    0    0    0  0.00000000000E+00  0.00000000000E+00  0.45593999997E+02  0.45594000000E+02  0.51100000000E-03 0. -1.
         11   -1    0    0    0    0 -0.00000000000E+00 -0.00000000000E+00 -0.45593999997E+02  0.45594000000E+02  0.51100000000E-03 0.  1.
    9900012    2    1    2    0    0  0.34658008628E+02 -0.27953488342E+01  0.21075527356E+02  0.50528814193E+02  0.29999861221E+02 0.  0.
        -12    1    1    2    0    0 -0.34658008628E+02  0.27953488342E+01 -0.21075527356E+02  0.40659185807E+02  0.00000000000E+00 0.  1.
         11    1    3    3    0    0  0.10523114923E+02  0.27458943204E+01  0.40425515176E+01  0.11602504313E+02  0.51100000000E-03 0. -1.
        -11    1    3    3    0    0  0.18019390771E+02 -0.48289777058E+00 -0.21622737160E+01  0.18155083638E+02  0.51100000000E-03 0.  1.
        -12    1    3    3    0    0  0.61155029340E+01 -0.50583453840E+01  0.19195249554E+02  0.20771226242E+02  0.00000000000E+00 0.  1.
</event>
<event>
 7    1  0.8986500E-014  0.5052886E+02  0.7816164E-02  0.1300439E+00
        -11   -1    0    0    0    0  0.00000000000E+00  0.00000000000E+00  0.45593999997E+02  0.45594000000E+02  0.51100000000E-03 0. -1.
         11   -1    0    0    0    0 -0.00000000000E+00 -0.00000000000E+00 -0.45593999997E+02  0.45594000000E+02  0.51100000000E-03 0.  1.
    9900012    2    1    2    0    0 -0.21217522183E+02 -0.29163625497E+01 -0.34561207689E+02  0.50528862097E+02  0.30000006831E+02 0.  0.
         12    1    1    2    0    0  0.21217522183E+02  0.29163625497E+01  0.34561207689E+02  0.40659137903E+02  0.00000000000E+00 0. -1.
         11    1    3    3    0    0 -0.17504939077E+02 -0.82522366370E+01 -0.20246941289E+02  0.28008229744E+02  0.51100000000E-03 0. -1.
        -11    1    3    3    0    0 -0.10037595710E+02  0.20555615563E+01 -0.89048660957E+01  0.13574803917E+02  0.51100000000E-03 0.  1.
        -12    1    3    3    0    0  0.63250126043E+01  0.32803125310E+01 -0.54094003043E+01  0.89458284355E+01  0.00000000000E+00 0.  1.
</event>
<event>
 7    1  0.9648846E-014  0.5052886E+02  0.7816164E-02  0.1300439E+00
        -11   -1    0    0    0    0  0.00000000000E+00  0.00000000000E+00  0.45593999997E+02  0.45594000000E+02  0.51100000000E-03 0. -1.
         11   -1    0    0    0    0 -0.00000000000E+00 -0.00000000000E+00 -0.45593999997E+02  0.45594000000E+02  0.51100000000E-03 0.  1.
    9900012    2    1    2    0    0  0.13606825222E+02  0.29668472982E+02  0.24244620639E+02  0.50528860663E+02  0.30000002472E+02 0.  0.
        -12    1    1    2    0    0 -0.13606825222E+02 -0.29668472982E+02 -0.24244620639E+02  0.40659139337E+02  0.00000000000E+00 0.  1.
         11    1    3    3    0    0  0.90139366179E+01  0.20061306291E+02  0.15520651803E+02  0.26918352403E+02  0.51100000000E-03 0. -1.
        -11    1    3    3    0    0 -0.61427098222E+01  0.79874462625E+01  0.77458118961E+01  0.12709436807E+02  0.51100000000E-03 0.  1.
         12    1    3    3    0    0  0.10735598426E+02  0.16197204287E+01  0.97815693991E+00  0.10901071454E+02  0.00000000000E+00 0. -1.
</event>
<event>
 7    1  0.8986500E-014  0.5052883E+02  0.7816164E-02  0.1300439E+00
        -11   -1    0    0    0    0  0.00000000000E+00  0.00000000000E+00  0.45593999997E+02  0.45594000000E+02  0.51100000000E-03 0. -1.
         11   -1    0    0    0    0 -0.00000000000E+00 -0.00000000000E+00 -0.45593999997E+02  0.45594000000E+02  0.51100000000E-03 0.  1.
    9900012    2    1    2    0    0  0.37343287332E+02 -0.62563125434E+01 -0.14815719291E+02  0.50528830142E+02  0.29999909701E+02 0.  0.
         12    1    1    2    0    0 -0.37343287332E+02  0.62563125434E+01  0.14815719291E+02  0.40659169858E+02  0.00000000000E+00 0. -1.
         11    1    3    3    0    0  0.41254894678E+01  0.43427072090E+01 -0.78305536271E+01  0.98588203970E+01  0.51100000000E-03 0. -1.
        -11    1    3    3    0    0  0.14722514333E+02  0.10734287901E+01 -0.11031602893E+02  0.18428264712E+02  0.51100000000E-03 0.  1.
         12    1    3    3    0    0  0.18495283532E+02 -0.11672448543E+02  0.40464372293E+01  0.22241745034E+02  0.00000000000E+00 0. -1.
</event>
<event>
 7    1  0.8986500E-014  0.5052883E+02  0.7816164E-02  0.1300439E+00
        -11   -1    0    0    0    0  0.00000000000E+00  0.00000000000E+00  0.45593999997E+02  0.45594000000E+02  0.51100000000E-03 0. -1.
         11   -1    0    0    0    0 -0.00000000000E+00 -0.00000000000E+00 -0.45593999997E+02  0.45594000000E+02  0.51100000000E-03 0.  1.
    9900012    2    1    2    0    0  0.79931983648E+01  0.33614238086E+02 -0.21432673973E+02  0.50528834541E+02  0.29999923070E+02 0.  0.
         12    1    1    2    0    0 -0.79931983648E+01 -0.33614238086E+02  0.21432673973E+02  0.40659165459E+02  0.00000000000E+00 0. -1.
         11    1    3    3    0    0  0.61607292195E+01  0.18332565642E+02 -0.22473845880E+02  0.29649811069E+02  0.51100000000E-03 0. -1.
        -11    1    3    3    0    0  0.17292358587E+01  0.16522508294E+02 -0.27946508749E+01  0.16846174959E+02  0.51100000000E-03 0.  1.
        -12    1    3    3    0    0  0.10323328662E+00 -0.12408358492E+01  0.38358227819E+01  0.40328485132E+01  0.00000000000E+00 0.  1.
</event>
<event>
 7    1  0.8986500E-014  0.5052889E+02  0.7816164E-02  0.1300439E+00
        -11   -1    0    0    0    0  0.00000000000E+00  0.00000000000E+00  0.45593999997E+02  0.45594000000E+02  0.51100000000E-03 0. -1.
         11   -1    0    0    0    0 -0.00000000000E+00 -0.00000000000E+00 -0.45593999997E+02  0.45594000000E+02  0.51100000000E-03 0.  1.
    9900012    2    1    2    0    0  0.11153041083E+01  0.23917831427E+02 -0.32861176548E+02  0.50528886784E+02  0.30000081868E+02 0.  0.
         12    1    1    2    0    0 -0.11153041083E+01 -0.23917831427E+02  0.32861176548E+02  0.40659113216E+02  0.00000000000E+00 0. -1.
         11    1    3    3    0    0  0.19808520905E+01  0.65899453700E+00  0.75013683451E+00  0.22182773352E+01  0.51100000000E-03 0. -1.
        -11    1    3    3    0    0  0.12139545513E+02  0.14164567107E+02 -0.15717321606E+02  0.24393395117E+02  0.51100000000E-03 0.  1.
        -12    1    3    3    0    0 -0.13005093495E+02  0.90942697839E+01 -0.17893991776E+02  0.23917214332E+02  0.00000000000E+00 0.  1.
</event>
<event>
 7    1  0.8986500E-014  0.5052889E+02  0.7816164E-02  0.1300439E+00
        -11   -1    0    0    0    0  0.00000000000E+00  0.00000000000E+00  0.45593999997E+02  0.45594000000E+02  0.51100000000E-03 0. -1.
         11   -1    0    0    0    0 -0.00000000000E+00 -0.00000000000E+00 -0.45593999997E+02  0.45594000000E+02  0.51100000000E-03 0.  1.
    9900012    2    1    2    0    0  0.19282685002E+02 -0.30955487118E+02  0.17974950054E+02  0.50528893357E+02  0.30000101848E+02 0.  0.
        -12    1    1    2    0    0 -0.19282685002E+02  0.30955487118E+02 -0.17974950054E+02  0.40659106643E+02  0.00000000000E+00 0.  1.
         11    1    3    3    0    0  0.20498799515E+01 -0.10174198436E+02 -0.19231026054E+01  0.10555313615E+02  0.51100000000E-03 0. -1.
        -11    1    3    3    0    0  0.10772295632E+02 -0.21813274680E+02  0.66857204747E+01  0.25230143955E+02  0.51100000000E-03 0.  1.
        -12    1    3    3    0    0  0.64605094186E+01  0.10319859982E+01  0.13212332185E+02  0.14743435787E+02  0.00000000000E+00 0.  1.
</event>
<event>
 7    1  0.8986500E-014  0.5052884E+02  0.7816164E-02  0.1300439E+00
        -11   -1    0    0    0    0  0.00000000000E+00  0.00000000000E+00  0.45593999997E+02  0.45594000000E+02  0.51100000000E-03 0. -1.
         11   -1    0    0    0    0 -0.00000000000E+00 -0.00000000000E+00 -0.45593999997E+02  0.45594000000E+02  0.51100000000E-03 0.  1.
    9900012    2    1    2    0    0 -0.33922967165E+02  0.21107076547E+01 -0.22314671752E+02  0.50528839120E+02  0.29999936989E+02 0.  0.
         12    1    1    2    0    0  0.33922967165E+02 -0.21107076547E+01  0.22314671752E+02  0.40659160880E+02  0.00000000000E+00 0. -1.
         11    1    3    3    0    0 -0.58332867902E+01 -0.76562830929E+01 -0.99435784320E+01  0.13839098882E+02  0.51100000000E-03 0. -1.
        -11    1    3    3    0    0  0.30277388679E+00  0.58585440582E+01 -0.25062720882E+01  0.63793111344E+01  0.51100000000E-03 0.  1.
        -12    1    3    3    0    0 -0.28392454261E+02  0.39084466894E+01 -0.98648212322E+01  0.30310429103E+02  0.00000000000E+00 0.  1.
</event>
<event>
 7    1  0.8986500E-014  0.5052886E+02  0.7816164E-02  0.1300439E+00
        -11   -1    0    0    0    0  0.00000000000E+00  0.00000000000E+00  0.45593999997E+02  0.45594000000E+02  0.51100000000E-03 0. -1.
         11   -1    0    0    0    0 -0.00000000000E+00 -0.00000000000E+00 -0.45593999997E+02  0.45594000000E+02  0.51100000000E-03 0.  1.
    9900012    2    1    2    0    0 -0.28996591754E+02  0.77163243892E+01  0.27437598104E+02  0.50528858529E+02  0.29999995985E+02 0.  0.
        -12    1    1    2    0    0  0.28996591754E+02 -0.77163243892E+01 -0.27437598104E+02  0.40659141471E+02  0.00000000000E+00 0.  1.
         11    1    3    3    0    0 -0.11408389547E+02  0.41074189984E+01  0.11669107725E+02  0.16828259513E+02  0.51100000000E-03 0. -1.
        -11    1    3    3    0    0 -0.15851478303E+02  0.12606302538E+02  0.83348626679E+01  0.21901099607E+02  0.51100000000E-03 0.  1.
         12    1    3    3    0    0 -0.17367239045E+01 -0.89973971473E+01  0.74336277110E+01  0.11799499409E+02  0.00000000000E+00 0. -1.
</event>
<event>
 7    1  0.8986500E-014  0.5052887E+02  0.7816164E-02  0.1300439E+00
        -11   -1    0    0    0    0  0.00000000000E+00  0.00000000000E+00  0.45593999997E+02  0.45594000000E+02  0.51100000000E-03 0.  1.
         11   -1    0    0    0    0 -0.00000000000E+00 -0.00000000000E+00 -0.45593999997E+02  0.45594000000E+02  0.51100000000E-03 0. -1.
    9900012    2    1    2    0    0 -0.37961800599E+02 -0.44897560739E+01  0.13853123665E+02  0.50528865115E+02  0.30000016002E+02 0.  0.
        -12    1    1    2    0    0  0.37961800599E+02  0.44897560739E+01 -0.13853123665E+02  0.40659134885E+02  0.00000000000E+00 0.  1.
         11    1    3    3    0    0 -0.24406416955E+02 -0.52358859133E+01  0.81430637701E+00  0.24975003203E+02  0.51100000000E-03 0. -1.
        -11    1    3    3    0    0 -0.13322572204E+02  0.38088671325E+01  0.18839564336E+01  0.13983836779E+02  0.51100000000E-03 0.  1.
        -12    1    3    3    0    0 -0.23281144123E+00 -0.30627372931E+01  0.11154860854E+02  0.11570025133E+02  0.00000000000E+00 0.  1.
</event>
<event>
 7    1  0.8986500E-014  0.5052886E+02  0.7816164E-02  0.1300439E+00
        -11   -1    0    0    0    0  0.00000000000E+00  0.00000000000E+00  0.45593999997E+02  0.45594000000E+02  0.51100000000E-03 0. -1.
         11   -1    0    0    0    0 -0.00000000000E+00 -0.00000000000E+00 -0.45593999997E+02  0.45594000000E+02  0.51100000000E-03 0.  1.
    9900012    2    1    2    0    0 -0.18715018411E+01  0.19321039902E+02 -0.35726191455E+02  0.50528857635E+02  0.29999993266E+02 0.  0.
         12    1    1    2    0    0  0.18715018411E+01 -0.19321039902E+02  0.35726191455E+02  0.40659142365E+02  0.00000000000E+00 0. -1.
         11    1    3    3    0    0 -0.18296629334E+01 -0.37184025369E+00 -0.73487175970E+01  0.75821884840E+01  0.51100000000E-03 0. -1.
        -11    1    3    3    0    0 -0.36827972788E+01 -0.35994003686E+00  0.35114456750E+01  0.51012551021E+01  0.51100000000E-03 0.  1.
        -12    1    3    3    0    0  0.36409583711E+01  0.20052820193E+02 -0.31888919533E+02  0.37845414048E+02  0.00000000000E+00 0.  1.
</event>
<event>
 7    1  0.8986500E-014  0.5052880E+02  0.7816164E-02  0.1300439E+00
        -11   -1    0    0    0    0  0.00000000000E+00  0.00000000000E+00  0.45593999997E+02  0.45594000000E+02  0.51100000000E-03 0. -1.
         11   -1    0    0    0    0 -0.00000000000E+00 -0.00000000000E+00 -0.45593999997E+02  0.45594000000E+02  0.51100000000E-03 0.  1.
    9900012    2    1    2    0    0  0.21829638597E+02 -0.31406840395E+01  0.34158067131E+02  0.50528799717E+02  0.29999817219E+02 0.  0.
        -12    1    1    2    0    0 -0.21829638597E+02  0.31406840395E+01 -0.34158067131E+02  0.40659200283E+02  0.00000000000E+00 0.  1.
         11    1    3    3    0    0  0.11436009790E+02 -0.24681502204E+00  0.10585223518E+02  0.15584934866E+02  0.51100000000E-03 0. -1.
        -11    1    3    3    0    0  0.10423910772E+02  0.76119549558E+01  0.20083751753E+02  0.23873769262E+02  0.51100000000E-03 0.  1.
        -12    1    3    3    0    0 -0.30281964810E-01 -0.10505823973E+02  0.34890918604E+01  0.11070095590E+02  0.00000000000E+00 0.  1.
</event>
<event>
 7    1  0.8986500E-014  0.5052886E+02  0.7816164E-02  0.1300439E+00
        -11   -1    0    0    0    0  0.00000000000E+00  0.00000000000E+00  0.45593999997E+02  0.45594000000E+02  0.51100000000E-03 0.  1.
         11   -1    0    0    0    0 -0.00000000000E+00 -0.00000000000E+00 -0.45593999997E+02  0.45594000000E+02  0.51100000000E-03 0. -1.
    9900012    2    1    2    0    0  0.36649963681E+02 -0.16001398827E+02 -0.73417277450E+01  0.50528861193E+02  0.30000004082E+02 0.  0.
         12    1    1    2    0    0 -0.36649963681E+02  0.16001398827E+02  0.73417277450E+01  0.40659138807E+02  0.00000000000E+00 0. -1.
         11    1    3    3    0    0  0.20714819505E+02 -0.77658769679E+01  0.38034383439E+01  0.22447243388E+02  0.51100000000E-03 0. -1.
        -11    1    3    3    0    0  0.15211218523E+02 -0.10866552698E+02 -0.23117684010E+01  0.18836332178E+02  0.51100000000E-03 0.  1.
         12    1    3    3    0    0  0.72392565260E+00  0.26310308386E+01 -0.88333976878E+01  0.92452856276E+01  0.00000000000E+00 0. -1.
</event>
<event>
 7    1  0.8986500E-014  0.5052886E+02  0.7816164E-02  0.1300439E+00
        -11   -1    0    0    0    0  0.00000000000E+00  0.00000000000E+00  0.45593999997E+02  0.45594000000E+02  0.51100000000E-03 0. -1.
         11   -1    0    0    0    0 -0.00000000000E+00 -0.00000000000E+00 -0.45593999997E+02  0.45594000000E+02  0.51100000000E-03 0.  1.
    9900012    2    1    2    0    0 -0.15624394653E+02  0.15840510075E+02 -0.34031188947E+02  0.50528864632E+02  0.30000014536E+02 0.  0.
         12    1    1    2    0    0  0.15624394653E+02 -0.15840510075E+02  0.34031188947E+02  0.40659135368E+02  0.00000000000E+00 0. -1.
         11    1    3    3    0    0 -0.91753214107E+01  0.11430234205E+02 -0.62613506128E+01  0.15938672741E+02  0.51100000000E-03 0. -1.
        -11    1    3    3    0    0 -0.35143075458E+01  0.11444136532E+02 -0.21943599352E+02  0.24996803221E+02  0.51100000000E-03 0.  1.
         12    1    3    3    0    0 -0.29347656966E+01 -0.70338606620E+01 -0.58262389820E+01  0.95933886704E+01  0.00000000000E+00 0. -1.
</event>
<event>
 7    1  0.8986500E-014  0.5052885E+02  0.7816164E-02  0.1300439E+00
        -11   -1    0    0    0    0  0.00000000000E+00  0.00000000000E+00  0.45593999997E+02  0.45594000000E+02  0.51100000000E-03 0. -1.
         11   -1    0    0    0    0 -0.00000000000E+00 -0.00000000000E+00 -0.45593999997E+02  0.45594000000E+02  0.51100000000E-03 0.  1.
    9900012    2    1    2    0    0 -0.38557063905E+02 -0.79512704348E+01  0.10163473624E+02  0.50528854970E+02  0.29999985166E+02 0.  0.
        -12    1    1    2    0    0  0.38557063905E+02  0.79512704348E+01 -0.10163473624E+02  0.40659145030E+02  0.00000000000E+00 0.  1.
         11    1    3    3    0    0 -0.29911023667E+02 -0.28549530923E+01  0.69687001349E+01  0.30844495065E+02  0.51100000000E-03 0. -1.
        -11    1    3    3    0    0 -0.11837554845E+02 -0.83721043415E+01  0.39998805022E+01  0.15040574460E+02  0.51100000000E-03 0.  1.
         12    1    3    3    0    0  0.31915146069E+01  0.32757869990E+01 -0.80510701340E+00  0.46437854443E+01  0.00000000000E+00 0. -1.
</event>
<event>
 7    1  0.8986500E-014  0.5052886E+02  0.7816164E-02  0.1300439E+00
        -11   -1    0    0    0    0  0.00000000000E+00  0.00000000000E+00  0.45593999997E+02  0.45594000000E+02  0.51100000000E-03 0.  1.
         11   -1    0    0    0    0 -0.00000000000E+00 -0.00000000000E+00 -0.45593999997E+02  0.45594000000E+02  0.51100000000E-03 0. -1.
    9900012    2    1    2    0    0  0.23070679418E+02 -0.27820817969E+02 -0.18625561076E+02  0.50528859739E+02  0.29999999664E+02 0.  0.
         12    1    1    2    0    0 -0.23070679418E+02  0.27820817969E+02  0.18625561076E+02  0.40659140261E+02  0.00000000000E+00 0. -1.
         11    1    3    3    0    0  0.56738877608E+01 -0.39418669043E+01 -0.53418945843E+01  0.87331068369E+01  0.51100000000E-03 0. -1.
        -11    1    3    3    0    0  0.15273238651E+02 -0.28336973634E+02 -0.16224465500E+02  0.36048428186E+02  0.51100000000E-03 0.  1.
         12    1    3    3    0    0  0.21235530061E+01  0.44580225688E+01  0.29407990083E+01  0.57473247168E+01  0.00000000000E+00 0. -1.
</event>
<event>
 7    1  0.8986500E-014  0.5052889E+02  0.7816164E-02  0.1300439E+00
        -11   -1    0    0    0    0  0.00000000000E+00  0.00000000000E+00  0.45593999997E+02  0.45594000000E+02  0.51100000000E-03 0. -1.
         11   -1    0    0    0    0 -0.00000000000E+00 -0.00000000000E+00 -0.45593999997E+02  0.45594000000E+02  0.51100000000E-03 0.  1.
    9900012    2    1    2    0    0  0.36521932138E+02 -0.15330550678E+01 -0.17803403146E+02  0.50528893413E+02  0.30000102017E+02 0.  0.
         12    1    1    2    0    0 -0.36521932138E+02  0.15330550678E+01  0.17803403146E+02  0.40659106587E+02  0.00000000000E+00 0. -1.
         11    1    3    3    0    0  0.52996238324E+01 -0.36200085005E+01 -0.30144752308E+01  0.70906653769E+01  0.51100000000E-03 0. -1.
        -11    1    3    3    0    0  0.39574723838E+01 -0.94443481924E+01 -0.81807396681E+01  0.13106555697E+02  0.51100000000E-03 0.  1.
         12    1    3    3    0    0  0.27264835921E+02  0.11531301625E+02 -0.66081882470E+01  0.30331672339E+02  0.00000000000E+00 0. -1.
</event>
<event>
 7    1  0.8986500E-014  0.5052886E+02  0.7816164E-02  0.1300439E+00
        -11   -1    0    0    0    0  0.00000000000E+00  0.00000000000E+00  0.45593999997E+02  0.45594000000E+02  0.51100000000E-03 0. -1.
         11   -1    0    0    0    0 -0.00000000000E+00 -0.00000000000E+00 -0.45593999997E+02  0.45594000000E+02  0.51100000000E-03 0.  1.
    9900012    2    1    2    0    0  0.22162043369E+02  0.29113607401E+02 -0.17731527463E+02  0.50528863654E+02  0.30000011564E+02 0.  0.
         12    1    1    2    0    0 -0.22162043369E+02 -0.29113607401E+02  0.17731527463E+02  0.40659136346E+02  0.00000000000E+00 0. -1.
         11    1    3    3    0    0  0.47266448046E+01  0.83233460032E+01 -0.13292223613E+02  0.16379941045E+02  0.51100000000E-03 0.  1.
        -11    1    3    3    0    0 -0.13834605934E+01 -0.17886062962E+01 -0.41825885028E+01  0.47546947895E+01  0.51100000000E-03 0. -1.
         12    1    3    3    0    0  0.18818859158E+02  0.22578867694E+02 -0.25671534728E+00  0.29394227820E+02  0.00000000000E+00 0. -1.
</event>
<event>
 7    1  0.8986500E-014  0.5052886E+02  0.7816164E-02  0.1300439E+00
        -11   -1    0    0    0    0  0.00000000000E+00  0.00000000000E+00  0.45593999997E+02  0.45594000000E+02  0.51100000000E-03 0. -1.
         11   -1    0    0    0    0 -0.00000000000E+00 -0.00000000000E+00 -0.45593999997E+02  0.45594000000E+02  0.51100000000E-03 0.  1.
    9900012    2    1    2    0    0 -0.18922910792E+02 -0.11449358056E+02 -0.34117459641E+02  0.50528863203E+02  0.30000010191E+02 0.  0.
         12    1    1    2    0    0  0.18922910792E+02  0.11449358056E+02  0.34117459641E+02  0.40659136797E+02  0.00000000000E+00 0. -1.
         11    1    3    3    0    0  0.60003181470E+01 -0.55305312896E+01 -0.11794105435E+02  0.14341949570E+02  0.51100000000E-03 0. -1.
        -11    1    3    3    0    0 -0.61915150157E+01  0.30348763732E+01 -0.96585644499E+01  0.11867316474E+02  0.51100000000E-03 0.  1.
        -12    1    3    3    0    0 -0.18731713923E+02 -0.89537031395E+01 -0.12664789757E+02  0.24319597159E+02  0.00000000000E+00 0.  1.
</event>
<event>
 7    1  0.8986500E-014  0.5052887E+02  0.7816164E-02  0.1300439E+00
        -11   -1    0    0    0    0  0.00000000000E+00  0.00000000000E+00  0.45593999997E+02  0.45594000000E+02  0.51100000000E-03 0. -1.
         11   -1    0    0    0    0 -0.00000000000E+00 -0.00000000000E+00 -0.45593999997E+02  0.45594000000E+02  0.51100000000E-03 0.  1.
    9900012    2    1    2    0    0 -0.30235370324E+02 -0.18045086081E+02  0.20331316216E+02  0.50528866102E+02  0.30000019003E+02 0.  0.
        -12    1    1    2    0    0  0.30235370324E+02  0.18045086081E+02 -0.20331316216E+02  0.40659133898E+02  0.00000000000E+00 0.  1.
         11    1    3    3    0    0 -0.90107481330E+01 -0.51974569111E+01 -0.14757721491E+01  0.10506428697E+02  0.51100000000E-03 0. -1.
        -11    1    3    3    0    0 -0.14103400570E+02  0.45016652768E+01  0.94492161337E+01  0.17562989031E+02  0.51100000000E-03 0.  1.
         12    1    3    3    0    0 -0.71212216202E+01 -0.17349294447E+02  0.12357872231E+02  0.22459448374E+02  0.00000000000E+00 0. -1.
</event>
<event>
 7    1  0.8986500E-014  0.5052886E+02  0.7816164E-02  0.1300439E+00
        -11   -1    0    0    0    0  0.00000000000E+00  0.00000000000E+00  0.45593999997E+02  0.45594000000E+02  0.51100000000E-03 0. -1.
         11   -1    0    0    0    0 -0.00000000000E+00 -0.00000000000E+00 -0.45593999997E+02  0.45594000000E+02  0.51100000000E-03 0.  1.
    9900012    2    1    2    0    0  0.36003145195E+02  0.14414708359E+02  0.12212906537E+02  0.50528863670E+02  0.30000011612E+02 0.  0.
        -12    1    1    2    0    0 -0.36003145195E+02 -0.14414708359E+02 -0.12212906537E+02  0.40659136330E+02  0.00000000000E+00 0.  1.
         11    1    3    3    0    0  0.13542611647E+02  0.15944806082E+02  0.55654676070E+01  0.21647484869E+02  0.51100000000E-03 0. -1.
        -11    1    3    3    0    0 -0.23206222256E+01  0.24476291614E-01  0.29878523268E+01  0.37832721804E+01  0.51100000000E-03 0.  1.
        -12    1    3    3    0    0  0.24781155774E+02 -0.15545740141E+01  0.36595866035E+01  0.25098106621E+02  0.00000000000E+00 0.  1.
</event>
<event>
 7    1  0.8986500E-014  0.5052885E+02  0.7816164E-02  0.1300439E+00
        -11   -1    0    0    0    0  0.00000000000E+00  0.00000000000E+00  0.45593999997E+02  0.45594000000E+02  0.51100000000E-03 0. -1.
         11   -1    0    0    0    0 -0.00000000000E+00 -0.00000000000E+00 -0.45593999997E+02  0.45594000000E+02  0.51100000000E-03 0.  1.
    9900012    2    1    2    0    0 -0.20164918431E+02 -0.23814375207E+02 -0.26065653633E+02  0.50528847265E+02  0.29999961746E+02 0.  0.
         12    1    1    2    0    0  0.20164918431E+02  0.23814375207E+02  0.26065653633E+02  0.40659152735E+02  0.00000000000E+00 0. -1.
         11    1    3    3    0    0 -0.12192150915E+02 -0.13700258559E+01 -0.53913901988E+01  0.13401216486E+02  0.51100000000E-03 0. -1.
        -11    1    3    3    0    0 -0.75359549520E+01 -0.63340787678E+01  0.12434046102E+01  0.99225614718E+01  0.51100000000E-03 0.  1.
         12    1    3    3    0    0 -0.43681256395E+00 -0.16110270584E+02 -0.21917668044E+02  0.27205069307E+02  0.00000000000E+00 0. -1.
</event>
<event>
 7    1  0.8986500E-014  0.5052891E+02  0.7816164E-02  0.1300439E+00
        -11   -1    0    0    0    0  0.00000000000E+00  0.00000000000E+00  0.45593999997E+02  0.45594000000E+02  0.51100000000E-03 0. -1.
         11   -1    0    0    0    0 -0.00000000000E+00 -0.00000000000E+00 -0.45593999997E+02  0.45594000000E+02  0.51100000000E-03 0.  1.
    9900012    2    1    2    0    0 -0.30400934219E+02 -0.26607482364E+02  0.45811591079E+01  0.50528905841E+02  0.30000139793E+02 0.  0.
        -12    1    1    2    0    0  0.30400934219E+02  0.26607482364E+02 -0.45811591079E+01  0.40659094159E+02  0.00000000000E+00 0.  1.
         11    1    3    3    0    0 -0.44775199873E+01  0.22310926849E+01  0.24697626161E+01  0.55790400112E+01  0.51100000000E-03 0. -1.
        -11    1    3    3    0    0 -0.74860160385E+00  0.38340056975E+00 -0.55603964994E+01  0.56236473796E+01  0.51100000000E-03 0.  1.
         12    1    3    3    0    0 -0.25174812627E+02 -0.29221975618E+02  0.76717929911E+01  0.39326218450E+02  0.00000000000E+00 0. -1.
</event>
<event>
 7    1  0.8986500E-014  0.5052886E+02  0.7816164E-02  0.1300439E+00
        -11   -1    0    0    0    0  0.00000000000E+00  0.00000000000E+00  0.45593999997E+02  0.45594000000E+02  0.51100000000E-03 0. -1.
         11   -1    0    0    0    0 -0.00000000000E+00 -0.00000000000E+00 -0.45593999997E+02  0.45594000000E+02  0.51100000000E-03 0.  1.
    9900012    2    1    2    0    0 -0.44523393072E+00  0.10612614214E+02 -0.39247162157E+02  0.50528861408E+02  0.30000004734E+02 0.  0.
         12    1    1    2    0    0  0.44523393072E+00 -0.10612614214E+02  0.39247162157E+02  0.40659138592E+02  0.00000000000E+00 0. -1.
         11    1    3    3    0    0  0.15200817615E+01  0.48034307373E+01  0.67551848204E-01  0.50386663834E+01  0.51100000000E-03 0. -1.
        -11    1    3    3    0    0  0.71836070688E+01 -0.61088501998E+00 -0.35821266069E+01  0.80504051026E+01  0.51100000000E-03 0.  1.
        -12    1    3    3    0    0 -0.91489227610E+01  0.64200684962E+01 -0.35732587398E+02  0.37439789921E+02  0.00000000000E+00 0.  1.
</event>
<event>
 7    1  0.8986500E-014  0.5052886E+02  0.7816164E-02  0.1300439E+00
        -11   -1    0    0    0    0  0.00000000000E+00  0.00000000000E+00  0.45593999997E+02  0.45594000000E+02  0.51100000000E-03 0. -1.
         11   -1    0    0    0    0 -0.00000000000E+00 -0.00000000000E+00 -0.45593999997E+02  0.45594000000E+02  0.51100000000E-03 0.  1.
    9900012    2    1    2    0    0 -0.37488770592E-01  0.21177455920E+02  0.34708495097E+02  0.50528859865E+02  0.30000000044E+02 0.  0.
        -12    1    1    2    0    0  0.37488770592E-01 -0.21177455920E+02 -0.34708495097E+02  0.40659140135E+02  0.00000000000E+00 0.  1.
         11    1    3    3    0    0  0.67045783769E+01  0.40048751781E+01 -0.14669717342E+01  0.79462193988E+01  0.51100000000E-03 0. -1.
        -11    1    3    3    0    0  0.37560899735E+01  0.43511598240E+01  0.11541967927E+02  0.12894100495E+02  0.51100000000E-03 0.  1.
         12    1    3    3    0    0 -0.10498157121E+02  0.12821420918E+02  0.24633498905E+02  0.29688539970E+02  0.00000000000E+00 0. -1.
</event>
<event>
 7    1  0.8986500E-014  0.5052886E+02  0.7816164E-02  0.1300439E+00
        -11   -1    0    0    0    0  0.00000000000E+00  0.00000000000E+00  0.45593999997E+02  0.45594000000E+02  0.51100000000E-03 0. -1.
         11   -1    0    0    0    0 -0.00000000000E+00 -0.00000000000E+00 -0.45593999997E+02  0.45594000000E+02  0.51100000000E-03 0.  1.
    9900012    2    1    2    0    0  0.77722188977E+01 -0.15150900850E+02  0.36921648539E+02  0.50528864323E+02  0.30000013595E+02 0.  0.
        -12    1    1    2    0    0 -0.77722188977E+01  0.15150900850E+02 -0.36921648539E+02  0.40659135677E+02  0.00000000000E+00 0.  1.
         11    1    3    3    0    0  0.47164428815E+01 -0.14528716552E+02  0.22477816359E+02  0.27176840630E+02  0.51100000000E-03 0. -1.
        -11    1    3    3    0    0  0.26124199886E+01  0.33116355449E+01  0.17718981667E+02  0.18214114849E+02  0.51100000000E-03 0.  1.
         12    1    3    3    0    0  0.44335602764E+00 -0.39338198429E+01 -0.32751494861E+01  0.51379088431E+01  0.00000000000E+00 0. -1.
</event>
<event>
 7    1  0.8986500E-014  0.5052887E+02  0.7816164E-02  0.1300439E+00
        -11   -1    0    0    0    0  0.00000000000E+00  0.00000000000E+00  0.45593999997E+02  0.45594000000E+02  0.51100000000E-03 0. -1.
         11   -1    0    0    0    0 -0.00000000000E+00 -0.00000000000E+00 -0.45593999997E+02  0.45594000000E+02  0.51100000000E-03 0.  1.
    9900012    2    1    2    0    0  0.11212719701E+02 -0.53417885451E+01 -0.38715699844E+02  0.50528865696E+02  0.30000017769E+02 0.  0.
         12    1    1    2    0    0 -0.11212719701E+02  0.53417885451E+01  0.38715699844E+02  0.40659134304E+02  0.00000000000E+00 0. -1.
         11    1    3    3    0    0 -0.14608847449E+00 -0.12156901927E+02 -0.10445246103E+02  0.16028561155E+02  0.51100000000E-03 0. -1.
        -11    1    3    3    0    0 -0.91195492630E+00 -0.25459760211E+01 -0.11048297995E+02  0.11374468978E+02  0.51100000000E-03 0.  1.
         12    1    3    3    0    0  0.12270763102E+02  0.93610894027E+01 -0.17222155746E+02  0.23125835562E+02  0.00000000000E+00 0. -1.
</event>
<event>
 7    1  0.8986500E-014  0.5052887E+02  0.7816164E-02  0.1300439E+00
        -11   -1    0    0    0    0  0.00000000000E+00  0.00000000000E+00  0.45593999997E+02  0.45594000000E+02  0.51100000000E-03 0.  1.
         11   -1    0    0    0    0 -0.00000000000E+00 -0.00000000000E+00 -0.45593999997E+02  0.45594000000E+02  0.51100000000E-03 0. -1.
    9900012    2    1    2    0    0  0.37737897497E+02 -0.61664916949E+01 -0.13819911925E+02  0.50528874420E+02  0.30000044288E+02 0.  0.
         12    1    1    2    0    0 -0.37737897497E+02  0.61664916949E+01  0.13819911925E+02  0.40659125580E+02  0.00000000000E+00 0. -1.
         11    1    3    3    0    0  0.10333386257E+02 -0.68768109767E+01  0.16064309250E+01  0.12515990625E+02  0.51100000000E-03 0. -1.
        -11    1    3    3    0    0  0.49727088478E+01 -0.84641978314E+01 -0.11470944565E+01  0.98836382050E+01  0.51100000000E-03 0.  1.
         12    1    3    3    0    0  0.22431802392E+02  0.91745171132E+01 -0.14279248394E+02  0.28129245591E+02  0.00000000000E+00 0. -1.
</event>
<event>
 7    1  0.9345900E-014  0.5052886E+02  0.7816164E-02  0.1300439E+00
        -11   -1    0    0    0    0  0.00000000000E+00  0.00000000000E+00  0.45593999997E+02  0.45594000000E+02  0.51100000000E-03 0. -1.
         11   -1    0    0    0    0 -0.00000000000E+00 -0.00000000000E+00 -0.45593999997E+02  0.45594000000E+02  0.51100000000E-03 0.  1.
    9900012    2    1    2    0    0  0.29600431373E+02  0.10098073966E+02  0.25980941371E+02  0.50528856504E+02  0.29999989830E+02 0.  0.
        -12    1    1    2    0    0 -0.29600431373E+02 -0.10098073966E+02 -0.25980941371E+02  0.40659143496E+02  0.00000000000E+00 0.  1.
         11    1    3    3    0    0  0.75404252421E+00 -0.23995792143E+01  0.48824832428E+00  0.25622152956E+01  0.51100000000E-03 0. -1.
        -11    1    3    3    0    0  0.18221696067E+01  0.51338511986E+01 -0.43994937666E+01  0.70023050397E+01  0.51100000000E-03 0.  1.
         12    1    3    3    0    0  0.27024219242E+02  0.73638019812E+01  0.29892186813E+02  0.40964336169E+02  0.00000000000E+00 0. -1.
</event>
<event>
 7    1  0.8986500E-014  0.5052886E+02  0.7816164E-02  0.1300439E+00
        -11   -1    0    0    0    0  0.00000000000E+00  0.00000000000E+00  0.45593999997E+02  0.45594000000E+02  0.51100000000E-03 0. -1.
         11   -1    0    0    0    0 -0.00000000000E+00 -0.00000000000E+00 -0.45593999997E+02  0.45594000000E+02  0.51100000000E-03 0.  1.
    9900012    2    1    2    0    0  0.38273633212E+02 -0.72807475622E+01  0.11631207471E+02  0.50528864845E+02  0.30000015182E+02 0.  0.
        -12    1    1    2    0    0 -0.38273633212E+02  0.72807475622E+01 -0.11631207471E+02  0.40659135155E+02  0.00000000000E+00 0.  1.
         11    1    3    3    0    0  0.32190397943E+01  0.57754306202E+00 -0.49923041505E+01  0.59681550061E+01  0.51100000000E-03 0. -1.
        -11    1    3    3    0    0  0.31251616897E+02  0.35045474702E+00  0.84679716430E+01  0.32380440411E+02  0.51100000000E-03 0.  1.
         12    1    3    3    0    0  0.38029765209E+01 -0.82087453712E+01  0.81555399781E+01  0.12180269427E+02  0.00000000000E+00 0. -1.
</event>
<event>
 7    1  0.8986500E-014  0.5052886E+02  0.7816164E-02  0.1300439E+00
        -11   -1    0    0    0    0  0.00000000000E+00  0.00000000000E+00  0.45593999997E+02  0.45594000000E+02  0.51100000000E-03 0. -1.
         11   -1    0    0    0    0 -0.00000000000E+00 -0.00000000000E+00 -0.45593999997E+02  0.45594000000E+02  0.51100000000E-03 0.  1.
    9900012    2    1    2    0    0 -0.76981853435E+00  0.23114668189E+02  0.33440771239E+02  0.50528859735E+02  0.29999999650E+02 0.  0.
        -12    1    1    2    0    0  0.76981853435E+00 -0.23114668189E+02 -0.33440771239E+02  0.40659140265E+02  0.00000000000E+00 0.  1.
         11    1    3    3    0    0 -0.45945918069E+01  0.24126694044E+01  0.14599810945E+02  0.15494699978E+02  0.51100000000E-03 0. -1.
        -11    1    3    3    0    0 -0.77865483574E+00  0.13275911877E+02  0.22030313220E+02  0.25733069004E+02  0.51100000000E-03 0.  1.
        -12    1    3    3    0    0  0.46034281083E+01  0.74260869076E+01 -0.31893529260E+01  0.93010907529E+01  0.00000000000E+00 0.  1.
</event>
<event>
 7    1  0.8986500E-014  0.5052886E+02  0.7816164E-02  0.1300439E+00
        -11   -1    0    0    0    0  0.00000000000E+00  0.00000000000E+00  0.45593999997E+02  0.45594000000E+02  0.51100000000E-03 0.  1.
         11   -1    0    0    0    0 -0.00000000000E+00 -0.00000000000E+00 -0.45593999997E+02  0.45594000000E+02  0.51100000000E-03 0. -1.
    9900012    2    1    2    0    0 -0.82647947566E+01  0.39196820112E+02 -0.69619010744E+01  0.50528860734E+02  0.30000002687E+02 0.  0.
         12    1    1    2    0    0  0.82647947566E+01 -0.39196820112E+02  0.69619010744E+01  0.40659139266E+02  0.00000000000E+00 0. -1.
         11    1    3    3    0    0 -0.34094324841E+01  0.17905462245E+02 -0.85685896801E+01  0.20140768045E+02  0.51100000000E-03 0. -1.
        -11    1    3    3    0    0  0.73496442833E+01  0.33679343094E+01 -0.21852206483E+01  0.83746905702E+01  0.51100000000E-03 0.  1.
         12    1    3    3    0    0 -0.12205006556E+02  0.17923423557E+02  0.37919092539E+01  0.22013402119E+02  0.00000000000E+00 0. -1.
</event>
<event>
 7    1  0.8986500E-014  0.5052886E+02  0.7816164E-02  0.1300439E+00
        -11   -1    0    0    0    0  0.00000000000E+00  0.00000000000E+00  0.45593999997E+02  0.45594000000E+02  0.51100000000E-03 0. -1.
         11   -1    0    0    0    0 -0.00000000000E+00 -0.00000000000E+00 -0.45593999997E+02  0.45594000000E+02  0.51100000000E-03 0.  1.
    9900012    2    1    2    0    0 -0.40671574546E+01 -0.32865820168E+02  0.23589435539E+02  0.50528863583E+02  0.30000011348E+02 0.  0.
        -12    1    1    2    0    0  0.40671574546E+01  0.32865820168E+02 -0.23589435539E+02  0.40659136417E+02  0.00000000000E+00 0.  1.
         11    1    3    3    0    0 -0.76911311288E+01 -0.13447323483E+02  0.15633851755E+01  0.15570105342E+02  0.51100000000E-03 0.  1.
        -11    1    3    3    0    0  0.19890309210E+01 -0.16091875970E+02  0.25275616547E+02  0.30029344121E+02  0.51100000000E-03 0. -1.
         12    1    3    3    0    0  0.16349427531E+01 -0.33266207148E+01 -0.32495661832E+01  0.49294141199E+01  0.00000000000E+00 0. -1.
</event>
<event>
 7    1  0.8986500E-014  0.5052887E+02  0.7816164E-02  0.1300439E+00
        -11   -1    0    0    0    0  0.00000000000E+00  0.00000000000E+00  0.45593999997E+02  0.45594000000E+02  0.51100000000E-03 0. -1.
         11   -1    0    0    0    0 -0.00000000000E+00 -0.00000000000E+00 -0.45593999997E+02  0.45594000000E+02  0.51100000000E-03 0.  1.
    9900012    2    1    2    0    0  0.64205194766E+01  0.10321522395E+02 -0.38799582466E+02  0.50528874402E+02  0.30000044231E+02 0.  0.
         12    1    1    2    0    0 -0.64205194766E+01 -0.10321522395E+02  0.38799582466E+02  0.40659125598E+02  0.00000000000E+00 0. -1.
         11    1    3    3    0    0  0.25856989304E+01  0.28010998872E+01  0.22078649152E+01  0.44052999083E+01  0.51100000000E-03 0.  1.
        -11    1    3    3    0    0 -0.62194636657E+00 -0.14564132435E+01  0.16603546865E+01  0.22945009838E+01  0.51100000000E-03 0. -1.
         12    1    3    3    0    0  0.44567669128E+01  0.89768357512E+01 -0.42667802068E+02  0.43829073510E+02  0.00000000000E+00 0. -1.
</event>
<event>
 7    1  0.8986500E-014  0.5052885E+02  0.7816164E-02  0.1300439E+00
        -11   -1    0    0    0    0  0.00000000000E+00  0.00000000000E+00  0.45593999997E+02  0.45594000000E+02  0.51100000000E-03 0. -1.
         11   -1    0    0    0    0 -0.00000000000E+00 -0.00000000000E+00 -0.45593999997E+02  0.45594000000E+02  0.51100000000E-03 0.  1.
    9900012    2    1    2    0    0  0.38255731313E+02  0.91846224228E+01 -0.10261980815E+02  0.50528849522E+02  0.29999968607E+02 0.  0.
        -12    1    1    2    0    0 -0.38255731313E+02 -0.91846224228E+01  0.10261980815E+02  0.40659150478E+02  0.00000000000E+00 0.  1.
         11    1    3    3    0    0  0.25473446921E+01  0.22471456931E+00 -0.50598050910E+01  0.56693111961E+01  0.51100000000E-03 0. -1.
        -11    1    3    3    0    0  0.29014185180E+01  0.63773613759E+01 -0.93574531900E+01  0.11689777500E+02  0.51100000000E-03 0.  1.
         12    1    3    3    0    0  0.32806968103E+02  0.25825464776E+01  0.41552774664E+01  0.33169760826E+02  0.00000000000E+00 0. -1.
</event>
<event>
 7    1  0.8986500E-014  0.5052882E+02  0.7816164E-02  0.1300439E+00
        -11   -1    0    0    0    0  0.00000000000E+00  0.00000000000E+00  0.45593999997E+02  0.45594000000E+02  0.51100000000E-03 0. -1.
         11   -1    0    0    0    0 -0.00000000000E+00 -0.00000000000E+00 -0.45593999997E+02  0.45594000000E+02  0.51100000000E-03 0.  1.
    9900012    2    1    2    0    0 -0.25552878277E+02 -0.16918437418E+02  0.26720506470E+02  0.50528824173E+02  0.29999891556E+02 0.  0.
        -12    1    1    2    0    0  0.25552878277E+02  0.16918437418E+02 -0.26720506470E+02  0.40659175827E+02  0.00000000000E+00 0.  1.
         11    1    3    3    0    0 -0.63413391230E+01  0.33511500389E+01  0.12351174780E+02  0.14282657567E+02  0.51100000000E-03 0. -1.
        -11    1    3    3    0    0  0.33173226588E+01 -0.15817571859E+01  0.33405776918E+01  0.49664922223E+01  0.51100000000E-03 0.  1.
        -12    1    3    3    0    0 -0.22528861813E+02 -0.18687830271E+02  0.11028753998E+02  0.31279674384E+02  0.00000000000E+00 0.  1.
</event>
<event>
 7    1  0.8986500E-014  0.5052882E+02  0.7816164E-02  0.1300439E+00
        -11   -1    0    0    0    0  0.00000000000E+00  0.00000000000E+00  0.45593999997E+02  0.45594000000E+02  0.51100000000E-03 0. -1.
         11   -1    0    0    0    0 -0.00000000000E+00 -0.00000000000E+00 -0.45593999997E+02  0.45594000000E+02  0.51100000000E-03 0.  1.
    9900012    2    1    2    0    0  0.34193353709E+02 -0.17843282138E+02  0.12868583026E+02  0.50528824106E+02  0.29999891351E+02 0.  0.
        -12    1    1    2    0    0 -0.34193353709E+02  0.17843282138E+02 -0.12868583026E+02  0.40659175894E+02  0.00000000000E+00 0.  1.
         11    1    3    3    0    0  0.24637595938E+01 -0.16103208410E+01 -0.34194487906E+01  0.45117485346E+01  0.51100000000E-03 0. -1.
        -11    1    3    3    0    0  0.12073864108E+02 -0.36659082376E+01 -0.58022928404E+01  0.13888256916E+02  0.51100000000E-03 0.  1.
         12    1    3    3    0    0  0.19655730007E+02 -0.12567053059E+02  0.22090324657E+02  0.32128818655E+02  0.00000000000E+00 0. -1.
</event>
<event>
 7    1  0.8986500E-014  0.5052886E+02  0.7816164E-02  0.1300439E+00
        -11   -1    0    0    0    0  0.00000000000E+00  0.00000000000E+00  0.45593999997E+02  0.45594000000E+02  0.51100000000E-03 0. -1.
         11   -1    0    0    0    0 -0.00000000000E+00 -0.00000000000E+00 -0.45593999997E+02  0.45594000000E+02  0.51100000000E-03 0.  1.
    9900012    2    1    2    0    0 -0.20695571178E+02 -0.21181178683E+02 -0.27860667300E+02  0.50528858602E+02  0.29999996207E+02 0.  0.
         12    1    1    2    0    0  0.20695571178E+02  0.21181178683E+02  0.27860667300E+02  0.40659141398E+02  0.00000000000E+00 0. -1.
         11    1    3    3    0    0 -0.10322154610E+02 -0.96220271730E+01 -0.58015883224E+01  0.15257414919E+02  0.51100000000E-03 0.  1.
        -11    1    3    3    0    0 -0.16050356254E+01 -0.14218513763E+02 -0.37413749860E+01  0.14789866803E+02  0.51100000000E-03 0. -1.
        -12    1    3    3    0    0 -0.87683809435E+01  0.26593622532E+01 -0.18317703992E+02  0.20481576880E+02  0.00000000000E+00 0.  1.
</event>
<event>
 7    1  0.8986500E-014  0.5052884E+02  0.7816164E-02  0.1300439E+00
        -11   -1    0    0    0    0  0.00000000000E+00  0.00000000000E+00  0.45593999997E+02  0.45594000000E+02  0.51100000000E-03 0. -1.
         11   -1    0    0    0    0 -0.00000000000E+00 -0.00000000000E+00 -0.45593999997E+02  0.45594000000E+02  0.51100000000E-03 0.  1.
    9900012    2    1    2    0    0  0.85319152297E+01  0.13007421339E+02 -0.37565683425E+02  0.50528841640E+02  0.29999944648E+02 0.  0.
         12    1    1    2    0    0 -0.85319152297E+01 -0.13007421339E+02  0.37565683425E+02  0.40659158360E+02  0.00000000000E+00 0. -1.
         11    1    3    3    0    0  0.52028241002E+01  0.11561265694E+02 -0.21534076316E+02  0.24988971289E+02  0.51100000000E-03 0. -1.
        -11    1    3    3    0    0 -0.35337412487E+01  0.85124215835E+01 -0.11386190205E+02  0.14649026454E+02  0.51100000000E-03 0.  1.
         12    1    3    3    0    0  0.68628323781E+01 -0.70662659376E+01 -0.46454169041E+01  0.10890843896E+02  0.00000000000E+00 0. -1.
</event>
<event>
 7    1  0.8986500E-014  0.5052887E+02  0.7816164E-02  0.1300439E+00
        -11   -1    0    0    0    0  0.00000000000E+00  0.00000000000E+00  0.45593999997E+02  0.45594000000E+02  0.51100000000E-03 0. -1.
         11   -1    0    0    0    0 -0.00000000000E+00 -0.00000000000E+00 -0.45593999997E+02  0.45594000000E+02  0.51100000000E-03 0.  1.
    9900012    2    1    2    0    0 -0.44615649991E+01  0.36413619931E+01  0.40249218570E+02  0.50528872182E+02  0.30000037484E+02 0.  0.
        -12    1    1    2    0    0  0.44615649991E+01 -0.36413619931E+01 -0.40249218570E+02  0.40659127818E+02  0.00000000000E+00 0.  1.
         11    1    3    3    0    0  0.65382500350E+01 -0.30483079881E+01  0.17812739042E+02  0.19218079184E+02  0.51100000000E-03 0. -1.
        -11    1    3    3    0    0 -0.44659819986E+01 -0.22817420646E+01 -0.12364981079E+01  0.51652947537E+01  0.51100000000E-03 0.  1.
        -12    1    3    3    0    0 -0.65338330356E+01  0.89714120459E+01  0.23672977637E+02  0.26145498244E+02  0.00000000000E+00 0.  1.
</event>
<event>
 7    1  0.8986500E-014  0.5052886E+02  0.7816164E-02  0.1300439E+00
        -11   -1    0    0    0    0  0.00000000000E+00  0.00000000000E+00  0.45593999997E+02  0.45594000000E+02  0.51100000000E-03 0. -1.
         11   -1    0    0    0    0 -0.00000000000E+00 -0.00000000000E+00 -0.45593999997E+02  0.45594000000E+02  0.51100000000E-03 0.  1.
    9900012    2    1    2    0    0  0.19846898729E+02  0.33993185791E+02 -0.10184774027E+02  0.50528859683E+02  0.29999999491E+02 0.  0.
         12    1    1    2    0    0 -0.19846898729E+02 -0.33993185791E+02  0.10184774027E+02  0.40659140317E+02  0.00000000000E+00 0. -1.
         11    1    3    3    0    0  0.89844452104E+01  0.10194580518E+02  0.68351155361E+01  0.15210803146E+02  0.51100000000E-03 0. -1.
        -11    1    3    3    0    0  0.89366804596E+01  0.34054965965E+01 -0.95482431245E+01  0.13514089379E+02  0.51100000000E-03 0.  1.
        -12    1    3    3    0    0  0.19257730595E+01  0.20393108676E+02 -0.74716464385E+01  0.21803967158E+02  0.00000000000E+00 0.  1.
</event>
<event>
 7    1  0.8986500E-014  0.5052884E+02  0.7816164E-02  0.1300439E+00
        -11   -1    0    0    0    0  0.00000000000E+00  0.00000000000E+00  0.45593999997E+02  0.45594000000E+02  0.51100000000E-03 0. -1.
         11   -1    0    0    0    0 -0.00000000000E+00 -0.00000000000E+00 -0.45593999997E+02  0.45594000000E+02  0.51100000000E-03 0.  1.
    9900012    2    1    2    0    0 -0.40383495998E+02  0.42370433668E+01 -0.20946809369E+01  0.50528843912E+02  0.29999951555E+02 0.  0.
        -12    1    1    2    0    0  0.40383495998E+02 -0.42370433668E+01  0.20946809369E+01  0.40659156088E+02  0.00000000000E+00 0.  1.
         11    1    3    3    0    0 -0.48423198699E+01  0.55445206421E+01  0.82848285201E+01  0.11082786416E+02  0.51100000000E-03 0. -1.
        -11    1    3    3    0    0 -0.68156242857E+00  0.20996656711E+00  0.22328228034E+01  0.23439520550E+01  0.51100000000E-03 0.  1.
         12    1    3    3    0    0 -0.34859613700E+02 -0.15174438424E+01 -0.12612332261E+02  0.37102105441E+02  0.00000000000E+00 0. -1.
</event>
<event>
 7    1  0.8986500E-014  0.5052888E+02  0.7816164E-02  0.1300439E+00
        -11   -1    0    0    0    0  0.00000000000E+00  0.00000000000E+00  0.45593999997E+02  0.45594000000E+02  0.51100000000E-03 0. -1.
         11   -1    0    0    0    0 -0.00000000000E+00 -0.00000000000E+00 -0.45593999997E+02  0.45594000000E+02  0.51100000000E-03 0.  1.
    9900012    2    1    2    0    0  0.24713604333E+02  0.18406486084E+02 -0.26525515176E+02  0.50528881411E+02  0.30000065537E+02 0.  0.
         12    1    1    2    0    0 -0.24713604333E+02 -0.18406486084E+02  0.26525515176E+02  0.40659118589E+02  0.00000000000E+00 0. -1.
         11    1    3    3    0    0  0.10482357494E+02  0.12869403870E+02  0.26600549254E+00  0.16600365472E+02  0.51100000000E-03 0.  1.
        -11    1    3    3    0    0  0.85931672928E+01  0.36425665523E+01 -0.36281737673E+01  0.10013713615E+02  0.51100000000E-03 0. -1.
         12    1    3    3    0    0  0.56380795458E+01  0.18945156618E+01 -0.23163346901E+02  0.23914802324E+02  0.00000000000E+00 0. -1.
</event>
<event>
 7    1  0.8986500E-014  0.5052895E+02  0.7816164E-02  0.1300438E+00
        -11   -1    0    0    0    0  0.00000000000E+00  0.00000000000E+00  0.45593999997E+02  0.45594000000E+02  0.51100000000E-03 0. -1.
         11   -1    0    0    0    0 -0.00000000000E+00 -0.00000000000E+00 -0.45593999997E+02  0.45594000000E+02  0.51100000000E-03 0.  1.
    9900012    2    1    2    0    0 -0.29282665020E+02 -0.18245740173E+01 -0.28148790413E+02  0.50528954970E+02  0.30000289125E+02 0.  0.
         12    1    1    2    0    0  0.29282665020E+02  0.18245740173E+01  0.28148790413E+02  0.40659045030E+02  0.00000000000E+00 0. -1.
         11    1    3    3    0    0 -0.16949106880E+02 -0.62885780047E+01 -0.11377529953E+02  0.21360398532E+02  0.51100000000E-03 0. -1.
        -11    1    3    3    0    0 -0.15803947102E+02 -0.85417693019E-01 -0.58741870494E+01  0.16860549041E+02  0.51100000000E-03 0.  1.
         12    1    3    3    0    0  0.34703889623E+01  0.45494216804E+01 -0.10897073411E+02  0.12308007397E+02  0.00000000000E+00 0. -1.
</event>
<event>
 7    1  0.8986500E-014  0.5052886E+02  0.7816164E-02  0.1300439E+00
        -11   -1    0    0    0    0  0.00000000000E+00  0.00000000000E+00  0.45593999997E+02  0.45594000000E+02  0.51100000000E-03 0. -1.
         11   -1    0    0    0    0 -0.00000000000E+00 -0.00000000000E+00 -0.45593999997E+02  0.45594000000E+02  0.51100000000E-03 0.  1.
    9900012    2    1    2    0    0 -0.11146771914E+01 -0.82095714353E+01 -0.39806106279E+02  0.50528860001E+02  0.30000000458E+02 0.  0.
         12    1    1    2    0    0  0.11146771914E+01  0.82095714353E+01  0.39806106279E+02  0.40659139999E+02  0.00000000000E+00 0. -1.
         11    1    3    3    0    0  0.28435248125E+01  0.24688851539E+01 -0.17646804690E+02  0.18044133210E+02  0.51100000000E-03 0. -1.
        -11    1    3    3    0    0  0.77797310229E+01 -0.31523883538E+01 -0.14016230757E+02  0.16337579136E+02  0.51100000000E-03 0.  1.
         12    1    3    3    0    0 -0.11737933027E+02 -0.75260682354E+01 -0.81430708315E+01  0.16147147655E+02  0.00000000000E+00 0. -1.
</event>
<event>
 7    1  0.8986500E-014  0.5052894E+02  0.7816164E-02  0.1300439E+00
        -11   -1    0    0    0    0  0.00000000000E+00  0.00000000000E+00  0.45593999997E+02  0.45594000000E+02  0.51100000000E-03 0.  1.
         11   -1    0    0    0    0 -0.00000000000E+00 -0.00000000000E+00 -0.45593999997E+02  0.45594000000E+02  0.51100000000E-03 0. -1.
    9900012    2    1    2    0    0  0.30560235070E+02  0.20071892456E+02  0.17786248385E+02  0.50528936239E+02  0.30000232191E+02 0.  0.
        -12    1    1    2    0    0 -0.30560235070E+02 -0.20071892456E+02 -0.17786248385E+02  0.40659063761E+02  0.00000000000E+00 0.  1.
         11    1    3    3    0    0  0.50186512880E+01  0.93539505458E+01  0.65411820608E+01  0.12468773580E+02  0.51100000000E-03 0. -1.
        -11    1    3    3    0    0  0.19681561419E+02  0.96776767275E+01  0.18488457610E+02  0.28685263670E+02  0.51100000000E-03 0.  1.
        -12    1    3    3    0    0  0.58600223627E+01  0.10402651827E+01 -0.72433912859E+01  0.93748989894E+01  0.00000000000E+00 0.  1.
</event>
<event>
 7    1  0.8986500E-014  0.5052879E+02  0.7816164E-02  0.1300439E+00
        -11   -1    0    0    0    0  0.00000000000E+00  0.00000000000E+00  0.45593999997E+02  0.45594000000E+02  0.51100000000E-03 0. -1.
         11   -1    0    0    0    0 -0.00000000000E+00 -0.00000000000E+00 -0.45593999997E+02  0.45594000000E+02  0.51100000000E-03 0.  1.
    9900012    2    1    2    0    0  0.38143380633E+02  0.98085061738E+01  0.10101828691E+02  0.50528791666E+02  0.29999792747E+02 0.  0.
        -12    1    1    2    0    0 -0.38143380633E+02 -0.98085061738E+01 -0.10101828691E+02  0.40659208334E+02  0.00000000000E+00 0.  1.
         11    1    3    3    0    0  0.17795720150E+02  0.15950034411E+01  0.73707218159E+01  0.19327680460E+02  0.51100000000E-03 0. -1.
        -11    1    3    3    0    0  0.22472199315E+02 -0.11393341845E+00  0.15459258162E+01  0.22525598988E+02  0.51100000000E-03 0.  1.
        -12    1    3    3    0    0 -0.21245388321E+01  0.83274361512E+01  0.11851810589E+01  0.86755122179E+01  0.00000000000E+00 0.  1.
</event>
<event>
 7    1  0.8986500E-014  0.5052886E+02  0.7816164E-02  0.1300439E+00
        -11   -1    0    0    0    0  0.00000000000E+00  0.00000000000E+00  0.45593999997E+02  0.45594000000E+02  0.51100000000E-03 0. -1.
         11   -1    0    0    0    0 -0.00000000000E+00 -0.00000000000E+00 -0.45593999997E+02  0.45594000000E+02  0.51100000000E-03 0.  1.
    9900012    2    1    2    0    0  0.13259332904E+02 -0.12312236996E+02  0.36411051566E+02  0.50528858776E+02  0.29999996737E+02 0.  0.
        -12    1    1    2    0    0 -0.13259332904E+02  0.12312236996E+02 -0.36411051566E+02  0.40659141224E+02  0.00000000000E+00 0.  1.
         11    1    3    3    0    0 -0.35354024947E+01 -0.52703451718E+01  0.74127330394E+01  0.97582898298E+01  0.51100000000E-03 0. -1.
        -11    1    3    3    0    0 -0.51221611083E+01 -0.29666140653E+01  0.92888435913E+01  0.11014533533E+02  0.51100000000E-03 0.  1.
         12    1    3    3    0    0  0.21916896507E+02 -0.40752777592E+01  0.19709474935E+02  0.29756035413E+02  0.00000000000E+00 0. -1.
</event>
<event>
 7    1  0.8986500E-014  0.5052886E+02  0.7816164E-02  0.1300439E+00
        -11   -1    0    0    0    0  0.00000000000E+00  0.00000000000E+00  0.45593999997E+02  0.45594000000E+02  0.51100000000E-03 0. -1.
         11   -1    0    0    0    0 -0.00000000000E+00 -0.00000000000E+00 -0.45593999997E+02  0.45594000000E+02  0.51100000000E-03 0.  1.
    9900012    2    1    2    0    0  0.53506522889E+01 -0.41571643857E+01 -0.40090571079E+02  0.50528863449E+02  0.30000010939E+02 0.  0.
         12    1    1    2    0    0 -0.53506522889E+01  0.41571643857E+01  0.40090571079E+02  0.40659136551E+02  0.00000000000E+00 0. -1.
         11    1    3    3    0    0  0.23574777791E+01  0.84396618885E+00  0.14423350154E+01  0.28896904617E+01  0.51100000000E-03 0. -1.
        -11    1    3    3    0    0 -0.86658493117E+01 -0.20220396156E+01 -0.28695212846E+02  0.30043315880E+02  0.51100000000E-03 0.  1.
         12    1    3    3    0    0  0.11659023822E+02 -0.29790909589E+01 -0.12837693248E+02  0.17595857107E+02  0.00000000000E+00 0. -1.
</event>
<event>
 7    1  0.8986500E-014  0.5052886E+02  0.7816164E-02  0.1300439E+00
        -11   -1    0    0    0    0  0.00000000000E+00  0.00000000000E+00  0.45593999997E+02  0.45594000000E+02  0.51100000000E-03 0. -1.
         11   -1    0    0    0    0 -0.00000000000E+00 -0.00000000000E+00 -0.45593999997E+02  0.45594000000E+02  0.51100000000E-03 0.  1.
    9900012    2    1    2    0    0 -0.30803069835E+02 -0.59091165776E+00  0.26532753171E+02  0.50528864757E+02  0.30000014916E+02 0.  0.
        -12    1    1    2    0    0  0.30803069835E+02  0.59091165776E+00 -0.26532753171E+02  0.40659135243E+02  0.00000000000E+00 0.  1.
         11    1    3    3    0    0 -0.81371965887E+01  0.58524319874E+01  0.10252369921E+02  0.14337922365E+02  0.51100000000E-03 0. -1.
        -11    1    3    3    0    0 -0.19735678907E+02  0.41525076662E+01  0.14976318478E+02  0.25120319609E+02  0.51100000000E-03 0.  1.
        -12    1    3    3    0    0 -0.29301943389E+01 -0.10595851311E+02  0.13040647725E+01  0.11070622783E+02  0.00000000000E+00 0.  1.
</event>
<event>
 7    1  0.8986500E-014  0.5052886E+02  0.7816164E-02  0.1300439E+00
        -11   -1    0    0    0    0  0.00000000000E+00  0.00000000000E+00  0.45593999997E+02  0.45594000000E+02  0.51100000000E-03 0. -1.
         11   -1    0    0    0    0 -0.00000000000E+00 -0.00000000000E+00 -0.45593999997E+02  0.45594000000E+02  0.51100000000E-03 0.  1.
    9900012    2    1    2    0    0  0.36059099851E+02 -0.74801982717E+01 -0.17232350653E+02  0.50528856412E+02  0.29999989551E+02 0.  0.
         12    1    1    2    0    0 -0.36059099851E+02  0.74801982717E+01  0.17232350653E+02  0.40659143588E+02  0.00000000000E+00 0. -1.
         11    1    3    3    0    0  0.16170233587E+00 -0.67886376640E+01 -0.14184359549E+01  0.69371254708E+01  0.51100000000E-03 0. -1.
        -11    1    3    3    0    0 -0.95366167149E-01 -0.40445826662E+01  0.20915975880E+00  0.40511099363E+01  0.51100000000E-03 0.  1.
        -12    1    3    3    0    0  0.35992763682E+02  0.33530220586E+01 -0.16023074457E+02  0.39540621005E+02  0.00000000000E+00 0.  1.
</event>
<event>
 7    1  0.8986500E-014  0.5052887E+02  0.7816164E-02  0.1300439E+00
        -11   -1    0    0    0    0  0.00000000000E+00  0.00000000000E+00  0.45593999997E+02  0.45594000000E+02  0.51100000000E-03 0. -1.
         11   -1    0    0    0    0 -0.00000000000E+00 -0.00000000000E+00 -0.45593999997E+02  0.45594000000E+02  0.51100000000E-03 0.  1.
    9900012    2    1    2    0    0  0.20173907455E+02 -0.36419511836E+01 -0.35112879486E+02  0.50528872412E+02  0.30000038184E+02 0.  0.
         12    1    1    2    0    0 -0.20173907455E+02  0.36419511836E+01  0.35112879486E+02  0.40659127588E+02  0.00000000000E+00 0. -1.
         11    1    3    3    0    0  0.76130093994E+01  0.74021382981E+01 -0.22895023492E+02  0.25237505116E+02  0.51100000000E-03 0. -1.
        -11    1    3    3    0    0  0.30765429953E+01  0.12383214390E+01 -0.87960886920E+01  0.94005177159E+01  0.51100000000E-03 0.  1.
         12    1    3    3    0    0  0.94843550602E+01 -0.12282410921E+02 -0.34217673016E+01  0.15890849581E+02  0.00000000000E+00 0. -1.
</event>
<event>
 7    1  0.8986500E-014  0.5052886E+02  0.7816164E-02  0.1300439E+00
        -11   -1    0    0    0    0  0.00000000000E+00  0.00000000000E+00  0.45593999997E+02  0.45594000000E+02  0.51100000000E-03 0. -1.
         11   -1    0    0    0    0 -0.00000000000E+00 -0.00000000000E+00 -0.45593999997E+02  0.45594000000E+02  0.51100000000E-03 0.  1.
    9900012    2    1    2    0    0  0.15610173901E+02 -0.57168733632E+01  0.37105331352E+02  0.50528858531E+02  0.29999995990E+02 0.  0.
        -12    1    1    2    0    0 -0.15610173901E+02  0.57168733632E+01 -0.37105331352E+02  0.40659141469E+02  0.00000000000E+00 0.  1.
         11    1    3    3    0    0  0.15922676305E+02 -0.29695194510E+01  0.12886941941E+02  0.20698380114E+02  0.51100000000E-03 0. -1.
        -11    1    3    3    0    0  0.76702608924E+01 -0.34183327599E+01  0.73633533816E+01  0.11168566349E+02  0.51100000000E-03 0.  1.
         12    1    3    3    0    0 -0.79827632961E+01  0.67097884769E+00  0.16855036030E+02  0.18661912068E+02  0.00000000000E+00 0. -1.
</event>
<event>
 7    1  0.8986500E-014  0.5052886E+02  0.7816164E-02  0.1300439E+00
        -11   -1    0    0    0    0  0.00000000000E+00  0.00000000000E+00  0.45593999997E+02  0.45594000000E+02  0.51100000000E-03 0.  1.
         11   -1    0    0    0    0 -0.00000000000E+00 -0.00000000000E+00 -0.45593999997E+02  0.45594000000E+02  0.51100000000E-03 0. -1.
    9900012    2    1    2    0    0 -0.22562822470E+02 -0.28711482870E+02  0.17881152915E+02  0.50528857904E+02  0.29999994085E+02 0.  0.
        -12    1    1    2    0    0  0.22562822470E+02  0.28711482870E+02 -0.17881152915E+02  0.40659142096E+02  0.00000000000E+00 0.  1.
         11    1    3    3    0    0 -0.35721491833E+01  0.16556093549E+01 -0.13203919709E+01  0.41526771295E+01  0.51100000000E-03 0.  1.
        -11    1    3    3    0    0 -0.17683514291E+02 -0.27776218323E+02  0.24015643233E+02  0.40755074557E+02  0.51100000000E-03 0. -1.
         12    1    3    3    0    0 -0.13071589958E+01 -0.25908739017E+01 -0.48140983469E+01  0.56211062175E+01  0.00000000000E+00 0. -1.
</event>
<event>
 7    1  0.8986500E-014  0.5052885E+02  0.7816164E-02  0.1300439E+00
        -11   -1    0    0    0    0  0.00000000000E+00  0.00000000000E+00  0.45593999997E+02  0.45594000000E+02  0.51100000000E-03 0. -1.
         11   -1    0    0    0    0 -0.00000000000E+00 -0.00000000000E+00 -0.45593999997E+02  0.45594000000E+02  0.51100000000E-03 0.  1.
    9900012    2    1    2    0    0  0.37612545759E+02  0.71371915371E+01 -0.13693906871E+02  0.50528853589E+02  0.29999980969E+02 0.  0.
         12    1    1    2    0    0 -0.37612545759E+02 -0.71371915371E+01  0.13693906871E+02  0.40659146411E+02  0.00000000000E+00 0. -1.
         11    1    3    3    0    0  0.72828656685E+00 -0.38817242896E+00  0.38135088576E+01  0.39017853895E+01  0.51100000000E-03 0. -1.
        -11    1    3    3    0    0  0.57089386400E+00  0.67904070512E+01 -0.17502831928E+01  0.70355553612E+01  0.51100000000E-03 0.  1.
        -12    1    3    3    0    0  0.36313365328E+02  0.73495691486E+00 -0.15757132535E+02  0.39591512838E+02  0.00000000000E+00 0.  1.
</event>
<event>
 7    1  0.8986500E-014  0.5052885E+02  0.7816164E-02  0.1300439E+00
        -11   -1    0    0    0    0  0.00000000000E+00  0.00000000000E+00  0.45593999997E+02  0.45594000000E+02  0.51100000000E-03 0. -1.
         11   -1    0    0    0    0 -0.00000000000E+00 -0.00000000000E+00 -0.45593999997E+02  0.45594000000E+02  0.51100000000E-03 0.  1.
    9900012    2    1    2    0    0  0.24954515715E+02 -0.32820677893E+00  0.32098762972E+02  0.50528853937E+02  0.29999982027E+02 0.  0.
        -12    1    1    2    0    0 -0.24954515715E+02  0.32820677893E+00 -0.32098762972E+02  0.40659146063E+02  0.00000000000E+00 0.  1.
         11    1    3    3    0    0  0.22379555336E+02 -0.60574263770E+01  0.32726100468E+02  0.40106540158E+02  0.51100000000E-03 0. -1.
        -11    1    3    3    0    0  0.40066619573E+01 -0.33896465408E+00  0.60693986491E+00  0.40665234953E+01  0.51100000000E-03 0.  1.
        -12    1    3    3    0    0 -0.14317015779E+01  0.60681842521E+01 -0.12342773615E+01  0.63557902838E+01  0.00000000000E+00 0.  1.
</event>
<event>
 7    1  0.8986500E-014  0.5052886E+02  0.7816164E-02  0.1300439E+00
        -11   -1    0    0    0    0  0.00000000000E+00  0.00000000000E+00  0.45593999997E+02  0.45594000000E+02  0.51100000000E-03 0. -1.
         11   -1    0    0    0    0 -0.00000000000E+00 -0.00000000000E+00 -0.45593999997E+02  0.45594000000E+02  0.51100000000E-03 0.  1.
    9900012    2    1    2    0    0  0.12627403026E+02  0.31446703418E+02 -0.22468176448E+02  0.50528863070E+02  0.30000009787E+02 0.  0.
         12    1    1    2    0    0 -0.12627403026E+02 -0.31446703418E+02  0.22468176448E+02  0.40659136930E+02  0.00000000000E+00 0. -1.
         11    1    3    3    0    0  0.61450875005E+01  0.28527550922E+01 -0.14564731667E+01  0.69297638020E+01  0.51100000000E-03 0. -1.
        -11    1    3    3    0    0  0.78917345069E+01  0.32278738104E+02 -0.15117986777E+02  0.36506847735E+02  0.51100000000E-03 0.  1.
         12    1    3    3    0    0 -0.14094189812E+01 -0.36847897783E+01 -0.58937165037E+01  0.70922515325E+01  0.00000000000E+00 0. -1.
</event>
<event>
 7    1  0.8986500E-014  0.5052886E+02  0.7816164E-02  0.1300439E+00
        -11   -1    0    0    0    0  0.00000000000E+00  0.00000000000E+00  0.45593999997E+02  0.45594000000E+02  0.51100000000E-03 0. -1.
         11   -1    0    0    0    0 -0.00000000000E+00 -0.00000000000E+00 -0.45593999997E+02  0.45594000000E+02  0.51100000000E-03 0.  1.
    9900012    2    1    2    0    0  0.14686319207E+02  0.16255396911E+02 -0.34252584729E+02  0.50528862513E+02  0.30000008094E+02 0.  0.
         12    1    1    2    0    0 -0.14686319207E+02 -0.16255396911E+02  0.34252584729E+02  0.40659137487E+02  0.00000000000E+00 0. -1.
         11    1    3    3    0    0 -0.35152498790E+01  0.54048410761E+01 -0.39721461629E+01  0.75727956640E+01  0.51100000000E-03 0. -1.
        -11    1    3    3    0    0 -0.38069182917E+01  0.69779311780E+01 -0.60127978558E+01  0.99668394549E+01  0.51100000000E-03 0.  1.
         12    1    3    3    0    0  0.22008487378E+02  0.38726246573E+01 -0.24267640710E+02  0.32989227394E+02  0.00000000000E+00 0. -1.
</event>
<event>
 7    1  0.8986500E-014  0.5052886E+02  0.7816164E-02  0.1300439E+00
        -11   -1    0    0    0    0  0.00000000000E+00  0.00000000000E+00  0.45593999997E+02  0.45594000000E+02  0.51100000000E-03 0. -1.
         11   -1    0    0    0    0 -0.00000000000E+00 -0.00000000000E+00 -0.45593999997E+02  0.45594000000E+02  0.51100000000E-03 0.  1.
    9900012    2    1    2    0    0 -0.10373210676E+02  0.31286817378E+02 -0.23805404162E+02  0.50528859470E+02  0.29999998844E+02 0.  0.
         12    1    1    2    0    0  0.10373210676E+02 -0.31286817378E+02  0.23805404162E+02  0.40659140530E+02  0.00000000000E+00 0. -1.
         11    1    3    3    0    0  0.43368967881E+01  0.38713820610E+01 -0.17969457099E+01  0.60848407504E+01  0.51100000000E-03 0. -1.
        -11    1    3    3    0    0  0.14361265152E+01  0.89560076350E+01  0.28663568287E+01  0.95125461290E+01  0.51100000000E-03 0.  1.
        -12    1    3    3    0    0 -0.16146233980E+02  0.18459427682E+02 -0.24874815281E+02  0.34931472590E+02  0.00000000000E+00 0.  1.
</event>
<event>
 7    1  0.8986500E-014  0.5052885E+02  0.7816164E-02  0.1300439E+00
        -11   -1    0    0    0    0  0.00000000000E+00  0.00000000000E+00  0.45593999997E+02  0.45594000000E+02  0.51100000000E-03 0. -1.
         11   -1    0    0    0    0 -0.00000000000E+00 -0.00000000000E+00 -0.45593999997E+02  0.45594000000E+02  0.51100000000E-03 0.  1.
    9900012    2    1    2    0    0 -0.16660633419E+01  0.11684184147E+02 -0.38908488462E+02  0.50528850960E+02  0.29999972979E+02 0.  0.
         12    1    1    2    0    0  0.16660633419E+01 -0.11684184147E+02  0.38908488462E+02  0.40659149040E+02  0.00000000000E+00 0. -1.
         11    1    3    3    0    0 -0.23300674422E+01 -0.13540258853E+01  0.31828156597E+01  0.41704815271E+01  0.51100000000E-03 0. -1.
        -11    1    3    3    0    0  0.56361424433E+00  0.15708365678E+01 -0.28612906824E+02  0.28661535649E+02  0.51100000000E-03 0.  1.
        -12    1    3    3    0    0  0.10038985595E+00  0.11467373464E+02 -0.13478397297E+02  0.17696833784E+02  0.00000000000E+00 0.  1.
</event>
<event>
 7    1  0.8986500E-014  0.5052886E+02  0.7816164E-02  0.1300439E+00
        -11   -1    0    0    0    0  0.00000000000E+00  0.00000000000E+00  0.45593999997E+02  0.45594000000E+02  0.51100000000E-03 0. -1.
         11   -1    0    0    0    0 -0.00000000000E+00 -0.00000000000E+00 -0.45593999997E+02  0.45594000000E+02  0.51100000000E-03 0.  1.
    9900012    2    1    2    0    0 -0.37851747929E+00 -0.21448936172E+02 -0.34539335795E+02  0.50528857663E+02  0.29999993354E+02 0.  0.
         12    1    1    2    0    0  0.37851747929E+00  0.21448936172E+02  0.34539335795E+02  0.40659142337E+02  0.00000000000E+00 0. -1.
         11    1    3    3    0    0  0.44707509194E+01  0.12873504922E-01 -0.16948888064E+02  0.17528621919E+02  0.51100000000E-03 0. -1.
        -11    1    3    3    0    0 -0.44097813371E+01  0.12997480077E+01 -0.69412364270E+00  0.46494434309E+01  0.51100000000E-03 0.  1.
        -12    1    3    3    0    0 -0.43948706157E+00 -0.22761557685E+02 -0.16896324088E+02  0.28350792314E+02  0.00000000000E+00 0.  1.
</event>
<event>
 7    1  0.8986500E-014  0.5052886E+02  0.7816164E-02  0.1300439E+00
        -11   -1    0    0    0    0  0.00000000000E+00  0.00000000000E+00  0.45593999997E+02  0.45594000000E+02  0.51100000000E-03 0.  1.
         11   -1    0    0    0    0 -0.00000000000E+00 -0.00000000000E+00 -0.45593999997E+02  0.45594000000E+02  0.51100000000E-03 0. -1.
    9900012    2    1    2    0    0  0.27269914071E+01 -0.37056851832E+02  0.16508144074E+02  0.50528861167E+02  0.30000004004E+02 0.  0.
        -12    1    1    2    0    0 -0.27269914071E+01  0.37056851832E+02 -0.16508144074E+02  0.40659138833E+02  0.00000000000E+00 0.  1.
         11    1    3    3    0    0  0.36699648156E+00 -0.15427671499E+02  0.37458719626E+01  0.15880154008E+02  0.51100000000E-03 0. -1.
        -11    1    3    3    0    0  0.95653323107E+01 -0.19752477241E+02  0.26720716091E+01  0.22108729189E+02  0.51100000000E-03 0.  1.
        -12    1    3    3    0    0 -0.72053373851E+01 -0.18767030915E+01  0.10090200502E+02  0.12539977971E+02  0.00000000000E+00 0.  1.
</event>
<event>
 7    1  0.8986500E-014  0.5052886E+02  0.7816164E-02  0.1300439E+00
        -11   -1    0    0    0    0  0.00000000000E+00  0.00000000000E+00  0.45593999997E+02  0.45594000000E+02  0.51100000000E-03 0. -1.
         11   -1    0    0    0    0 -0.00000000000E+00 -0.00000000000E+00 -0.45593999997E+02  0.45594000000E+02  0.51100000000E-03 0.  1.
    9900012    2    1    2    0    0  0.23348243751E+02  0.30803591122E+02 -0.12616005964E+02  0.50528864265E+02  0.30000013419E+02 0.  0.
         12    1    1    2    0    0 -0.23348243751E+02 -0.30803591122E+02  0.12616005964E+02  0.40659135735E+02  0.00000000000E+00 0. -1.
         11    1    3    3    0    0  0.83448819578E+01  0.90751692345E+01  0.69665192816E+01  0.14160795976E+02  0.51100000000E-03 0. -1.
        -11    1    3    3    0    0  0.82789325567E+01  0.30034124644E+01 -0.53292697719E+00  0.88229939439E+01  0.51100000000E-03 0.  1.
        -12    1    3    3    0    0  0.67244292368E+01  0.18725009423E+02 -0.19049598268E+02  0.27545074344E+02  0.00000000000E+00 0.  1.
</event>
<event>
 7    1  0.8986500E-014  0.5052886E+02  0.7816164E-02  0.1300439E+00
        -11   -1    0    0    0    0  0.00000000000E+00  0.00000000000E+00  0.45593999997E+02  0.45594000000E+02  0.51100000000E-03 0. -1.
         11   -1    0    0    0    0 -0.00000000000E+00 -0.00000000000E+00 -0.45593999997E+02  0.45594000000E+02  0.51100000000E-03 0.  1.
    9900012    2    1    2    0    0 -0.86479699262E+01  0.18905231648E+02 -0.34942382822E+02  0.50528864682E+02  0.30000014686E+02 0.  0.
         12    1    1    2    0    0  0.86479699262E+01 -0.18905231648E+02  0.34942382822E+02  0.40659135318E+02  0.00000000000E+00 0. -1.
         11    1    3    3    0    0  0.23591834350E+01 -0.20841669208E+00 -0.29243653612E+01  0.37631233071E+01  0.51100000000E-03 0. -1.
        -11    1    3    3    0    0  0.78753791075E+01  0.10944203277E+01 -0.66007957214E+01  0.10333917764E+02  0.51100000000E-03 0.  1.
        -12    1    3    3    0    0 -0.18882532469E+02  0.18019228013E+02 -0.25417221740E+02  0.36431823610E+02  0.00000000000E+00 0.  1.
</event>
<event>
 7    1  0.8986500E-014  0.5052888E+02  0.7816164E-02  0.1300439E+00
        -11   -1    0    0    0    0  0.00000000000E+00  0.00000000000E+00  0.45593999997E+02  0.45594000000E+02  0.51100000000E-03 0. -1.
         11   -1    0    0    0    0 -0.00000000000E+00 -0.00000000000E+00 -0.45593999997E+02  0.45594000000E+02  0.51100000000E-03 0.  1.
    9900012    2    1    2    0    0 -0.18920822935E+02  0.24329122644E+02 -0.26519059049E+02  0.50528877505E+02  0.30000053665E+02 0.  0.
         12    1    1    2    0    0  0.18920822935E+02 -0.24329122644E+02  0.26519059049E+02  0.40659122495E+02  0.00000000000E+00 0. -1.
         11    1    3    3    0    0 -0.43477294242E+01  0.14311351392E+01 -0.64601073465E+01  0.79173155882E+01  0.51100000000E-03 0. -1.
        -11    1    3    3    0    0 -0.17002377433E+02  0.41732534992E+01 -0.43243345670E+01  0.18033212494E+02  0.51100000000E-03 0.  1.
        -12    1    3    3    0    0  0.24292839217E+01  0.18724734006E+02 -0.15734617136E+02  0.24578349423E+02  0.00000000000E+00 0.  1.
</event>
<event>
 7    1  0.8986500E-014  0.5052886E+02  0.7816164E-02  0.1300439E+00
        -11   -1    0    0    0    0  0.00000000000E+00  0.00000000000E+00  0.45593999997E+02  0.45594000000E+02  0.51100000000E-03 0. -1.
         11   -1    0    0    0    0 -0.00000000000E+00 -0.00000000000E+00 -0.45593999997E+02  0.45594000000E+02  0.51100000000E-03 0.  1.
    9900012    2    1    2    0    0  0.19363675585E+02  0.52185604131E+01 -0.35369202491E+02  0.50528858472E+02  0.29999995810E+02 0.  0.
         12    1    1    2    0    0 -0.19363675585E+02 -0.52185604131E+01  0.35369202491E+02  0.40659141528E+02  0.00000000000E+00 0. -1.
         11    1    3    3    0    0 -0.62247441191E+01  0.31901851805E+01 -0.85501379975E+00  0.70466850144E+01  0.51100000000E-03 0. -1.
        -11    1    3    3    0    0  0.81909167635E-01 -0.43924612526E+00 -0.21773402880E+01  0.22227139405E+01  0.51100000000E-03 0.  1.
        -12    1    3    3    0    0  0.25506510537E+02  0.24676213579E+01 -0.32336848404E+02  0.41259459517E+02  0.00000000000E+00 0.  1.
</event>
<event>
 7    1  0.8986500E-014  0.5052887E+02  0.7816164E-02  0.1300439E+00
        -11   -1    0    0    0    0  0.00000000000E+00  0.00000000000E+00  0.45593999997E+02  0.45594000000E+02  0.51100000000E-03 0. -1.
         11   -1    0    0    0    0 -0.00000000000E+00 -0.00000000000E+00 -0.45593999997E+02  0.45594000000E+02  0.51100000000E-03 0.  1.
    9900012    2    1    2    0    0 -0.16801686721E+02 -0.62529408736E+01 -0.36493414255E+02  0.50528865353E+02  0.30000016726E+02 0.  0.
         12    1    1    2    0    0  0.16801686721E+02  0.62529408736E+01  0.36493414255E+02  0.40659134647E+02  0.00000000000E+00 0. -1.
         11    1    3    3    0    0  0.42356580823E+01  0.55560771799E+01 -0.56448968697E+01  0.89819627003E+01  0.51100000000E-03 0. -1.
        -11    1    3    3    0    0 -0.86842127465E+01 -0.25223769084E+01 -0.21888210057E+02  0.23682729490E+02  0.51100000000E-03 0.  1.
        -12    1    3    3    0    0 -0.12353132057E+02 -0.92866411452E+01 -0.89603073283E+01  0.17864173163E+02  0.00000000000E+00 0.  1.
</event>
<event>
 7    1  0.8986500E-014  0.5052886E+02  0.7816164E-02  0.1300439E+00
        -11   -1    0    0    0    0  0.00000000000E+00  0.00000000000E+00  0.45593999997E+02  0.45594000000E+02  0.51100000000E-03 0. -1.
         11   -1    0    0    0    0 -0.00000000000E+00 -0.00000000000E+00 -0.45593999997E+02  0.45594000000E+02  0.51100000000E-03 0.  1.
    9900012    2    1    2    0    0  0.14840173757E+02  0.12579347806E+02  0.35702866051E+02  0.50528863356E+02  0.30000010657E+02 0.  0.
        -12    1    1    2    0    0 -0.14840173757E+02 -0.12579347806E+02 -0.35702866051E+02  0.40659136644E+02  0.00000000000E+00 0.  1.
         11    1    3    3    0    0  0.31693139932E+00 -0.49665387196E-01 -0.84683501719E+00  0.90556168758E+00  0.51100000000E-03 0.  1.
        -11    1    3    3    0    0  0.92862973529E+01 -0.30909479796E+01  0.30421344412E+02  0.31956962841E+02  0.51100000000E-03 0. -1.
         12    1    3    3    0    0  0.52369450045E+01  0.15719961173E+02  0.61283566568E+01  0.17666338828E+02  0.00000000000E+00 0. -1.
</event>
<event>
 7    1  0.8986500E-014  0.5052886E+02  0.7816164E-02  0.1300439E+00
        -11   -1    0    0    0    0  0.00000000000E+00  0.00000000000E+00  0.45593999997E+02  0.45594000000E+02  0.51100000000E-03 0. -1.
         11   -1    0    0    0    0 -0.00000000000E+00 -0.00000000000E+00 -0.45593999997E+02  0.45594000000E+02  0.51100000000E-03 0.  1.
    9900012    2    1    2    0    0 -0.25942393492E+01 -0.29334852293E+02  0.28033943169E+02  0.50528860727E+02  0.30000002665E+02 0.  0.
        -12    1    1    2    0    0  0.25942393492E+01  0.29334852293E+02 -0.28033943169E+02  0.40659139273E+02  0.00000000000E+00 0.  1.
         11    1    3    3    0    0 -0.20176978714E+01  0.10996451416E+01  0.24211709057E+01  0.33380223117E+01  0.51100000000E-03 0. -1.
        -11    1    3    3    0    0 -0.79750949434E+01  0.34158245467E+00  0.51278651805E+01  0.94875613041E+01  0.51100000000E-03 0.  1.
         12    1    3    3    0    0  0.73985534655E+01 -0.30776079889E+02  0.20484907083E+02  0.37703277111E+02  0.00000000000E+00 0. -1.
</event>
<event>
 7    1  0.8986500E-014  0.5052886E+02  0.7816164E-02  0.1300439E+00
        -11   -1    0    0    0    0  0.00000000000E+00  0.00000000000E+00  0.45593999997E+02  0.45594000000E+02  0.51100000000E-03 0. -1.
         11   -1    0    0    0    0 -0.00000000000E+00 -0.00000000000E+00 -0.45593999997E+02  0.45594000000E+02  0.51100000000E-03 0.  1.
    9900012    2    1    2    0    0  0.10530772511E+02  0.73702808993E+01  0.38573925249E+02  0.50528856879E+02  0.29999990969E+02 0.  0.
        -12    1    1    2    0    0 -0.10530772511E+02 -0.73702808993E+01 -0.38573925249E+02  0.40659143121E+02  0.00000000000E+00 0.  1.
         11    1    3    3    0    0 -0.16077622049E+00 -0.66651863372E+01  0.27147489620E+01  0.71986401557E+01  0.51100000000E-03 0. -1.
        -11    1    3    3    0    0  0.51565423821E+01 -0.20843735148E+01  0.30134025141E+01  0.63257519127E+01  0.51100000000E-03 0.  1.
         12    1    3    3    0    0  0.55350063498E+01  0.16119840751E+02  0.32845773773E+02  0.37004464810E+02  0.00000000000E+00 0. -1.
</event>
<event>
 7    1  0.8986500E-014  0.5052885E+02  0.7816164E-02  0.1300439E+00
        -11   -1    0    0    0    0  0.00000000000E+00  0.00000000000E+00  0.45593999997E+02  0.45594000000E+02  0.51100000000E-03 0. -1.
         11   -1    0    0    0    0 -0.00000000000E+00 -0.00000000000E+00 -0.45593999997E+02  0.45594000000E+02  0.51100000000E-03 0.  1.
    9900012    2    1    2    0    0  0.27194381981E+02  0.13290469238E+02 -0.27147664367E+02  0.50528847716E+02  0.29999963116E+02 0.  0.
         12    1    1    2    0    0 -0.27194381981E+02 -0.13290469238E+02  0.27147664367E+02  0.40659152284E+02  0.00000000000E+00 0. -1.
         11    1    3    3    0    0  0.11839874355E+02  0.84070894261E+01 -0.65077080278E+01  0.15912637789E+02  0.51100000000E-03 0. -1.
        -11    1    3    3    0    0  0.15663573946E+02  0.11199054689E+02 -0.87515497270E+01  0.21150791890E+02  0.51100000000E-03 0.  1.
         12    1    3    3    0    0 -0.30906631974E+00 -0.63156748764E+01 -0.11888406613E+02  0.13465418037E+02  0.00000000000E+00 0. -1.
</event>
<event>
 7    1  0.8986500E-014  0.5052886E+02  0.7816164E-02  0.1300439E+00
        -11   -1    0    0    0    0  0.00000000000E+00  0.00000000000E+00  0.45593999997E+02  0.45594000000E+02  0.51100000000E-03 0. -1.
         11   -1    0    0    0    0 -0.00000000000E+00 -0.00000000000E+00 -0.45593999997E+02  0.45594000000E+02  0.51100000000E-03 0.  1.
    9900012    2    1    2    0    0  0.47951466009E+01 -0.30385231088E+02  0.26587783582E+02  0.50528856686E+02  0.29999990383E+02 0.  0.
        -12    1    1    2    0    0 -0.47951466009E+01  0.30385231088E+02 -0.26587783582E+02  0.40659143314E+02  0.00000000000E+00 0.  1.
         11    1    3    3    0    0 -0.84588022651E+01 -0.25001292968E+02  0.16552790271E+02  0.31154628097E+02  0.51100000000E-03 0. -1.
        -11    1    3    3    0    0  0.33985499041E+00 -0.28987778460E+01  0.15016846759E+00  0.29224929845E+01  0.51100000000E-03 0.  1.
        -12    1    3    3    0    0  0.12914093876E+02 -0.24851602736E+01  0.98848248442E+01  0.16451735605E+02  0.00000000000E+00 0.  1.
</event>
<event>
 7    1  0.8986500E-014  0.5052885E+02  0.7816164E-02  0.1300439E+00
        -11   -1    0    0    0    0  0.00000000000E+00  0.00000000000E+00  0.45593999997E+02  0.45594000000E+02  0.51100000000E-03 0. -1.
         11   -1    0    0    0    0 -0.00000000000E+00 -0.00000000000E+00 -0.45593999997E+02  0.45594000000E+02  0.51100000000E-03 0.  1.
    9900012    2    1    2    0    0 -0.38310055665E+01 -0.33278223140E+01 -0.40341242231E+02  0.50528845684E+02  0.29999956940E+02 0.  0.
         12    1    1    2    0    0  0.38310055665E+01  0.33278223140E+01  0.40341242231E+02  0.40659154316E+02  0.00000000000E+00 0. -1.
         11    1    3    3    0    0 -0.12461628723E+02 -0.52458522637E+00 -0.87108420473E+01  0.15213354315E+02  0.51100000000E-03 0. -1.
        -11    1    3    3    0    0 -0.27885473623E+01  0.15396639716E+01 -0.40675874868E+01  0.51664136266E+01  0.51100000000E-03 0.  1.
         12    1    3    3    0    0  0.11419170518E+02 -0.43429010592E+01 -0.27562812697E+02  0.30149077742E+02  0.00000000000E+00 0. -1.
</event>
<event>
 7    1  0.8986500E-014  0.5052889E+02  0.7816164E-02  0.1300439E+00
        -11   -1    0    0    0    0  0.00000000000E+00  0.00000000000E+00  0.45593999997E+02  0.45594000000E+02  0.51100000000E-03 0. -1.
         11   -1    0    0    0    0 -0.00000000000E+00 -0.00000000000E+00 -0.45593999997E+02  0.45594000000E+02  0.51100000000E-03 0.  1.
    9900012    2    1    2    0    0  0.31069463731E+02  0.20051298803E+02 -0.16905532652E+02  0.50528890388E+02  0.30000092822E+02 0.  0.
         12    1    1    2    0    0 -0.31069463731E+02 -0.20051298803E+02  0.16905532652E+02  0.40659109612E+02  0.00000000000E+00 0. -1.
         11    1    3    3    0    0  0.72435546351E+01  0.49000473694E+01  0.25110993438E+01  0.90986355103E+01  0.51100000000E-03 0. -1.
        -11    1    3    3    0    0  0.61626597483E+01 -0.37916442871E+01  0.23399618288E+01  0.76046277486E+01  0.51100000000E-03 0.  1.
        -12    1    3    3    0    0  0.17663249348E+02  0.18942895721E+02 -0.21756593825E+02  0.33825627129E+02  0.00000000000E+00 0.  1.
</event>
<event>
 7    1  0.8986500E-014  0.5052886E+02  0.7816164E-02  0.1300439E+00
        -11   -1    0    0    0    0  0.00000000000E+00  0.00000000000E+00  0.45593999997E+02  0.45594000000E+02  0.51100000000E-03 0. -1.
         11   -1    0    0    0    0 -0.00000000000E+00 -0.00000000000E+00 -0.45593999997E+02  0.45594000000E+02  0.51100000000E-03 0.  1.
    9900012    2    1    2    0    0 -0.30558734268E+02  0.73015313515E+01  0.25807308223E+02  0.50528858865E+02  0.29999997007E+02 0.  0.
        -12    1    1    2    0    0  0.30558734268E+02 -0.73015313515E+01 -0.25807308223E+02  0.40659141135E+02  0.00000000000E+00 0.  1.
         11    1    3    3    0    0 -0.15653355863E+02 -0.47243247931E+01  0.19574041046E+02  0.25504703049E+02  0.51100000000E-03 0. -1.
        -11    1    3    3    0    0 -0.88397491554E+01 -0.18705628759E+01  0.16578496187E+01  0.91863287674E+01  0.51100000000E-03 0.  1.
         12    1    3    3    0    0 -0.60656292495E+01  0.13896419020E+02  0.45754175580E+01  0.15837827048E+02  0.00000000000E+00 0. -1.
</event>
<event>
 7    1  0.8986500E-014  0.5052883E+02  0.7816164E-02  0.1300439E+00
        -11   -1    0    0    0    0  0.00000000000E+00  0.00000000000E+00  0.45593999997E+02  0.45594000000E+02  0.51100000000E-03 0. -1.
         11   -1    0    0    0    0 -0.00000000000E+00 -0.00000000000E+00 -0.45593999997E+02  0.45594000000E+02  0.51100000000E-03 0.  1.
    9900012    2    1    2    0    0  0.19268957824E+02 -0.31361438323E+00  0.35801911926E+02  0.50528831450E+02  0.29999913675E+02 0.  0.
        -12    1    1    2    0    0 -0.19268957824E+02  0.31361438323E+00 -0.35801911926E+02  0.40659168550E+02  0.00000000000E+00 0.  1.
         11    1    3    3    0    0  0.90011679132E+01  0.11153843358E+01  0.83733039034E+01  0.12344121052E+02  0.51100000000E-03 0. -1.
        -11    1    3    3    0    0  0.80536170369E+01 -0.11497609631E+02  0.23041518155E+02  0.26980869774E+02  0.51100000000E-03 0.  1.
         12    1    3    3    0    0  0.22141728743E+01  0.10068610912E+02  0.43870898679E+01  0.11203840624E+02  0.00000000000E+00 0. -1.
</event>
<event>
 7    1  0.1045842E-013  0.5052884E+02  0.7816164E-02  0.1300439E+00
        -11   -1    0    0    0    0  0.00000000000E+00  0.00000000000E+00  0.45593999997E+02  0.45594000000E+02  0.51100000000E-03 0. -1.
         11   -1    0    0    0    0 -0.00000000000E+00 -0.00000000000E+00 -0.45593999997E+02  0.45594000000E+02  0.51100000000E-03 0.  1.
    9900012    2    1    2    0    0  0.39252844636E+01  0.63967375671E+01  0.39960490237E+02  0.50528844947E+02  0.29999954700E+02 0.  0.
        -12    1    1    2    0    0 -0.39252844636E+01 -0.63967375671E+01 -0.39960490237E+02  0.40659155053E+02  0.00000000000E+00 0.  1.
         11    1    3    3    0    0 -0.58474463932E+01  0.32863506369E+01  0.37687572723E+01  0.76939106746E+01  0.51100000000E-03 0. -1.
        -11    1    3    3    0    0 -0.10638477494E+01  0.67965389462E+01  0.26129282011E+01  0.73588115702E+01  0.51100000000E-03 0.  1.
         12    1    3    3    0    0  0.10836578606E+02 -0.36861520160E+01  0.33578804764E+02  0.35476122702E+02  0.00000000000E+00 0. -1.
</event>
<event>
 7    1  0.8986500E-014  0.5052887E+02  0.7816164E-02  0.1300439E+00
        -11   -1    0    0    0    0  0.00000000000E+00  0.00000000000E+00  0.45593999997E+02  0.45594000000E+02  0.51100000000E-03 0. -1.
         11   -1    0    0    0    0 -0.00000000000E+00 -0.00000000000E+00 -0.45593999997E+02  0.45594000000E+02  0.51100000000E-03 0.  1.
    9900012    2    1    2    0    0 -0.14016778974E+02  0.34644104250E+02  0.16015012518E+02  0.50528872143E+02  0.30000037367E+02 0.  0.
        -12    1    1    2    0    0  0.14016778974E+02 -0.34644104250E+02 -0.16015012518E+02  0.40659127857E+02  0.00000000000E+00 0.  1.
         11    1    3    3    0    0  0.19808928297E+01  0.21413441091E+02 -0.17352278150E+01  0.21574763303E+02  0.51100000000E-03 0. -1.
        -11    1    3    3    0    0 -0.10513055245E+01  0.62693748837E+01  0.42829461109E+01  0.76651113748E+01  0.51100000000E-03 0.  1.
         12    1    3    3    0    0 -0.14946366280E+02  0.69612882755E+01  0.13467294222E+02  0.21288997466E+02  0.00000000000E+00 0. -1.
</event>
<event>
 7    1  0.8986500E-014  0.5052888E+02  0.7816164E-02  0.1300439E+00
        -11   -1    0    0    0    0  0.00000000000E+00  0.00000000000E+00  0.45593999997E+02  0.45594000000E+02  0.51100000000E-03 0. -1.
         11   -1    0    0    0    0 -0.00000000000E+00 -0.00000000000E+00 -0.45593999997E+02  0.45594000000E+02  0.51100000000E-03 0.  1.
    9900012    2    1    2    0    0  0.14504903678E+02  0.79886468798E+01  0.37134263632E+02  0.50528877467E+02  0.30000053549E+02 0.  0.
        -12    1    1    2    0    0 -0.14504903678E+02 -0.79886468798E+01 -0.37134263632E+02  0.40659122533E+02  0.00000000000E+00 0.  1.
         11    1    3    3    0    0  0.31124582890E+01  0.38199195855E+01  0.58648243034E+01  0.76599834603E+01  0.51100000000E-03 0. -1.
        -11    1    3    3    0    0 -0.24063177871E+00  0.13767576430E+02  0.18778679760E+02  0.23286109125E+02  0.51100000000E-03 0.  1.
         12    1    3    3    0    0  0.11633077168E+02 -0.95988491355E+01  0.12490759568E+02  0.19582784881E+02  0.00000000000E+00 0. -1.
</event>
<event>
 7    1  0.8986500E-014  0.5052888E+02  0.7816164E-02  0.1300439E+00
        -11   -1    0    0    0    0  0.00000000000E+00  0.00000000000E+00  0.45593999997E+02  0.45594000000E+02  0.51100000000E-03 0. -1.
         11   -1    0    0    0    0 -0.00000000000E+00 -0.00000000000E+00 -0.45593999997E+02  0.45594000000E+02  0.51100000000E-03 0.  1.
    9900012    2    1    2    0    0 -0.14785518528E+02  0.27332246356E+02 -0.26220243590E+02  0.50528875281E+02  0.30000046904E+02 0.  0.
         12    1    1    2    0    0  0.14785518528E+02 -0.27332246356E+02  0.26220243590E+02  0.40659124719E+02  0.00000000000E+00 0. -1.
         11    1    3    3    0    0 -0.59943886448E+01  0.14350779314E+02 -0.20429901030E+02  0.25676028091E+02  0.51100000000E-03 0. -1.
        -11    1    3    3    0    0 -0.22925890338E+00  0.38780760496E+01 -0.10732536419E+02  0.11413998937E+02  0.51100000000E-03 0.  1.
         12    1    3    3    0    0 -0.85618709798E+01  0.91033909923E+01  0.49421938590E+01  0.13438848253E+02  0.00000000000E+00 0. -1.
</event>
<event>
 7    1  0.8986500E-014  0.5052886E+02  0.7816164E-02  0.1300439E+00
        -11   -1    0    0    0    0  0.00000000000E+00  0.00000000000E+00  0.45593999997E+02  0.45594000000E+02  0.51100000000E-03 0. -1.
         11   -1    0    0    0    0 -0.00000000000E+00 -0.00000000000E+00 -0.45593999997E+02  0.45594000000E+02  0.51100000000E-03 0.  1.
    9900012    2    1    2    0    0  0.26151020999E+02 -0.14263381790E+02  0.27673918336E+02  0.50528859387E+02  0.29999998591E+02 0.  0.
        -12    1    1    2    0    0 -0.26151020999E+02  0.14263381790E+02 -0.27673918336E+02  0.40659140613E+02  0.00000000000E+00 0.  1.
         11    1    3    3    0    0  0.14216330440E+02 -0.16648163487E+02  0.94990420865E+01  0.23864140452E+02  0.51100000000E-03 0. -1.
        -11    1    3    3    0    0 -0.21674163036E+00 -0.34339094876E+01 -0.66379877402E+00  0.35041889756E+01  0.51100000000E-03 0.  1.
         12    1    3    3    0    0  0.12151432190E+02  0.58186911851E+01  0.18838675023E+02  0.23160529959E+02  0.00000000000E+00 0. -1.
</event>
<event>
 7    1  0.8986500E-014  0.5052886E+02  0.7816164E-02  0.1300439E+00
        -11   -1    0    0    0    0  0.00000000000E+00  0.00000000000E+00  0.45593999997E+02  0.45594000000E+02  0.51100000000E-03 0. -1.
         11   -1    0    0    0    0 -0.00000000000E+00 -0.00000000000E+00 -0.45593999997E+02  0.45594000000E+02  0.51100000000E-03 0.  1.
    9900012    2    1    2    0    0 -0.17403988200E+01  0.14340317196E+02  0.38006470286E+02  0.50528862418E+02  0.30000007805E+02 0.  0.
        -12    1    1    2    0    0  0.17403988200E+01 -0.14340317196E+02 -0.38006470286E+02  0.40659137582E+02  0.00000000000E+00 0.  1.
         11    1    3    3    0    0 -0.70333549459E+01  0.10155044448E+02  0.27730762488E+02  0.30357671155E+02  0.51100000000E-03 0. -1.
        -11    1    3    3    0    0  0.77891141652E+00  0.23788933268E+01  0.13889471646E+02  0.14113229939E+02  0.51100000000E-03 0.  1.
        -12    1    3    3    0    0  0.45140447094E+01  0.18063794209E+01 -0.36137638476E+01  0.60579613235E+01  0.00000000000E+00 0.  1.
</event>
<event>
 7    1  0.8986500E-014  0.5052886E+02  0.7816164E-02  0.1300439E+00
        -11   -1    0    0    0    0  0.00000000000E+00  0.00000000000E+00  0.45593999997E+02  0.45594000000E+02  0.51100000000E-03 0.  1.
         11   -1    0    0    0    0 -0.00000000000E+00 -0.00000000000E+00 -0.45593999997E+02  0.45594000000E+02  0.51100000000E-03 0. -1.
    9900012    2    1    2    0    0  0.26133735597E+02  0.30062250355E+02  0.81519794884E+01  0.50528858319E+02  0.29999995347E+02 0.  0.
        -12    1    1    2    0    0 -0.26133735597E+02 -0.30062250355E+02 -0.81519794884E+01  0.40659141681E+02  0.00000000000E+00 0.  1.
         11    1    3    3    0    0 -0.11719171537E+01  0.98056791875E+01 -0.47068376322E+00  0.98866717155E+01  0.51100000000E-03 0. -1.
        -11    1    3    3    0    0 -0.37712403795E+00  0.83547494277E+01  0.62025656217E+01  0.10412294708E+02  0.51100000000E-03 0.  1.
        -12    1    3    3    0    0  0.27682776789E+02  0.11901821739E+02  0.24200976300E+01  0.30229891895E+02  0.00000000000E+00 0.  1.
</event>
<event>
 7    1  0.1144555E-013  0.5052886E+02  0.7816164E-02  0.1300439E+00
        -11   -1    0    0    0    0  0.00000000000E+00  0.00000000000E+00  0.45593999997E+02  0.45594000000E+02  0.51100000000E-03 0. -1.
         11   -1    0    0    0    0 -0.00000000000E+00 -0.00000000000E+00 -0.45593999997E+02  0.45594000000E+02  0.51100000000E-03 0.  1.
    9900012    2    1    2    0    0 -0.27307736252E+02  0.73614224371E+01  0.29210662323E+02  0.50528858434E+02  0.29999995696E+02 0.  0.
        -12    1    1    2    0    0  0.27307736252E+02 -0.73614224371E+01 -0.29210662323E+02  0.40659141566E+02  0.00000000000E+00 0.  1.
         11    1    3    3    0    0 -0.37176495834E+01  0.96488574683E+01  0.83771177629E+01  0.13307797381E+02  0.51100000000E-03 0. -1.
        -11    1    3    3    0    0 -0.56339311088E+01 -0.30805133274E+01 -0.32285828200E+01  0.71871057725E+01  0.51100000000E-03 0.  1.
         12    1    3    3    0    0 -0.17956155560E+02  0.79307829616E+00  0.24062127380E+02  0.30033955280E+02  0.00000000000E+00 0. -1.
</event>
<event>
 7    1  0.8986500E-014  0.5052894E+02  0.7816164E-02  0.1300439E+00
        -11   -1    0    0    0    0  0.00000000000E+00  0.00000000000E+00  0.45593999997E+02  0.45594000000E+02  0.51100000000E-03 0. -1.
         11   -1    0    0    0    0 -0.00000000000E+00 -0.00000000000E+00 -0.45593999997E+02  0.45594000000E+02  0.51100000000E-03 0.  1.
    9900012    2    1    2    0    0  0.24624934430E+02 -0.16540518442E+02 -0.27806168139E+02  0.50528940338E+02  0.30000244652E+02 0.  0.
         12    1    1    2    0    0 -0.24624934430E+02  0.16540518442E+02  0.27806168139E+02  0.40659059662E+02  0.00000000000E+00 0. -1.
         11    1    3    3    0    0  0.30444559559E+01  0.20111517855E+01 -0.97750925578E+01  0.10433881269E+02  0.51100000000E-03 0. -1.
        -11    1    3    3    0    0  0.30731217316E+01  0.30346587526E+01 -0.94568727519E+01  0.10396425993E+02  0.51100000000E-03 0.  1.
        -12    1    3    3    0    0  0.18507356742E+02 -0.21586328980E+02 -0.85742028293E+01  0.29698633076E+02  0.00000000000E+00 0.  1.
</event>
<event>
 7    1  0.8986500E-014  0.5052886E+02  0.7816164E-02  0.1300439E+00
        -11   -1    0    0    0    0  0.00000000000E+00  0.00000000000E+00  0.45593999997E+02  0.45594000000E+02  0.51100000000E-03 0. -1.
         11   -1    0    0    0    0 -0.00000000000E+00 -0.00000000000E+00 -0.45593999997E+02  0.45594000000E+02  0.51100000000E-03 0.  1.
    9900012    2    1    2    0    0 -0.25090094312E+02  0.21163797470E+01  0.31924503355E+02  0.50528858220E+02  0.29999995046E+02 0.  0.
        -12    1    1    2    0    0  0.25090094312E+02 -0.21163797470E+01 -0.31924503355E+02  0.40659141780E+02  0.00000000000E+00 0.  1.
         11    1    3    3    0    0 -0.12167867483E+02  0.19685666039E+01  0.18178107671E+02  0.21963056534E+02  0.51100000000E-03 0. -1.
        -11    1    3    3    0    0 -0.11802207218E+02  0.89935060986E+01  0.12805640496E+02  0.19599991733E+02  0.51100000000E-03 0.  1.
        -12    1    3    3    0    0 -0.11200196100E+01 -0.88456929555E+01  0.94075518824E+00  0.89658099531E+01  0.00000000000E+00 0.  1.
</event>
<event>
 7    1  0.8986500E-014  0.5052885E+02  0.7816164E-02  0.1300439E+00
        -11   -1    0    0    0    0  0.00000000000E+00  0.00000000000E+00  0.45593999997E+02  0.45594000000E+02  0.51100000000E-03 0. -1.
         11   -1    0    0    0    0 -0.00000000000E+00 -0.00000000000E+00 -0.45593999997E+02  0.45594000000E+02  0.51100000000E-03 0.  1.
    9900012    2    1    2    0    0 -0.24516851535E+02 -0.46762770451E+01  0.32097087416E+02  0.50528848548E+02  0.29999965646E+02 0.  0.
        -12    1    1    2    0    0  0.24516851535E+02  0.46762770451E+01 -0.32097087416E+02  0.40659151452E+02  0.00000000000E+00 0.  1.
         11    1    3    3    0    0 -0.17107099928E+02 -0.20795599958E+01  0.15668545095E+02  0.23291216014E+02  0.51100000000E-03 0. -1.
        -11    1    3    3    0    0 -0.10798857513E+02 -0.86193963014E+01  0.14573471184E+02  0.20082215486E+02  0.51100000000E-03 0.  1.
        -12    1    3    3    0    0  0.33891059063E+01  0.60226792521E+01  0.18550711368E+01  0.71554170486E+01  0.00000000000E+00 0.  1.
</event>
<event>
 7    1  0.8986500E-014  0.5052885E+02  0.7816164E-02  0.1300439E+00
        -11   -1    0    0    0    0  0.00000000000E+00  0.00000000000E+00  0.45593999997E+02  0.45594000000E+02  0.51100000000E-03 0. -1.
         11   -1    0    0    0    0 -0.00000000000E+00 -0.00000000000E+00 -0.45593999997E+02  0.45594000000E+02  0.51100000000E-03 0.  1.
    9900012    2    1    2    0    0  0.79167994094E+00 -0.24311889455E+02  0.32580231374E+02  0.50528853399E+02  0.29999980390E+02 0.  0.
        -12    1    1    2    0    0 -0.79167994094E+00  0.24311889455E+02 -0.32580231374E+02  0.40659146601E+02  0.00000000000E+00 0.  1.
         11    1    3    3    0    0  0.73216066039E+01 -0.23476367934E+02  0.17290859895E+02  0.30061929593E+02  0.51100000000E-03 0. -1.
        -11    1    3    3    0    0 -0.29585401775E+01 -0.45993161392E+00  0.16428806977E+02  0.16699407056E+02  0.51100000000E-03 0.  1.
        -12    1    3    3    0    0 -0.35713864854E+01 -0.37558990686E+00 -0.11394354987E+01  0.37675167501E+01  0.00000000000E+00 0.  1.
</event>
<event>
 7    1  0.8986500E-014  0.5052885E+02  0.7816164E-02  0.1300439E+00
        -11   -1    0    0    0    0  0.00000000000E+00  0.00000000000E+00  0.45593999997E+02  0.45594000000E+02  0.51100000000E-03 0. -1.
         11   -1    0    0    0    0 -0.00000000000E+00 -0.00000000000E+00 -0.45593999997E+02  0.45594000000E+02  0.51100000000E-03 0.  1.
    9900012    2    1    2    0    0 -0.95528409181E+01  0.33765868944E+02 -0.20537174428E+02  0.50528853321E+02  0.29999980156E+02 0.  0.
         12    1    1    2    0    0  0.95528409181E+01 -0.33765868944E+02  0.20537174428E+02  0.40659146679E+02  0.00000000000E+00 0. -1.
         11    1    3    3    0    0  0.33897116014E+00  0.77749152394E+01 -0.11193648331E+02  0.13633120393E+02  0.51100000000E-03 0. -1.
        -11    1    3    3    0    0  0.12459475817E+01  0.71631526282E+01 -0.12827320235E+02  0.14744601915E+02  0.51100000000E-03 0.  1.
        -12    1    3    3    0    0 -0.11137759660E+02  0.18827801076E+02  0.34837941375E+01  0.22151131014E+02  0.00000000000E+00 0.  1.
</event>
<event>
 7    1  0.1209000E-013  0.5052885E+02  0.7816164E-02  0.1300439E+00
        -11   -1    0    0    0    0  0.00000000000E+00  0.00000000000E+00  0.45593999997E+02  0.45594000000E+02  0.51100000000E-03 0. -1.
         11   -1    0    0    0    0 -0.00000000000E+00 -0.00000000000E+00 -0.45593999997E+02  0.45594000000E+02  0.51100000000E-03 0.  1.
    9900012    2    1    2    0    0 -0.12506899630E+02 -0.11923256522E+02  0.36804619765E+02  0.50528848257E+02  0.29999964760E+02 0.  0.
        -12    1    1    2    0    0  0.12506899630E+02  0.11923256522E+02 -0.36804619765E+02  0.40659151743E+02  0.00000000000E+00 0.  1.
         11    1    3    3    0    0 -0.35618987755E+01 -0.18407388385E-01  0.22243141244E+00  0.35688846596E+01  0.51100000000E-03 0. -1.
        -11    1    3    3    0    0  0.17360049367E+01  0.31181047303E+01 -0.20784050778E+01  0.41298980832E+01  0.51100000000E-03 0.  1.
         12    1    3    3    0    0 -0.10681005792E+02 -0.15022953864E+02  0.38660593430E+02  0.42830065514E+02  0.00000000000E+00 0. -1.
</event>
<event>
 7    1  0.8986500E-014  0.5052886E+02  0.7816164E-02  0.1300439E+00
        -11   -1    0    0    0    0  0.00000000000E+00  0.00000000000E+00  0.45593999997E+02  0.45594000000E+02  0.51100000000E-03 0. -1.
         11   -1    0    0    0    0 -0.00000000000E+00 -0.00000000000E+00 -0.45593999997E+02  0.45594000000E+02  0.51100000000E-03 0.  1.
    9900012    2    1    2    0    0  0.18533986943E+02  0.74114745120E+01 -0.35422127944E+02  0.50528858659E+02  0.29999996381E+02 0.  0.
         12    1    1    2    0    0 -0.18533986943E+02 -0.74114745120E+01  0.35422127944E+02  0.40659141341E+02  0.00000000000E+00 0. -1.
         11    1    3    3    0    0 -0.25912774083E+01 -0.21066414113E+01 -0.22326910026E+01  0.40171589484E+01  0.51100000000E-03 0. -1.
        -11    1    3    3    0    0  0.23113293234E+01 -0.70900292215E+01 -0.84912241261E+01  0.11300957704E+02  0.51100000000E-03 0.  1.
        -12    1    3    3    0    0  0.18813935028E+02  0.16608145145E+02 -0.24698212816E+02  0.35210742007E+02  0.00000000000E+00 0.  1.
</event>
<event>
 7    1  0.8986500E-014  0.5052886E+02  0.7816164E-02  0.1300439E+00
        -11   -1    0    0    0    0  0.00000000000E+00  0.00000000000E+00  0.45593999997E+02  0.45594000000E+02  0.51100000000E-03 0. -1.
         11   -1    0    0    0    0 -0.00000000000E+00 -0.00000000000E+00 -0.45593999997E+02  0.45594000000E+02  0.51100000000E-03 0.  1.
    9900012    2    1    2    0    0 -0.39413933893E+01 -0.11041226601E+02 -0.38932282825E+02  0.50528856961E+02  0.29999991220E+02 0.  0.
         12    1    1    2    0    0  0.39413933893E+01  0.11041226601E+02  0.38932282825E+02  0.40659143039E+02  0.00000000000E+00 0. -1.
         11    1    3    3    0    0  0.20932393758E+01 -0.18968323739E+02 -0.23445433817E+02  0.30230238565E+02  0.51100000000E-03 0. -1.
        -11    1    3    3    0    0 -0.11669612794E+01 -0.10984079978E+01  0.13886540175E+00  0.16085964746E+01  0.51100000000E-03 0.  1.
        -12    1    3    3    0    0 -0.48676714857E+01  0.90255051358E+01 -0.15625714409E+02  0.18690021922E+02  0.00000000000E+00 0.  1.
</event>
<event>
 7    1  0.8986500E-014  0.5052888E+02  0.7816164E-02  0.1300439E+00
        -11   -1    0    0    0    0  0.00000000000E+00  0.00000000000E+00  0.45593999997E+02  0.45594000000E+02  0.51100000000E-03 0. -1.
         11   -1    0    0    0    0 -0.00000000000E+00 -0.00000000000E+00 -0.45593999997E+02  0.45594000000E+02  0.51100000000E-03 0.  1.
    9900012    2    1    2    0    0  0.28030948482E+02 -0.29335388417E+02 -0.26200542915E+01  0.50528883300E+02  0.30000071278E+02 0.  0.
        -12    1    1    2    0    0 -0.28030948482E+02  0.29335388417E+02  0.26200542915E+01  0.40659116700E+02  0.00000000000E+00 0.  1.
         11    1    3    3    0    0  0.34256381417E+01 -0.47154275233E+01 -0.48594471590E+01  0.75884438693E+01  0.51100000000E-03 0. -1.
        -11    1    3    3    0    0 -0.35233323059E+01  0.19054105756E+00 -0.35313023361E+01  0.49920209217E+01  0.51100000000E-03 0.  1.
         12    1    3    3    0    0  0.28128642646E+02 -0.24810501951E+02  0.57706952036E+01  0.37948418509E+02  0.00000000000E+00 0. -1.
</event>
<event>
 7    1  0.8986500E-014  0.5052886E+02  0.7816164E-02  0.1300439E+00
        -11   -1    0    0    0    0  0.00000000000E+00  0.00000000000E+00  0.45593999997E+02  0.45594000000E+02  0.51100000000E-03 0.  1.
         11   -1    0    0    0    0 -0.00000000000E+00 -0.00000000000E+00 -0.45593999997E+02  0.45594000000E+02  0.51100000000E-03 0. -1.
    9900012    2    1    2    0    0 -0.26840192409E+02 -0.25880159005E+02  0.16216868144E+02  0.50528863621E+02  0.30000011463E+02 0.  0.
        -12    1    1    2    0    0  0.26840192409E+02  0.25880159005E+02 -0.16216868144E+02  0.40659136379E+02  0.00000000000E+00 0.  1.
         11    1    3    3    0    0 -0.87242384169E+01 -0.25546737115E+00  0.85020647325E+01  0.12184527258E+02  0.51100000000E-03 0. -1.
        -11    1    3    3    0    0 -0.32033415889E+01  0.22209856231E+01  0.54166271351E+01  0.66733817706E+01  0.51100000000E-03 0.  1.
         12    1    3    3    0    0 -0.14912612403E+02 -0.27845677257E+02  0.22981762763E+01  0.31670954592E+02  0.00000000000E+00 0. -1.
</event>
<event>
 7    1  0.8986500E-014  0.5052886E+02  0.7816164E-02  0.1300439E+00
        -11   -1    0    0    0    0  0.00000000000E+00  0.00000000000E+00  0.45593999997E+02  0.45594000000E+02  0.51100000000E-03 0. -1.
         11   -1    0    0    0    0 -0.00000000000E+00 -0.00000000000E+00 -0.45593999997E+02  0.45594000000E+02  0.51100000000E-03 0.  1.
    9900012    2    1    2    0    0 -0.55343949616E+01 -0.72981622884E+01 -0.39614049403E+02  0.50528860677E+02  0.30000002515E+02 0.  0.
         12    1    1    2    0    0  0.55343949616E+01  0.72981622884E+01  0.39614049403E+02  0.40659139323E+02  0.00000000000E+00 0. -1.
         11    1    3    3    0    0 -0.67743320305E+01 -0.13681988688E+02 -0.30110123820E+02  0.33759560804E+02  0.51100000000E-03 0. -1.
        -11    1    3    3    0    0 -0.23390011328E+01  0.21692926958E+00 -0.93467273608E+01  0.96373905818E+01  0.51100000000E-03 0.  1.
         12    1    3    3    0    0  0.35789382017E+01  0.61668971302E+01 -0.15719822179E+00  0.71319092919E+01  0.00000000000E+00 0. -1.
</event>
<event>
 7    1  0.8986500E-014  0.5052884E+02  0.7816164E-02  0.1300439E+00
        -11   -1    0    0    0    0  0.00000000000E+00  0.00000000000E+00  0.45593999997E+02  0.45594000000E+02  0.51100000000E-03 0. -1.
         11   -1    0    0    0    0 -0.00000000000E+00 -0.00000000000E+00 -0.45593999997E+02  0.45594000000E+02  0.51100000000E-03 0.  1.
    9900012    2    1    2    0    0 -0.26246352351E+02  0.13868311439E+02  0.27784276934E+02  0.50528842130E+02  0.29999946139E+02 0.  0.
        -12    1    1    2    0    0  0.26246352351E+02 -0.13868311439E+02 -0.27784276934E+02  0.40659157870E+02  0.00000000000E+00 0.  1.
         11    1    3    3    0    0 -0.11371564256E+02  0.35160512859E+01  0.11379731782E+02  0.16467343015E+02  0.51100000000E-03 0. -1.
        -11    1    3    3    0    0 -0.41647685362E+01  0.73230930813E+00 -0.60542492502E+01  0.73848160523E+01  0.51100000000E-03 0.  1.
         12    1    3    3    0    0 -0.10710019559E+02  0.96199508451E+01  0.22458794403E+02  0.26676683063E+02  0.00000000000E+00 0. -1.
</event>
<event>
 7    1  0.8986500E-014  0.5052887E+02  0.7816164E-02  0.1300439E+00
        -11   -1    0    0    0    0  0.00000000000E+00  0.00000000000E+00  0.45593999997E+02  0.45594000000E+02  0.51100000000E-03 0. -1.
         11   -1    0    0    0    0 -0.00000000000E+00 -0.00000000000E+00 -0.45593999997E+02  0.45594000000E+02  0.51100000000E-03 0.  1.
    9900012    2    1    2    0    0  0.10793260261E+02  0.35184512993E+02 -0.17283537209E+02  0.50528867200E+02  0.30000022341E+02 0.  0.
         12    1    1    2    0    0 -0.10793260261E+02 -0.35184512993E+02  0.17283537209E+02  0.40659132800E+02  0.00000000000E+00 0. -1.
         11    1    3    3    0    0  0.35460794345E+01 -0.45740319949E+00  0.11214676891E+01  0.37472105734E+01  0.51100000000E-03 0. -1.
        -11    1    3    3    0    0  0.32577280194E+00 -0.25947170202E+01 -0.50602459647E+01  0.56960314095E+01  0.51100000000E-03 0.  1.
        -12    1    3    3    0    0  0.69214080243E+01  0.38236633213E+02 -0.13344758934E+02  0.41085625217E+02  0.00000000000E+00 0.  1.
</event>
<event>
 7    1  0.8986500E-014  0.5052886E+02  0.7816164E-02  0.1300439E+00
        -11   -1    0    0    0    0  0.00000000000E+00  0.00000000000E+00  0.45593999997E+02  0.45594000000E+02  0.51100000000E-03 0. -1.
         11   -1    0    0    0    0 -0.00000000000E+00 -0.00000000000E+00 -0.45593999997E+02  0.45594000000E+02  0.51100000000E-03 0.  1.
    9900012    2    1    2    0    0  0.32724748058E+02  0.76167970992E+01 -0.22896306913E+02  0.50528860760E+02  0.30000002765E+02 0.  0.
         12    1    1    2    0    0 -0.32724748058E+02 -0.76167970992E+01  0.22896306913E+02  0.40659139240E+02  0.00000000000E+00 0. -1.
         11    1    3    3    0    0  0.12160320872E+02  0.56095453436E+01 -0.13688518577E+02  0.19149828818E+02  0.51100000000E-03 0. -1.
        -11    1    3    3    0    0  0.15388408694E+02 -0.49515829032E+01 -0.14074669310E+02  0.21434029295E+02  0.51100000000E-03 0.  1.
         12    1    3    3    0    0  0.51760184911E+01  0.69588346588E+01  0.48668809733E+01  0.99450026464E+01  0.00000000000E+00 0. -1.
</event>
<event>
 7    1  0.8986500E-014  0.5052885E+02  0.7816164E-02  0.1300439E+00
        -11   -1    0    0    0    0  0.00000000000E+00  0.00000000000E+00  0.45593999997E+02  0.45594000000E+02  0.51100000000E-03 0. -1.
         11   -1    0    0    0    0 -0.00000000000E+00 -0.00000000000E+00 -0.45593999997E+02  0.45594000000E+02  0.51100000000E-03 0.  1.
    9900012    2    1    2    0    0 -0.19144239844E+02 -0.13841304133E+02 -0.33092030773E+02  0.50528854412E+02  0.29999983470E+02 0.  0.
         12    1    1    2    0    0  0.19144239844E+02  0.13841304133E+02  0.33092030773E+02  0.40659145588E+02  0.00000000000E+00 0. -1.
         11    1    3    3    0    0 -0.41345711553E+01  0.53994780767E+01 -0.94132032021E+01  0.11612813480E+02  0.51100000000E-03 0. -1.
        -11    1    3    3    0    0 -0.62757006875E+01  0.27087846715E+01 -0.27936138199E+01  0.73841866141E+01  0.51100000000E-03 0.  1.
         12    1    3    3    0    0 -0.87339680015E+01 -0.21949566881E+02 -0.20885213751E+02  0.31531854318E+02  0.00000000000E+00 0. -1.
</event>
<event>
 7    1  0.8986500E-014  0.5052886E+02  0.7816164E-02  0.1300439E+00
        -11   -1    0    0    0    0  0.00000000000E+00  0.00000000000E+00  0.45593999997E+02  0.45594000000E+02  0.51100000000E-03 0. -1.
         11   -1    0    0    0    0 -0.00000000000E+00 -0.00000000000E+00 -0.45593999997E+02  0.45594000000E+02  0.51100000000E-03 0.  1.
    9900012    2    1    2    0    0  0.69599199007E+01  0.23510566643E+02 -0.32434218645E+02  0.50528858740E+02  0.29999996627E+02 0.  0.
         12    1    1    2    0    0 -0.69599199007E+01 -0.23510566643E+02  0.32434218645E+02  0.40659141260E+02  0.00000000000E+00 0. -1.
         11    1    3    3    0    0  0.43526630177E+01  0.44345266160E+01  0.20192251218E+01  0.65336032943E+01  0.51100000000E-03 0. -1.
        -11    1    3    3    0    0  0.15101179885E+01 -0.15427190663E+00 -0.19633728284E+02  0.19692321924E+02  0.51100000000E-03 0.  1.
         12    1    3    3    0    0  0.10971388945E+01  0.19230311933E+02 -0.14819715482E+02  0.24302933522E+02  0.00000000000E+00 0. -1.
</event>
<event>
 7    1  0.8986500E-014  0.5052885E+02  0.7816164E-02  0.1300439E+00
        -11   -1    0    0    0    0  0.00000000000E+00  0.00000000000E+00  0.45593999997E+02  0.45594000000E+02  0.51100000000E-03 0. -1.
         11   -1    0    0    0    0 -0.00000000000E+00 -0.00000000000E+00 -0.45593999997E+02  0.45594000000E+02  0.51100000000E-03 0.  1.
    9900012    2    1    2    0    0  0.34314026147E+01  0.25992687938E+02  0.31076877633E+02  0.50528847604E+02  0.29999962776E+02 0.  0.
        -12    1    1    2    0    0 -0.34314026147E+01 -0.25992687938E+02 -0.31076877633E+02  0.40659152396E+02  0.00000000000E+00 0.  1.
         11    1    3    3    0    0  0.57266387768E+01  0.17549753139E+02  0.17398638056E+02  0.25367318214E+02  0.51100000000E-03 0. -1.
        -11    1    3    3    0    0  0.19899930927E+01  0.60466903467E+01 -0.35214408604E+01  0.72748252661E+01  0.51100000000E-03 0.  1.
        -12    1    3    3    0    0 -0.42852292548E+01  0.23962444523E+01  0.17199680438E+02  0.17886704123E+02  0.00000000000E+00 0.  1.
</event>
<event>
 7    1  0.8986500E-014  0.5052886E+02  0.7816164E-02  0.1300439E+00
        -11   -1    0    0    0    0  0.00000000000E+00  0.00000000000E+00  0.45593999997E+02  0.45594000000E+02  0.51100000000E-03 0. -1.
         11   -1    0    0    0    0 -0.00000000000E+00 -0.00000000000E+00 -0.45593999997E+02  0.45594000000E+02  0.51100000000E-03 0.  1.
    9900012    2    1    2    0    0 -0.85359343703E+01 -0.84907441199E+01  0.38835685174E+02  0.50528863829E+02  0.30000012093E+02 0.  0.
        -12    1    1    2    0    0  0.85359343703E+01  0.84907441199E+01 -0.38835685174E+02  0.40659136171E+02  0.00000000000E+00 0.  1.
         11    1    3    3    0    0 -0.27519263168E+00  0.13289226146E-01  0.12913933996E+01  0.13204562703E+01  0.51100000000E-03 0. -1.
        -11    1    3    3    0    0 -0.35073308705E+00 -0.18658837818E+02  0.18978528571E+02  0.26616907961E+02  0.51100000000E-03 0.  1.
         12    1    3    3    0    0 -0.79100086516E+01  0.10154804472E+02  0.18565763203E+02  0.22591499597E+02  0.00000000000E+00 0. -1.
</event>
<event>
 7    1  0.8986500E-014  0.5052886E+02  0.7816164E-02  0.1300439E+00
        -11   -1    0    0    0    0  0.00000000000E+00  0.00000000000E+00  0.45593999997E+02  0.45594000000E+02  0.51100000000E-03 0. -1.
         11   -1    0    0    0    0 -0.00000000000E+00 -0.00000000000E+00 -0.45593999997E+02  0.45594000000E+02  0.51100000000E-03 0.  1.
    9900012    2    1    2    0    0 -0.10325957340E+02 -0.21078169161E+02 -0.33200165183E+02  0.50528861073E+02  0.30000003716E+02 0.  0.
         12    1    1    2    0    0  0.10325957340E+02  0.21078169161E+02  0.33200165183E+02  0.40659138927E+02  0.00000000000E+00 0. -1.
         11    1    3    3    0    0 -0.60700647489E+00  0.41728312555E+01 -0.99753645290E+00  0.43331347525E+01  0.51100000000E-03 0. -1.
        -11    1    3    3    0    0 -0.13485605285E+02 -0.13847576851E+02 -0.26759396978E+02  0.33010335676E+02  0.51100000000E-03 0.  1.
         12    1    3    3    0    0  0.37666544200E+01 -0.11403423566E+02 -0.54432317513E+01  0.13185390644E+02  0.00000000000E+00 0. -1.
</event>
<event>
 7    1  0.8986500E-014  0.5052874E+02  0.7816164E-02  0.1300439E+00
        -11   -1    0    0    0    0  0.00000000000E+00  0.00000000000E+00  0.45593999997E+02  0.45594000000E+02  0.51100000000E-03 0. -1.
         11   -1    0    0    0    0 -0.00000000000E+00 -0.00000000000E+00 -0.45593999997E+02  0.45594000000E+02  0.51100000000E-03 0.  1.
    9900012    2    1    2    0    0  0.32964815499E+02 -0.30762132565E+01  0.23601544036E+02  0.50528744845E+02  0.29999650428E+02 0.  0.
        -12    1    1    2    0    0 -0.32964815499E+02  0.30762132565E+01 -0.23601544036E+02  0.40659255155E+02  0.00000000000E+00 0.  1.
         11    1    3    3    0    0 -0.34199388212E+01  0.10477531670E+01 -0.19926270289E+01  0.40944268191E+01  0.51100000000E-03 0. -1.
        -11    1    3    3    0    0 -0.99251863864E+00 -0.35014375383E+00  0.13954575716E+01  0.17478546826E+01  0.51100000000E-03 0.  1.
         12    1    3    3    0    0  0.37377272959E+02 -0.37738226697E+01  0.24198713494E+02  0.44686463343E+02  0.00000000000E+00 0. -1.
</event>
<event>
 7    1  0.8986500E-014  0.5052885E+02  0.7816164E-02  0.1300439E+00
        -11   -1    0    0    0    0  0.00000000000E+00  0.00000000000E+00  0.45593999997E+02  0.45594000000E+02  0.51100000000E-03 0. -1.
         11   -1    0    0    0    0 -0.00000000000E+00 -0.00000000000E+00 -0.45593999997E+02  0.45594000000E+02  0.51100000000E-03 0.  1.
    9900012    2    1    2    0    0 -0.13127690332E+02 -0.15634763310E+02  0.35162256646E+02  0.50528851341E+02  0.29999974135E+02 0.  0.
        -12    1    1    2    0    0  0.13127690332E+02  0.15634763310E+02 -0.35162256646E+02  0.40659148659E+02  0.00000000000E+00 0.  1.
         11    1    3    3    0    0 -0.57396584062E+01 -0.12051809390E+02  0.30742255030E+02  0.33515310423E+02  0.51100000000E-03 0. -1.
        -11    1    3    3    0    0 -0.82330710733E+01  0.51815956460E+00  0.80097323242E+01  0.11498163366E+02  0.51100000000E-03 0.  1.
         12    1    3    3    0    0  0.84503914739E+00 -0.41011134852E+01 -0.35897307075E+01  0.55153775512E+01  0.00000000000E+00 0. -1.
</event>
<event>
 7    1  0.8986500E-014  0.5052886E+02  0.7816164E-02  0.1300439E+00
        -11   -1    0    0    0    0  0.00000000000E+00  0.00000000000E+00  0.45593999997E+02  0.45594000000E+02  0.51100000000E-03 0. -1.
         11   -1    0    0    0    0 -0.00000000000E+00 -0.00000000000E+00 -0.45593999997E+02  0.45594000000E+02  0.51100000000E-03 0.  1.
    9900012    2    1    2    0    0  0.35099551860E+02  0.75941703774E-01 -0.20522707999E+02  0.50528857713E+02  0.29999993505E+02 0.  0.
         12    1    1    2    0    0 -0.35099551860E+02 -0.75941703774E-01  0.20522707999E+02  0.40659142287E+02  0.00000000000E+00 0. -1.
         11    1    3    3    0    0  0.11953214428E+02 -0.36390877044E+01  0.24443271577E+01  0.12731733189E+02  0.51100000000E-03 0. -1.
        -11    1    3    3    0    0  0.17842515923E+02  0.88869603222E+01 -0.87569210259E+01  0.21771933868E+02  0.51100000000E-03 0.  1.
        -12    1    3    3    0    0  0.53038215088E+01 -0.51719309141E+01 -0.14210114131E+02  0.16025190657E+02  0.00000000000E+00 0.  1.
</event>
<event>
 7    1  0.8986500E-014  0.5052885E+02  0.7816164E-02  0.1300439E+00
        -11   -1    0    0    0    0  0.00000000000E+00  0.00000000000E+00  0.45593999997E+02  0.45594000000E+02  0.51100000000E-03 0. -1.
         11   -1    0    0    0    0 -0.00000000000E+00 -0.00000000000E+00 -0.45593999997E+02  0.45594000000E+02  0.51100000000E-03 0.  1.
    9900012    2    1    2    0    0 -0.32756498455E+02  0.19364814817E+02 -0.14324178174E+02  0.50528851900E+02  0.29999975834E+02 0.  0.
         12    1    1    2    0    0  0.32756498455E+02 -0.19364814817E+02  0.14324178174E+02  0.40659148100E+02  0.00000000000E+00 0. -1.
         11    1    3    3    0    0  0.82875478531E+00 -0.11792241140E+01  0.31808766194E+01  0.34921884735E+01  0.51100000000E-03 0. -1.
        -11    1    3    3    0    0  0.42732867800E+00 -0.18965625527E+01 -0.33989954057E+01  0.39157029183E+01  0.51100000000E-03 0.  1.
        -12    1    3    3    0    0 -0.34012581918E+02  0.22440601483E+02 -0.14106059388E+02  0.43120960508E+02  0.00000000000E+00 0.  1.
</event>
<event>
 7    1  0.8986500E-014  0.5052886E+02  0.7816164E-02  0.1300439E+00
        -11   -1    0    0    0    0  0.00000000000E+00  0.00000000000E+00  0.45593999997E+02  0.45594000000E+02  0.51100000000E-03 0.  1.
         11   -1    0    0    0    0 -0.00000000000E+00 -0.00000000000E+00 -0.45593999997E+02  0.45594000000E+02  0.51100000000E-03 0. -1.
    9900012    2    1    2    0    0  0.11967997577E+02  0.23685521709E+02  0.30804689519E+02  0.50528858334E+02  0.29999995392E+02 0.  0.
        -12    1    1    2    0    0 -0.11967997577E+02 -0.23685521709E+02 -0.30804689519E+02  0.40659141666E+02  0.00000000000E+00 0.  1.
         11    1    3    3    0    0 -0.87178160327E+00  0.17980699826E+01 -0.51080740195E+01  0.54850231791E+01  0.51100000000E-03 0. -1.
        -11    1    3    3    0    0  0.28419890796E+01  0.10245518882E+02  0.84372692007E+01  0.13573322030E+02  0.51100000000E-03 0.  1.
        -12    1    3    3    0    0  0.99977901005E+01  0.11641932845E+02  0.27475494338E+02  0.31470513125E+02  0.00000000000E+00 0.  1.
</event>
<event>
 7    1  0.8986500E-014  0.5052884E+02  0.7816164E-02  0.1300439E+00
        -11   -1    0    0    0    0  0.00000000000E+00  0.00000000000E+00  0.45593999997E+02  0.45594000000E+02  0.51100000000E-03 0. -1.
         11   -1    0    0    0    0 -0.00000000000E+00 -0.00000000000E+00 -0.45593999997E+02  0.45594000000E+02  0.51100000000E-03 0.  1.
    9900012    2    1    2    0    0  0.11013168917E+01  0.11488707771E+02 -0.38986713655E+02  0.50528841784E+02  0.29999945088E+02 0.  0.
         12    1    1    2    0    0 -0.11013168917E+01 -0.11488707771E+02  0.38986713655E+02  0.40659158216E+02  0.00000000000E+00 0. -1.
         11    1    3    3    0    0  0.29467060866E+01  0.23245278279E+01  0.25870263151E+01  0.45584220735E+01  0.51100000000E-03 0. -1.
        -11    1    3    3    0    0  0.10199088253E+01  0.11806918961E+02 -0.15020829836E+02  0.19132926556E+02  0.51100000000E-03 0.  1.
         12    1    3    3    0    0 -0.28652980203E+01 -0.26427390173E+01 -0.26552910134E+02  0.26837493155E+02  0.00000000000E+00 0. -1.
</event>
<event>
 7    1  0.8986500E-014  0.5052886E+02  0.7816164E-02  0.1300439E+00
        -11   -1    0    0    0    0  0.00000000000E+00  0.00000000000E+00  0.45593999997E+02  0.45594000000E+02  0.51100000000E-03 0. -1.
         11   -1    0    0    0    0 -0.00000000000E+00 -0.00000000000E+00 -0.45593999997E+02  0.45594000000E+02  0.51100000000E-03 0.  1.
    9900012    2    1    2    0    0 -0.15437623831E+02  0.78264674612E+01  0.36791189593E+02  0.50528862600E+02  0.30000008359E+02 0.  0.
        -12    1    1    2    0    0  0.15437623831E+02 -0.78264674612E+01 -0.36791189593E+02  0.40659137400E+02  0.00000000000E+00 0.  1.
         11    1    3    3    0    0 -0.17905169583E+02 -0.14251758226E+01  0.89473794293E+01  0.20066933568E+02  0.51100000000E-03 0. -1.
        -11    1    3    3    0    0 -0.15870794015E+01 -0.84802905850E-01  0.13685592505E+01  0.20973715081E+01  0.51100000000E-03 0.  1.
        -12    1    3    3    0    0  0.40546251542E+01  0.93364461896E+01  0.26475250913E+02  0.28364557523E+02  0.00000000000E+00 0.  1.
</event>
<event>
 7    1  0.8986500E-014  0.5052886E+02  0.7816164E-02  0.1300439E+00
        -11   -1    0    0    0    0  0.00000000000E+00  0.00000000000E+00  0.45593999997E+02  0.45594000000E+02  0.51100000000E-03 0. -1.
         11   -1    0    0    0    0 -0.00000000000E+00 -0.00000000000E+00 -0.45593999997E+02  0.45594000000E+02  0.51100000000E-03 0.  1.
    9900012    2    1    2    0    0  0.14107183086E+01  0.25650735031E+02 -0.31515315706E+02  0.50528862554E+02  0.30000008220E+02 0.  0.
         12    1    1    2    0    0 -0.14107183086E+01 -0.25650735031E+02  0.31515315706E+02  0.40659137446E+02  0.00000000000E+00 0. -1.
         11    1    3    3    0    0 -0.50884190660E+01  0.97304253101E+01 -0.69758326035E+01  0.13009051698E+02  0.51100000000E-03 0. -1.
        -11    1    3    3    0    0 -0.72432408256E+01  0.18610119505E+01 -0.22735171330E+01  0.78164431523E+01  0.51100000000E-03 0.  1.
        -12    1    3    3    0    0  0.13742378200E+02  0.14059297771E+02 -0.22265965969E+02  0.29703367704E+02  0.00000000000E+00 0.  1.
</event>
<event>
 7    1  0.8986500E-014  0.5052886E+02  0.7816164E-02  0.1300439E+00
        -11   -1    0    0    0    0  0.00000000000E+00  0.00000000000E+00  0.45593999997E+02  0.45594000000E+02  0.51100000000E-03 0.  1.
         11   -1    0    0    0    0 -0.00000000000E+00 -0.00000000000E+00 -0.45593999997E+02  0.45594000000E+02  0.51100000000E-03 0. -1.
    9900012    2    1    2    0    0 -0.12921903713E+02 -0.32573313450E+02 -0.20619631900E+02  0.50528861244E+02  0.30000004237E+02 0.  0.
         12    1    1    2    0    0  0.12921903713E+02  0.32573313450E+02  0.20619631900E+02  0.40659138756E+02  0.00000000000E+00 0. -1.
         11    1    3    3    0    0  0.47893261096E+01 -0.26718359631E+01 -0.11081938722E+02  0.12364696441E+02  0.51100000000E-03 0. -1.
        -11    1    3    3    0    0 -0.12038427415E+02 -0.11074887509E+02 -0.11000845156E+00  0.16358146902E+02  0.51100000000E-03 0.  1.
        -12    1    3    3    0    0 -0.56728024077E+01 -0.18826589978E+02 -0.94276847273E+01  0.21806017900E+02  0.00000000000E+00 0.  1.
</event>
<event>
 7    1  0.8986500E-014  0.5052886E+02  0.7816164E-02  0.1300439E+00
        -11   -1    0    0    0    0  0.00000000000E+00  0.00000000000E+00  0.45593999997E+02  0.45594000000E+02  0.51100000000E-03 0. -1.
         11   -1    0    0    0    0 -0.00000000000E+00 -0.00000000000E+00 -0.45593999997E+02  0.45594000000E+02  0.51100000000E-03 0.  1.
    9900012    2    1    2    0    0  0.27964165783E+02  0.79642796339E+01 -0.28420797600E+02  0.50528855220E+02  0.29999985927E+02 0.  0.
         12    1    1    2    0    0 -0.27964165783E+02 -0.79642796339E+01  0.28420797600E+02  0.40659144780E+02  0.00000000000E+00 0. -1.
         11    1    3    3    0    0  0.12157712756E+02 -0.14770145301E+01  0.24619002194E+01  0.12492097675E+02  0.51100000000E-03 0. -1.
        -11    1    3    3    0    0  0.19893402126E+01  0.19126499011E+01  0.61505177547E+00  0.28273650407E+01  0.51100000000E-03 0.  1.
        -12    1    3    3    0    0  0.13817112814E+02  0.75286442629E+01 -0.31497749595E+02  0.35209392504E+02  0.00000000000E+00 0.  1.
</event>
<event>
 7    1  0.8986500E-014  0.5052885E+02  0.7816164E-02  0.1300439E+00
        -11   -1    0    0    0    0  0.00000000000E+00  0.00000000000E+00  0.45593999997E+02  0.45594000000E+02  0.51100000000E-03 0. -1.
         11   -1    0    0    0    0 -0.00000000000E+00 -0.00000000000E+00 -0.45593999997E+02  0.45594000000E+02  0.51100000000E-03 0.  1.
    9900012    2    1    2    0    0  0.29915686428E+02 -0.11386274120E+02 -0.25071316425E+02  0.50528850475E+02  0.29999971504E+02 0.  0.
         12    1    1    2    0    0 -0.29915686428E+02  0.11386274120E+02  0.25071316425E+02  0.40659149525E+02  0.00000000000E+00 0. -1.
         11    1    3    3    0    0 -0.24608917327E+01  0.28639608281E+01 -0.33796795921E+01  0.50675925400E+01  0.51100000000E-03 0. -1.
        -11    1    3    3    0    0  0.95629091872E+01  0.42291718593E+01 -0.40744081391E+01  0.11222117834E+02  0.51100000000E-03 0.  1.
        -12    1    3    3    0    0  0.22813668973E+02 -0.18479406808E+02 -0.17617228694E+02  0.34239140101E+02  0.00000000000E+00 0.  1.
</event>
<event>
 7    1  0.8986500E-014  0.5052886E+02  0.7816164E-02  0.1300439E+00
        -11   -1    0    0    0    0  0.00000000000E+00  0.00000000000E+00  0.45593999997E+02  0.45594000000E+02  0.51100000000E-03 0. -1.
         11   -1    0    0    0    0 -0.00000000000E+00 -0.00000000000E+00 -0.45593999997E+02  0.45594000000E+02  0.51100000000E-03 0.  1.
    9900012    2    1    2    0    0 -0.93304998971E+01  0.39230380056E+01  0.39379146536E+02  0.50528860346E+02  0.30000001507E+02 0.  0.
        -12    1    1    2    0    0  0.93304998971E+01 -0.39230380056E+01 -0.39379146536E+02  0.40659139654E+02  0.00000000000E+00 0.  1.
         11    1    3    3    0    0 -0.20293393211E+00 -0.27512430003E+01  0.10264214244E+02  0.10628481290E+02  0.51100000000E-03 0. -1.
        -11    1    3    3    0    0 -0.10799552129E+02  0.50199971377E+01  0.33153052446E+02  0.35227199494E+02  0.51100000000E-03 0.  1.
         12    1    3    3    0    0  0.16719861636E+01  0.16542838681E+01 -0.40381201532E+01  0.46731795621E+01  0.00000000000E+00 0. -1.
</event>
<event>
 7    1  0.8986500E-014  0.5052887E+02  0.7816164E-02  0.1300439E+00
        -11   -1    0    0    0    0  0.00000000000E+00  0.00000000000E+00  0.45593999997E+02  0.45594000000E+02  0.51100000000E-03 0.  1.
         11   -1    0    0    0    0 -0.00000000000E+00 -0.00000000000E+00 -0.45593999997E+02  0.45594000000E+02  0.51100000000E-03 0. -1.
    9900012    2    1    2    0    0  0.29869186412E+02  0.15491893353E+02 -0.22825378456E+02  0.50528868698E+02  0.30000026894E+02 0.  0.
         12    1    1    2    0    0 -0.29869186412E+02 -0.15491893353E+02  0.22825378456E+02  0.40659131302E+02  0.00000000000E+00 0. -1.
         11    1    3    3    0    0 -0.26971661348E+01  0.61620483940E+00  0.19487917104E+01  0.33841103638E+01  0.51100000000E-03 0. -1.
        -11    1    3    3    0    0  0.58419312652E+01  0.64915258315E+01  0.13583110619E+01  0.88381603137E+01  0.51100000000E-03 0.  1.
         12    1    3    3    0    0  0.26724421282E+02  0.83841626816E+01 -0.26132481229E+02  0.38306598020E+02  0.00000000000E+00 0. -1.
</event>
<event>
 7    1  0.8986500E-014  0.5052886E+02  0.7816164E-02  0.1300439E+00
        -11   -1    0    0    0    0  0.00000000000E+00  0.00000000000E+00  0.45593999997E+02  0.45594000000E+02  0.51100000000E-03 0. -1.
         11   -1    0    0    0    0 -0.00000000000E+00 -0.00000000000E+00 -0.45593999997E+02  0.45594000000E+02  0.51100000000E-03 0.  1.
    9900012    2    1    2    0    0 -0.67806173970E+01  0.29682355593E+02 -0.26947102315E+02  0.50528864139E+02  0.30000013037E+02 0.  0.
         12    1    1    2    0    0  0.67806173970E+01 -0.29682355593E+02  0.26947102315E+02  0.40659135861E+02  0.00000000000E+00 0. -1.
         11    1    3    3    0    0  0.13893221491E+01  0.44878016887E+01  0.13159864476E+00  0.46997764304E+01  0.51100000000E-03 0. -1.
        -11    1    3    3    0    0  0.77799150631E+01  0.80811416769E+01 -0.16975342490E+02  0.20346846982E+02  0.51100000000E-03 0.  1.
        -12    1    3    3    0    0 -0.15949854609E+02  0.17113412227E+02 -0.10103358470E+02  0.25482240727E+02  0.00000000000E+00 0.  1.
</event>
<event>
 7    1  0.8986500E-014  0.5052886E+02  0.7816164E-02  0.1300439E+00
        -11   -1    0    0    0    0  0.00000000000E+00  0.00000000000E+00  0.45593999997E+02  0.45594000000E+02  0.51100000000E-03 0.  1.
         11   -1    0    0    0    0 -0.00000000000E+00 -0.00000000000E+00 -0.45593999997E+02  0.45594000000E+02  0.51100000000E-03 0. -1.
    9900012    2    1    2    0    0 -0.32290840253E+02 -0.22231863937E+02  0.10780161129E+02  0.50528855735E+02  0.29999987492E+02 0.  0.
         12    1    1    2    0    0  0.32290840253E+02  0.22231863937E+02 -0.10780161129E+02  0.40659144265E+02  0.00000000000E+00 0. -1.
         11    1    3    3    0    0 -0.39073487009E+01 -0.18804911855E+01 -0.13505651551E+01  0.45417669985E+01  0.51100000000E-03 0. -1.
        -11    1    3    3    0    0 -0.16658559644E+02 -0.14953949660E+02 -0.65103885644E+01  0.23313373402E+02  0.51100000000E-03 0.  1.
        -12    1    3    3    0    0 -0.11724931909E+02 -0.53974230916E+01  0.18641114848E+02  0.22673715335E+02  0.00000000000E+00 0.  1.
</event>
<event>
 7    1  0.8986500E-014  0.5052877E+02  0.7816164E-02  0.1300439E+00
        -11   -1    0    0    0    0  0.00000000000E+00  0.00000000000E+00  0.45593999997E+02  0.45594000000E+02  0.51100000000E-03 0. -1.
         11   -1    0    0    0    0 -0.00000000000E+00 -0.00000000000E+00 -0.45593999997E+02  0.45594000000E+02  0.51100000000E-03 0.  1.
    9900012    2    1    2    0    0  0.13663542689E+02 -0.30954647602E+02 -0.22545301593E+02  0.50528766967E+02  0.29999717671E+02 0.  0.
         12    1    1    2    0    0 -0.13663542689E+02  0.30954647602E+02  0.22545301593E+02  0.40659233033E+02  0.00000000000E+00 0. -1.
         11    1    3    3    0    0 -0.37507315799E-01 -0.10761223474E+01  0.14251530511E+01  0.17861992010E+01  0.51100000000E-03 0. -1.
        -11    1    3    3    0    0  0.31643633863E+01 -0.14834903515E+01  0.54787879066E+01  0.64985426404E+01  0.51100000000E-03 0.  1.
        -12    1    3    3    0    0  0.10536686618E+02 -0.28395034903E+02 -0.29449242550E+02  0.42244025125E+02  0.00000000000E+00 0.  1.
</event>
<event>
 7    1  0.8986500E-014  0.5052885E+02  0.7816164E-02  0.1300439E+00
        -11   -1    0    0    0    0  0.00000000000E+00  0.00000000000E+00  0.45593999997E+02  0.45594000000E+02  0.51100000000E-03 0. -1.
         11   -1    0    0    0    0 -0.00000000000E+00 -0.00000000000E+00 -0.45593999997E+02  0.45594000000E+02  0.51100000000E-03 0.  1.
    9900012    2    1    2    0    0 -0.45481598342E+01 -0.16734254045E+02 -0.36775609513E+02  0.50528850091E+02  0.29999970336E+02 0.  0.
         12    1    1    2    0    0  0.45481598342E+01  0.16734254045E+02  0.36775609513E+02  0.40659149909E+02  0.00000000000E+00 0. -1.
         11    1    3    3    0    0  0.62488559538E+01  0.25853182440E+01 -0.48564632820E+01  0.83257015935E+01  0.51100000000E-03 0. -1.
        -11    1    3    3    0    0  0.10859490733E+01  0.14008150272E+01  0.58485612008E+00  0.18664471791E+01  0.51100000000E-03 0.  1.
        -12    1    3    3    0    0 -0.11882964861E+02 -0.20720387316E+02 -0.32504002351E+02  0.40336701318E+02  0.00000000000E+00 0.  1.
</event>
<event>
 7    1  0.8986500E-014  0.5052887E+02  0.7816164E-02  0.1300439E+00
        -11   -1    0    0    0    0  0.00000000000E+00  0.00000000000E+00  0.45593999997E+02  0.45594000000E+02  0.51100000000E-03 0. -1.
         11   -1    0    0    0    0 -0.00000000000E+00 -0.00000000000E+00 -0.45593999997E+02  0.45594000000E+02  0.51100000000E-03 0.  1.
    9900012    2    1    2    0    0  0.16451691252E+02 -0.27551202299E+02  0.24968740314E+02  0.50528869586E+02  0.30000029593E+02 0.  0.
        -12    1    1    2    0    0 -0.16451691252E+02  0.27551202299E+02 -0.24968740314E+02  0.40659130414E+02  0.00000000000E+00 0.  1.
         11    1    3    3    0    0  0.90095319684E+01 -0.23843934624E+02  0.15738842782E+02  0.29956903328E+02  0.51100000000E-03 0. -1.
        -11    1    3    3    0    0 -0.45806713689E+01 -0.37732414668E+01  0.10413317754E+01  0.60253027712E+01  0.51100000000E-03 0.  1.
        -12    1    3    3    0    0  0.12022830652E+02  0.65973791918E-01  0.81885657565E+01  0.14546663486E+02  0.00000000000E+00 0.  1.
</event>
<event>
 7    1  0.8986500E-014  0.5052879E+02  0.7816164E-02  0.1300439E+00
        -11   -1    0    0    0    0  0.00000000000E+00  0.00000000000E+00  0.45593999997E+02  0.45594000000E+02  0.51100000000E-03 0. -1.
         11   -1    0    0    0    0 -0.00000000000E+00 -0.00000000000E+00 -0.45593999997E+02  0.45594000000E+02  0.51100000000E-03 0.  1.
    9900012    2    1    2    0    0  0.25100744760E+01 -0.54349881489E+01 -0.40216061618E+02  0.50528792161E+02  0.29999794252E+02 0.  0.
         12    1    1    2    0    0 -0.25100744760E+01  0.54349881489E+01  0.40216061618E+02  0.40659207839E+02  0.00000000000E+00 0. -1.
         11    1    3    3    0    0 -0.37546689915E+01 -0.15835383684E+02 -0.28817267152E+02  0.33095193036E+02  0.51100000000E-03 0.  1.
        -11    1    3    3    0    0  0.32862035943E+01  0.26527835342E+01 -0.14239671167E+01  0.44569134110E+01  0.51100000000E-03 0. -1.
        -12    1    3    3    0    0  0.29785398732E+01  0.77476120012E+01 -0.99748273486E+01  0.12976685714E+02  0.00000000000E+00 0.  1.
</event>
<event>
 7    1  0.8986500E-014  0.5052886E+02  0.7816164E-02  0.1300439E+00
        -11   -1    0    0    0    0  0.00000000000E+00  0.00000000000E+00  0.45593999997E+02  0.45594000000E+02  0.51100000000E-03 0. -1.
         11   -1    0    0    0    0 -0.00000000000E+00 -0.00000000000E+00 -0.45593999997E+02  0.45594000000E+02  0.51100000000E-03 0.  1.
    9900012    2    1    2    0    0 -0.67804936531E+01  0.12031954474E+02  0.38241638917E+02  0.50528856260E+02  0.29999989088E+02 0.  0.
        -12    1    1    2    0    0  0.67804936531E+01 -0.12031954474E+02 -0.38241638917E+02  0.40659143740E+02  0.00000000000E+00 0.  1.
         11    1    3    3    0    0  0.16422065928E+01  0.44623817183E+01  0.13623183016E+01  0.49462717787E+01  0.51100000000E-03 0.  1.
        -11    1    3    3    0    0 -0.10409044495E+01  0.12874273031E+02  0.77388701046E+01  0.15057240746E+02  0.51100000000E-03 0. -1.
         12    1    3    3    0    0 -0.73817957965E+01 -0.53047002746E+01  0.29140450510E+02  0.30525343735E+02  0.00000000000E+00 0. -1.
</event>
<event>
 7    1  0.8986500E-014  0.5052886E+02  0.7816164E-02  0.1300439E+00
        -11   -1    0    0    0    0  0.00000000000E+00  0.00000000000E+00  0.45593999997E+02  0.45594000000E+02  0.51100000000E-03 0. -1.
         11   -1    0    0    0    0 -0.00000000000E+00 -0.00000000000E+00 -0.45593999997E+02  0.45594000000E+02  0.51100000000E-03 0.  1.
    9900012    2    1    2    0    0  0.22948118075E+02  0.26873377418E+02 -0.20108974958E+02  0.50528863131E+02  0.30000009974E+02 0.  0.
         12    1    1    2    0    0 -0.22948118075E+02 -0.26873377418E+02  0.20108974958E+02  0.40659136869E+02  0.00000000000E+00 0. -1.
         11    1    3    3    0    0 -0.40054126243E+01  0.20341976334E+01  0.10745312833E+01  0.46190808655E+01  0.51100000000E-03 0. -1.
        -11    1    3    3    0    0  0.15198180080E+02  0.12526015992E+02 -0.13048697963E+01  0.19737994828E+02  0.51100000000E-03 0.  1.
        -12    1    3    3    0    0  0.11755350619E+02  0.12313163792E+02 -0.19878636445E+02  0.26171787437E+02  0.00000000000E+00 0.  1.
</event>
<event>
 7    1  0.8986500E-014  0.5052885E+02  0.7816164E-02  0.1300439E+00
        -11   -1    0    0    0    0  0.00000000000E+00  0.00000000000E+00  0.45593999997E+02  0.45594000000E+02  0.51100000000E-03 0. -1.
         11   -1    0    0    0    0 -0.00000000000E+00 -0.00000000000E+00 -0.45593999997E+02  0.45594000000E+02  0.51100000000E-03 0.  1.
    9900012    2    1    2    0    0 -0.26780810612E+01 -0.82504879204E+01 -0.39723089621E+02  0.50528849516E+02  0.29999968588E+02 0.  0.
         12    1    1    2    0    0  0.26780810612E+01  0.82504879204E+01  0.39723089621E+02  0.40659150484E+02  0.00000000000E+00 0. -1.
         11    1    3    3    0    0  0.26667462504E+01 -0.25744121649E+01 -0.17583425425E+02  0.17969863201E+02  0.51100000000E-03 0.  1.
        -11    1    3    3    0    0 -0.13636557760E+02  0.27653364793E+00 -0.13418773922E+02  0.19133626740E+02  0.51100000000E-03 0. -1.
         12    1    3    3    0    0  0.82917304481E+01 -0.59526094034E+01 -0.87208902743E+01  0.13425359575E+02  0.00000000000E+00 0. -1.
</event>
<event>
 7    1  0.8986500E-014  0.5052886E+02  0.7816164E-02  0.1300439E+00
        -11   -1    0    0    0    0  0.00000000000E+00  0.00000000000E+00  0.45593999997E+02  0.45594000000E+02  0.51100000000E-03 0. -1.
         11   -1    0    0    0    0 -0.00000000000E+00 -0.00000000000E+00 -0.45593999997E+02  0.45594000000E+02  0.51100000000E-03 0.  1.
    9900012    2    1    2    0    0 -0.16745857672E+02 -0.20813436317E+02 -0.30651962809E+02  0.50528859520E+02  0.29999998998E+02 0.  0.
         12    1    1    2    0    0  0.16745857672E+02  0.20813436317E+02  0.30651962809E+02  0.40659140480E+02  0.00000000000E+00 0. -1.
         11    1    3    3    0    0  0.12790212082E+01 -0.67788378066E+01 -0.28515564535E+01  0.74645771298E+01  0.51100000000E-03 0. -1.
        -11    1    3    3    0    0 -0.68273774589E+00 -0.99365767767E+01  0.97939376358E-01  0.99604859948E+01  0.51100000000E-03 0.  1.
        -12    1    3    3    0    0 -0.17342141134E+02 -0.40980217341E+01 -0.27898345732E+02  0.33103796396E+02  0.00000000000E+00 0.  1.
</event>
<event>
 7    1  0.8986500E-014  0.5052886E+02  0.7816164E-02  0.1300439E+00
        -11   -1    0    0    0    0  0.00000000000E+00  0.00000000000E+00  0.45593999997E+02  0.45594000000E+02  0.51100000000E-03 0. -1.
         11   -1    0    0    0    0 -0.00000000000E+00 -0.00000000000E+00 -0.45593999997E+02  0.45594000000E+02  0.51100000000E-03 0.  1.
    9900012    2    1    2    0    0  0.32310015543E+02  0.11418441241E+02  0.21882589318E+02  0.50528860560E+02  0.30000002158E+02 0.  0.
        -12    1    1    2    0    0 -0.32310015543E+02 -0.11418441241E+02 -0.21882589318E+02  0.40659139440E+02  0.00000000000E+00 0.  1.
         11    1    3    3    0    0  0.30546100728E+01  0.34963738080E+01  0.15295399671E+02  0.15984508871E+02  0.51100000000E-03 0.  1.
        -11    1    3    3    0    0  0.26143012032E+02  0.95387426263E+01  0.10076565965E+02  0.29596990909E+02  0.51100000000E-03 0. -1.
        -12    1    3    3    0    0  0.31123934379E+01 -0.16166751931E+01 -0.34893763175E+01  0.49473607790E+01  0.00000000000E+00 0.  1.
</event>
<event>
 7    1  0.8986500E-014  0.5052886E+02  0.7816164E-02  0.1300439E+00
        -11   -1    0    0    0    0  0.00000000000E+00  0.00000000000E+00  0.45593999997E+02  0.45594000000E+02  0.51100000000E-03 0. -1.
         11   -1    0    0    0    0 -0.00000000000E+00 -0.00000000000E+00 -0.45593999997E+02  0.45594000000E+02  0.51100000000E-03 0.  1.
    9900012    2    1    2    0    0  0.29613717347E+02  0.40674545462E+01  0.27561732889E+02  0.50528861280E+02  0.30000004346E+02 0.  0.
        -12    1    1    2    0    0 -0.29613717347E+02 -0.40674545462E+01 -0.27561732889E+02  0.40659138720E+02  0.00000000000E+00 0.  1.
         11    1    3    3    0    0  0.18418466143E+01 -0.44798914756E+00 -0.13178513069E+00  0.19001212616E+01  0.51100000000E-03 0. -1.
        -11    1    3    3    0    0  0.24455672157E+02  0.73863626398E+01  0.56644508858E+01  0.26167236342E+02  0.51100000000E-03 0.  1.
         12    1    3    3    0    0  0.33161985763E+01 -0.28709189460E+01  0.22029067134E+02  0.22461503676E+02  0.00000000000E+00 0. -1.
</event>
<event>
 7    1  0.8986500E-014  0.5052886E+02  0.7816164E-02  0.1300439E+00
        -11   -1    0    0    0    0  0.00000000000E+00  0.00000000000E+00  0.45593999997E+02  0.45594000000E+02  0.51100000000E-03 0.  1.
         11   -1    0    0    0    0 -0.00000000000E+00 -0.00000000000E+00 -0.45593999997E+02  0.45594000000E+02  0.51100000000E-03 0. -1.
    9900012    2    1    2    0    0 -0.97292308300E+01 -0.34396209296E+02 -0.19375455640E+02  0.50528862924E+02  0.30000009345E+02 0.  0.
         12    1    1    2    0    0  0.97292308300E+01  0.34396209296E+02  0.19375455640E+02  0.40659137076E+02  0.00000000000E+00 0. -1.
         11    1    3    3    0    0 -0.54515802460E+01 -0.28563357915E+01 -0.50093580822E+01  0.79354930527E+01  0.51100000000E-03 0. -1.
        -11    1    3    3    0    0 -0.10010716321E+02 -0.97494651314E+01  0.28196426728E+01  0.14255416398E+02  0.51100000000E-03 0.  1.
        -12    1    3    3    0    0  0.57330657373E+01 -0.21790408373E+02 -0.17185740231E+02  0.28337953474E+02  0.00000000000E+00 0.  1.
</event>
<event>
 7    1  0.8986500E-014  0.5052886E+02  0.7816164E-02  0.1300439E+00
        -11   -1    0    0    0    0  0.00000000000E+00  0.00000000000E+00  0.45593999997E+02  0.45594000000E+02  0.51100000000E-03 0. -1.
         11   -1    0    0    0    0 -0.00000000000E+00 -0.00000000000E+00 -0.45593999997E+02  0.45594000000E+02  0.51100000000E-03 0.  1.
    9900012    2    1    2    0    0 -0.28736518136E+02  0.28691131119E+02  0.20487299385E+01  0.50528858668E+02  0.29999996407E+02 0.  0.
        -12    1    1    2    0    0  0.28736518136E+02 -0.28691131119E+02 -0.20487299385E+01  0.40659141332E+02  0.00000000000E+00 0.  1.
         11    1    3    3    0    0 -0.61891681968E+01 -0.28251333085E+00 -0.93025463733E+00  0.62650611091E+01  0.51100000000E-03 0.  1.
        -11    1    3    3    0    0 -0.17701274037E+02  0.78648630317E+01 -0.67618558853E+01  0.20516185521E+02  0.51100000000E-03 0. -1.
         12    1    3    3    0    0 -0.48460759022E+01  0.21108781419E+02  0.97408404611E+01  0.23747612038E+02  0.00000000000E+00 0. -1.
</event>
<event>
 7    1  0.8986500E-014  0.5052890E+02  0.7816164E-02  0.1300439E+00
        -11   -1    0    0    0    0  0.00000000000E+00  0.00000000000E+00  0.45593999997E+02  0.45594000000E+02  0.51100000000E-03 0. -1.
         11   -1    0    0    0    0 -0.00000000000E+00 -0.00000000000E+00 -0.45593999997E+02  0.45594000000E+02  0.51100000000E-03 0.  1.
    9900012    2    1    2    0    0 -0.32532985777E+02  0.98510927276E+01  0.22309706239E+02  0.50528902814E+02  0.30000130594E+02 0.  0.
        -12    1    1    2    0    0  0.32532985777E+02 -0.98510927276E+01 -0.22309706239E+02  0.40659097186E+02  0.00000000000E+00 0.  1.
         11    1    3    3    0    0 -0.28304363587E+02  0.42290300946E+01  0.16331382328E+02  0.32950504436E+02  0.51100000000E-03 0. -1.
        -11    1    3    3    0    0 -0.18140564078E+01 -0.50858217426E+01  0.31174148537E+01  0.62349546173E+01  0.51100000000E-03 0.  1.
         12    1    3    3    0    0 -0.24145657827E+01  0.10707884376E+02  0.28609090570E+01  0.11343443761E+02  0.00000000000E+00 0. -1.
</event>
<event>
 7    1  0.8986500E-014  0.5052886E+02  0.7816164E-02  0.1300439E+00
        -11   -1    0    0    0    0  0.00000000000E+00  0.00000000000E+00  0.45593999997E+02  0.45594000000E+02  0.51100000000E-03 0. -1.
         11   -1    0    0    0    0 -0.00000000000E+00 -0.00000000000E+00 -0.45593999997E+02  0.45594000000E+02  0.51100000000E-03 0.  1.
    9900012    2    1    2    0    0  0.33895022870E+01 -0.23950056852E+02 -0.32681366841E+02  0.50528859729E+02  0.29999999633E+02 0.  0.
         12    1    1    2    0    0 -0.33895022870E+01  0.23950056852E+02  0.32681366841E+02  0.40659140271E+02  0.00000000000E+00 0. -1.
         11    1    3    3    0    0 -0.80444305048E+01 -0.11803236358E+02 -0.20263856996E+02  0.24792199404E+02  0.51100000000E-03 0. -1.
        -11    1    3    3    0    0 -0.96203915028E+00 -0.36239257651E+01 -0.97666276732E+01  0.10461614294E+02  0.51100000000E-03 0.  1.
         12    1    3    3    0    0  0.12395971942E+02 -0.85228947284E+01 -0.26508821714E+01  0.15275046030E+02  0.00000000000E+00 0. -1.
</event>
<event>
 7    1  0.8986500E-014  0.5052886E+02  0.7816164E-02  0.1300439E+00
        -11   -1    0    0    0    0  0.00000000000E+00  0.00000000000E+00  0.45593999997E+02  0.45594000000E+02  0.51100000000E-03 0. -1.
         11   -1    0    0    0    0 -0.00000000000E+00 -0.00000000000E+00 -0.45593999997E+02  0.45594000000E+02  0.51100000000E-03 0.  1.
    9900012    2    1    2    0    0  0.27144899117E+02 -0.19918487169E+02  0.22794173859E+02  0.50528855381E+02  0.29999986417E+02 0.  0.
        -12    1    1    2    0    0 -0.27144899117E+02  0.19918487169E+02 -0.22794173859E+02  0.40659144619E+02  0.00000000000E+00 0.  1.
         11    1    3    3    0    0  0.73572917597E+01 -0.53622642069E+01  0.12594460797E+02  0.15540400976E+02  0.51100000000E-03 0. -1.
        -11    1    3    3    0    0  0.25445903924E+01  0.60634091184E+01  0.16070808708E+01  0.67692377405E+01  0.51100000000E-03 0.  1.
         12    1    3    3    0    0  0.17243016965E+02 -0.20619632081E+02  0.85926321911E+01  0.28219216665E+02  0.00000000000E+00 0. -1.
</event>
<event>
 7    1  0.8986500E-014  0.5052888E+02  0.7816164E-02  0.1300439E+00
        -11   -1    0    0    0    0  0.00000000000E+00  0.00000000000E+00  0.45593999997E+02  0.45594000000E+02  0.51100000000E-03 0. -1.
         11   -1    0    0    0    0 -0.00000000000E+00 -0.00000000000E+00 -0.45593999997E+02  0.45594000000E+02  0.51100000000E-03 0.  1.
    9900012    2    1    2    0    0  0.19479866505E+02  0.20854446048E+02  0.28961881646E+02  0.50528884079E+02  0.30000073646E+02 0.  0.
        -12    1    1    2    0    0 -0.19479866505E+02 -0.20854446048E+02 -0.28961881646E+02  0.40659115921E+02  0.00000000000E+00 0.  1.
         11    1    3    3    0    0  0.57551391723E+01  0.50278980827E+01  0.16295737119E+01  0.78138912692E+01  0.51100000000E-03 0. -1.
        -11    1    3    3    0    0  0.13433931718E+02  0.94425256146E+01  0.19444916475E+01  0.16535200616E+02  0.51100000000E-03 0.  1.
         12    1    3    3    0    0  0.29079561430E+00  0.63840223503E+01  0.25387816287E+02  0.26179792193E+02  0.00000000000E+00 0. -1.
</event>
<event>
 7    1  0.8986500E-014  0.5052885E+02  0.7816164E-02  0.1300439E+00
        -11   -1    0    0    0    0  0.00000000000E+00  0.00000000000E+00  0.45593999997E+02  0.45594000000E+02  0.51100000000E-03 0. -1.
         11   -1    0    0    0    0 -0.00000000000E+00 -0.00000000000E+00 -0.45593999997E+02  0.45594000000E+02  0.51100000000E-03 0.  1.
    9900012    2    1    2    0    0 -0.22309848908E+02  0.23917344538E+02 -0.24153622106E+02  0.50528853564E+02  0.29999980894E+02 0.  0.
         12    1    1    2    0    0  0.22309848908E+02 -0.23917344538E+02  0.24153622106E+02  0.40659146436E+02  0.00000000000E+00 0. -1.
         11    1    3    3    0    0 -0.37176200281E+01  0.66649491588E+00  0.15425570826E+00  0.37800409033E+01  0.51100000000E-03 0. -1.
        -11    1    3    3    0    0 -0.83418153830E+01 -0.20404344691E+01 -0.16107504389E+02  0.18253792883E+02  0.51100000000E-03 0.  1.
         12    1    3    3    0    0 -0.10250413497E+02  0.25291284091E+02 -0.82003734256E+01  0.28495019778E+02  0.00000000000E+00 0. -1.
</event>
<event>
 7    1  0.8986500E-014  0.5052886E+02  0.7816164E-02  0.1300439E+00
        -11   -1    0    0    0    0  0.00000000000E+00  0.00000000000E+00  0.45593999997E+02  0.45594000000E+02  0.51100000000E-03 0. -1.
         11   -1    0    0    0    0 -0.00000000000E+00 -0.00000000000E+00 -0.45593999997E+02  0.45594000000E+02  0.51100000000E-03 0.  1.
    9900012    2    1    2    0    0 -0.29296199675E+02  0.63245907233E+01 -0.27475399165E+02  0.50528864219E+02  0.30000013279E+02 0.  0.
         12    1    1    2    0    0  0.29296199675E+02 -0.63245907233E+01  0.27475399165E+02  0.40659135781E+02  0.00000000000E+00 0. -1.
         11    1    3    3    0    0 -0.66599605761E+01 -0.36903057465E+00  0.24920915186E-01  0.66702233660E+01  0.51100000000E-03 0. -1.
        -11    1    3    3    0    0  0.50836916736E+00  0.62781110962E+01  0.17685699659E+01  0.65422441205E+01  0.51100000000E-03 0.  1.
        -12    1    3    3    0    0 -0.23144608266E+02  0.41551020178E+00 -0.29268890046E+02  0.37316396732E+02  0.00000000000E+00 0.  1.
</event>
<event>
 7    1  0.8986500E-014  0.5052893E+02  0.7816164E-02  0.1300439E+00
        -11   -1    0    0    0    0  0.00000000000E+00  0.00000000000E+00  0.45593999997E+02  0.45594000000E+02  0.51100000000E-03 0. -1.
         11   -1    0    0    0    0 -0.00000000000E+00 -0.00000000000E+00 -0.45593999997E+02  0.45594000000E+02  0.51100000000E-03 0.  1.
    9900012    2    1    2    0    0 -0.13935039114E+01  0.75926365936E+01  0.39919542489E+02  0.50528931440E+02  0.30000217605E+02 0.  0.
        -12    1    1    2    0    0  0.13935039114E+01 -0.75926365936E+01 -0.39919542489E+02  0.40659068560E+02  0.00000000000E+00 0.  1.
         11    1    3    3    0    0 -0.92320093648E+00  0.53116951742E+00  0.75233859577E+01  0.75984062510E+01  0.51100000000E-03 0. -1.
        -11    1    3    3    0    0 -0.11615671108E+02  0.26221394158E+01  0.27510107271E+02  0.29976748201E+02  0.51100000000E-03 0.  1.
        -12    1    3    3    0    0  0.11145368133E+02  0.44393276604E+01  0.48860492608E+01  0.12953776988E+02  0.00000000000E+00 0.  1.
</event>
<event>
 7    1  0.1356371E-013  0.5052886E+02  0.7816164E-02  0.1300439E+00
        -11   -1    0    0    0    0  0.00000000000E+00  0.00000000000E+00  0.45593999997E+02  0.45594000000E+02  0.51100000000E-03 0. -1.
         11   -1    0    0    0    0 -0.00000000000E+00 -0.00000000000E+00 -0.45593999997E+02  0.45594000000E+02  0.51100000000E-03 0.  1.
    9900012    2    1    2    0    0  0.11646626716E+02  0.16161800794E+02  0.35444575020E+02  0.50528860595E+02  0.30000002265E+02 0.  0.
        -12    1    1    2    0    0 -0.11646626716E+02 -0.16161800794E+02 -0.35444575020E+02  0.40659139405E+02  0.00000000000E+00 0.  1.
         11    1    3    3    0    0  0.85107117680E+01  0.90209838822E+01  0.45916351617E+01  0.13224729817E+02  0.51100000000E-03 0. -1.
        -11    1    3    3    0    0  0.57844265002E+01 -0.58955050653E+00  0.46079260522E+00  0.58326228938E+01  0.51100000000E-03 0.  1.
         12    1    3    3    0    0 -0.26485115518E+01  0.77303674180E+01  0.30392147254E+02  0.31471507885E+02  0.00000000000E+00 0. -1.
</event>
<event>
 7    1  0.8986500E-014  0.5052885E+02  0.7816164E-02  0.1300439E+00
        -11   -1    0    0    0    0  0.00000000000E+00  0.00000000000E+00  0.45593999997E+02  0.45594000000E+02  0.51100000000E-03 0. -1.
         11   -1    0    0    0    0 -0.00000000000E+00 -0.00000000000E+00 -0.45593999997E+02  0.45594000000E+02  0.51100000000E-03 0.  1.
    9900012    2    1    2    0    0  0.67421510993E+01 -0.22725162140E+02 -0.33034480914E+02  0.50528849431E+02  0.29999968331E+02 0.  0.
         12    1    1    2    0    0 -0.67421510993E+01  0.22725162140E+02  0.33034480914E+02  0.40659150569E+02  0.00000000000E+00 0. -1.
         11    1    3    3    0    0  0.98068586604E+01 -0.13098310485E+02 -0.11996302693E+02  0.20289196458E+02  0.51100000000E-03 0.  1.
        -11    1    3    3    0    0 -0.33582779507E+01 -0.28221312692E+01  0.29611608895E+01  0.52925352875E+01  0.51100000000E-03 0. -1.
         12    1    3    3    0    0  0.29357038954E+00 -0.68047203856E+01 -0.23999339110E+02  0.24947117686E+02  0.00000000000E+00 0. -1.
</event>
<event>
 7    1  0.8986500E-014  0.5052887E+02  0.7816164E-02  0.1300439E+00
        -11   -1    0    0    0    0  0.00000000000E+00  0.00000000000E+00  0.45593999997E+02  0.45594000000E+02  0.51100000000E-03 0. -1.
         11   -1    0    0    0    0 -0.00000000000E+00 -0.00000000000E+00 -0.45593999997E+02  0.45594000000E+02  0.51100000000E-03 0.  1.
    9900012    2    1    2    0    0 -0.98119046393E+01 -0.86891920326E+01  0.38488821875E+02  0.50528868920E+02  0.30000027570E+02 0.  0.
        -12    1    1    2    0    0  0.98119046393E+01  0.86891920326E+01 -0.38488821875E+02  0.40659131080E+02  0.00000000000E+00 0.  1.
         11    1    3    3    0    0 -0.27501722002E+01  0.14147721270E+01  0.62006818901E+01  0.69291762472E+01  0.51100000000E-03 0. -1.
        -11    1    3    3    0    0  0.17009643787E+01  0.81876073725E+01  0.13906898787E+02  0.16227508387E+02  0.51100000000E-03 0.  1.
         12    1    3    3    0    0 -0.87626968178E+01 -0.18291571532E+02  0.18381241198E+02  0.27372184286E+02  0.00000000000E+00 0. -1.
</event>
<event>
 7    1  0.8986500E-014  0.5052886E+02  0.7816164E-02  0.1300439E+00
        -11   -1    0    0    0    0  0.00000000000E+00  0.00000000000E+00  0.45593999997E+02  0.45594000000E+02  0.51100000000E-03 0. -1.
         11   -1    0    0    0    0 -0.00000000000E+00 -0.00000000000E+00 -0.45593999997E+02  0.45594000000E+02  0.51100000000E-03 0.  1.
    9900012    2    1    2    0    0  0.53178303384E+01  0.28242400968E+02 -0.28762004089E+02  0.50528863128E+02  0.30000009963E+02 0.  0.
         12    1    1    2    0    0 -0.53178303384E+01 -0.28242400968E+02  0.28762004089E+02  0.40659136872E+02  0.00000000000E+00 0. -1.
         11    1    3    3    0    0 -0.74452713061E+01  0.50939028307E+01 -0.44193054796E+01  0.10045405520E+02  0.51100000000E-03 0. -1.
        -11    1    3    3    0    0 -0.40071715587E+01  0.26528981069E+01 -0.80954184245E+01  0.94144087438E+01  0.51100000000E-03 0.  1.
        -12    1    3    3    0    0  0.16770273203E+02  0.20495600030E+02 -0.16247280185E+02  0.31069048864E+02  0.00000000000E+00 0.  1.
</event>
<event>
 7    1  0.8986500E-014  0.5052883E+02  0.7816164E-02  0.1300439E+00
        -11   -1    0    0    0    0  0.00000000000E+00  0.00000000000E+00  0.45593999997E+02  0.45594000000E+02  0.51100000000E-03 0.  1.
         11   -1    0    0    0    0 -0.00000000000E+00 -0.00000000000E+00 -0.45593999997E+02  0.45594000000E+02  0.51100000000E-03 0. -1.
    9900012    2    1    2    0    0  0.20210320159E+02 -0.35084462832E+02 -0.37136423642E+01  0.50528834825E+02  0.29999923934E+02 0.  0.
        -12    1    1    2    0    0 -0.20210320159E+02  0.35084462832E+02  0.37136423642E+01  0.40659165175E+02  0.00000000000E+00 0.  1.
         11    1    3    3    0    0  0.59293724085E+01 -0.11039236875E+02 -0.24838539772E+01  0.12774652198E+02  0.51100000000E-03 0. -1.
        -11    1    3    3    0    0  0.39973931581E+01 -0.26450687082E+02  0.16671231932E+01  0.26802934525E+02  0.51100000000E-03 0.  1.
        -12    1    3    3    0    0  0.10283554593E+02  0.24054611249E+01 -0.28969115803E+01  0.10951248102E+02  0.00000000000E+00 0.  1.
</event>
<event>
 7    1  0.8986500E-014  0.5052888E+02  0.7816164E-02  0.1300439E+00
        -11   -1    0    0    0    0  0.00000000000E+00  0.00000000000E+00  0.45593999997E+02  0.45594000000E+02  0.51100000000E-03 0. -1.
         11   -1    0    0    0    0 -0.00000000000E+00 -0.00000000000E+00 -0.45593999997E+02  0.45594000000E+02  0.51100000000E-03 0.  1.
    9900012    2    1    2    0    0 -0.21452220336E+02 -0.49160118513E+01 -0.34187706499E+02  0.50528877954E+02  0.30000055030E+02 0.  0.
         12    1    1    2    0    0  0.21452220336E+02  0.49160118513E+01  0.34187706499E+02  0.40659122046E+02  0.00000000000E+00 0. -1.
         11    1    3    3    0    0 -0.35227347040E+01 -0.34856476113E+01 -0.54906116719E+01  0.73963650435E+01  0.51100000000E-03 0. -1.
        -11    1    3    3    0    0  0.35712286454E+01 -0.13686708512E+01 -0.19287199587E+02  0.19662731298E+02  0.51100000000E-03 0.  1.
         12    1    3    3    0    0 -0.21500714277E+02 -0.61693388824E-01 -0.94098952405E+01  0.23469781612E+02  0.00000000000E+00 0. -1.
</event>
<event>
 7    1  0.8986500E-014  0.5052887E+02  0.7816164E-02  0.1300439E+00
        -11   -1    0    0    0    0  0.00000000000E+00  0.00000000000E+00  0.45593999997E+02  0.45594000000E+02  0.51100000000E-03 0. -1.
         11   -1    0    0    0    0 -0.00000000000E+00 -0.00000000000E+00 -0.45593999997E+02  0.45594000000E+02  0.51100000000E-03 0.  1.
    9900012    2    1    2    0    0  0.16474017990E+02  0.27758180217E+02  0.24723579854E+02  0.50528865251E+02  0.30000016418E+02 0.  0.
        -12    1    1    2    0    0 -0.16474017990E+02 -0.27758180217E+02 -0.24723579854E+02  0.40659134749E+02  0.00000000000E+00 0.  1.
         11    1    3    3    0    0  0.57456284799E+01  0.77256578490E+01  0.12857370956E+02  0.16062690435E+02  0.51100000000E-03 0. -1.
        -11    1    3    3    0    0  0.17331222038E+02  0.91000090128E+01  0.67150268644E+01  0.20694757969E+02  0.51100000000E-03 0.  1.
         12    1    3    3    0    0 -0.66028325274E+01  0.10932513355E+02  0.51511820331E+01  0.13771416848E+02  0.00000000000E+00 0. -1.
</event>
<event>
 7    1  0.8986500E-014  0.5052887E+02  0.7816164E-02  0.1300439E+00
        -11   -1    0    0    0    0  0.00000000000E+00  0.00000000000E+00  0.45593999997E+02  0.45594000000E+02  0.51100000000E-03 0.  1.
         11   -1    0    0    0    0 -0.00000000000E+00 -0.00000000000E+00 -0.45593999997E+02  0.45594000000E+02  0.51100000000E-03 0. -1.
    9900012    2    1    2    0    0  0.18103238682E+02  0.26084036389E+02 -0.25398050776E+02  0.50528865869E+02  0.30000018294E+02 0.  0.
         12    1    1    2    0    0 -0.18103238682E+02 -0.26084036389E+02  0.25398050776E+02  0.40659134131E+02  0.00000000000E+00 0. -1.
         11    1    3    3    0    0  0.13295813114E+02  0.28408969385E+02 -0.18849105969E+02  0.36594220636E+02  0.51100000000E-03 0. -1.
        -11    1    3    3    0    0  0.55556384110E+01  0.30488064893E+01 -0.14758994013E+01  0.65068132344E+01  0.51100000000E-03 0.  1.
         12    1    3    3    0    0 -0.74821284324E+00 -0.53737394851E+01 -0.50730454049E+01  0.74278319981E+01  0.00000000000E+00 0. -1.
</event>
<event>
 7    1  0.8986500E-014  0.5052890E+02  0.7816164E-02  0.1300439E+00
        -11   -1    0    0    0    0  0.00000000000E+00  0.00000000000E+00  0.45593999997E+02  0.45594000000E+02  0.51100000000E-03 0. -1.
         11   -1    0    0    0    0 -0.00000000000E+00 -0.00000000000E+00 -0.45593999997E+02  0.45594000000E+02  0.51100000000E-03 0.  1.
    9900012    2    1    2    0    0 -0.37002066324E+02  0.14622048665E+02  0.83788566771E+01  0.50528899437E+02  0.30000120327E+02 0.  0.
        -12    1    1    2    0    0  0.37002066324E+02 -0.14622048665E+02 -0.83788566771E+01  0.40659100563E+02  0.00000000000E+00 0.  1.
         11    1    3    3    0    0 -0.41836480112E+01 -0.60095145005E+01 -0.36358506486E+01  0.81753645431E+01  0.51100000000E-03 0. -1.
        -11    1    3    3    0    0 -0.60896148324E+01  0.15853915691E+00  0.51842829644E+01  0.79990832967E+01  0.51100000000E-03 0.  1.
         12    1    3    3    0    0 -0.26728803481E+02  0.20473024008E+02  0.68304243613E+01  0.34354451597E+02  0.00000000000E+00 0. -1.
</event>
<event>
 7    1  0.8986500E-014  0.5052885E+02  0.7816164E-02  0.1300439E+00
        -11   -1    0    0    0    0  0.00000000000E+00  0.00000000000E+00  0.45593999997E+02  0.45594000000E+02  0.51100000000E-03 0. -1.
         11   -1    0    0    0    0 -0.00000000000E+00 -0.00000000000E+00 -0.45593999997E+02  0.45594000000E+02  0.51100000000E-03 0.  1.
    9900012    2    1    2    0    0 -0.36438354767E+01  0.70303466116E+01  0.39880606879E+02  0.50528854467E+02  0.29999983637E+02 0.  0.
        -12    1    1    2    0    0  0.36438354767E+01 -0.70303466116E+01 -0.39880606879E+02  0.40659145533E+02  0.00000000000E+00 0.  1.
         11    1    3    3    0    0 -0.70136899003E+01 -0.52130682796E+01  0.48070421775E+01  0.99737446159E+01  0.51100000000E-03 0. -1.
        -11    1    3    3    0    0 -0.12879308881E+01 -0.32866549497E+01  0.30673513571E+01  0.46764849343E+01  0.51100000000E-03 0.  1.
        -12    1    3    3    0    0  0.46577853117E+01  0.15530069841E+02  0.32006213344E+02  0.35878624917E+02  0.00000000000E+00 0.  1.
</event>
<event>
 7    1  0.8986500E-014  0.5052887E+02  0.7816164E-02  0.1300439E+00
        -11   -1    0    0    0    0  0.00000000000E+00  0.00000000000E+00  0.45593999997E+02  0.45594000000E+02  0.51100000000E-03 0. -1.
         11   -1    0    0    0    0 -0.00000000000E+00 -0.00000000000E+00 -0.45593999997E+02  0.45594000000E+02  0.51100000000E-03 0.  1.
    9900012    2    1    2    0    0  0.35685922941E+02  0.17025392858E+02  0.94771307099E+01  0.50528866898E+02  0.30000021422E+02 0.  0.
        -12    1    1    2    0    0 -0.35685922941E+02 -0.17025392858E+02 -0.94771307099E+01  0.40659133102E+02  0.00000000000E+00 0.  1.
         11    1    3    3    0    0  0.17377500431E+02  0.20058909806E+01  0.23480013178E+01  0.17649765730E+02  0.51100000000E-03 0. -1.
        -11    1    3    3    0    0  0.19385530649E+02  0.11340123595E+02 -0.24203083351E+01  0.22588826760E+02  0.51100000000E-03 0.  1.
         12    1    3    3    0    0 -0.10771081391E+01  0.36793782828E+01  0.95494377271E+01  0.10290274408E+02  0.00000000000E+00 0. -1.
</event>
<event>
 7    1  0.8986500E-014  0.5052885E+02  0.7816164E-02  0.1300439E+00
        -11   -1    0    0    0    0  0.00000000000E+00  0.00000000000E+00  0.45593999997E+02  0.45594000000E+02  0.51100000000E-03 0. -1.
         11   -1    0    0    0    0 -0.00000000000E+00 -0.00000000000E+00 -0.45593999997E+02  0.45594000000E+02  0.51100000000E-03 0.  1.
    9900012    2    1    2    0    0  0.35504531000E+01 -0.42371799328E+01 -0.40281592578E+02  0.50528854515E+02  0.29999983783E+02 0.  0.
         12    1    1    2    0    0 -0.35504531000E+01  0.42371799328E+01  0.40281592578E+02  0.40659145485E+02  0.00000000000E+00 0. -1.
         11    1    3    3    0    0  0.65541601521E+01 -0.60513258643E+01 -0.37189336331E+00  0.89282621462E+01  0.51100000000E-03 0. -1.
        -11    1    3    3    0    0 -0.43429347883E+01  0.14430680730E+01 -0.54659690061E+01  0.71288389991E+01  0.51100000000E-03 0.  1.
        -12    1    3    3    0    0  0.13392277361E+01  0.37107785858E+00 -0.34443730208E+02  0.34471753369E+02  0.00000000000E+00 0.  1.
</event>
<event>
 7    1  0.8986500E-014  0.5052886E+02  0.7816164E-02  0.1300439E+00
        -11   -1    0    0    0    0  0.00000000000E+00  0.00000000000E+00  0.45593999997E+02  0.45594000000E+02  0.51100000000E-03 0. -1.
         11   -1    0    0    0    0 -0.00000000000E+00 -0.00000000000E+00 -0.45593999997E+02  0.45594000000E+02  0.51100000000E-03 0.  1.
    9900012    2    1    2    0    0 -0.75970474069E+00 -0.37407590740E+02  0.15914152914E+02  0.50528864997E+02  0.30000015643E+02 0.  0.
        -12    1    1    2    0    0  0.75970474069E+00  0.37407590740E+02 -0.15914152914E+02  0.40659135003E+02  0.00000000000E+00 0.  1.
         11    1    3    3    0    0 -0.68081285121E+01 -0.25550118466E+02  0.39791100629E+01  0.26739343384E+02  0.51100000000E-03 0. -1.
        -11    1    3    3    0    0 -0.17632110167E+00 -0.92604791864E+01 -0.88412281520E+00  0.93042590950E+01  0.51100000000E-03 0.  1.
        -12    1    3    3    0    0  0.62247448731E+01 -0.25969930880E+01  0.12819165666E+02  0.14485262518E+02  0.00000000000E+00 0.  1.
</event>
<event>
 7    1  0.8986500E-014  0.5052886E+02  0.7816164E-02  0.1300439E+00
        -11   -1    0    0    0    0  0.00000000000E+00  0.00000000000E+00  0.45593999997E+02  0.45594000000E+02  0.51100000000E-03 0.  1.
         11   -1    0    0    0    0 -0.00000000000E+00 -0.00000000000E+00 -0.45593999997E+02  0.45594000000E+02  0.51100000000E-03 0. -1.
    9900012    2    1    2    0    0 -0.11136087650E+02  0.33622496279E+02 -0.19966995831E+02  0.50528860478E+02  0.30000001908E+02 0.  0.
         12    1    1    2    0    0  0.11136087650E+02 -0.33622496279E+02  0.19966995831E+02  0.40659139522E+02  0.00000000000E+00 0. -1.
         11    1    3    3    0    0 -0.38875498525E+01  0.13033489416E+02 -0.15325887208E+02  0.20490673712E+02  0.51100000000E-03 0. -1.
        -11    1    3    3    0    0 -0.10575357845E+02  0.19014828915E+02 -0.96671004708E+01  0.23808711515E+02  0.51100000000E-03 0.  1.
         12    1    3    3    0    0  0.33268200482E+01  0.15741779484E+01  0.50259918477E+01  0.62294752507E+01  0.00000000000E+00 0. -1.
</event>
<event>
 7    1  0.8986500E-014  0.5052887E+02  0.7816164E-02  0.1300439E+00
        -11   -1    0    0    0    0  0.00000000000E+00  0.00000000000E+00  0.45593999997E+02  0.45594000000E+02  0.51100000000E-03 0. -1.
         11   -1    0    0    0    0 -0.00000000000E+00 -0.00000000000E+00 -0.45593999997E+02  0.45594000000E+02  0.51100000000E-03 0.  1.
    9900012    2    1    2    0    0 -0.31670524701E+02 -0.19288164476E+02  0.16676623834E+02  0.50528865649E+02  0.30000017626E+02 0.  0.
        -12    1    1    2    0    0  0.31670524701E+02  0.19288164476E+02 -0.16676623834E+02  0.40659134351E+02  0.00000000000E+00 0.  1.
         11    1    3    3    0    0 -0.62181272192E+00 -0.45398940562E+00  0.17975419253E+01  0.19554832334E+01  0.51100000000E-03 0. -1.
        -11    1    3    3    0    0 -0.14848084840E+02 -0.77898457442E+01 -0.78854121432E+01  0.18529086461E+02  0.51100000000E-03 0.  1.
        -12    1    3    3    0    0 -0.16200627139E+02 -0.11044329327E+02  0.22764494052E+02  0.30044295955E+02  0.00000000000E+00 0.  1.
</event>
<event>
 7    1  0.8986500E-014  0.5052885E+02  0.7816164E-02  0.1300439E+00
        -11   -1    0    0    0    0  0.00000000000E+00  0.00000000000E+00  0.45593999997E+02  0.45594000000E+02  0.51100000000E-03 0. -1.
         11   -1    0    0    0    0 -0.00000000000E+00 -0.00000000000E+00 -0.45593999997E+02  0.45594000000E+02  0.51100000000E-03 0.  1.
    9900012    2    1    2    0    0 -0.60147996214E+01  0.33554442600E+02 -0.22160500333E+02  0.50528853333E+02  0.29999980190E+02 0.  0.
         12    1    1    2    0    0  0.60147996214E+01 -0.33554442600E+02  0.22160500333E+02  0.40659146667E+02  0.00000000000E+00 0. -1.
         11    1    3    3    0    0 -0.10939964203E+02  0.19107701142E+02 -0.15623552222E+02  0.26997822949E+02  0.51100000000E-03 0. -1.
        -11    1    3    3    0    0 -0.60061636009E+01  0.76423825203E+01 -0.31347856717E+01  0.10213074623E+02  0.51100000000E-03 0.  1.
        -12    1    3    3    0    0  0.10931328182E+02  0.68043589379E+01 -0.34021624396E+01  0.13317955761E+02  0.00000000000E+00 0.  1.
</event>
<event>
 7    1  0.8986500E-014  0.5052886E+02  0.7816164E-02  0.1300439E+00
        -11   -1    0    0    0    0  0.00000000000E+00  0.00000000000E+00  0.45593999997E+02  0.45594000000E+02  0.51100000000E-03 0. -1.
         11   -1    0    0    0    0 -0.00000000000E+00 -0.00000000000E+00 -0.45593999997E+02  0.45594000000E+02  0.51100000000E-03 0.  1.
    9900012    2    1    2    0    0  0.17204739641E+02 -0.11196589692E+02  0.35096999384E+02  0.50528855240E+02  0.29999985988E+02 0.  0.
        -12    1    1    2    0    0 -0.17204739641E+02  0.11196589692E+02 -0.35096999384E+02  0.40659144760E+02  0.00000000000E+00 0.  1.
         11    1    3    3    0    0 -0.13157958476E+01 -0.26252142308E+01  0.14694681570E+02  0.14985217222E+02  0.51100000000E-03 0. -1.
        -11    1    3    3    0    0  0.71870986946E+01  0.73009975551E+00  0.19567264710E+02  0.20858218567E+02  0.51100000000E-03 0.  1.
        -12    1    3    3    0    0  0.11333436794E+02 -0.93014752170E+01  0.83505310353E+00  0.14685419451E+02  0.00000000000E+00 0.  1.
</event>
<event>
 7    1  0.8986500E-014  0.5052886E+02  0.7816164E-02  0.1300439E+00
        -11   -1    0    0    0    0  0.00000000000E+00  0.00000000000E+00  0.45593999997E+02  0.45594000000E+02  0.51100000000E-03 0. -1.
         11   -1    0    0    0    0 -0.00000000000E+00 -0.00000000000E+00 -0.45593999997E+02  0.45594000000E+02  0.51100000000E-03 0.  1.
    9900012    2    1    2    0    0 -0.30778254092E+02 -0.19629011205E+02  0.17904368948E+02  0.50528862856E+02  0.30000009137E+02 0.  0.
        -12    1    1    2    0    0  0.30778254092E+02  0.19629011205E+02 -0.17904368948E+02  0.40659137144E+02  0.00000000000E+00 0.  1.
         11    1    3    3    0    0 -0.95124154011E+01 -0.49691375190E+01 -0.24413479585E+01  0.11006296133E+02  0.51100000000E-03 0. -1.
        -11    1    3    3    0    0 -0.45858324239E+00 -0.24083214555E+01 -0.43440756260E+01  0.49881162906E+01  0.51100000000E-03 0.  1.
         12    1    3    3    0    0 -0.20807255449E+02 -0.12251552230E+02  0.24689792533E+02  0.34534450433E+02  0.00000000000E+00 0. -1.
</event>
<event>
 7    1  0.8986500E-014  0.5052886E+02  0.7816164E-02  0.1300439E+00
        -11   -1    0    0    0    0  0.00000000000E+00  0.00000000000E+00  0.45593999997E+02  0.45594000000E+02  0.51100000000E-03 0. -1.
         11   -1    0    0    0    0 -0.00000000000E+00 -0.00000000000E+00 -0.45593999997E+02  0.45594000000E+02  0.51100000000E-03 0.  1.
    9900012    2    1    2    0    0  0.66934456579E+01  0.17724783289E+02  0.35974923337E+02  0.50528864907E+02  0.30000015371E+02 0.  0.
        -12    1    1    2    0    0 -0.66934456579E+01 -0.17724783289E+02 -0.35974923337E+02  0.40659135093E+02  0.00000000000E+00 0.  1.
         11    1    3    3    0    0 -0.68462105445E+00  0.36929994808E+01  0.19643573411E+02  0.19999423185E+02  0.51100000000E-03 0. -1.
        -11    1    3    3    0    0 -0.25286722160E+01 -0.65313402114E+00  0.12016962228E+02  0.12297485461E+02  0.51100000000E-03 0.  1.
        -12    1    3    3    0    0  0.99067389283E+01  0.14684917829E+02  0.43143876987E+01  0.18231956260E+02  0.00000000000E+00 0.  1.
</event>
<event>
 7    1  0.8986500E-014  0.5052886E+02  0.7816164E-02  0.1300439E+00
        -11   -1    0    0    0    0  0.00000000000E+00  0.00000000000E+00  0.45593999997E+02  0.45594000000E+02  0.51100000000E-03 0. -1.
         11   -1    0    0    0    0 -0.00000000000E+00 -0.00000000000E+00 -0.45593999997E+02  0.45594000000E+02  0.51100000000E-03 0.  1.
    9900012    2    1    2    0    0 -0.44936397300E+01  0.17217536393E+02 -0.36558574071E+02  0.50528859630E+02  0.29999999333E+02 0.  0.
         12    1    1    2    0    0  0.44936397300E+01 -0.17217536393E+02  0.36558574071E+02  0.40659140370E+02  0.00000000000E+00 0. -1.
         11    1    3    3    0    0 -0.23934696098E+01  0.10928340239E+02 -0.12959016511E+02  0.17119971564E+02  0.51100000000E-03 0.  1.
        -11    1    3    3    0    0 -0.21530091501E+01  0.10160346826E+02 -0.94830355969E+00  0.10429159886E+02  0.51100000000E-03 0. -1.
        -12    1    3    3    0    0  0.52839029913E-01 -0.38711506714E+01 -0.22651254000E+02  0.22979728181E+02  0.00000000000E+00 0.  1.
</event>
<event>
 7    1  0.8986500E-014  0.5052886E+02  0.7816164E-02  0.1300439E+00
        -11   -1    0    0    0    0  0.00000000000E+00  0.00000000000E+00  0.45593999997E+02  0.45594000000E+02  0.51100000000E-03 0. -1.
         11   -1    0    0    0    0 -0.00000000000E+00 -0.00000000000E+00 -0.45593999997E+02  0.45594000000E+02  0.51100000000E-03 0.  1.
    9900012    2    1    2    0    0  0.40610053569E+02  0.17801904622E+01 -0.90567691518E+00  0.50528858597E+02  0.29999996193E+02 0.  0.
        -12    1    1    2    0    0 -0.40610053569E+02 -0.17801904622E+01  0.90567691518E+00  0.40659141403E+02  0.00000000000E+00 0.  1.
         11    1    3    3    0    0  0.12866579816E+02 -0.98544351810E+01 -0.30820479287E+01  0.16497205478E+02  0.51100000000E-03 0. -1.
        -11    1    3    3    0    0  0.22136726701E+01 -0.32065409873E+01 -0.16943332762E+01  0.42488842424E+01  0.51100000000E-03 0.  1.
        -12    1    3    3    0    0  0.25529801082E+02  0.14841166631E+02  0.38707042897E+01  0.29782768877E+02  0.00000000000E+00 0.  1.
</event>
<event>
 7    1  0.8986500E-014  0.5052886E+02  0.7816164E-02  0.1300439E+00
        -11   -1    0    0    0    0  0.00000000000E+00  0.00000000000E+00  0.45593999997E+02  0.45594000000E+02  0.51100000000E-03 0. -1.
         11   -1    0    0    0    0 -0.00000000000E+00 -0.00000000000E+00 -0.45593999997E+02  0.45594000000E+02  0.51100000000E-03 0.  1.
    9900012    2    1    2    0    0  0.27287592233E+02 -0.67294942489E+01 -0.29381397898E+02  0.50528864185E+02  0.30000013178E+02 0.  0.
         12    1    1    2    0    0 -0.27287592233E+02  0.67294942489E+01  0.29381397898E+02  0.40659135815E+02  0.00000000000E+00 0. -1.
         11    1    3    3    0    0  0.68510071694E+01  0.42429403456E+01 -0.17149413976E+02  0.18948383625E+02  0.51100000000E-03 0. -1.
        -11    1    3    3    0    0 -0.41416095286E+00 -0.66596771059E+01 -0.69674796825E+01  0.96472069448E+01  0.51100000000E-03 0.  1.
        -12    1    3    3    0    0  0.20850746017E+02 -0.43127574886E+01 -0.52645042399E+01  0.21933273616E+02  0.00000000000E+00 0.  1.
</event>
<event>
 7    1  0.8986500E-014  0.5052887E+02  0.7816164E-02  0.1300439E+00
        -11   -1    0    0    0    0  0.00000000000E+00  0.00000000000E+00  0.45593999997E+02  0.45594000000E+02  0.51100000000E-03 0. -1.
         11   -1    0    0    0    0 -0.00000000000E+00 -0.00000000000E+00 -0.45593999997E+02  0.45594000000E+02  0.51100000000E-03 0.  1.
    9900012    2    1    2    0    0  0.22137823184E+02 -0.11752869406E+02 -0.32014864595E+02  0.50528871755E+02  0.30000036187E+02 0.  0.
         12    1    1    2    0    0 -0.22137823184E+02  0.11752869406E+02  0.32014864595E+02  0.40659128245E+02  0.00000000000E+00 0. -1.
         11    1    3    3    0    0  0.22026322138E+02 -0.11834074195E+02 -0.16546491450E+02  0.29983171256E+02  0.51100000000E-03 0. -1.
        -11    1    3    3    0    0  0.59654727020E+01 -0.19099235621E+01 -0.11790995933E+02  0.13351488978E+02  0.51100000000E-03 0.  1.
        -12    1    3    3    0    0 -0.58539716558E+01  0.19911283517E+01 -0.36773772119E+01  0.71942115217E+01  0.00000000000E+00 0.  1.
</event>
<event>
 7    1  0.8986500E-014  0.5052886E+02  0.7816164E-02  0.1300439E+00
        -11   -1    0    0    0    0  0.00000000000E+00  0.00000000000E+00  0.45593999997E+02  0.45594000000E+02  0.51100000000E-03 0.  1.
         11   -1    0    0    0    0 -0.00000000000E+00 -0.00000000000E+00 -0.45593999997E+02  0.45594000000E+02  0.51100000000E-03 0. -1.
    9900012    2    1    2    0    0  0.19959272623E+02  0.14892224635E+02 -0.32140547486E+02  0.50528859442E+02  0.29999998761E+02 0.  0.
         12    1    1    2    0    0 -0.19959272623E+02 -0.14892224635E+02  0.32140547486E+02  0.40659140558E+02  0.00000000000E+00 0. -1.
         11    1    3    3    0    0  0.80500539669E+00 -0.24944047008E+01 -0.16550803157E+02  0.16757063403E+02  0.51100000000E-03 0. -1.
        -11    1    3    3    0    0  0.61394027903E+01 -0.90145925848E-01 -0.92055183404E+01  0.11065349569E+02  0.51100000000E-03 0.  1.
        -12    1    3    3    0    0  0.13014864436E+02  0.17476775261E+02 -0.63842259886E+01  0.22706446470E+02  0.00000000000E+00 0.  1.
</event>
<event>
 7    1  0.8986500E-014  0.5052887E+02  0.7816164E-02  0.1300439E+00
        -11   -1    0    0    0    0  0.00000000000E+00  0.00000000000E+00  0.45593999997E+02  0.45594000000E+02  0.51100000000E-03 0.  1.
         11   -1    0    0    0    0 -0.00000000000E+00 -0.00000000000E+00 -0.45593999997E+02  0.45594000000E+02  0.51100000000E-03 0. -1.
    9900012    2    1    2    0    0 -0.10605245532E-01 -0.40176249375E+02  0.62477032586E+01  0.50528869140E+02  0.30000028238E+02 0.  0.
        -12    1    1    2    0    0  0.10605245532E-01  0.40176249375E+02 -0.62477032586E+01  0.40659130860E+02  0.00000000000E+00 0.  1.
         11    1    3    3    0    0 -0.46976929774E+01 -0.22542661205E+02  0.19159094475E+01  0.23106505638E+02  0.51100000000E-03 0. -1.
        -11    1    3    3    0    0  0.28246005468E+01 -0.21118162429E+02 -0.33341276100E+00  0.21308831900E+02  0.51100000000E-03 0.  1.
        -12    1    3    3    0    0  0.18624871850E+01  0.34845742594E+01  0.46652065721E+01  0.61135316016E+01  0.00000000000E+00 0.  1.
</event>
<event>
 7    1  0.8986500E-014  0.5052886E+02  0.7816164E-02  0.1300439E+00
        -11   -1    0    0    0    0  0.00000000000E+00  0.00000000000E+00  0.45593999997E+02  0.45594000000E+02  0.51100000000E-03 0. -1.
         11   -1    0    0    0    0 -0.00000000000E+00 -0.00000000000E+00 -0.45593999997E+02  0.45594000000E+02  0.51100000000E-03 0.  1.
    9900012    2    1    2    0    0  0.36683608377E+02 -0.86527594510E+01  0.15251508901E+02  0.50528857197E+02  0.29999991936E+02 0.  0.
        -12    1    1    2    0    0 -0.36683608377E+02  0.86527594510E+01 -0.15251508901E+02  0.40659142803E+02  0.00000000000E+00 0.  1.
         11    1    3    3    0    0  0.35242424997E+02 -0.47700595763E+01  0.11303389171E+02  0.37316867434E+02  0.51100000000E-03 0. -1.
        -11    1    3    3    0    0  0.33791027075E+01 -0.73478932283E+01  0.76592974009E+00  0.81238241383E+01  0.51100000000E-03 0.  1.
        -12    1    3    3    0    0 -0.19379193273E+01  0.34651933536E+01  0.31821899897E+01  0.50881656250E+01  0.00000000000E+00 0.  1.
</event>
<event>
 7    1  0.8986500E-014  0.5052886E+02  0.7816164E-02  0.1300439E+00
        -11   -1    0    0    0    0  0.00000000000E+00  0.00000000000E+00  0.45593999997E+02  0.45594000000E+02  0.51100000000E-03 0. -1.
         11   -1    0    0    0    0 -0.00000000000E+00 -0.00000000000E+00 -0.45593999997E+02  0.45594000000E+02  0.51100000000E-03 0.  1.
    9900012    2    1    2    0    0  0.17041769789E+02 -0.20709723487E+02  0.30558976538E+02  0.50528860664E+02  0.30000002476E+02 0.  0.
        -12    1    1    2    0    0 -0.17041769789E+02  0.20709723487E+02 -0.30558976538E+02  0.40659139336E+02  0.00000000000E+00 0.  1.
         11    1    3    3    0    0  0.28756109195E+01 -0.18756970203E+01  0.62672053384E+01  0.71459947165E+01  0.51100000000E-03 0. -1.
        -11    1    3    3    0    0  0.74116080095E+01  0.64144735588E+01  0.69763600895E+01  0.12031084934E+02  0.51100000000E-03 0.  1.
         12    1    3    3    0    0  0.67545508605E+01 -0.25248500025E+02  0.17315411110E+02  0.31351781014E+02  0.00000000000E+00 0. -1.
</event>
<event>
 7    1  0.8986500E-014  0.5052886E+02  0.7816164E-02  0.1300439E+00
        -11   -1    0    0    0    0  0.00000000000E+00  0.00000000000E+00  0.45593999997E+02  0.45594000000E+02  0.51100000000E-03 0.  1.
         11   -1    0    0    0    0 -0.00000000000E+00 -0.00000000000E+00 -0.45593999997E+02  0.45594000000E+02  0.51100000000E-03 0. -1.
    9900012    2    1    2    0    0  0.17784999460E+02 -0.32518548279E+02 -0.16715360009E+02  0.50528862673E+02  0.30000008580E+02 0.  0.
         12    1    1    2    0    0 -0.17784999460E+02  0.32518548279E+02  0.16715360009E+02  0.40659137327E+02  0.00000000000E+00 0. -1.
         11    1    3    3    0    0  0.37217101578E+01 -0.10319334848E+00 -0.14279698471E+01  0.39875899377E+01  0.51100000000E-03 0. -1.
        -11    1    3    3    0    0  0.71500311191E+01 -0.35540235931E+02 -0.13916600022E+02  0.38831727640E+02  0.51100000000E-03 0.  1.
         12    1    3    3    0    0  0.69132581826E+01  0.31248810008E+01 -0.13707901405E+01  0.77095450954E+01  0.00000000000E+00 0. -1.
</event>
<event>
 7    1  0.8986500E-014  0.5052886E+02  0.7816164E-02  0.1300439E+00
        -11   -1    0    0    0    0  0.00000000000E+00  0.00000000000E+00  0.45593999997E+02  0.45594000000E+02  0.51100000000E-03 0. -1.
         11   -1    0    0    0    0 -0.00000000000E+00 -0.00000000000E+00 -0.45593999997E+02  0.45594000000E+02  0.51100000000E-03 0.  1.
    9900012    2    1    2    0    0 -0.19244622552E+02  0.19132514983E+02  0.30277996894E+02  0.50528859298E+02  0.29999998321E+02 0.  0.
        -12    1    1    2    0    0  0.19244622552E+02 -0.19132514983E+02 -0.30277996894E+02  0.40659140702E+02  0.00000000000E+00 0.  1.
         11    1    3    3    0    0  0.33370804063E+00 -0.26159988512E+01  0.90011206662E+00  0.27865772983E+01  0.51100000000E-03 0.  1.
        -11    1    3    3    0    0 -0.16399666177E+02  0.13792213787E+02  0.51421568120E+01  0.22036696413E+02  0.51100000000E-03 0. -1.
         12    1    3    3    0    0 -0.31786644156E+01  0.79563000471E+01  0.24235728015E+02  0.25705585586E+02  0.00000000000E+00 0. -1.
</event>
<event>
 7    1  0.1174180E-013  0.5052887E+02  0.7816164E-02  0.1300439E+00
        -11   -1    0    0    0    0  0.00000000000E+00  0.00000000000E+00  0.45593999997E+02  0.45594000000E+02  0.51100000000E-03 0. -1.
         11   -1    0    0    0    0 -0.00000000000E+00 -0.00000000000E+00 -0.45593999997E+02  0.45594000000E+02  0.51100000000E-03 0.  1.
    9900012    2    1    2    0    0  0.26374325187E+01 -0.10095037615E+02  0.39297572699E+02  0.50528867511E+02  0.30000023286E+02 0.  0.
        -12    1    1    2    0    0 -0.26374325187E+01  0.10095037615E+02 -0.39297572699E+02  0.40659132489E+02  0.00000000000E+00 0.  1.
         11    1    3    3    0    0 -0.59024748100E+01 -0.51571351266E+01  0.34849014156E+01  0.85778662693E+01  0.51100000000E-03 0. -1.
        -11    1    3    3    0    0  0.47276509163E+01  0.53313148138E+01  0.37153926070E+01  0.80360278319E+01  0.51100000000E-03 0.  1.
         12    1    3    3    0    0  0.38122564125E+01 -0.10269217302E+02  0.32097278676E+02  0.33914973410E+02  0.00000000000E+00 0. -1.
</event>
<event>
 7    1  0.1964977E-013  0.5052885E+02  0.7816164E-02  0.1300439E+00
        -11   -1    0    0    0    0  0.00000000000E+00  0.00000000000E+00  0.45593999997E+02  0.45594000000E+02  0.51100000000E-03 0. -1.
         11   -1    0    0    0    0 -0.00000000000E+00 -0.00000000000E+00 -0.45593999997E+02  0.45594000000E+02  0.51100000000E-03 0.  1.
    9900012    2    1    2    0    0 -0.35049531048E+00 -0.28279471565E+02  0.29211553699E+02  0.50528853078E+02  0.29999979415E+02 0.  0.
        -12    1    1    2    0    0  0.35049531048E+00  0.28279471565E+02 -0.29211553699E+02  0.40659146922E+02  0.00000000000E+00 0.  1.
         11    1    3    3    0    0 -0.35454480092E+01 -0.10253685489E+02 -0.42483619321E+00  0.10857658760E+02  0.51100000000E-03 0. -1.
        -11    1    3    3    0    0  0.96891571242E+01 -0.64788145326E+01  0.74585306721E+01  0.13837791860E+02  0.51100000000E-03 0.  1.
         12    1    3    3    0    0 -0.64942044254E+01 -0.11546971543E+02  0.22177859220E+02  0.25833402458E+02  0.00000000000E+00 0. -1.
</event>
<event>
 7    1  0.8986500E-014  0.5052886E+02  0.7816164E-02  0.1300439E+00
        -11   -1    0    0    0    0  0.00000000000E+00  0.00000000000E+00  0.45593999997E+02  0.45594000000E+02  0.51100000000E-03 0. -1.
         11   -1    0    0    0    0 -0.00000000000E+00 -0.00000000000E+00 -0.45593999997E+02  0.45594000000E+02  0.51100000000E-03 0.  1.
    9900012    2    1    2    0    0  0.27178064500E+02 -0.20476247329E+01  0.30171603652E+02  0.50528860512E+02  0.30000002011E+02 0.  0.
        -12    1    1    2    0    0 -0.27178064500E+02  0.20476247329E+01 -0.30171603652E+02  0.40659139488E+02  0.00000000000E+00 0.  1.
         11    1    3    3    0    0 -0.25486529924E+01 -0.56706267182E+01  0.24804564002E+01  0.66936016961E+01  0.51100000000E-03 0. -1.
        -11    1    3    3    0    0  0.88880025979E-01  0.16010026916E+01 -0.14934002436E+01  0.21911991754E+01  0.51100000000E-03 0.  1.
        -12    1    3    3    0    0  0.29637837466E+02  0.20219992936E+01  0.29184547495E+02  0.41644059640E+02  0.00000000000E+00 0.  1.
</event>
<event>
 7    1  0.8986500E-014  0.5052887E+02  0.7816164E-02  0.1300439E+00
        -11   -1    0    0    0    0  0.00000000000E+00  0.00000000000E+00  0.45593999997E+02  0.45594000000E+02  0.51100000000E-03 0. -1.
         11   -1    0    0    0    0 -0.00000000000E+00 -0.00000000000E+00 -0.45593999997E+02  0.45594000000E+02  0.51100000000E-03 0.  1.
    9900012    2    1    2    0    0  0.28724914160E+02  0.98035140835E+01 -0.27054295856E+02  0.50528874258E+02  0.30000043793E+02 0.  0.
         12    1    1    2    0    0 -0.28724914160E+02 -0.98035140835E+01  0.27054295856E+02  0.40659125742E+02  0.00000000000E+00 0. -1.
         11    1    3    3    0    0  0.24215728162E+02  0.14907280372E+02 -0.20047895209E+02  0.34792910213E+02  0.51100000000E-03 0. -1.
        -11    1    3    3    0    0  0.67763766396E+01  0.12834180064E+01 -0.16351252766E+01  0.70880234955E+01  0.51100000000E-03 0.  1.
         12    1    3    3    0    0 -0.22671906422E+01 -0.63871842954E+01 -0.53712753700E+01  0.86479405486E+01  0.00000000000E+00 0. -1.
</event>
<event>
 7    1  0.8986500E-014  0.5052886E+02  0.7816164E-02  0.1300439E+00
        -11   -1    0    0    0    0  0.00000000000E+00  0.00000000000E+00  0.45593999997E+02  0.45594000000E+02  0.51100000000E-03 0. -1.
         11   -1    0    0    0    0 -0.00000000000E+00 -0.00000000000E+00 -0.45593999997E+02  0.45594000000E+02  0.51100000000E-03 0.  1.
    9900012    2    1    2    0    0 -0.22988932564E+02  0.21680828162E+02 -0.25585470506E+02  0.50528860422E+02  0.30000001738E+02 0.  0.
         12    1    1    2    0    0  0.22988932564E+02 -0.21680828162E+02  0.25585470506E+02  0.40659139578E+02  0.00000000000E+00 0. -1.
         11    1    3    3    0    0 -0.12768619573E+02 -0.49400206675E+01 -0.50215017474E+01  0.14582761400E+02  0.51100000000E-03 0. -1.
        -11    1    3    3    0    0 -0.15047602209E+01  0.10198953269E+02 -0.10861796519E+02  0.14975365605E+02  0.51100000000E-03 0.  1.
        -12    1    3    3    0    0 -0.87155527698E+01  0.16421895560E+02 -0.97021722398E+01  0.20970733417E+02  0.00000000000E+00 0.  1.
</event>
<event>
 7    1  0.1331448E-013  0.5052885E+02  0.7816164E-02  0.1300439E+00
        -11   -1    0    0    0    0  0.00000000000E+00  0.00000000000E+00  0.45593999997E+02  0.45594000000E+02  0.51100000000E-03 0. -1.
         11   -1    0    0    0    0 -0.00000000000E+00 -0.00000000000E+00 -0.45593999997E+02  0.45594000000E+02  0.51100000000E-03 0.  1.
    9900012    2    1    2    0    0 -0.40698773947E+01  0.29674365179E+02  0.27496079235E+02  0.50528853131E+02  0.29999979578E+02 0.  0.
        -12    1    1    2    0    0  0.40698773947E+01 -0.29674365179E+02 -0.27496079235E+02  0.40659146869E+02  0.00000000000E+00 0.  1.
         11    1    3    3    0    0 -0.49207966560E+01 -0.14592365503E+01 -0.13122394522E+01  0.52976960729E+01  0.51100000000E-03 0. -1.
        -11    1    3    3    0    0  0.75052193943E+01  0.10182419596E+02  0.80322425087E+01  0.14984221934E+02  0.51100000000E-03 0.  1.
         12    1    3    3    0    0 -0.66543001330E+01  0.20951182134E+02  0.20776076178E+02  0.30246935125E+02  0.00000000000E+00 0. -1.
</event>
<event>
 7    1  0.8986500E-014  0.5052885E+02  0.7816164E-02  0.1300439E+00
        -11   -1    0    0    0    0  0.00000000000E+00  0.00000000000E+00  0.45593999997E+02  0.45594000000E+02  0.51100000000E-03 0. -1.
         11   -1    0    0    0    0 -0.00000000000E+00 -0.00000000000E+00 -0.45593999997E+02  0.45594000000E+02  0.51100000000E-03 0.  1.
    9900012    2    1    2    0    0  0.23199330681E+02 -0.39980205153E+01 -0.33150765273E+02  0.50528851579E+02  0.29999974861E+02 0.  0.
         12    1    1    2    0    0 -0.23199330681E+02  0.39980205153E+01  0.33150765273E+02  0.40659148421E+02  0.00000000000E+00 0. -1.
         11    1    3    3    0    0  0.26234101936E+01 -0.43425357653E+01 -0.52610460066E+01  0.73087962936E+01  0.51100000000E-03 0. -1.
        -11    1    3    3    0    0 -0.36699228797E+01 -0.48100846624E+01 -0.12910569385E+02  0.14257911857E+02  0.51100000000E-03 0.  1.
        -12    1    3    3    0    0  0.24245843367E+02  0.51545999125E+01 -0.14979149881E+02  0.28962143429E+02  0.00000000000E+00 0.  1.
</event>
<event>
 7    1  0.8986500E-014  0.5052889E+02  0.7816164E-02  0.1300439E+00
        -11   -1    0    0    0    0  0.00000000000E+00  0.00000000000E+00  0.45593999997E+02  0.45594000000E+02  0.51100000000E-03 0. -1.
         11   -1    0    0    0    0 -0.00000000000E+00 -0.00000000000E+00 -0.45593999997E+02  0.45594000000E+02  0.51100000000E-03 0.  1.
    9900012    2    1    2    0    0 -0.82584420605E+01  0.72008126322E+01  0.39154946136E+02  0.50528888171E+02  0.30000086083E+02 0.  0.
        -12    1    1    2    0    0  0.82584420605E+01 -0.72008126322E+01 -0.39154946136E+02  0.40659111829E+02  0.00000000000E+00 0.  1.
         11    1    3    3    0    0 -0.67127296157E+01  0.11643920146E+02  0.27264019206E+02  0.30396847843E+02  0.51100000000E-03 0. -1.
        -11    1    3    3    0    0 -0.10519865884E+01  0.37488675132E+01 -0.17054580774E+01  0.42507965052E+01  0.51100000000E-03 0.  1.
        -12    1    3    3    0    0 -0.49372585644E+00 -0.81919750272E+01  0.13596385007E+02  0.15881243822E+02  0.00000000000E+00 0.  1.
</event>
<event>
 7    1  0.8986500E-014  0.5052886E+02  0.7816164E-02  0.1300439E+00
        -11   -1    0    0    0    0  0.00000000000E+00  0.00000000000E+00  0.45593999997E+02  0.45594000000E+02  0.51100000000E-03 0.  1.
         11   -1    0    0    0    0 -0.00000000000E+00 -0.00000000000E+00 -0.45593999997E+02  0.45594000000E+02  0.51100000000E-03 0. -1.
    9900012    2    1    2    0    0  0.40070098535E+02 -0.17649373902E+01  0.66661880853E+01  0.50528857558E+02  0.29999993032E+02 0.  0.
         12    1    1    2    0    0 -0.40070098535E+02  0.17649373902E+01 -0.66661880853E+01  0.40659142442E+02  0.00000000000E+00 0. -1.
         11    1    3    3    0    0  0.38828805038E+01 -0.26198283637E+01  0.65204852082E+00  0.47292102086E+01  0.51100000000E-03 0. -1.
        -11    1    3    3    0    0  0.37434767111E+02  0.43687471491E+01 -0.11683707352E+01  0.37706933457E+02  0.51100000000E-03 0.  1.
        -12    1    3    3    0    0 -0.12475490801E+01 -0.35138561756E+01  0.71825102997E+01  0.80927138918E+01  0.00000000000E+00 0.  1.
</event>
<event>
 7    1  0.8986500E-014  0.5052885E+02  0.7816164E-02  0.1300439E+00
        -11   -1    0    0    0    0  0.00000000000E+00  0.00000000000E+00  0.45593999997E+02  0.45594000000E+02  0.51100000000E-03 0. -1.
         11   -1    0    0    0    0 -0.00000000000E+00 -0.00000000000E+00 -0.45593999997E+02  0.45594000000E+02  0.51100000000E-03 0.  1.
    9900012    2    1    2    0    0 -0.26821928851E+02  0.17994505474E+02  0.24697126649E+02  0.50528853929E+02  0.29999982002E+02 0.  0.
        -12    1    1    2    0    0  0.26821928851E+02 -0.17994505474E+02 -0.24697126649E+02  0.40659146071E+02  0.00000000000E+00 0.  1.
         11    1    3    3    0    0  0.29916646086E+01 -0.14717081663E+01  0.37426582696E+01  0.50123321160E+01  0.51100000000E-03 0. -1.
        -11    1    3    3    0    0 -0.20647854166E+02  0.59938877529E+01  0.19721549688E+02  0.29175333664E+02  0.51100000000E-03 0.  1.
        -12    1    3    3    0    0 -0.91657392936E+01  0.13472325887E+02  0.12329186908E+01  0.16341188149E+02  0.00000000000E+00 0.  1.
</event>
<event>
 7    1  0.8986500E-014  0.5052886E+02  0.7816164E-02  0.1300439E+00
        -11   -1    0    0    0    0  0.00000000000E+00  0.00000000000E+00  0.45593999997E+02  0.45594000000E+02  0.51100000000E-03 0. -1.
         11   -1    0    0    0    0 -0.00000000000E+00 -0.00000000000E+00 -0.45593999997E+02  0.45594000000E+02  0.51100000000E-03 0.  1.
    9900012    2    1    2    0    0  0.13372160941E+02 -0.32913755453E+02  0.19774622073E+02  0.50528860015E+02  0.30000000500E+02 0.  0.
        -12    1    1    2    0    0 -0.13372160941E+02  0.32913755453E+02 -0.19774622073E+02  0.40659139985E+02  0.00000000000E+00 0.  1.
         11    1    3    3    0    0  0.71146292849E+01 -0.59239565600E+01  0.89924717448E+00  0.93016050727E+01  0.51100000000E-03 0. -1.
        -11    1    3    3    0    0  0.57970394642E+01 -0.10162534880E+02 -0.44023931659E+01  0.12500553891E+02  0.51100000000E-03 0.  1.
         12    1    3    3    0    0  0.46049219157E+00 -0.16827264013E+02  0.23277768064E+02  0.28726701051E+02  0.00000000000E+00 0. -1.
</event>
<event>
 7    1  0.1490992E-013  0.5052885E+02  0.7816164E-02  0.1300439E+00
        -11   -1    0    0    0    0  0.00000000000E+00  0.00000000000E+00  0.45593999997E+02  0.45594000000E+02  0.51100000000E-03 0. -1.
         11   -1    0    0    0    0 -0.00000000000E+00 -0.00000000000E+00 -0.45593999997E+02  0.45594000000E+02  0.51100000000E-03 0.  1.
    9900012    2    1    2    0    0  0.12525804760E+02  0.12403491720E+02  0.36639103445E+02  0.50528852284E+02  0.29999977003E+02 0.  0.
        -12    1    1    2    0    0 -0.12525804760E+02 -0.12403491720E+02 -0.36639103445E+02  0.40659147716E+02  0.00000000000E+00 0.  1.
         11    1    3    3    0    0 -0.10978627681E+01  0.12124829937E+02  0.11355563214E+02  0.16648291799E+02  0.51100000000E-03 0. -1.
        -11    1    3    3    0    0  0.23465820879E+00  0.33898529990E+01 -0.15472469332E+01  0.37336498447E+01  0.51100000000E-03 0.  1.
         12    1    3    3    0    0  0.13389009320E+02 -0.31111912159E+01  0.26830787164E+02  0.30146910641E+02  0.00000000000E+00 0. -1.
</event>
<event>
 7    1  0.8986500E-014  0.5052886E+02  0.7816164E-02  0.1300439E+00
        -11   -1    0    0    0    0  0.00000000000E+00  0.00000000000E+00  0.45593999997E+02  0.45594000000E+02  0.51100000000E-03 0.  1.
         11   -1    0    0    0    0 -0.00000000000E+00 -0.00000000000E+00 -0.45593999997E+02  0.45594000000E+02  0.51100000000E-03 0. -1.
    9900012    2    1    2    0    0  0.31199399450E+02 -0.11703546798E+02  0.23297857195E+02  0.50528859779E+02  0.29999999783E+02 0.  0.
         12    1    1    2    0    0 -0.31199399450E+02  0.11703546798E+02 -0.23297857195E+02  0.40659140221E+02  0.00000000000E+00 0. -1.
         11    1    3    3    0    0  0.10391631589E+02  0.67220372564E+01  0.17930005537E+01  0.12505464534E+02  0.51100000000E-03 0. -1.
        -11    1    3    3    0    0  0.90926501834E+01 -0.58968555949E-01  0.94982323089E+01  0.13148999274E+02  0.51100000000E-03 0.  1.
         12    1    3    3    0    0  0.11715117677E+02 -0.18366615499E+02  0.12006624332E+02  0.24874395971E+02  0.00000000000E+00 0. -1.
</event>
<event>
 7    1  0.8986500E-014  0.5052883E+02  0.7816164E-02  0.1300439E+00
        -11   -1    0    0    0    0  0.00000000000E+00  0.00000000000E+00  0.45593999997E+02  0.45594000000E+02  0.51100000000E-03 0. -1.
         11   -1    0    0    0    0 -0.00000000000E+00 -0.00000000000E+00 -0.45593999997E+02  0.45594000000E+02  0.51100000000E-03 0.  1.
    9900012    2    1    2    0    0 -0.17789854874E+02 -0.27466040322E+02 -0.24131009331E+02  0.50528832292E+02  0.29999916233E+02 0.  0.
         12    1    1    2    0    0  0.17789854874E+02  0.27466040322E+02  0.24131009331E+02  0.40659167708E+02  0.00000000000E+00 0. -1.
         11    1    3    3    0    0  0.21370597953E+01  0.29995714473E+00  0.28117704995E+01  0.35444396539E+01  0.51100000000E-03 0. -1.
        -11    1    3    3    0    0 -0.27951989869E+01  0.91901603394E+00  0.13176254246E+01  0.32239517471E+01  0.51100000000E-03 0.  1.
        -12    1    3    3    0    0 -0.17131715682E+02 -0.28685013500E+02 -0.28260405255E+02  0.43760440891E+02  0.00000000000E+00 0.  1.
</event>
<event>
 7    1  0.8986500E-014  0.5052885E+02  0.7816164E-02  0.1300439E+00
        -11   -1    0    0    0    0  0.00000000000E+00  0.00000000000E+00  0.45593999997E+02  0.45594000000E+02  0.51100000000E-03 0. -1.
         11   -1    0    0    0    0 -0.00000000000E+00 -0.00000000000E+00 -0.45593999997E+02  0.45594000000E+02  0.51100000000E-03 0.  1.
    9900012    2    1    2    0    0  0.12565866324E+02  0.12055106486E+02  0.36741529843E+02  0.50528848459E+02  0.29999965375E+02 0.  0.
        -12    1    1    2    0    0 -0.12565866324E+02 -0.12055106486E+02 -0.36741529843E+02  0.40659151541E+02  0.00000000000E+00 0.  1.
         11    1    3    3    0    0 -0.29443474117E+01  0.17070488777E+01  0.92215730303E+01  0.98295781683E+01  0.51100000000E-03 0. -1.
        -11    1    3    3    0    0  0.58026235776E+01 -0.19562034166E+01  0.23821752707E+02  0.24596200408E+02  0.51100000000E-03 0.  1.
        -12    1    3    3    0    0  0.97075901585E+01  0.12304261025E+02  0.36982041055E+01  0.16103069883E+02  0.00000000000E+00 0.  1.
</event>
<event>
 7    1  0.8986500E-014  0.5052892E+02  0.7816164E-02  0.1300439E+00
        -11   -1    0    0    0    0  0.00000000000E+00  0.00000000000E+00  0.45593999997E+02  0.45594000000E+02  0.51100000000E-03 0. -1.
         11   -1    0    0    0    0 -0.00000000000E+00 -0.00000000000E+00 -0.45593999997E+02  0.45594000000E+02  0.51100000000E-03 0.  1.
    9900012    2    1    2    0    0 -0.34460916708E+02  0.56059660055E+00 -0.21570622783E+02  0.50528919635E+02  0.30000181722E+02 0.  0.
         12    1    1    2    0    0  0.34460916708E+02 -0.56059660055E+00  0.21570622783E+02  0.40659080365E+02  0.00000000000E+00 0. -1.
         11    1    3    3    0    0  0.22288271571E+01  0.17954815465E+01 -0.29126973404E+01  0.40835316256E+01  0.51100000000E-03 0. -1.
        -11    1    3    3    0    0 -0.32985378906E+02  0.15243939560E+01 -0.22891769147E+02  0.40179498422E+02  0.51100000000E-03 0.  1.
         12    1    3    3    0    0 -0.37043649581E+01 -0.27592789019E+01  0.42338437045E+01  0.62658895870E+01  0.00000000000E+00 0. -1.
</event>
<event>
 7    1  0.8986500E-014  0.5052877E+02  0.7816164E-02  0.1300439E+00
        -11   -1    0    0    0    0  0.00000000000E+00  0.00000000000E+00  0.45593999997E+02  0.45594000000E+02  0.51100000000E-03 0. -1.
         11   -1    0    0    0    0 -0.00000000000E+00 -0.00000000000E+00 -0.45593999997E+02  0.45594000000E+02  0.51100000000E-03 0.  1.
    9900012    2    1    2    0    0 -0.60298386554E+01 -0.98153681943E+01 -0.38993239269E+02  0.50528768383E+02  0.29999721977E+02 0.  0.
         12    1    1    2    0    0  0.60298386554E+01  0.98153681943E+01  0.38993239269E+02  0.40659231617E+02  0.00000000000E+00 0. -1.
         11    1    3    3    0    0  0.28941340102E+01 -0.42020840885E+01 -0.49088705440E+01  0.70802918467E+01  0.51100000000E-03 0. -1.
        -11    1    3    3    0    0  0.42031805830E+01 -0.49047424094E+01 -0.28401031914E+02  0.29126308368E+02  0.51100000000E-03 0.  1.
         12    1    3    3    0    0 -0.13127153249E+02 -0.70854169641E+00 -0.56833368110E+01  0.14322168169E+02  0.00000000000E+00 0. -1.
</event>
<event>
 7    1  0.8986500E-014  0.5052887E+02  0.7816164E-02  0.1300439E+00
        -11   -1    0    0    0    0  0.00000000000E+00  0.00000000000E+00  0.45593999997E+02  0.45594000000E+02  0.51100000000E-03 0. -1.
         11   -1    0    0    0    0 -0.00000000000E+00 -0.00000000000E+00 -0.45593999997E+02  0.45594000000E+02  0.51100000000E-03 0.  1.
    9900012    2    1    2    0    0  0.25336751493E+02  0.12712215457E+02  0.29148135941E+02  0.50528865394E+02  0.30000016853E+02 0.  0.
        -12    1    1    2    0    0 -0.25336751493E+02 -0.12712215457E+02 -0.29148135941E+02  0.40659134606E+02  0.00000000000E+00 0.  1.
         11    1    3    3    0    0  0.30912395072E+02  0.84465777074E+01  0.25768654571E+02  0.41121094376E+02  0.51100000000E-03 0. -1.
        -11    1    3    3    0    0 -0.14102038800E+01  0.28851966053E+01  0.38280286266E+01  0.49966826857E+01  0.51100000000E-03 0.  1.
        -12    1    3    3    0    0 -0.41654396988E+01  0.13804411442E+01 -0.44854725643E+00  0.44110883327E+01  0.00000000000E+00 0.  1.
</event>
<event>
 7    1  0.8986500E-014  0.5052886E+02  0.7816164E-02  0.1300439E+00
        -11   -1    0    0    0    0  0.00000000000E+00  0.00000000000E+00  0.45593999997E+02  0.45594000000E+02  0.51100000000E-03 0. -1.
         11   -1    0    0    0    0 -0.00000000000E+00 -0.00000000000E+00 -0.45593999997E+02  0.45594000000E+02  0.51100000000E-03 0.  1.
    9900012    2    1    2    0    0 -0.40100067593E+01  0.94855188876E+01 -0.39333323729E+02  0.50528861072E+02  0.30000003715E+02 0.  0.
         12    1    1    2    0    0  0.40100067593E+01 -0.94855188876E+01  0.39333323729E+02  0.40659138928E+02  0.00000000000E+00 0. -1.
         11    1    3    3    0    0 -0.92379111369E+01 -0.19103141814E+01 -0.49726664119E+01  0.10663757028E+02  0.51100000000E-03 0. -1.
        -11    1    3    3    0    0  0.19281775722E+01 -0.19690653582E+01  0.98762876727E-01  0.27576877092E+01  0.51100000000E-03 0.  1.
        -12    1    3    3    0    0  0.32997268054E+01  0.13364898427E+02 -0.34459420194E+02  0.37107416335E+02  0.00000000000E+00 0.  1.
</event>
<event>
 7    1  0.8986500E-014  0.5052887E+02  0.7816164E-02  0.1300439E+00
        -11   -1    0    0    0    0  0.00000000000E+00  0.00000000000E+00  0.45593999997E+02  0.45594000000E+02  0.51100000000E-03 0. -1.
         11   -1    0    0    0    0 -0.00000000000E+00 -0.00000000000E+00 -0.45593999997E+02  0.45594000000E+02  0.51100000000E-03 0.  1.
    9900012    2    1    2    0    0 -0.17829347855E+01  0.34066026708E+01 -0.40476921673E+02  0.50528868353E+02  0.30000025845E+02 0.  0.
         12    1    1    2    0    0  0.17829347855E+01 -0.34066026708E+01  0.40476921673E+02  0.40659131647E+02  0.00000000000E+00 0. -1.
         11    1    3    3    0    0  0.44091368292E+01  0.56434806222E+01 -0.18133074333E+00  0.71639543697E+01  0.51100000000E-03 0. -1.
        -11    1    3    3    0    0 -0.57873486874E+01  0.42484761458E+01 -0.95917585046E+01  0.11981017731E+02  0.51100000000E-03 0.  1.
         12    1    3    3    0    0 -0.40472292721E+00 -0.64853540972E+01 -0.30703832425E+02  0.31383896252E+02  0.00000000000E+00 0. -1.
</event>
<event>
 7    1  0.8986500E-014  0.5052887E+02  0.7816164E-02  0.1300439E+00
        -11   -1    0    0    0    0  0.00000000000E+00  0.00000000000E+00  0.45593999997E+02  0.45594000000E+02  0.51100000000E-03 0. -1.
         11   -1    0    0    0    0 -0.00000000000E+00 -0.00000000000E+00 -0.45593999997E+02  0.45594000000E+02  0.51100000000E-03 0.  1.
    9900012    2    1    2    0    0  0.16132093995E+02 -0.11087512463E+02  0.35636888790E+02  0.50528865332E+02  0.30000016663E+02 0.  0.
        -12    1    1    2    0    0 -0.16132093995E+02  0.11087512463E+02 -0.35636888790E+02  0.40659134668E+02  0.00000000000E+00 0.  1.
         11    1    3    3    0    0 -0.12055782807E+01  0.13891499620E+01 -0.10891536904E+01  0.21376184483E+01  0.51100000000E-03 0.  1.
        -11    1    3    3    0    0  0.14219493781E+02  0.27022392684E+01  0.25265759229E+02  0.29117944470E+02  0.51100000000E-03 0. -1.
        -12    1    3    3    0    0  0.31181784950E+01 -0.15178901693E+02  0.11460283252E+02  0.19273302414E+02  0.00000000000E+00 0.  1.
</event>
<event>
 7    1  0.8986500E-014  0.5052884E+02  0.7816164E-02  0.1300439E+00
        -11   -1    0    0    0    0  0.00000000000E+00  0.00000000000E+00  0.45593999997E+02  0.45594000000E+02  0.51100000000E-03 0.  1.
         11   -1    0    0    0    0 -0.00000000000E+00 -0.00000000000E+00 -0.45593999997E+02  0.45594000000E+02  0.51100000000E-03 0. -1.
    9900012    2    1    2    0    0 -0.30945403803E+02 -0.13274059956E+02 -0.22789213067E+02  0.50528844617E+02  0.29999953699E+02 0.  0.
         12    1    1    2    0    0  0.30945403803E+02  0.13274059956E+02  0.22789213067E+02  0.40659155383E+02  0.00000000000E+00 0. -1.
         11    1    3    3    0    0  0.31693576539E+01 -0.57731971157E+01 -0.91747209576E+01  0.11293809711E+02  0.51100000000E-03 0. -1.
        -11    1    3    3    0    0 -0.19051285056E+02  0.10441989522E+01 -0.10007127112E+02  0.21544939244E+02  0.51100000000E-03 0.  1.
        -12    1    3    3    0    0 -0.15063476401E+02 -0.85450617924E+01 -0.36073649968E+01  0.17690095662E+02  0.00000000000E+00 0.  1.
</event>
<event>
 7    1  0.8986500E-014  0.5052886E+02  0.7816164E-02  0.1300439E+00
        -11   -1    0    0    0    0  0.00000000000E+00  0.00000000000E+00  0.45593999997E+02  0.45594000000E+02  0.51100000000E-03 0. -1.
         11   -1    0    0    0    0 -0.00000000000E+00 -0.00000000000E+00 -0.45593999997E+02  0.45594000000E+02  0.51100000000E-03 0.  1.
    9900012    2    1    2    0    0 -0.16618124309E+02  0.40587355321E+01 -0.36885371115E+02  0.50528855986E+02  0.29999988254E+02 0.  0.
         12    1    1    2    0    0  0.16618124309E+02 -0.40587355321E+01  0.36885371115E+02  0.40659144014E+02  0.00000000000E+00 0. -1.
         11    1    3    3    0    0 -0.44347010708E+01 -0.11911109447E+01 -0.14346858963E+01  0.48107840060E+01  0.51100000000E-03 0. -1.
        -11    1    3    3    0    0  0.38640113917E+01 -0.60906891829E+01 -0.30649464994E+01  0.78371535690E+01  0.51100000000E-03 0.  1.
        -12    1    3    3    0    0 -0.16047434630E+02  0.11340535660E+02 -0.32385738719E+02  0.37880918411E+02  0.00000000000E+00 0.  1.
</event>
<event>
 7    1  0.8986500E-014  0.5052885E+02  0.7816164E-02  0.1300439E+00
        -11   -1    0    0    0    0  0.00000000000E+00  0.00000000000E+00  0.45593999997E+02  0.45594000000E+02  0.51100000000E-03 0.  1.
         11   -1    0    0    0    0 -0.00000000000E+00 -0.00000000000E+00 -0.45593999997E+02  0.45594000000E+02  0.51100000000E-03 0. -1.
    9900012    2    1    2    0    0  0.19394356284E+02 -0.20548643559E+02 -0.29236600306E+02  0.50528848444E+02  0.29999965331E+02 0.  0.
         12    1    1    2    0    0 -0.19394356284E+02  0.20548643559E+02  0.29236600306E+02  0.40659151556E+02  0.00000000000E+00 0. -1.
         11    1    3    3    0    0  0.16905340634E+02 -0.90115345551E+01 -0.13077658510E+02  0.23195332491E+02  0.51100000000E-03 0. -1.
        -11    1    3    3    0    0  0.86699790392E+01  0.21291295303E+00 -0.76484934247E+01  0.11563447600E+02  0.51100000000E-03 0.  1.
         12    1    3    3    0    0 -0.61809633892E+01 -0.11750021957E+02 -0.85104483711E+01  0.15770068354E+02  0.00000000000E+00 0. -1.
</event>
<event>
 7    1  0.8986500E-014  0.5052886E+02  0.7816164E-02  0.1300439E+00
        -11   -1    0    0    0    0  0.00000000000E+00  0.00000000000E+00  0.45593999997E+02  0.45594000000E+02  0.51100000000E-03 0. -1.
         11   -1    0    0    0    0 -0.00000000000E+00 -0.00000000000E+00 -0.45593999997E+02  0.45594000000E+02  0.51100000000E-03 0.  1.
    9900012    2    1    2    0    0 -0.66939466917E+01  0.48691715510E+01  0.39807635792E+02  0.50528860544E+02  0.30000002111E+02 0.  0.
        -12    1    1    2    0    0  0.66939466917E+01 -0.48691715510E+01 -0.39807635792E+02  0.40659139456E+02  0.00000000000E+00 0.  1.
         11    1    3    3    0    0 -0.35722986944E+01  0.39505003200E+01 -0.17519564631E+01  0.56068817047E+01  0.51100000000E-03 0. -1.
        -11    1    3    3    0    0 -0.45457231879E+01  0.16636297226E+01  0.18534037411E+01  0.51832778088E+01  0.51100000000E-03 0.  1.
         12    1    3    3    0    0  0.14240751905E+01 -0.74495849163E+00  0.39706188514E+02  0.39738701031E+02  0.00000000000E+00 0. -1.
</event>
<event>
 7    1  0.8986500E-014  0.5052887E+02  0.7816164E-02  0.1300439E+00
        -11   -1    0    0    0    0  0.00000000000E+00  0.00000000000E+00  0.45593999997E+02  0.45594000000E+02  0.51100000000E-03 0. -1.
         11   -1    0    0    0    0 -0.00000000000E+00 -0.00000000000E+00 -0.45593999997E+02  0.45594000000E+02  0.51100000000E-03 0.  1.
    9900012    2    1    2    0    0 -0.21678932064E+02 -0.31728774634E+02 -0.13284340199E+02  0.50528869049E+02  0.30000027960E+02 0.  0.
         12    1    1    2    0    0  0.21678932064E+02  0.31728774634E+02  0.13284340199E+02  0.40659130951E+02  0.00000000000E+00 0. -1.
         11    1    3    3    0    0 -0.32235900081E+01 -0.15913318609E+02 -0.19410460386E+02  0.25305952153E+02  0.51100000000E-03 0.  1.
        -11    1    3    3    0    0 -0.38485921955E+01 -0.32503833358E+01  0.24742154231E+01  0.56123431771E+01  0.51100000000E-03 0. -1.
        -12    1    3    3    0    0 -0.14606749860E+02 -0.12565072689E+02  0.36519047645E+01  0.19610573718E+02  0.00000000000E+00 0.  1.
</event>
<event>
 7    1  0.8986500E-014  0.5052886E+02  0.7816164E-02  0.1300439E+00
        -11   -1    0    0    0    0  0.00000000000E+00  0.00000000000E+00  0.45593999997E+02  0.45594000000E+02  0.51100000000E-03 0. -1.
         11   -1    0    0    0    0 -0.00000000000E+00 -0.00000000000E+00 -0.45593999997E+02  0.45594000000E+02  0.51100000000E-03 0.  1.
    9900012    2    1    2    0    0 -0.24113655836E+02  0.74870676674E+01  0.31869129303E+02  0.50528856102E+02  0.29999988606E+02 0.  0.
        -12    1    1    2    0    0  0.24113655836E+02 -0.74870676674E+01 -0.31869129303E+02  0.40659143898E+02  0.00000000000E+00 0.  1.
         11    1    3    3    0    0  0.64364451890E+00  0.49695193718E+01 -0.15455059092E+01  0.52439479240E+01  0.51100000000E-03 0. -1.
        -11    1    3    3    0    0 -0.21740440721E+01  0.66252540005E+01  0.42316150868E+01  0.81564100377E+01  0.51100000000E-03 0.  1.
         12    1    3    3    0    0 -0.22583256283E+02 -0.41077057049E+01  0.29183020125E+02  0.37128498140E+02  0.00000000000E+00 0. -1.
</event>
<event>
 7    1  0.8986500E-014  0.5052886E+02  0.7816164E-02  0.1300439E+00
        -11   -1    0    0    0    0  0.00000000000E+00  0.00000000000E+00  0.45593999997E+02  0.45594000000E+02  0.51100000000E-03 0. -1.
         11   -1    0    0    0    0 -0.00000000000E+00 -0.00000000000E+00 -0.45593999997E+02  0.45594000000E+02  0.51100000000E-03 0.  1.
    9900012    2    1    2    0    0 -0.95321283980E+01 -0.19809305800E+01  0.39476325134E+02  0.50528858299E+02  0.29999995286E+02 0.  0.
        -12    1    1    2    0    0  0.95321283980E+01  0.19809305800E+01 -0.39476325134E+02  0.40659141701E+02  0.00000000000E+00 0.  1.
         11    1    3    3    0    0 -0.11966356630E+02 -0.43468887740E+01  0.26945713367E+02  0.29802023457E+02  0.51100000000E-03 0. -1.
        -11    1    3    3    0    0 -0.45772680952E+01  0.63042569667E+01  0.32357157680E+01  0.84359288706E+01  0.51100000000E-03 0.  1.
        -12    1    3    3    0    0  0.70114963270E+01 -0.39382987728E+01  0.92948959990E+01  0.12290905971E+02  0.00000000000E+00 0.  1.
</event>
<event>
 7    1  0.8986500E-014  0.5052886E+02  0.7816164E-02  0.1300439E+00
        -11   -1    0    0    0    0  0.00000000000E+00  0.00000000000E+00  0.45593999997E+02  0.45594000000E+02  0.51100000000E-03 0. -1.
         11   -1    0    0    0    0 -0.00000000000E+00 -0.00000000000E+00 -0.45593999997E+02  0.45594000000E+02  0.51100000000E-03 0.  1.
    9900012    2    1    2    0    0 -0.14388169061E+02  0.28226696813E+02  0.25483326509E+02  0.50528858938E+02  0.29999997229E+02 0.  0.
        -12    1    1    2    0    0  0.14388169061E+02 -0.28226696813E+02 -0.25483326509E+02  0.40659141062E+02  0.00000000000E+00 0.  1.
         11    1    3    3    0    0 -0.12501649487E+02  0.72813633703E+01  0.13020203414E+02  0.19463689003E+02  0.51100000000E-03 0. -1.
        -11    1    3    3    0    0 -0.66839275637E+01  0.35575954738E-01  0.10527785041E+01  0.67664241786E+01  0.51100000000E-03 0.  1.
         12    1    3    3    0    0  0.47974079897E+01  0.20909757488E+02  0.11410344591E+02  0.24298745756E+02  0.00000000000E+00 0. -1.
</event>
<event>
 7    1  0.8986500E-014  0.5052886E+02  0.7816164E-02  0.1300439E+00
        -11   -1    0    0    0    0  0.00000000000E+00  0.00000000000E+00  0.45593999997E+02  0.45594000000E+02  0.51100000000E-03 0. -1.
         11   -1    0    0    0    0 -0.00000000000E+00 -0.00000000000E+00 -0.45593999997E+02  0.45594000000E+02  0.51100000000E-03 0.  1.
    9900012    2    1    2    0    0 -0.15455082769E+02  0.21902409335E+02  0.30571072829E+02  0.50528860658E+02  0.30000002456E+02 0.  0.
        -12    1    1    2    0    0  0.15455082769E+02 -0.21902409335E+02 -0.30571072829E+02  0.40659139342E+02  0.00000000000E+00 0.  1.
         11    1    3    3    0    0 -0.60690565089E+01  0.76610442973E+01  0.14967534484E+02  0.17876021241E+02  0.51100000000E-03 0. -1.
        -11    1    3    3    0    0 -0.13545599130E+02  0.19040409835E+01  0.20023155300E+01  0.13824539616E+02  0.51100000000E-03 0.  1.
         12    1    3    3    0    0  0.41595728698E+01  0.12337324055E+02  0.13601222816E+02  0.18828299800E+02  0.00000000000E+00 0. -1.
</event>
<event>
 7    1  0.8986500E-014  0.5052884E+02  0.7816164E-02  0.1300439E+00
        -11   -1    0    0    0    0  0.00000000000E+00  0.00000000000E+00  0.45593999997E+02  0.45594000000E+02  0.51100000000E-03 0. -1.
         11   -1    0    0    0    0 -0.00000000000E+00 -0.00000000000E+00 -0.45593999997E+02  0.45594000000E+02  0.51100000000E-03 0.  1.
    9900012    2    1    2    0    0  0.24260058129E+02  0.85369962445E+01 -0.31491851361E+02  0.50528838333E+02  0.29999934598E+02 0.  0.
         12    1    1    2    0    0 -0.24260058129E+02 -0.85369962445E+01  0.31491851361E+02  0.40659161667E+02  0.00000000000E+00 0. -1.
         11    1    3    3    0    0 -0.41055432372E+01 -0.23414314255E+01 -0.80744053958E+00  0.47947624424E+01  0.51100000000E-03 0. -1.
        -11    1    3    3    0    0  0.12826133241E+02 -0.27919644295E+01 -0.13544771348E+02  0.18861749399E+02  0.51100000000E-03 0.  1.
         12    1    3    3    0    0  0.15539468125E+02  0.13670392099E+02 -0.17139639474E+02  0.26872326491E+02  0.00000000000E+00 0. -1.
</event>
<event>
 7    1  0.8986500E-014  0.5052886E+02  0.7816164E-02  0.1300439E+00
        -11   -1    0    0    0    0  0.00000000000E+00  0.00000000000E+00  0.45593999997E+02  0.45594000000E+02  0.51100000000E-03 0. -1.
         11   -1    0    0    0    0 -0.00000000000E+00 -0.00000000000E+00 -0.45593999997E+02  0.45594000000E+02  0.51100000000E-03 0.  1.
    9900012    2    1    2    0    0  0.69534498711E+00 -0.21356590749E+02 -0.34591586437E+02  0.50528864185E+02  0.30000013175E+02 0.  0.
         12    1    1    2    0    0 -0.69534498711E+00  0.21356590749E+02  0.34591586437E+02  0.40659135815E+02  0.00000000000E+00 0. -1.
         11    1    3    3    0    0 -0.10851363279E+01 -0.35554135740E+01  0.54466443631E+00  0.37570129281E+01  0.51100000000E-03 0. -1.
        -11    1    3    3    0    0  0.77057138654E+01 -0.17964925466E+02 -0.12110160426E+02  0.22995055099E+02  0.51100000000E-03 0.  1.
         12    1    3    3    0    0 -0.59252325504E+01  0.16374829141E+00 -0.23026090447E+02  0.23776796158E+02  0.00000000000E+00 0. -1.
</event>
<event>
 7    1  0.8986500E-014  0.5052886E+02  0.7816164E-02  0.1300439E+00
        -11   -1    0    0    0    0  0.00000000000E+00  0.00000000000E+00  0.45593999997E+02  0.45594000000E+02  0.51100000000E-03 0. -1.
         11   -1    0    0    0    0 -0.00000000000E+00 -0.00000000000E+00 -0.45593999997E+02  0.45594000000E+02  0.51100000000E-03 0.  1.
    9900012    2    1    2    0    0  0.10825413344E+02  0.12023720673E+02 -0.37301562872E+02  0.50528855573E+02  0.29999986998E+02 0.  0.
         12    1    1    2    0    0 -0.10825413344E+02 -0.12023720673E+02  0.37301562872E+02  0.40659144427E+02  0.00000000000E+00 0. -1.
         11    1    3    3    0    0  0.57118164746E+01  0.10718866570E+02 -0.19995999800E+02  0.23395703799E+02  0.51100000000E-03 0. -1.
        -11    1    3    3    0    0  0.99734344867E+01  0.18708336497E+01 -0.19335198504E+02  0.21836192787E+02  0.51100000000E-03 0.  1.
         12    1    3    3    0    0 -0.48598376176E+01 -0.56597954654E+00  0.20296354319E+01  0.52969589863E+01  0.00000000000E+00 0. -1.
</event>
<event>
 7    1  0.8986500E-014  0.5052885E+02  0.7816164E-02  0.1300439E+00
        -11   -1    0    0    0    0  0.00000000000E+00  0.00000000000E+00  0.45593999997E+02  0.45594000000E+02  0.51100000000E-03 0. -1.
         11   -1    0    0    0    0 -0.00000000000E+00 -0.00000000000E+00 -0.45593999997E+02  0.45594000000E+02  0.51100000000E-03 0.  1.
    9900012    2    1    2    0    0  0.68163099645E+01  0.13165106888E+02 -0.37860059592E+02  0.50528853019E+02  0.29999979236E+02 0.  0.
         12    1    1    2    0    0 -0.68163099645E+01 -0.13165106888E+02  0.37860059592E+02  0.40659146981E+02  0.00000000000E+00 0. -1.
         11    1    3    3    0    0  0.84999961792E+01 -0.10331606412E+01 -0.17855155992E+02  0.19802119880E+02  0.51100000000E-03 0. -1.
        -11    1    3    3    0    0  0.84778656944E+00  0.47861264553E+01 -0.20401017749E+02  0.20972059364E+02  0.51100000000E-03 0.  1.
        -12    1    3    3    0    0 -0.25314727841E+01  0.94121410734E+01  0.39611414895E+00  0.97546737753E+01  0.00000000000E+00 0.  1.
</event>
<event>
 7    1  0.8986500E-014  0.5052872E+02  0.7816164E-02  0.1300439E+00
        -11   -1    0    0    0    0  0.00000000000E+00  0.00000000000E+00  0.45593999997E+02  0.45594000000E+02  0.51100000000E-03 0. -1.
         11   -1    0    0    0    0 -0.00000000000E+00 -0.00000000000E+00 -0.45593999997E+02  0.45594000000E+02  0.51100000000E-03 0.  1.
    9900012    2    1    2    0    0 -0.29214158928E+02 -0.98741997340E+01 -0.26499254859E+02  0.50528715570E+02  0.29999561444E+02 0.  0.
         12    1    1    2    0    0  0.29214158928E+02  0.98741997340E+01  0.26499254859E+02  0.40659284430E+02  0.00000000000E+00 0. -1.
         11    1    3    3    0    0 -0.21202139240E+02  0.44550851758E+01 -0.13886081180E+02  0.25733280845E+02  0.51100000000E-03 0. -1.
        -11    1    3    3    0    0  0.12580269606E+01 -0.65608167170E+01 -0.10607101158E+02  0.12535451450E+02  0.51100000000E-03 0.  1.
        -12    1    3    3    0    0 -0.92700466490E+01 -0.77684681928E+01 -0.20060725212E+01  0.12259983275E+02  0.00000000000E+00 0.  1.
</event>
<event>
 7    1  0.8986500E-014  0.5052888E+02  0.7816164E-02  0.1300439E+00
        -11   -1    0    0    0    0  0.00000000000E+00  0.00000000000E+00  0.45593999997E+02  0.45594000000E+02  0.51100000000E-03 0.  1.
         11   -1    0    0    0    0 -0.00000000000E+00 -0.00000000000E+00 -0.45593999997E+02  0.45594000000E+02  0.51100000000E-03 0. -1.
    9900012    2    1    2    0    0  0.32616267544E+02  0.21473686013E+02 -0.11323604168E+02  0.50528879119E+02  0.30000058569E+02 0.  0.
        -12    1    1    2    0    0 -0.32616267544E+02 -0.21473686013E+02  0.11323604168E+02  0.40659120881E+02  0.00000000000E+00 0.  1.
         11    1    3    3    0    0  0.85288421588E+01  0.14495129359E+00 -0.70278619792E+01  0.11052284999E+02  0.51100000000E-03 0. -1.
        -11    1    3    3    0    0 -0.12198302923E+00 -0.38674891349E+01 -0.22470787159E+01  0.44745631166E+01  0.51100000000E-03 0.  1.
         12    1    3    3    0    0  0.24209408414E+02  0.25196223855E+02 -0.20486634729E+01  0.35002031003E+02  0.00000000000E+00 0. -1.
</event>
<event>
 7    1  0.8986500E-014  0.5052886E+02  0.7816164E-02  0.1300439E+00
        -11   -1    0    0    0    0  0.00000000000E+00  0.00000000000E+00  0.45593999997E+02  0.45594000000E+02  0.51100000000E-03 0. -1.
         11   -1    0    0    0    0 -0.00000000000E+00 -0.00000000000E+00 -0.45593999997E+02  0.45594000000E+02  0.51100000000E-03 0.  1.
    9900012    2    1    2    0    0 -0.23022733104E+02  0.76315092810E+01  0.32632491500E+02  0.50528859884E+02  0.30000000104E+02 0.  0.
        -12    1    1    2    0    0  0.23022733104E+02 -0.76315092810E+01 -0.32632491500E+02  0.40659140116E+02  0.00000000000E+00 0.  1.
         11    1    3    3    0    0 -0.10192380637E+01  0.54369238382E+01  0.29847833098E+01  0.62855324930E+01  0.51100000000E-03 0. -1.
        -11    1    3    3    0    0 -0.15881390514E+02  0.12864512799E+02  0.16808126198E+02  0.26461809477E+02  0.51100000000E-03 0.  1.
        -12    1    3    3    0    0 -0.61221045261E+01 -0.10669927356E+02  0.12839581992E+02  0.17781517915E+02  0.00000000000E+00 0.  1.
</event>
<event>
 7    1  0.8986500E-014  0.5052886E+02  0.7816164E-02  0.1300439E+00
        -11   -1    0    0    0    0  0.00000000000E+00  0.00000000000E+00  0.45593999997E+02  0.45594000000E+02  0.51100000000E-03 0. -1.
         11   -1    0    0    0    0 -0.00000000000E+00 -0.00000000000E+00 -0.45593999997E+02  0.45594000000E+02  0.51100000000E-03 0.  1.
    9900012    2    1    2    0    0 -0.95983466085E+01 -0.11388761674E+02  0.37832967990E+02  0.50528860596E+02  0.30000002269E+02 0.  0.
        -12    1    1    2    0    0  0.95983466085E+01  0.11388761674E+02 -0.37832967990E+02  0.40659139404E+02  0.00000000000E+00 0.  1.
         11    1    3    3    0    0 -0.38528526405E+01  0.36911663692E+01  0.19418392029E+02  0.20138101497E+02  0.51100000000E-03 0. -1.
        -11    1    3    3    0    0 -0.57433959272E+01  0.24959398007E+01  0.71976298325E+01  0.95405548964E+01  0.51100000000E-03 0.  1.
        -12    1    3    3    0    0 -0.20980408404E-02 -0.17575867844E+02  0.11216946129E+02  0.20850204204E+02  0.00000000000E+00 0.  1.
</event>
<event>
 7    1  0.8986500E-014  0.5052886E+02  0.7816164E-02  0.1300439E+00
        -11   -1    0    0    0    0  0.00000000000E+00  0.00000000000E+00  0.45593999997E+02  0.45594000000E+02  0.51100000000E-03 0. -1.
         11   -1    0    0    0    0 -0.00000000000E+00 -0.00000000000E+00 -0.45593999997E+02  0.45594000000E+02  0.51100000000E-03 0.  1.
    9900012    2    1    2    0    0 -0.22902379637E+02  0.14957445739E+02 -0.30081910410E+02  0.50528861913E+02  0.30000006270E+02 0.  0.
         12    1    1    2    0    0  0.22902379637E+02 -0.14957445739E+02  0.30081910410E+02  0.40659138087E+02  0.00000000000E+00 0. -1.
         11    1    3    3    0    0 -0.51663574609E+01  0.40703938405E+01  0.44687921842E+01  0.79516953712E+01  0.51100000000E-03 0. -1.
        -11    1    3    3    0    0 -0.61633662384E+01  0.66500937188E+01 -0.45516279794E+01  0.10145351023E+02  0.51100000000E-03 0.  1.
        -12    1    3    3    0    0 -0.11572655937E+02  0.42369581802E+01 -0.29999074615E+02  0.32431815518E+02  0.00000000000E+00 0.  1.
</event>
<event>
 7    1  0.8986500E-014  0.5052882E+02  0.7816164E-02  0.1300439E+00
        -11   -1    0    0    0    0  0.00000000000E+00  0.00000000000E+00  0.45593999997E+02  0.45594000000E+02  0.51100000000E-03 0. -1.
         11   -1    0    0    0    0 -0.00000000000E+00 -0.00000000000E+00 -0.45593999997E+02  0.45594000000E+02  0.51100000000E-03 0.  1.
    9900012    2    1    2    0    0  0.73461635045E+01 -0.10742670509E+02  0.38520091921E+02  0.50528824289E+02  0.29999891909E+02 0.  0.
        -12    1    1    2    0    0 -0.73461635045E+01  0.10742670509E+02 -0.38520091921E+02  0.40659175711E+02  0.00000000000E+00 0.  1.
         11    1    3    3    0    0 -0.67525043851E+01  0.38617975756E+01  0.65310316166E+01  0.10156976431E+02  0.51100000000E-03 0. -1.
        -11    1    3    3    0    0  0.14645276862E+01  0.21795167571E+01  0.83203273558E+01  0.87248485493E+01  0.51100000000E-03 0.  1.
         12    1    3    3    0    0  0.12634140203E+02 -0.16783984842E+02  0.23668732949E+02  0.31646999309E+02  0.00000000000E+00 0. -1.
</event>
<event>
 7    1  0.8986500E-014  0.5052886E+02  0.7816164E-02  0.1300439E+00
        -11   -1    0    0    0    0  0.00000000000E+00  0.00000000000E+00  0.45593999997E+02  0.45594000000E+02  0.51100000000E-03 0.  1.
         11   -1    0    0    0    0 -0.00000000000E+00 -0.00000000000E+00 -0.45593999997E+02  0.45594000000E+02  0.51100000000E-03 0. -1.
    9900012    2    1    2    0    0 -0.15632926571E+02 -0.35316063538E+02  0.12710344213E+02  0.50528860966E+02  0.30000003393E+02 0.  0.
        -12    1    1    2    0    0  0.15632926571E+02  0.35316063538E+02 -0.12710344213E+02  0.40659139034E+02  0.00000000000E+00 0.  1.
         11    1    3    3    0    0 -0.98998017300E+01 -0.35858702252E+01  0.73177835295E+01  0.12822421597E+02  0.51100000000E-03 0. -1.
        -11    1    3    3    0    0 -0.96062094550E+01 -0.24251865314E+02  0.10200822031E+02  0.28008730812E+02  0.51100000000E-03 0.  1.
         12    1    3    3    0    0  0.38730846142E+01 -0.74783279983E+01 -0.48082613476E+01  0.96977085575E+01  0.00000000000E+00 0. -1.
</event>
<event>
 7    1  0.8986500E-014  0.5052886E+02  0.7816164E-02  0.1300439E+00
        -11   -1    0    0    0    0  0.00000000000E+00  0.00000000000E+00  0.45593999997E+02  0.45594000000E+02  0.51100000000E-03 0.  1.
         11   -1    0    0    0    0 -0.00000000000E+00 -0.00000000000E+00 -0.45593999997E+02  0.45594000000E+02  0.51100000000E-03 0. -1.
    9900012    2    1    2    0    0 -0.10793780576E+02 -0.39104748178E+02  0.27347831247E+01  0.50528855052E+02  0.29999985416E+02 0.  0.
        -12    1    1    2    0    0  0.10793780576E+02  0.39104748178E+02 -0.27347831247E+01  0.40659144948E+02  0.00000000000E+00 0.  1.
         11    1    3    3    0    0  0.46933112774E+01 -0.18108168307E+02 -0.33003713975E+01  0.18995404228E+02  0.51100000000E-03 0. -1.
        -11    1    3    3    0    0 -0.21564281139E+01 -0.16833051923E+02  0.28353262947E+01  0.17205838971E+02  0.51100000000E-03 0.  1.
        -12    1    3    3    0    0 -0.13330663739E+02 -0.41635279484E+01  0.31998282276E+01  0.14327611853E+02  0.00000000000E+00 0.  1.
</event>
<event>
 7    1  0.8986500E-014  0.5052886E+02  0.7816164E-02  0.1300439E+00
        -11   -1    0    0    0    0  0.00000000000E+00  0.00000000000E+00  0.45593999997E+02  0.45594000000E+02  0.51100000000E-03 0.  1.
         11   -1    0    0    0    0 -0.00000000000E+00 -0.00000000000E+00 -0.45593999997E+02  0.45594000000E+02  0.51100000000E-03 0. -1.
    9900012    2    1    2    0    0  0.38251086175E+02 -0.67885982928E+01 -0.11997295276E+02  0.50528858909E+02  0.29999997139E+02 0.  0.
         12    1    1    2    0    0 -0.38251086175E+02  0.67885982928E+01  0.11997295276E+02  0.40659141091E+02  0.00000000000E+00 0. -1.
         11    1    3    3    0    0 -0.80374101286E+00 -0.82836420999E+01 -0.44302332518E+01  0.94282391241E+01  0.51100000000E-03 0. -1.
        -11    1    3    3    0    0  0.15037722563E+02  0.45308172126E+01  0.10491424242E+00  0.15705808217E+02  0.51100000000E-03 0.  1.
        -12    1    3    3    0    0  0.24017104625E+02 -0.30357734055E+01 -0.76719762661E+01  0.25394811568E+02  0.00000000000E+00 0.  1.
</event>
<event>
 7    1  0.8986500E-014  0.5052886E+02  0.7816164E-02  0.1300439E+00
        -11   -1    0    0    0    0  0.00000000000E+00  0.00000000000E+00  0.45593999997E+02  0.45594000000E+02  0.51100000000E-03 0. -1.
         11   -1    0    0    0    0 -0.00000000000E+00 -0.00000000000E+00 -0.45593999997E+02  0.45594000000E+02  0.51100000000E-03 0.  1.
    9900012    2    1    2    0    0  0.46902644166E+01  0.36780215036E+02  0.16684809557E+02  0.50528859965E+02  0.30000000350E+02 0.  0.
        -12    1    1    2    0    0 -0.46902644166E+01 -0.36780215036E+02 -0.16684809557E+02  0.40659140035E+02  0.00000000000E+00 0.  1.
         11    1    3    3    0    0 -0.49152202353E+01  0.94531073267E+01 -0.57201126763E+01  0.12092986289E+02  0.51100000000E-03 0. -1.
        -11    1    3    3    0    0  0.29753330521E+01  0.31384696710E+01 -0.64440193145E+00  0.43723966833E+01  0.51100000000E-03 0.  1.
         12    1    3    3    0    0  0.66301515998E+01  0.24188638038E+02  0.23049324165E+02  0.34063476993E+02  0.00000000000E+00 0. -1.
</event>
<event>
 7    1  0.8986500E-014  0.5052884E+02  0.7816164E-02  0.1300439E+00
        -11   -1    0    0    0    0  0.00000000000E+00  0.00000000000E+00  0.45593999997E+02  0.45594000000E+02  0.51100000000E-03 0. -1.
         11   -1    0    0    0    0 -0.00000000000E+00 -0.00000000000E+00 -0.45593999997E+02  0.45594000000E+02  0.51100000000E-03 0.  1.
    9900012    2    1    2    0    0  0.29639315304E+00  0.17699216215E+02  0.36603509821E+02  0.50528843162E+02  0.29999949275E+02 0.  0.
        -12    1    1    2    0    0 -0.29639315304E+00 -0.17699216215E+02 -0.36603509821E+02  0.40659156838E+02  0.00000000000E+00 0.  1.
         11    1    3    3    0    0  0.89388317934E+01  0.11471526347E+02  0.31523303042E+02  0.34716239219E+02  0.51100000000E-03 0. -1.
        -11    1    3    3    0    0  0.22575855440E+01  0.26910045936E+01  0.13096307126E+01  0.37487772774E+01  0.51100000000E-03 0.  1.
        -12    1    3    3    0    0 -0.10900024184E+02  0.35366852737E+01  0.37705760671E+01  0.12063826666E+02  0.00000000000E+00 0.  1.
</event>
<event>
 7    1  0.8986500E-014  0.5052885E+02  0.7816164E-02  0.1300439E+00
        -11   -1    0    0    0    0  0.00000000000E+00  0.00000000000E+00  0.45593999997E+02  0.45594000000E+02  0.51100000000E-03 0.  1.
         11   -1    0    0    0    0 -0.00000000000E+00 -0.00000000000E+00 -0.45593999997E+02  0.45594000000E+02  0.51100000000E-03 0. -1.
    9900012    2    1    2    0    0 -0.24197756901E+02 -0.28285799722E+02  0.16356911448E+02  0.50528850266E+02  0.29999970869E+02 0.  0.
        -12    1    1    2    0    0  0.24197756901E+02  0.28285799722E+02 -0.16356911448E+02  0.40659149734E+02  0.00000000000E+00 0.  1.
         11    1    3    3    0    0 -0.18859633273E+02 -0.20436348399E+02  0.57994902137E+01  0.28407115131E+02  0.51100000000E-03 0. -1.
        -11    1    3    3    0    0 -0.78938023470E+01 -0.10242684063E+02  0.22756393431E+01  0.13130240934E+02  0.51100000000E-03 0.  1.
        -12    1    3    3    0    0  0.25556787188E+01  0.23932327402E+01  0.82817818915E+01  0.89914942007E+01  0.00000000000E+00 0.  1.
</event>
<event>
 7    1  0.8986500E-014  0.5052886E+02  0.7816164E-02  0.1300439E+00
        -11   -1    0    0    0    0  0.00000000000E+00  0.00000000000E+00  0.45593999997E+02  0.45594000000E+02  0.51100000000E-03 0. -1.
         11   -1    0    0    0    0 -0.00000000000E+00 -0.00000000000E+00 -0.45593999997E+02  0.45594000000E+02  0.51100000000E-03 0.  1.
    9900012    2    1    2    0    0  0.39022211533E+02  0.49487255384E+01  0.10292862534E+02  0.50528857159E+02  0.29999991821E+02 0.  0.
        -12    1    1    2    0    0 -0.39022211533E+02 -0.49487255384E+01 -0.10292862534E+02  0.40659142841E+02  0.00000000000E+00 0.  1.
         11    1    3    3    0    0  0.23873328140E+02  0.81142037895E+01  0.51413321029E+01  0.25733429536E+02  0.51100000000E-03 0. -1.
        -11    1    3    3    0    0  0.42744219496E+01  0.63182909855E+00  0.11042667802E+02  0.11857925765E+02  0.51100000000E-03 0.  1.
        -12    1    3    3    0    0  0.10874461444E+02 -0.37973073497E+01 -0.58911373711E+01  0.12937501858E+02  0.00000000000E+00 0.  1.
</event>
<event>
 7    1  0.8986500E-014  0.5052893E+02  0.7816164E-02  0.1300439E+00
        -11   -1    0    0    0    0  0.00000000000E+00  0.00000000000E+00  0.45593999997E+02  0.45594000000E+02  0.51100000000E-03 0.  1.
         11   -1    0    0    0    0 -0.00000000000E+00 -0.00000000000E+00 -0.45593999997E+02  0.45594000000E+02  0.51100000000E-03 0. -1.
    9900012    2    1    2    0    0 -0.36172437796E+02 -0.48255594203E+01  0.17928440262E+02  0.50528926596E+02  0.30000202881E+02 0.  0.
        -12    1    1    2    0    0  0.36172437796E+02  0.48255594203E+01 -0.17928440262E+02  0.40659073404E+02  0.00000000000E+00 0.  1.
         11    1    3    3    0    0 -0.20651483886E+02  0.18508462367E+01  0.52933198619E+01  0.21399267602E+02  0.51100000000E-03 0. -1.
        -11    1    3    3    0    0 -0.19934735138E+01 -0.24517171955E+01 -0.53612119949E+01  0.62231381290E+01  0.51100000000E-03 0.  1.
        -12    1    3    3    0    0 -0.13527480396E+02 -0.42246884614E+01  0.17996332395E+02  0.22906520865E+02  0.00000000000E+00 0.  1.
</event>
<event>
 7    1  0.8986500E-014  0.5052886E+02  0.7816164E-02  0.1300439E+00
        -11   -1    0    0    0    0  0.00000000000E+00  0.00000000000E+00  0.45593999997E+02  0.45594000000E+02  0.51100000000E-03 0. -1.
         11   -1    0    0    0    0 -0.00000000000E+00 -0.00000000000E+00 -0.45593999997E+02  0.45594000000E+02  0.51100000000E-03 0.  1.
    9900012    2    1    2    0    0  0.65557256990E+01 -0.78478242591E+01 -0.39352247640E+02  0.50528864749E+02  0.30000014891E+02 0.  0.
         12    1    1    2    0    0 -0.65557256990E+01  0.78478242591E+01  0.39352247640E+02  0.40659135251E+02  0.00000000000E+00 0. -1.
         11    1    3    3    0    0  0.57318273816E+01 -0.13308681296E+01 -0.10273351414E+01  0.59733133908E+01  0.51100000000E-03 0. -1.
        -11    1    3    3    0    0  0.80356000393E+01  0.27954997982E+01 -0.26634965102E+02  0.27960812816E+02  0.51100000000E-03 0.  1.
        -12    1    3    3    0    0 -0.72117017219E+01 -0.93124559277E+01 -0.11689947397E+02  0.16594738542E+02  0.00000000000E+00 0.  1.
</event>
<event>
 7    1  0.8986500E-014  0.5052888E+02  0.7816164E-02  0.1300439E+00
        -11   -1    0    0    0    0  0.00000000000E+00  0.00000000000E+00  0.45593999997E+02  0.45594000000E+02  0.51100000000E-03 0. -1.
         11   -1    0    0    0    0 -0.00000000000E+00 -0.00000000000E+00 -0.45593999997E+02  0.45594000000E+02  0.51100000000E-03 0.  1.
    9900012    2    1    2    0    0  0.18542085818E+02 -0.21724946554E+02  0.28937555277E+02  0.50528876120E+02  0.30000049455E+02 0.  0.
        -12    1    1    2    0    0 -0.18542085818E+02  0.21724946554E+02 -0.28937555277E+02  0.40659123880E+02  0.00000000000E+00 0.  1.
         11    1    3    3    0    0  0.26224581284E+01 -0.10298112293E+02  0.14016660141E+02  0.17589632322E+02  0.51100000000E-03 0. -1.
        -11    1    3    3    0    0 -0.13657481430E+01 -0.64559041565E+01  0.13341347176E+02  0.14884069041E+02  0.51100000000E-03 0.  1.
        -12    1    3    3    0    0  0.17285375833E+02 -0.49709301045E+01  0.15795479592E+01  0.18055174758E+02  0.00000000000E+00 0.  1.
</event>
<event>
 7    1  0.8986500E-014  0.5052888E+02  0.7816164E-02  0.1300439E+00
        -11   -1    0    0    0    0  0.00000000000E+00  0.00000000000E+00  0.45593999997E+02  0.45594000000E+02  0.51100000000E-03 0. -1.
         11   -1    0    0    0    0 -0.00000000000E+00 -0.00000000000E+00 -0.45593999997E+02  0.45594000000E+02  0.51100000000E-03 0.  1.
    9900012    2    1    2    0    0  0.30452016384E+02 -0.22222159186E+02  0.15232009639E+02  0.50528883207E+02  0.30000070997E+02 0.  0.
        -12    1    1    2    0    0 -0.30452016384E+02  0.22222159186E+02 -0.15232009639E+02  0.40659116793E+02  0.00000000000E+00 0.  1.
         11    1    3    3    0    0  0.71563389479E+01 -0.15931471137E+02  0.65596922495E+01  0.18656219403E+02  0.51100000000E-03 0. -1.
        -11    1    3    3    0    0  0.17680193561E+02 -0.12982069256E+02  0.61559812659E+01  0.22781998862E+02  0.51100000000E-03 0.  1.
        -12    1    3    3    0    0  0.56154838749E+01  0.66913812078E+01  0.25163361235E+01  0.90906649429E+01  0.00000000000E+00 0.  1.
</event>
<event>
 7    1  0.8986500E-014  0.5052886E+02  0.7816164E-02  0.1300439E+00
        -11   -1    0    0    0    0  0.00000000000E+00  0.00000000000E+00  0.45593999997E+02  0.45594000000E+02  0.51100000000E-03 0. -1.
         11   -1    0    0    0    0 -0.00000000000E+00 -0.00000000000E+00 -0.45593999997E+02  0.45594000000E+02  0.51100000000E-03 0.  1.
    9900012    2    1    2    0    0 -0.57358515412E+01 -0.24764168613E+02 -0.31733291658E+02  0.50528857861E+02  0.29999993956E+02 0.  0.
         12    1    1    2    0    0  0.57358515412E+01  0.24764168613E+02  0.31733291658E+02  0.40659142139E+02  0.00000000000E+00 0. -1.
         11    1    3    3    0    0 -0.26169615937E+01 -0.14807751424E+02 -0.15953074332E+01  0.15121606935E+02  0.51100000000E-03 0. -1.
        -11    1    3    3    0    0 -0.79792035192E+01 -0.10351812004E+02 -0.17357689910E+02  0.21728255794E+02  0.51100000000E-03 0.  1.
         12    1    3    3    0    0  0.48603135716E+01  0.39539481541E+00 -0.12780294315E+02  0.13678995133E+02  0.00000000000E+00 0. -1.
</event>
<event>
 7    1  0.8986500E-014  0.5052885E+02  0.7816164E-02  0.1300439E+00
        -11   -1    0    0    0    0  0.00000000000E+00  0.00000000000E+00  0.45593999997E+02  0.45594000000E+02  0.51100000000E-03 0.  1.
         11   -1    0    0    0    0 -0.00000000000E+00 -0.00000000000E+00 -0.45593999997E+02  0.45594000000E+02  0.51100000000E-03 0. -1.
    9900012    2    1    2    0    0  0.99145129635E+01  0.31676694067E+02 -0.23483092962E+02  0.50528853804E+02  0.29999981622E+02 0.  0.
         12    1    1    2    0    0 -0.99145129635E+01 -0.31676694067E+02  0.23483092962E+02  0.40659146196E+02  0.00000000000E+00 0. -1.
         11    1    3    3    0    0  0.64461258826E+01  0.22454455076E+02 -0.72163880881E+01  0.24450589951E+02  0.51100000000E-03 0. -1.
        -11    1    3    3    0    0  0.18345482694E+01  0.14553642102E+02 -0.10380640903E+02  0.17970302491E+02  0.51100000000E-03 0.  1.
         12    1    3    3    0    0  0.16338388115E+01 -0.53314031104E+01 -0.58860639709E+01  0.81079613626E+01  0.00000000000E+00 0. -1.
</event>
<event>
 7    1  0.8986500E-014  0.5052886E+02  0.7816164E-02  0.1300439E+00
        -11   -1    0    0    0    0  0.00000000000E+00  0.00000000000E+00  0.45593999997E+02  0.45594000000E+02  0.51100000000E-03 0. -1.
         11   -1    0    0    0    0 -0.00000000000E+00 -0.00000000000E+00 -0.45593999997E+02  0.45594000000E+02  0.51100000000E-03 0.  1.
    9900012    2    1    2    0    0 -0.24036661426E+02 -0.25725169279E+02  0.20337658375E+02  0.50528858653E+02  0.29999996360E+02 0.  0.
        -12    1    1    2    0    0  0.24036661426E+02  0.25725169279E+02 -0.20337658375E+02  0.40659141347E+02  0.00000000000E+00 0.  1.
         11    1    3    3    0    0 -0.35588898272E+01 -0.52936253153E+01 -0.19253980864E+01  0.66629816024E+01  0.51100000000E-03 0. -1.
        -11    1    3    3    0    0 -0.54130307077E+01 -0.12840011605E+02 -0.22441059903E+01  0.14113922609E+02  0.51100000000E-03 0.  1.
         12    1    3    3    0    0 -0.15064740891E+02 -0.75915323593E+01  0.24507162451E+02  0.29751954441E+02  0.00000000000E+00 0. -1.
</event>
<event>
 7    1  0.8986500E-014  0.5052885E+02  0.7816164E-02  0.1300439E+00
        -11   -1    0    0    0    0  0.00000000000E+00  0.00000000000E+00  0.45593999997E+02  0.45594000000E+02  0.51100000000E-03 0. -1.
         11   -1    0    0    0    0 -0.00000000000E+00 -0.00000000000E+00 -0.45593999997E+02  0.45594000000E+02  0.51100000000E-03 0.  1.
    9900012    2    1    2    0    0 -0.23758572518E+00  0.93777863745E+01  0.39562190287E+02  0.50528853125E+02  0.29999979559E+02 0.  0.
        -12    1    1    2    0    0  0.23758572518E+00 -0.93777863745E+01 -0.39562190287E+02  0.40659146875E+02  0.00000000000E+00 0.  1.
         11    1    3    3    0    0 -0.99289500054E+01  0.11362225862E+02  0.15506704447E+02  0.21636591872E+02  0.51100000000E-03 0. -1.
        -11    1    3    3    0    0  0.32974789167E+01 -0.64652875578E+01  0.67690697710E+01  0.99243950061E+01  0.51100000000E-03 0.  1.
        -12    1    3    3    0    0  0.63938853635E+01  0.44808480706E+01  0.17286416069E+02  0.18967866247E+02  0.00000000000E+00 0.  1.
</event>
<event>
 7    1  0.8986500E-014  0.5052886E+02  0.7816164E-02  0.1300439E+00
        -11   -1    0    0    0    0  0.00000000000E+00  0.00000000000E+00  0.45593999997E+02  0.45594000000E+02  0.51100000000E-03 0. -1.
         11   -1    0    0    0    0 -0.00000000000E+00 -0.00000000000E+00 -0.45593999997E+02  0.45594000000E+02  0.51100000000E-03 0.  1.
    9900012    2    1    2    0    0  0.76882443744E+01 -0.14444281296E+02  0.37221218974E+02  0.50528861967E+02  0.30000006435E+02 0.  0.
        -12    1    1    2    0    0 -0.76882443744E+01  0.14444281296E+02 -0.37221218974E+02  0.40659138033E+02  0.00000000000E+00 0.  1.
         11    1    3    3    0    0 -0.36719958650E+01 -0.19751371189E+01  0.26894449928E+01  0.49616363129E+01  0.51100000000E-03 0. -1.
        -11    1    3    3    0    0 -0.12348320436E+01  0.21616723389E+01 -0.26724961816E+01  0.36523791668E+01  0.51100000000E-03 0.  1.
         12    1    3    3    0    0  0.12595072283E+02 -0.14630816516E+02  0.37204270162E+02  0.41914846487E+02  0.00000000000E+00 0. -1.
</event>
<event>
 7    1  0.8986500E-014  0.5052886E+02  0.7816164E-02  0.1300439E+00
        -11   -1    0    0    0    0  0.00000000000E+00  0.00000000000E+00  0.45593999997E+02  0.45594000000E+02  0.51100000000E-03 0. -1.
         11   -1    0    0    0    0 -0.00000000000E+00 -0.00000000000E+00 -0.45593999997E+02  0.45594000000E+02  0.51100000000E-03 0.  1.
    9900012    2    1    2    0    0 -0.31721530845E+02 -0.55166581322E+01  0.24828949428E+02  0.50528858767E+02  0.29999996709E+02 0.  0.
        -12    1    1    2    0    0  0.31721530845E+02  0.55166581322E+01 -0.24828949428E+02  0.40659141233E+02  0.00000000000E+00 0.  1.
         11    1    3    3    0    0 -0.20176681458E+02  0.67757057726E+01  0.87382466012E+01  0.23007946829E+02  0.51100000000E-03 0. -1.
        -11    1    3    3    0    0 -0.26564787722E+01  0.14239688859E+01 -0.16192360324E+01  0.34214751855E+01  0.51100000000E-03 0.  1.
         12    1    3    3    0    0 -0.88883706151E+01 -0.13716332791E+02  0.17709938859E+02  0.24099436753E+02  0.00000000000E+00 0. -1.
</event>
<event>
 7    1  0.1101475E-013  0.5052886E+02  0.7816164E-02  0.1300439E+00
        -11   -1    0    0    0    0  0.00000000000E+00  0.00000000000E+00  0.45593999997E+02  0.45594000000E+02  0.51100000000E-03 0. -1.
         11   -1    0    0    0    0 -0.00000000000E+00 -0.00000000000E+00 -0.45593999997E+02  0.45594000000E+02  0.51100000000E-03 0.  1.
    9900012    2    1    2    0    0 -0.21004839859E+00 -0.83667447100E+01  0.39788429739E+02  0.50528859841E+02  0.29999999974E+02 0.  0.
        -12    1    1    2    0    0  0.21004839859E+00  0.83667447100E+01 -0.39788429739E+02  0.40659140159E+02  0.00000000000E+00 0.  1.
         11    1    3    3    0    0 -0.46403102807E+00 -0.48193144959E+01  0.70658363593E+00  0.48928905262E+01  0.51100000000E-03 0. -1.
        -11    1    3    3    0    0  0.65656217206E+01 -0.50571436919E+00  0.70260443552E+00  0.66224458363E+01  0.51100000000E-03 0.  1.
         12    1    3    3    0    0 -0.63116390911E+01 -0.30417158449E+01  0.38379241667E+02  0.39013523479E+02  0.00000000000E+00 0. -1.
</event>
<event>
 7    1  0.8986500E-014  0.5052892E+02  0.7816164E-02  0.1300439E+00
        -11   -1    0    0    0    0  0.00000000000E+00  0.00000000000E+00  0.45593999997E+02  0.45594000000E+02  0.51100000000E-03 0. -1.
         11   -1    0    0    0    0 -0.00000000000E+00 -0.00000000000E+00 -0.45593999997E+02  0.45594000000E+02  0.51100000000E-03 0.  1.
    9900012    2    1    2    0    0  0.24445526247E+01  0.97577629804E+01 -0.39395062380E+02  0.50528920868E+02  0.30000185469E+02 0.  0.
         12    1    1    2    0    0 -0.24445526247E+01 -0.97577629804E+01  0.39395062380E+02  0.40659079132E+02  0.00000000000E+00 0. -1.
         11    1    3    3    0    0 -0.21289589617E+01  0.39812656298E+01 -0.71844398661E+01  0.84852294445E+01  0.51100000000E-03 0. -1.
        -11    1    3    3    0    0  0.14084898499E+00  0.25002198180E+01 -0.35524190709E+02  0.35612344256E+02  0.51100000000E-03 0.  1.
         12    1    3    3    0    0  0.44326626014E+01  0.32762775326E+01  0.33135681950E+01  0.64313471677E+01  0.00000000000E+00 0. -1.
</event>
<event>
 7    1  0.8986500E-014  0.5052886E+02  0.7816164E-02  0.1300439E+00
        -11   -1    0    0    0    0  0.00000000000E+00  0.00000000000E+00  0.45593999997E+02  0.45594000000E+02  0.51100000000E-03 0.  1.
         11   -1    0    0    0    0 -0.00000000000E+00 -0.00000000000E+00 -0.45593999997E+02  0.45594000000E+02  0.51100000000E-03 0. -1.
    9900012    2    1    2    0    0 -0.18845848899E+02  0.29582521846E+02 -0.20563896304E+02  0.50528862642E+02  0.30000008488E+02 0.  0.
         12    1    1    2    0    0  0.18845848899E+02 -0.29582521846E+02  0.20563896304E+02  0.40659137358E+02  0.00000000000E+00 0. -1.
         11    1    3    3    0    0 -0.28637918694E+01  0.76440706844E+01 -0.52469189584E+01  0.97037765492E+01  0.51100000000E-03 0. -1.
        -11    1    3    3    0    0 -0.11238277367E+02  0.86060749212E+01 -0.21207005486E+02  0.25497068178E+02  0.51100000000E-03 0.  1.
         12    1    3    3    0    0 -0.47437796621E+01  0.13332376240E+02  0.58900281410E+01  0.15328017915E+02  0.00000000000E+00 0. -1.
</event>
<event>
 7    1  0.8986500E-014  0.5052886E+02  0.7816164E-02  0.1300439E+00
        -11   -1    0    0    0    0  0.00000000000E+00  0.00000000000E+00  0.45593999997E+02  0.45594000000E+02  0.51100000000E-03 0. -1.
         11   -1    0    0    0    0 -0.00000000000E+00 -0.00000000000E+00 -0.45593999997E+02  0.45594000000E+02  0.51100000000E-03 0.  1.
    9900012    2    1    2    0    0  0.14261787496E+02 -0.25056843876E+02 -0.28669175827E+02  0.50528860188E+02  0.30000001029E+02 0.  0.
         12    1    1    2    0    0 -0.14261787496E+02  0.25056843876E+02  0.28669175827E+02  0.40659139812E+02  0.00000000000E+00 0. -1.
         11    1    3    3    0    0  0.95366208011E+00 -0.30409276701E+01 -0.75515355578E+01  0.81964871744E+01  0.51100000000E-03 0. -1.
        -11    1    3    3    0    0  0.96402327805E+01 -0.92659145079E+01 -0.25135036222E+02  0.28470358373E+02  0.51100000000E-03 0.  1.
        -12    1    3    3    0    0  0.36678926352E+01 -0.12750001698E+02  0.40173959525E+01  0.13862014641E+02  0.00000000000E+00 0.  1.
</event>
<event>
 7    1  0.8986500E-014  0.5052886E+02  0.7816164E-02  0.1300439E+00
        -11   -1    0    0    0    0  0.00000000000E+00  0.00000000000E+00  0.45593999997E+02  0.45594000000E+02  0.51100000000E-03 0. -1.
         11   -1    0    0    0    0 -0.00000000000E+00 -0.00000000000E+00 -0.45593999997E+02  0.45594000000E+02  0.51100000000E-03 0.  1.
    9900012    2    1    2    0    0 -0.22871306704E+02  0.12235489162E+01 -0.33594219315E+02  0.50528864327E+02  0.30000013609E+02 0.  0.
         12    1    1    2    0    0  0.22871306704E+02 -0.12235489162E+01  0.33594219315E+02  0.40659135673E+02  0.00000000000E+00 0. -1.
         11    1    3    3    0    0 -0.12221608937E+01 -0.10333789265E+02 -0.96336668970E+01  0.14180564727E+02  0.51100000000E-03 0. -1.
        -11    1    3    3    0    0 -0.18323405913E+01 -0.17932749917E+01 -0.57818854218E+01  0.63248325298E+01  0.51100000000E-03 0.  1.
        -12    1    3    3    0    0 -0.19816805219E+02  0.13350613173E+02 -0.18178666996E+02  0.30023467071E+02  0.00000000000E+00 0.  1.
</event>
<event>
 7    1  0.8986500E-014  0.5052886E+02  0.7816164E-02  0.1300439E+00
        -11   -1    0    0    0    0  0.00000000000E+00  0.00000000000E+00  0.45593999997E+02  0.45594000000E+02  0.51100000000E-03 0. -1.
         11   -1    0    0    0    0 -0.00000000000E+00 -0.00000000000E+00 -0.45593999997E+02  0.45594000000E+02  0.51100000000E-03 0.  1.
    9900012    2    1    2    0    0  0.26240237225E+02  0.17158681233E+02 -0.25888122706E+02  0.50528864636E+02  0.30000014548E+02 0.  0.
         12    1    1    2    0    0 -0.26240237225E+02 -0.17158681233E+02  0.25888122706E+02  0.40659135364E+02  0.00000000000E+00 0. -1.
         11    1    3    3    0    0  0.10830905142E+02  0.30007381487E+01 -0.14353767460E+02  0.18230292817E+02  0.51100000000E-03 0. -1.
        -11    1    3    3    0    0  0.57170654675E+01  0.78762120649E+01 -0.16947402176E+02  0.19543131654E+02  0.51100000000E-03 0.  1.
         12    1    3    3    0    0  0.96922666148E+01  0.62817310196E+01  0.54130469302E+01  0.12755440165E+02  0.00000000000E+00 0. -1.
</event>
<event>
 7    1  0.8986500E-014  0.5052887E+02  0.7816164E-02  0.1300439E+00
        -11   -1    0    0    0    0  0.00000000000E+00  0.00000000000E+00  0.45593999997E+02  0.45594000000E+02  0.51100000000E-03 0. -1.
         11   -1    0    0    0    0 -0.00000000000E+00 -0.00000000000E+00 -0.45593999997E+02  0.45594000000E+02  0.51100000000E-03 0.  1.
    9900012    2    1    2    0    0  0.17303540924E+02 -0.21476305769E+02  0.29875083110E+02  0.50528870289E+02  0.30000031731E+02 0.  0.
        -12    1    1    2    0    0 -0.17303540924E+02  0.21476305769E+02 -0.29875083110E+02  0.40659129711E+02  0.00000000000E+00 0.  1.
         11    1    3    3    0    0  0.40126222214E+01 -0.12211055108E+02  0.18948541177E+02  0.22896685720E+02  0.51100000000E-03 0.  1.
        -11    1    3    3    0    0  0.14677383119E+02 -0.13582179233E+02  0.11489644903E+02  0.23063241494E+02  0.51100000000E-03 0. -1.
         12    1    3    3    0    0 -0.13864644165E+01  0.43169285719E+01 -0.56310297009E+00  0.45689430757E+01  0.00000000000E+00 0. -1.
</event>
<event>
 7    1  0.8986500E-014  0.5052886E+02  0.7816164E-02  0.1300439E+00
        -11   -1    0    0    0    0  0.00000000000E+00  0.00000000000E+00  0.45593999997E+02  0.45594000000E+02  0.51100000000E-03 0. -1.
         11   -1    0    0    0    0 -0.00000000000E+00 -0.00000000000E+00 -0.45593999997E+02  0.45594000000E+02  0.51100000000E-03 0.  1.
    9900012    2    1    2    0    0  0.48887763296E+01 -0.25509924941E+01 -0.40283471370E+02  0.50528858810E+02  0.29999996839E+02 0.  0.
         12    1    1    2    0    0 -0.48887763296E+01  0.25509924941E+01  0.40283471370E+02  0.40659141190E+02  0.00000000000E+00 0. -1.
         11    1    3    3    0    0 -0.25486875343E+01  0.59633680888E+01 -0.18247664092E+01  0.67370126777E+01  0.51100000000E-03 0. -1.
        -11    1    3    3    0    0 -0.42684396036E+01 -0.36786536014E+01 -0.35582859202E+01  0.66643430224E+01  0.51100000000E-03 0.  1.
        -12    1    3    3    0    0  0.11705903468E+02 -0.48357069815E+01 -0.34900419040E+02  0.37127503110E+02  0.00000000000E+00 0.  1.
</event>
<event>
 7    1  0.8986500E-014  0.5052884E+02  0.7816164E-02  0.1300439E+00
        -11   -1    0    0    0    0  0.00000000000E+00  0.00000000000E+00  0.45593999997E+02  0.45594000000E+02  0.51100000000E-03 0. -1.
         11   -1    0    0    0    0 -0.00000000000E+00 -0.00000000000E+00 -0.45593999997E+02  0.45594000000E+02  0.51100000000E-03 0.  1.
    9900012    2    1    2    0    0  0.12706297750E+02 -0.10577627841E+02  0.37146079071E+02  0.50528838626E+02  0.29999935488E+02 0.  0.
        -12    1    1    2    0    0 -0.12706297750E+02  0.10577627841E+02 -0.37146079071E+02  0.40659161374E+02  0.00000000000E+00 0.  1.
         11    1    3    3    0    0  0.87868999048E+01 -0.19218733123E+00  0.28380597970E+02  0.29710349835E+02  0.51100000000E-03 0. -1.
        -11    1    3    3    0    0  0.96406485786E+01 -0.54547519524E+01  0.68600388128E+01  0.13029065840E+02  0.51100000000E-03 0.  1.
        -12    1    3    3    0    0 -0.57212507335E+01 -0.49306885570E+01  0.19054422883E+01  0.77894229514E+01  0.00000000000E+00 0.  1.
</event>
<event>
 7    1  0.8986500E-014  0.5052887E+02  0.7816164E-02  0.1300439E+00
        -11   -1    0    0    0    0  0.00000000000E+00  0.00000000000E+00  0.45593999997E+02  0.45594000000E+02  0.51100000000E-03 0. -1.
         11   -1    0    0    0    0 -0.00000000000E+00 -0.00000000000E+00 -0.45593999997E+02  0.45594000000E+02  0.51100000000E-03 0.  1.
    9900012    2    1    2    0    0  0.11687459973E+02  0.35552302617E+01  0.38780520428E+02  0.50528866370E+02  0.30000019819E+02 0.  0.
        -12    1    1    2    0    0 -0.11687459973E+02 -0.35552302617E+01 -0.38780520428E+02  0.40659133630E+02  0.00000000000E+00 0.  1.
         11    1    3    3    0    0  0.73244671188E+00  0.81706141531E+01  0.35912391562E+01  0.89550216506E+01  0.51100000000E-03 0. -1.
        -11    1    3    3    0    0 -0.41340259196E+01 -0.43362608920E+01  0.49254786616E+01  0.77558796493E+01  0.51100000000E-03 0.  1.
        -12    1    3    3    0    0  0.15089039181E+02 -0.27912299939E+00  0.30263802611E+02  0.33817965070E+02  0.00000000000E+00 0.  1.
</event>
<event>
 7    1  0.8986500E-014  0.5052886E+02  0.7816164E-02  0.1300439E+00
        -11   -1    0    0    0    0  0.00000000000E+00  0.00000000000E+00  0.45593999997E+02  0.45594000000E+02  0.51100000000E-03 0.  1.
         11   -1    0    0    0    0 -0.00000000000E+00 -0.00000000000E+00 -0.45593999997E+02  0.45594000000E+02  0.51100000000E-03 0. -1.
    9900012    2    1    2    0    0  0.30117926945E+02  0.21732738945E+02  0.16545810433E+02  0.50528864392E+02  0.30000013806E+02 0.  0.
        -12    1    1    2    0    0 -0.30117926945E+02 -0.21732738945E+02 -0.16545810433E+02  0.40659135608E+02  0.00000000000E+00 0.  1.
         11    1    3    3    0    0  0.13009127212E+02 -0.18604722352E+01  0.59093763247E+01  0.14409006786E+02  0.51100000000E-03 0. -1.
        -11    1    3    3    0    0  0.16565840342E+02  0.14434574232E+02 -0.13228792473E+00  0.21972744477E+02  0.51100000000E-03 0.  1.
         12    1    3    3    0    0  0.54295939083E+00  0.91586369480E+01  0.10768722033E+02  0.14147113129E+02  0.00000000000E+00 0. -1.
</event>
<event>
 7    1  0.8986500E-014  0.5052886E+02  0.7816164E-02  0.1300439E+00
        -11   -1    0    0    0    0  0.00000000000E+00  0.00000000000E+00  0.45593999997E+02  0.45594000000E+02  0.51100000000E-03 0. -1.
         11   -1    0    0    0    0 -0.00000000000E+00 -0.00000000000E+00 -0.45593999997E+02  0.45594000000E+02  0.51100000000E-03 0.  1.
    9900012    2    1    2    0    0  0.23882720893E+02  0.23559665651E+02 -0.22972229186E+02  0.50528861831E+02  0.30000006022E+02 0.  0.
         12    1    1    2    0    0 -0.23882720893E+02 -0.23559665651E+02  0.22972229186E+02  0.40659138169E+02  0.00000000000E+00 0. -1.
         11    1    3    3    0    0  0.20115762793E+02  0.25166252534E+01 -0.48295413077E+01  0.20839908467E+02  0.51100000000E-03 0. -1.
        -11    1    3    3    0    0 -0.14180817896E+01  0.67345124841E+01 -0.13271575324E+01  0.70089914922E+01  0.51100000000E-03 0.  1.
        -12    1    3    3    0    0  0.51850398899E+01  0.14308527914E+02 -0.16815530346E+02  0.22679961872E+02  0.00000000000E+00 0.  1.
</event>
<event>
 7    1  0.8986500E-014  0.5052886E+02  0.7816164E-02  0.1300439E+00
        -11   -1    0    0    0    0  0.00000000000E+00  0.00000000000E+00  0.45593999997E+02  0.45594000000E+02  0.51100000000E-03 0. -1.
         11   -1    0    0    0    0 -0.00000000000E+00 -0.00000000000E+00 -0.45593999997E+02  0.45594000000E+02  0.51100000000E-03 0.  1.
    9900012    2    1    2    0    0  0.21954489064E+02 -0.24109780908E+02  0.24287538737E+02  0.50528860026E+02  0.30000000536E+02 0.  0.
        -12    1    1    2    0    0 -0.21954489064E+02  0.24109780908E+02 -0.24287538737E+02  0.40659139974E+02  0.00000000000E+00 0.  1.
         11    1    3    3    0    0  0.18156281947E+02 -0.34469191276E+01  0.10182581341E+02  0.21100160867E+02  0.51100000000E-03 0. -1.
        -11    1    3    3    0    0 -0.84807943144E+00 -0.60919788223E+01 -0.26904448010E+01  0.67134147929E+01  0.51100000000E-03 0.  1.
         12    1    3    3    0    0  0.46462865489E+01 -0.14570882958E+02  0.16795402197E+02  0.22715284366E+02  0.00000000000E+00 0. -1.
</event>
<event>
 7    1  0.8986500E-014  0.5052886E+02  0.7816164E-02  0.1300439E+00
        -11   -1    0    0    0    0  0.00000000000E+00  0.00000000000E+00  0.45593999997E+02  0.45594000000E+02  0.51100000000E-03 0. -1.
         11   -1    0    0    0    0 -0.00000000000E+00 -0.00000000000E+00 -0.45593999997E+02  0.45594000000E+02  0.51100000000E-03 0.  1.
    9900012    2    1    2    0    0  0.12833141053E+02  0.19771320626E+02  0.33129611793E+02  0.50528858271E+02  0.29999995201E+02 0.  0.
        -12    1    1    2    0    0 -0.12833141053E+02 -0.19771320626E+02 -0.33129611793E+02  0.40659141729E+02  0.00000000000E+00 0.  1.
         11    1    3    3    0    0  0.17963153343E+02  0.10302667757E+02  0.15624064405E+02  0.25940918059E+02  0.51100000000E-03 0. -1.
        -11    1    3    3    0    0  0.30833693134E+01 -0.36367838765E+00  0.27566806691E+00  0.31169570797E+01  0.51100000000E-03 0.  1.
         12    1    3    3    0    0 -0.82133816029E+01  0.98323312568E+01  0.17229879320E+02  0.21470983133E+02  0.00000000000E+00 0. -1.
</event>
<event>
 7    1  0.8986500E-014  0.5052887E+02  0.7816164E-02  0.1300439E+00
        -11   -1    0    0    0    0  0.00000000000E+00  0.00000000000E+00  0.45593999997E+02  0.45594000000E+02  0.51100000000E-03 0. -1.
         11   -1    0    0    0    0 -0.00000000000E+00 -0.00000000000E+00 -0.45593999997E+02  0.45594000000E+02  0.51100000000E-03 0.  1.
    9900012    2    1    2    0    0  0.27704679978E+02 -0.12716459376E+02 -0.26905526999E+02  0.50528868002E+02  0.30000024780E+02 0.  0.
         12    1    1    2    0    0 -0.27704679978E+02  0.12716459376E+02  0.26905526999E+02  0.40659131998E+02  0.00000000000E+00 0. -1.
         11    1    3    3    0    0 -0.24087823630E+01  0.94656246670E-01 -0.60928303209E+01  0.65523868824E+01  0.51100000000E-03 0. -1.
        -11    1    3    3    0    0  0.85353035565E+01 -0.44951813680E+01 -0.18336439917E+02  0.20719147941E+02  0.51100000000E-03 0.  1.
         12    1    3    3    0    0  0.21578158784E+02 -0.83159342548E+01 -0.24762567613E+01  0.23257333179E+02  0.00000000000E+00 0. -1.
</event>
<event>
 7    1  0.8986500E-014  0.5052889E+02  0.7816164E-02  0.1300439E+00
        -11   -1    0    0    0    0  0.00000000000E+00  0.00000000000E+00  0.45593999997E+02  0.45594000000E+02  0.51100000000E-03 0. -1.
         11   -1    0    0    0    0 -0.00000000000E+00 -0.00000000000E+00 -0.45593999997E+02  0.45594000000E+02  0.51100000000E-03 0.  1.
    9900012    2    1    2    0    0  0.11292786477E+02 -0.21448453926E+02  0.32643526719E+02  0.50528892301E+02  0.30000098637E+02 0.  0.
        -12    1    1    2    0    0 -0.11292786477E+02  0.21448453926E+02 -0.32643526719E+02  0.40659107699E+02  0.00000000000E+00 0.  1.
         11    1    3    3    0    0  0.37945754739E+01 -0.21119939652E+01  0.23261383112E+02  0.23663289418E+02  0.51100000000E-03 0. -1.
        -11    1    3    3    0    0  0.60755834430E+00  0.12940852741E+01  0.42964919350E+01  0.45280930917E+01  0.51100000000E-03 0.  1.
        -12    1    3    3    0    0  0.68906526591E+01 -0.20630545235E+02  0.50856516726E+01  0.22337509791E+02  0.00000000000E+00 0.  1.
</event>
<event>
 7    1  0.8986500E-014  0.5052886E+02  0.7816164E-02  0.1300439E+00
        -11   -1    0    0    0    0  0.00000000000E+00  0.00000000000E+00  0.45593999997E+02  0.45594000000E+02  0.51100000000E-03 0. -1.
         11   -1    0    0    0    0 -0.00000000000E+00 -0.00000000000E+00 -0.45593999997E+02  0.45594000000E+02  0.51100000000E-03 0.  1.
    9900012    2    1    2    0    0  0.47325180739E+01 -0.35288795343E+02  0.19633383417E+02  0.50528861439E+02  0.30000004831E+02 0.  0.
        -12    1    1    2    0    0 -0.47325180739E+01  0.35288795343E+02 -0.19633383417E+02  0.40659138561E+02  0.00000000000E+00 0.  1.
         11    1    3    3    0    0 -0.43594103568E+01 -0.19339679426E+02  0.96706024127E+01  0.22057837841E+02  0.51100000000E-03 0.  1.
        -11    1    3    3    0    0  0.28251159611E+01 -0.42474649688E+01  0.13751210124E+02  0.14666902161E+02  0.51100000000E-03 0. -1.
        -12    1    3    3    0    0  0.62668124696E+01 -0.11701650949E+02 -0.37884291202E+01  0.13804121437E+02  0.00000000000E+00 0.  1.
</event>
<event>
 7    1  0.8986500E-014  0.5052889E+02  0.7816164E-02  0.1300439E+00
        -11   -1    0    0    0    0  0.00000000000E+00  0.00000000000E+00  0.45593999997E+02  0.45594000000E+02  0.51100000000E-03 0. -1.
         11   -1    0    0    0    0 -0.00000000000E+00 -0.00000000000E+00 -0.45593999997E+02  0.45594000000E+02  0.51100000000E-03 0.  1.
    9900012    2    1    2    0    0 -0.14589631734E+02 -0.17883748833E+02  0.33473535272E+02  0.50528887982E+02  0.30000085511E+02 0.  0.
        -12    1    1    2    0    0  0.14589631734E+02  0.17883748833E+02 -0.33473535272E+02  0.40659112018E+02  0.00000000000E+00 0.  1.
         11    1    3    3    0    0 -0.32208534270E+01 -0.29117816843E+01  0.17540494296E+02  0.18069900658E+02  0.51100000000E-03 0. -1.
        -11    1    3    3    0    0 -0.27575460340E+01 -0.94894730367E+01  0.19322317169E+02  0.21702674943E+02  0.51100000000E-03 0.  1.
        -12    1    3    3    0    0 -0.86112322727E+01 -0.54824941121E+01 -0.33892761927E+01  0.10756312382E+02  0.00000000000E+00 0.  1.
</event>
<event>
 7    1  0.8986500E-014  0.5052885E+02  0.7816164E-02  0.1300439E+00
        -11   -1    0    0    0    0  0.00000000000E+00  0.00000000000E+00  0.45593999997E+02  0.45594000000E+02  0.51100000000E-03 0. -1.
         11   -1    0    0    0    0 -0.00000000000E+00 -0.00000000000E+00 -0.45593999997E+02  0.45594000000E+02  0.51100000000E-03 0.  1.
    9900012    2    1    2    0    0 -0.27461674570E+02  0.50826209017E+01 -0.29549779907E+02  0.50528854682E+02  0.29999984292E+02 0.  0.
         12    1    1    2    0    0  0.27461674570E+02 -0.50826209017E+01  0.29549779907E+02  0.40659145318E+02  0.00000000000E+00 0. -1.
         11    1    3    3    0    0  0.32730881922E+01 -0.98528560358E-01 -0.47955606133E+01  0.58069110591E+01  0.51100000000E-03 0. -1.
        -11    1    3    3    0    0 -0.26662750228E+02 -0.13293240678E+01 -0.10806722701E+02  0.28800253610E+02  0.51100000000E-03 0.  1.
         12    1    3    3    0    0 -0.40720125340E+01  0.65104735298E+01 -0.13947496593E+02  0.15921690013E+02  0.00000000000E+00 0. -1.
</event>
<event>
 7    1  0.8986500E-014  0.5052886E+02  0.7816164E-02  0.1300439E+00
        -11   -1    0    0    0    0  0.00000000000E+00  0.00000000000E+00  0.45593999997E+02  0.45594000000E+02  0.51100000000E-03 0.  1.
         11   -1    0    0    0    0 -0.00000000000E+00 -0.00000000000E+00 -0.45593999997E+02  0.45594000000E+02  0.51100000000E-03 0. -1.
    9900012    2    1    2    0    0 -0.24333348222E+02 -0.25261619176E+02  0.20564637679E+02  0.50528861274E+02  0.30000004328E+02 0.  0.
        -12    1    1    2    0    0  0.24333348222E+02  0.25261619176E+02 -0.20564637679E+02  0.40659138726E+02  0.00000000000E+00 0.  1.
         11    1    3    3    0    0 -0.20983465554E+02 -0.15217879407E+02  0.16632511567E+02  0.30798216208E+02  0.51100000000E-03 0. -1.
        -11    1    3    3    0    0 -0.59039293980E+01 -0.45326509400E+01  0.90994496261E+01  0.11755904501E+02  0.51100000000E-03 0.  1.
        -12    1    3    3    0    0  0.25540467301E+01 -0.55110888285E+01 -0.51673235140E+01  0.79747405646E+01  0.00000000000E+00 0.  1.
</event>
<event>
 7    1  0.8986500E-014  0.5052884E+02  0.7816164E-02  0.1300439E+00
        -11   -1    0    0    0    0  0.00000000000E+00  0.00000000000E+00  0.45593999997E+02  0.45594000000E+02  0.51100000000E-03 0. -1.
         11   -1    0    0    0    0 -0.00000000000E+00 -0.00000000000E+00 -0.45593999997E+02  0.45594000000E+02  0.51100000000E-03 0.  1.
    9900012    2    1    2    0    0  0.56851011713E+01  0.10256745226E+01  0.40246676569E+02  0.50528839182E+02  0.29999937178E+02 0.  0.
        -12    1    1    2    0    0 -0.56851011713E+01 -0.10256745226E+01 -0.40246676569E+02  0.40659160818E+02  0.00000000000E+00 0.  1.
         11    1    3    3    0    0 -0.33310449996E+00  0.12875201255E+01  0.28073989176E+01  0.31064699620E+01  0.51100000000E-03 0. -1.
        -11    1    3    3    0    0  0.51223150533E+01 -0.12115160598E+02  0.31495996119E+02  0.34132286762E+02  0.51100000000E-03 0.  1.
        -12    1    3    3    0    0  0.89589061799E+00  0.11853314995E+02  0.59432815328E+01  0.13290082458E+02  0.00000000000E+00 0.  1.
</event>
<event>
 7    1  0.8986500E-014  0.5052885E+02  0.7816164E-02  0.1300439E+00
        -11   -1    0    0    0    0  0.00000000000E+00  0.00000000000E+00  0.45593999997E+02  0.45594000000E+02  0.51100000000E-03 0. -1.
         11   -1    0    0    0    0 -0.00000000000E+00 -0.00000000000E+00 -0.45593999997E+02  0.45594000000E+02  0.51100000000E-03 0.  1.
    9900012    2    1    2    0    0  0.60753936262E+01 -0.30073866699E+02 -0.26679922768E+02  0.50528854106E+02  0.29999982540E+02 0.  0.
         12    1    1    2    0    0 -0.60753936262E+01  0.30073866699E+02  0.26679922768E+02  0.40659145894E+02  0.00000000000E+00 0. -1.
         11    1    3    3    0    0 -0.39051183207E+01 -0.60418462633E+01 -0.79243193016E+00  0.72375274779E+01  0.51100000000E-03 0.  1.
        -11    1    3    3    0    0  0.92829422628E+01 -0.28427746680E+02 -0.20283222779E+02  0.36134732944E+02  0.51100000000E-03 0. -1.
         12    1    3    3    0    0  0.69756968411E+00  0.43957262445E+01 -0.56042680590E+01  0.71565936840E+01  0.00000000000E+00 0. -1.
</event>
<event>
 7    1  0.8986500E-014  0.5052886E+02  0.7816164E-02  0.1300439E+00
        -11   -1    0    0    0    0  0.00000000000E+00  0.00000000000E+00  0.45593999997E+02  0.45594000000E+02  0.51100000000E-03 0. -1.
         11   -1    0    0    0    0 -0.00000000000E+00 -0.00000000000E+00 -0.45593999997E+02  0.45594000000E+02  0.51100000000E-03 0.  1.
    9900012    2    1    2    0    0  0.15486038351E+02  0.10132686672E+02 -0.36203268865E+02  0.50528863271E+02  0.30000010398E+02 0.  0.
         12    1    1    2    0    0 -0.15486038351E+02 -0.10132686672E+02  0.36203268865E+02  0.40659136729E+02  0.00000000000E+00 0. -1.
         11    1    3    3    0    0  0.68202445389E+01 -0.22719889598E+01  0.29677069516E+00  0.71948413819E+01  0.51100000000E-03 0. -1.
        -11    1    3    3    0    0 -0.22028187075E+01 -0.30758422357E-01  0.95365645942E+00  0.24005868538E+01  0.51100000000E-03 0.  1.
        -12    1    3    3    0    0  0.10868612520E+02  0.12435434055E+02 -0.37453696020E+02  0.40933435035E+02  0.00000000000E+00 0.  1.
</event>
<event>
 7    1  0.8986500E-014  0.5052886E+02  0.7816164E-02  0.1300439E+00
        -11   -1    0    0    0    0  0.00000000000E+00  0.00000000000E+00  0.45593999997E+02  0.45594000000E+02  0.51100000000E-03 0. -1.
         11   -1    0    0    0    0 -0.00000000000E+00 -0.00000000000E+00 -0.45593999997E+02  0.45594000000E+02  0.51100000000E-03 0.  1.
    9900012    2    1    2    0    0  0.35304022990E+00 -0.38676017098E+02  0.12538216432E+02  0.50528858257E+02  0.29999995157E+02 0.  0.
        -12    1    1    2    0    0 -0.35304022990E+00  0.38676017098E+02 -0.12538216432E+02  0.40659141743E+02  0.00000000000E+00 0.  1.
         11    1    3    3    0    0 -0.27553478016E+01 -0.20717203234E+01  0.58370053012E+01  0.67789820588E+01  0.51100000000E-03 0. -1.
        -11    1    3    3    0    0  0.58995084088E+01 -0.11898581720E+02  0.12479782785E+02  0.18224308630E+02  0.51100000000E-03 0.  1.
         12    1    3    3    0    0 -0.27911203773E+01 -0.24705715055E+02 -0.57785716538E+01  0.25525567569E+02  0.00000000000E+00 0. -1.
</event>
<event>
 7    1  0.8986500E-014  0.5052886E+02  0.7816164E-02  0.1300439E+00
        -11   -1    0    0    0    0  0.00000000000E+00  0.00000000000E+00  0.45593999997E+02  0.45594000000E+02  0.51100000000E-03 0.  1.
         11   -1    0    0    0    0 -0.00000000000E+00 -0.00000000000E+00 -0.45593999997E+02  0.45594000000E+02  0.51100000000E-03 0. -1.
    9900012    2    1    2    0    0  0.26166172959E+02 -0.29396796048E+02 -0.10213991403E+02  0.50528857786E+02  0.29999993726E+02 0.  0.
         12    1    1    2    0    0 -0.26166172959E+02  0.29396796048E+02  0.10213991403E+02  0.40659142214E+02  0.00000000000E+00 0. -1.
         11    1    3    3    0    0  0.20106118116E+02 -0.14590934443E+02  0.35893341137E+01  0.25100491494E+02  0.51100000000E-03 0. -1.
        -11    1    3    3    0    0  0.11960413024E+01  0.32248704943E+00  0.24201450742E+01  0.27187524962E+01  0.51100000000E-03 0.  1.
         12    1    3    3    0    0  0.48640135407E+01 -0.15128348654E+02 -0.16223470591E+02  0.22709613796E+02  0.00000000000E+00 0. -1.
</event>
<event>
 7    1  0.1461904E-013  0.5052885E+02  0.7816164E-02  0.1300439E+00
        -11   -1    0    0    0    0  0.00000000000E+00  0.00000000000E+00  0.45593999997E+02  0.45594000000E+02  0.51100000000E-03 0. -1.
         11   -1    0    0    0    0 -0.00000000000E+00 -0.00000000000E+00 -0.45593999997E+02  0.45594000000E+02  0.51100000000E-03 0.  1.
    9900012    2    1    2    0    0  0.77021559008E+01  0.24645064031E+02  0.31408020408E+02  0.50528854257E+02  0.29999983000E+02 0.  0.
        -12    1    1    2    0    0 -0.77021559008E+01 -0.24645064031E+02 -0.31408020408E+02  0.40659145743E+02  0.00000000000E+00 0.  1.
         11    1    3    3    0    0 -0.70502781940E+00  0.93380717210E+01  0.19254627717E+01  0.95605467856E+01  0.51100000000E-03 0. -1.
        -11    1    3    3    0    0  0.21733547775E+01  0.16709904867E+01 -0.36712092403E+01  0.45818618206E+01  0.51100000000E-03 0.  1.
         12    1    3    3    0    0  0.62338289426E+01  0.13636001824E+02  0.33153766876E+02  0.36386445651E+02  0.00000000000E+00 0. -1.
</event>
<event>
 7    1  0.8986500E-014  0.5052886E+02  0.7816164E-02  0.1300439E+00
        -11   -1    0    0    0    0  0.00000000000E+00  0.00000000000E+00  0.45593999997E+02  0.45594000000E+02  0.51100000000E-03 0. -1.
         11   -1    0    0    0    0 -0.00000000000E+00 -0.00000000000E+00 -0.45593999997E+02  0.45594000000E+02  0.51100000000E-03 0.  1.
    9900012    2    1    2    0    0  0.22402888277E+02 -0.21921798866E+01 -0.33859576930E+02  0.50528855817E+02  0.29999987741E+02 0.  0.
         12    1    1    2    0    0 -0.22402888277E+02  0.21921798866E+01  0.33859576930E+02  0.40659144183E+02  0.00000000000E+00 0. -1.
         11    1    3    3    0    0 -0.27946931553E+00 -0.56520242193E+01 -0.17424477058E+02  0.18320367951E+02  0.51100000000E-03 0. -1.
        -11    1    3    3    0    0  0.98474162103E+01 -0.53449379155E+01 -0.28799402135E+01  0.11568665577E+02  0.51100000000E-03 0.  1.
        -12    1    3    3    0    0  0.12834941382E+02  0.88047822482E+01 -0.13555159659E+02  0.20639822289E+02  0.00000000000E+00 0.  1.
</event>
<event>
 7    1  0.8986500E-014  0.5052886E+02  0.7816164E-02  0.1300439E+00
        -11   -1    0    0    0    0  0.00000000000E+00  0.00000000000E+00  0.45593999997E+02  0.45594000000E+02  0.51100000000E-03 0. -1.
         11   -1    0    0    0    0 -0.00000000000E+00 -0.00000000000E+00 -0.45593999997E+02  0.45594000000E+02  0.51100000000E-03 0.  1.
    9900012    2    1    2    0    0  0.27133492114E+02 -0.36655477883E+01 -0.30058321542E+02  0.50528864141E+02  0.30000013043E+02 0.  0.
         12    1    1    2    0    0 -0.27133492114E+02  0.36655477883E+01  0.30058321542E+02  0.40659135859E+02  0.00000000000E+00 0. -1.
         11    1    3    3    0    0 -0.28507953116E+01  0.56480771059E+00 -0.96466487215E-01  0.29078080581E+01  0.51100000000E-03 0. -1.
        -11    1    3    3    0    0  0.22442549724E+02 -0.10282302774E+01 -0.32074292496E+02  0.39159743807E+02  0.51100000000E-03 0.  1.
         12    1    3    3    0    0  0.75417377013E+01 -0.32021252214E+01  0.21124374413E+01  0.84613122760E+01  0.00000000000E+00 0. -1.
</event>
<event>
 7    1  0.8986500E-014  0.5052885E+02  0.7816164E-02  0.1300439E+00
        -11   -1    0    0    0    0  0.00000000000E+00  0.00000000000E+00  0.45593999997E+02  0.45594000000E+02  0.51100000000E-03 0. -1.
         11   -1    0    0    0    0 -0.00000000000E+00 -0.00000000000E+00 -0.45593999997E+02  0.45594000000E+02  0.51100000000E-03 0.  1.
    9900012    2    1    2    0    0  0.18471770779E+02  0.61452406848E+01 -0.35695881340E+02  0.50528852893E+02  0.29999978855E+02 0.  0.
         12    1    1    2    0    0 -0.18471770779E+02 -0.61452406848E+01  0.35695881340E+02  0.40659147107E+02  0.00000000000E+00 0. -1.
         11    1    3    3    0    0  0.71587203527E-01  0.39290592894E+01 -0.45921471155E+01  0.60440422747E+01  0.51100000000E-03 0. -1.
        -11    1    3    3    0    0 -0.37330808303E+01  0.42144504293E+01  0.71328320735E+00  0.56750557796E+01  0.51100000000E-03 0.  1.
        -12    1    3    3    0    0  0.22133264406E+02 -0.19982690339E+01 -0.31817017432E+02  0.38809754839E+02  0.00000000000E+00 0.  1.
</event>
<event>
 7    1  0.8986500E-014  0.5052886E+02  0.7816164E-02  0.1300439E+00
        -11   -1    0    0    0    0  0.00000000000E+00  0.00000000000E+00  0.45593999997E+02  0.45594000000E+02  0.51100000000E-03 0. -1.
         11   -1    0    0    0    0 -0.00000000000E+00 -0.00000000000E+00 -0.45593999997E+02  0.45594000000E+02  0.51100000000E-03 0.  1.
    9900012    2    1    2    0    0  0.92493047709E+01  0.10723557101E+01  0.39578604745E+02  0.50528861555E+02  0.30000005182E+02 0.  0.
        -12    1    1    2    0    0 -0.92493047709E+01 -0.10723557101E+01 -0.39578604745E+02  0.40659138445E+02  0.00000000000E+00 0.  1.
         11    1    3    3    0    0 -0.36144781623E+01  0.79799431579E+01  0.11591757243E+02  0.14529720624E+02  0.51100000000E-03 0. -1.
        -11    1    3    3    0    0 -0.13989831925E+01  0.63446440775E+00  0.15555949777E+02  0.15631611330E+02  0.51100000000E-03 0.  1.
        -12    1    3    3    0    0  0.14262766126E+02 -0.75420518555E+01  0.12430897726E+02  0.20367529600E+02  0.00000000000E+00 0.  1.
</event>
<event>
 7    1  0.8986500E-014  0.5052887E+02  0.7816164E-02  0.1300439E+00
        -11   -1    0    0    0    0  0.00000000000E+00  0.00000000000E+00  0.45593999997E+02  0.45594000000E+02  0.51100000000E-03 0. -1.
         11   -1    0    0    0    0 -0.00000000000E+00 -0.00000000000E+00 -0.45593999997E+02  0.45594000000E+02  0.51100000000E-03 0.  1.
    9900012    2    1    2    0    0 -0.62865705443E+01 -0.97400212052E+01 -0.38971470944E+02  0.50528873966E+02  0.30000042907E+02 0.  0.
         12    1    1    2    0    0  0.62865705443E+01  0.97400212052E+01  0.38971470944E+02  0.40659126034E+02  0.00000000000E+00 0. -1.
         11    1    3    3    0    0  0.82846554946E+01 -0.42101056775E+01 -0.18890686994E+02  0.21052756633E+02  0.51100000000E-03 0. -1.
        -11    1    3    3    0    0 -0.46110760299E+01 -0.96842190619E+01 -0.89106231458E+01  0.13944365389E+02  0.51100000000E-03 0.  1.
         12    1    3    3    0    0 -0.99601500091E+01  0.41543035343E+01 -0.11170160804E+02  0.15531751944E+02  0.00000000000E+00 0. -1.
</event>
<event>
 7    1  0.9294920E-014  0.5052889E+02  0.7816164E-02  0.1300439E+00
        -11   -1    0    0    0    0  0.00000000000E+00  0.00000000000E+00  0.45593999997E+02  0.45594000000E+02  0.51100000000E-03 0. -1.
         11   -1    0    0    0    0 -0.00000000000E+00 -0.00000000000E+00 -0.45593999997E+02  0.45594000000E+02  0.51100000000E-03 0.  1.
    9900012    2    1    2    0    0  0.16878248814E+02 -0.16672376314E+02  0.33019997059E+02  0.50528885145E+02  0.30000076887E+02 0.  0.
        -12    1    1    2    0    0 -0.16878248814E+02  0.16672376314E+02 -0.33019997059E+02  0.40659114855E+02  0.00000000000E+00 0.  1.
         11    1    3    3    0    0  0.82399268058E+00  0.30934924783E+01  0.65821597553E+01  0.73193911602E+01  0.51100000000E-03 0. -1.
        -11    1    3    3    0    0 -0.22104133872E+01 -0.10793494861E+02  0.16527490644E+01  0.11140782665E+02  0.51100000000E-03 0.  1.
         12    1    3    3    0    0  0.18264669521E+02 -0.89723739316E+01  0.24785088240E+02  0.32068711320E+02  0.00000000000E+00 0. -1.
</event>
<event>
 7    1  0.8986500E-014  0.5052887E+02  0.7816164E-02  0.1300439E+00
        -11   -1    0    0    0    0  0.00000000000E+00  0.00000000000E+00  0.45593999997E+02  0.45594000000E+02  0.51100000000E-03 0. -1.
         11   -1    0    0    0    0 -0.00000000000E+00 -0.00000000000E+00 -0.45593999997E+02  0.45594000000E+02  0.51100000000E-03 0.  1.
    9900012    2    1    2    0    0  0.94756323081E+01  0.48077516714E+01  0.39246183356E+02  0.50528868286E+02  0.30000025642E+02 0.  0.
        -12    1    1    2    0    0 -0.94756323081E+01 -0.48077516714E+01 -0.39246183356E+02  0.40659131714E+02  0.00000000000E+00 0.  1.
         11    1    3    3    0    0  0.51370138847E+01  0.40851445640E+01  0.39944753166E+02  0.40480373313E+02  0.51100000000E-03 0. -1.
        -11    1    3    3    0    0  0.29119106038E+01  0.46330520515E+01  0.98182576410E+00  0.55595302651E+01  0.51100000000E-03 0.  1.
        -12    1    3    3    0    0  0.14267078195E+01 -0.39104449441E+01 -0.16803955747E+01  0.44889647081E+01  0.00000000000E+00 0.  1.
</event>
<event>
 7    1  0.8986500E-014  0.5052886E+02  0.7816164E-02  0.1300439E+00
        -11   -1    0    0    0    0  0.00000000000E+00  0.00000000000E+00  0.45593999997E+02  0.45594000000E+02  0.51100000000E-03 0. -1.
         11   -1    0    0    0    0 -0.00000000000E+00 -0.00000000000E+00 -0.45593999997E+02  0.45594000000E+02  0.51100000000E-03 0.  1.
    9900012    2    1    2    0    0  0.14091287924E+01  0.35408588924E+01 -0.40480146762E+02  0.50528860713E+02  0.30000002625E+02 0.  0.
         12    1    1    2    0    0 -0.14091287924E+01 -0.35408588924E+01  0.40480146762E+02  0.40659139287E+02  0.00000000000E+00 0. -1.
         11    1    3    3    0    0  0.11883588930E+00  0.29584823409E+01  0.69603499072E+00  0.30415793101E+01  0.51100000000E-03 0. -1.
        -11    1    3    3    0    0 -0.20144540824E+01  0.87708817611E+01 -0.50953161752E+01  0.10341597522E+02  0.51100000000E-03 0.  1.
        -12    1    3    3    0    0  0.33047469855E+01 -0.81885052096E+01 -0.36080865578E+02  0.37145683882E+02  0.00000000000E+00 0.  1.
</event>
<event>
 7    1  0.8986500E-014  0.5052884E+02  0.7816164E-02  0.1300439E+00
        -11   -1    0    0    0    0  0.00000000000E+00  0.00000000000E+00  0.45593999997E+02  0.45594000000E+02  0.51100000000E-03 0. -1.
         11   -1    0    0    0    0 -0.00000000000E+00 -0.00000000000E+00 -0.45593999997E+02  0.45594000000E+02  0.51100000000E-03 0.  1.
    9900012    2    1    2    0    0  0.19271973354E+02  0.19643410375E+02 -0.29931499477E+02  0.50528841264E+02  0.29999943507E+02 0.  0.
         12    1    1    2    0    0 -0.19271973354E+02 -0.19643410375E+02  0.29931499477E+02  0.40659158736E+02  0.00000000000E+00 0. -1.
         11    1    3    3    0    0  0.13086986291E+02  0.44949127066E+01 -0.17661038926E+01  0.13949644212E+02  0.51100000000E-03 0. -1.
        -11    1    3    3    0    0  0.97387570054E+01  0.16042916539E+02 -0.18989911077E+02  0.26698975299E+02  0.51100000000E-03 0.  1.
         12    1    3    3    0    0 -0.35537699427E+01 -0.89441887039E+00 -0.91754845081E+01  0.98802217526E+01  0.00000000000E+00 0. -1.
</event>
<event>
 7    1  0.8986500E-014  0.5052886E+02  0.7816164E-02  0.1300439E+00
        -11   -1    0    0    0    0  0.00000000000E+00  0.00000000000E+00  0.45593999997E+02  0.45594000000E+02  0.51100000000E-03 0. -1.
         11   -1    0    0    0    0 -0.00000000000E+00 -0.00000000000E+00 -0.45593999997E+02  0.45594000000E+02  0.51100000000E-03 0.  1.
    9900012    2    1    2    0    0  0.67803474391E+00 -0.25314936465E+02 -0.31809747938E+02  0.50528858307E+02  0.29999995309E+02 0.  0.
         12    1    1    2    0    0 -0.67803474391E+00  0.25314936465E+02  0.31809747938E+02  0.40659141693E+02  0.00000000000E+00 0. -1.
         11    1    3    3    0    0 -0.60690529757E+01 -0.85836067922E+01 -0.21194936960E+00  0.10514591403E+02  0.51100000000E-03 0. -1.
        -11    1    3    3    0    0 -0.53502716588E+01 -0.67100001193E+01 -0.84849355342E+01  0.12068290670E+02  0.51100000000E-03 0.  1.
        -12    1    3    3    0    0  0.12097359378E+02 -0.10021329554E+02 -0.23112863034E+02  0.27945976233E+02  0.00000000000E+00 0.  1.
</event>
<event>
 7    1  0.8986500E-014  0.5052886E+02  0.7816164E-02  0.1300439E+00
        -11   -1    0    0    0    0  0.00000000000E+00  0.00000000000E+00  0.45593999997E+02  0.45594000000E+02  0.51100000000E-03 0. -1.
         11   -1    0    0    0    0 -0.00000000000E+00 -0.00000000000E+00 -0.45593999997E+02  0.45594000000E+02  0.51100000000E-03 0.  1.
    9900012    2    1    2    0    0 -0.24939539316E+02  0.53383323422E+01 -0.31665238904E+02  0.50528858736E+02  0.29999996613E+02 0.  0.
         12    1    1    2    0    0  0.24939539316E+02 -0.53383323422E+01  0.31665238904E+02  0.40659141264E+02  0.00000000000E+00 0. -1.
         11    1    3    3    0    0 -0.50511505116E+01  0.90904110283E+01 -0.40828349939E+01  0.11172252951E+02  0.51100000000E-03 0. -1.
        -11    1    3    3    0    0 -0.14727376445E+02  0.48851876015E+01 -0.82759098845E+01  0.17585544050E+02  0.51100000000E-03 0.  1.
         12    1    3    3    0    0 -0.51610123592E+01 -0.86372662875E+01 -0.19306494026E+02  0.21771061735E+02  0.00000000000E+00 0. -1.
</event>
<event>
 7    1  0.8986500E-014  0.5052886E+02  0.7816164E-02  0.1300439E+00
        -11   -1    0    0    0    0  0.00000000000E+00  0.00000000000E+00  0.45593999997E+02  0.45594000000E+02  0.51100000000E-03 0. -1.
         11   -1    0    0    0    0 -0.00000000000E+00 -0.00000000000E+00 -0.45593999997E+02  0.45594000000E+02  0.51100000000E-03 0.  1.
    9900012    2    1    2    0    0 -0.83074665677E+01 -0.20663898054E+01  0.39747722643E+02  0.50528862984E+02  0.30000009525E+02 0.  0.
        -12    1    1    2    0    0  0.83074665677E+01  0.20663898054E+01 -0.39747722643E+02  0.40659137016E+02  0.00000000000E+00 0.  1.
         11    1    3    3    0    0 -0.36345187029E+01 -0.79923085266E+00  0.13909732765E+01  0.39728205440E+01  0.51100000000E-03 0. -1.
        -11    1    3    3    0    0  0.98776185793E+00 -0.12927847724E+02  0.14860322649E+02  0.19721412469E+02  0.51100000000E-03 0.  1.
         12    1    3    3    0    0 -0.56607097227E+01  0.11660688771E+02  0.23496426717E+02  0.26834629971E+02  0.00000000000E+00 0. -1.
</event>
<event>
 7    1  0.8986500E-014  0.5052884E+02  0.7816164E-02  0.1300439E+00
        -11   -1    0    0    0    0  0.00000000000E+00  0.00000000000E+00  0.45593999997E+02  0.45594000000E+02  0.51100000000E-03 0.  1.
         11   -1    0    0    0    0 -0.00000000000E+00 -0.00000000000E+00 -0.45593999997E+02  0.45594000000E+02  0.51100000000E-03 0. -1.
    9900012    2    1    2    0    0 -0.14074691647E+02 -0.31665282120E+02 -0.21269241251E+02  0.50528835472E+02  0.29999925900E+02 0.  0.
         12    1    1    2    0    0  0.14074691647E+02  0.31665282120E+02  0.21269241251E+02  0.40659164528E+02  0.00000000000E+00 0. -1.
         11    1    3    3    0    0  0.63057195522E+00 -0.11312484610E+02 -0.15065773780E+01  0.11429772732E+02  0.51100000000E-03 0. -1.
        -11    1    3    3    0    0  0.22003261950E+01 -0.66318018401E+01  0.29961563217E+01  0.76025774561E+01  0.51100000000E-03 0.  1.
        -12    1    3    3    0    0 -0.16905589797E+02 -0.13720995670E+02 -0.22758820195E+02  0.31496485284E+02  0.00000000000E+00 0.  1.
</event>
<event>
 7    1  0.9093046E-014  0.5052886E+02  0.7816164E-02  0.1300439E+00
        -11   -1    0    0    0    0  0.00000000000E+00  0.00000000000E+00  0.45593999997E+02  0.45594000000E+02  0.51100000000E-03 0. -1.
         11   -1    0    0    0    0 -0.00000000000E+00 -0.00000000000E+00 -0.45593999997E+02  0.45594000000E+02  0.51100000000E-03 0.  1.
    9900012    2    1    2    0    0 -0.40883345871E+01 -0.33427028141E+02  0.22783434471E+02  0.50528861097E+02  0.30000003790E+02 0.  0.
        -12    1    1    2    0    0  0.40883345871E+01  0.33427028141E+02 -0.22783434471E+02  0.40659138903E+02  0.00000000000E+00 0.  1.
         11    1    3    3    0    0  0.62001487005E+01 -0.11404193885E+02  0.13009316841E+02  0.18377698632E+02  0.51100000000E-03 0. -1.
        -11    1    3    3    0    0  0.42131073605E+01 -0.39918962446E+00 -0.28003982832E+00  0.42412319618E+01  0.51100000000E-03 0.  1.
         12    1    3    3    0    0 -0.14501590648E+02 -0.21623644632E+02  0.10054157458E+02  0.27909930503E+02  0.00000000000E+00 0. -1.
</event>
<event>
 7    1  0.8986500E-014  0.5052893E+02  0.7816164E-02  0.1300439E+00
        -11   -1    0    0    0    0  0.00000000000E+00  0.00000000000E+00  0.45593999997E+02  0.45594000000E+02  0.51100000000E-03 0. -1.
         11   -1    0    0    0    0 -0.00000000000E+00 -0.00000000000E+00 -0.45593999997E+02  0.45594000000E+02  0.51100000000E-03 0.  1.
    9900012    2    1    2    0    0 -0.24584994587E+02 -0.28482053415E+02  0.15411384718E+02  0.50528928386E+02  0.30000208323E+02 0.  0.
        -12    1    1    2    0    0  0.24584994587E+02  0.28482053415E+02 -0.15411384718E+02  0.40659071614E+02  0.00000000000E+00 0.  1.
         11    1    3    3    0    0 -0.63375406749E+01 -0.21523593741E+01 -0.19968047180E+00  0.66960395185E+01  0.51100000000E-03 0.  1.
        -11    1    3    3    0    0 -0.71268705362E+01  0.13180264339E+01  0.11719378333E+02  0.13779452315E+02  0.51100000000E-03 0. -1.
         12    1    3    3    0    0 -0.11120583376E+02 -0.27647720475E+02  0.38916868565E+01  0.30053436553E+02  0.00000000000E+00 0. -1.
</event>
<event>
 7    1  0.8986500E-014  0.5052900E+02  0.7816164E-02  0.1300438E+00
        -11   -1    0    0    0    0  0.00000000000E+00  0.00000000000E+00  0.45593999997E+02  0.45594000000E+02  0.51100000000E-03 0. -1.
         11   -1    0    0    0    0 -0.00000000000E+00 -0.00000000000E+00 -0.45593999997E+02  0.45594000000E+02  0.51100000000E-03 0.  1.
    9900012    2    1    2    0    0  0.74945812513E+01  0.18175531433E+01 -0.39920951443E+02  0.50528995933E+02  0.30000413636E+02 0.  0.
         12    1    1    2    0    0 -0.74945812513E+01 -0.18175531433E+01  0.39920951443E+02  0.40659004067E+02  0.00000000000E+00 0. -1.
         11    1    3    3    0    0  0.10505812138E+01  0.31739892812E+01 -0.45883704862E+00  0.33746793244E+01  0.51100000000E-03 0. -1.
        -11    1    3    3    0    0  0.40338593429E+01  0.58538693670E+01 -0.14674904633E+00  0.71106499919E+01  0.51100000000E-03 0.  1.
        -12    1    3    3    0    0  0.24101406946E+01 -0.72103055049E+01 -0.39315365348E+02  0.40043666617E+02  0.00000000000E+00 0.  1.
</event>
<event>
 7    1  0.8986500E-014  0.5052886E+02  0.7816164E-02  0.1300439E+00
        -11   -1    0    0    0    0  0.00000000000E+00  0.00000000000E+00  0.45593999997E+02  0.45594000000E+02  0.51100000000E-03 0. -1.
         11   -1    0    0    0    0 -0.00000000000E+00 -0.00000000000E+00 -0.45593999997E+02  0.45594000000E+02  0.51100000000E-03 0.  1.
    9900012    2    1    2    0    0 -0.33528457415E+02  0.88224200997E+01 -0.21240832087E+02  0.50528862026E+02  0.30000006613E+02 0.  0.
         12    1    1    2    0    0  0.33528457415E+02 -0.88224200997E+01  0.21240832087E+02  0.40659137974E+02  0.00000000000E+00 0. -1.
         11    1    3    3    0    0 -0.13931592028E+02 -0.20028362112E+01  0.46972834994E+01  0.14837960839E+02  0.51100000000E-03 0. -1.
        -11    1    3    3    0    0 -0.13622109540E+01  0.30427769746E+01 -0.39605388492E+00  0.33572264358E+01  0.51100000000E-03 0.  1.
        -12    1    3    3    0    0 -0.18234654433E+02  0.77824793364E+01 -0.25542061702E+02  0.32333674751E+02  0.00000000000E+00 0.  1.
</event>
<event>
 7    1  0.8986500E-014  0.5052886E+02  0.7816164E-02  0.1300439E+00
        -11   -1    0    0    0    0  0.00000000000E+00  0.00000000000E+00  0.45593999997E+02  0.45594000000E+02  0.51100000000E-03 0. -1.
         11   -1    0    0    0    0 -0.00000000000E+00 -0.00000000000E+00 -0.45593999997E+02  0.45594000000E+02  0.51100000000E-03 0.  1.
    9900012    2    1    2    0    0 -0.47716986610E+01  0.20666999576E+02 -0.34688204621E+02  0.50528861797E+02  0.30000005917E+02 0.  0.
         12    1    1    2    0    0  0.47716986610E+01 -0.20666999576E+02  0.34688204621E+02  0.40659138203E+02  0.00000000000E+00 0. -1.
         11    1    3    3    0    0 -0.15153107659E+02  0.10035662700E+02 -0.90178888272E+01  0.20289246332E+02  0.51100000000E-03 0. -1.
        -11    1    3    3    0    0  0.28069685707E+01  0.67413857082E+01 -0.14039201787E+02  0.15824807768E+02  0.51100000000E-03 0.  1.
         12    1    3    3    0    0  0.75744404277E+01  0.38899511685E+01 -0.11631114007E+02  0.14414807696E+02  0.00000000000E+00 0. -1.
</event>
<event>
 7    1  0.8986500E-014  0.5052886E+02  0.7816164E-02  0.1300439E+00
        -11   -1    0    0    0    0  0.00000000000E+00  0.00000000000E+00  0.45593999997E+02  0.45594000000E+02  0.51100000000E-03 0. -1.
         11   -1    0    0    0    0 -0.00000000000E+00 -0.00000000000E+00 -0.45593999997E+02  0.45594000000E+02  0.51100000000E-03 0.  1.
    9900012    2    1    2    0    0 -0.88384756679E+01 -0.17679343748E+02 -0.35531502474E+02  0.50528861844E+02  0.30000006062E+02 0.  0.
         12    1    1    2    0    0  0.88384756679E+01  0.17679343748E+02  0.35531502474E+02  0.40659138156E+02  0.00000000000E+00 0. -1.
         11    1    3    3    0    0  0.29724283029E+01 -0.54433588404E+01 -0.80427727343E+00  0.62539865426E+01  0.51100000000E-03 0. -1.
        -11    1    3    3    0    0 -0.42191353329E+00 -0.83642655121E+01 -0.96086287004E+00  0.84298402299E+01  0.51100000000E-03 0.  1.
        -12    1    3    3    0    0 -0.11388990437E+02 -0.38717193960E+01 -0.33766362330E+02  0.35845035072E+02  0.00000000000E+00 0.  1.
</event>
<event>
 7    1  0.8986500E-014  0.5052886E+02  0.7816164E-02  0.1300439E+00
        -11   -1    0    0    0    0  0.00000000000E+00  0.00000000000E+00  0.45593999997E+02  0.45594000000E+02  0.51100000000E-03 0.  1.
         11   -1    0    0    0    0 -0.00000000000E+00 -0.00000000000E+00 -0.45593999997E+02  0.45594000000E+02  0.51100000000E-03 0. -1.
    9900012    2    1    2    0    0  0.49915803756E+01 -0.31965180308E+02 -0.24626762340E+02  0.50528855270E+02  0.29999986080E+02 0.  0.
         12    1    1    2    0    0 -0.49915803756E+01  0.31965180308E+02  0.24626762340E+02  0.40659144730E+02  0.00000000000E+00 0. -1.
         11    1    3    3    0    0  0.14390573112E+01 -0.16510175953E+02 -0.41918593154E+01  0.17094691595E+02  0.51100000000E-03 0. -1.
        -11    1    3    3    0    0  0.10488722119E+01 -0.20592778859E+02 -0.17299192960E+02  0.26915139817E+02  0.51100000000E-03 0.  1.
         12    1    3    3    0    0  0.25036508526E+01  0.51377745043E+01 -0.31357100648E+01  0.65190238578E+01  0.00000000000E+00 0. -1.
</event>
<event>
 7    1  0.8986500E-014  0.5052886E+02  0.7816164E-02  0.1300439E+00
        -11   -1    0    0    0    0  0.00000000000E+00  0.00000000000E+00  0.45593999997E+02  0.45594000000E+02  0.51100000000E-03 0. -1.
         11   -1    0    0    0    0 -0.00000000000E+00 -0.00000000000E+00 -0.45593999997E+02  0.45594000000E+02  0.51100000000E-03 0.  1.
    9900012    2    1    2    0    0 -0.11949820043E+02  0.25388056183E+02  0.29424720838E+02  0.50528858443E+02  0.29999995722E+02 0.  0.
        -12    1    1    2    0    0  0.11949820043E+02 -0.25388056183E+02 -0.29424720838E+02  0.40659141557E+02  0.00000000000E+00 0.  1.
         11    1    3    3    0    0 -0.61384141080E+01  0.53892984855E+01 -0.37414025183E+01  0.89845845197E+01  0.51100000000E-03 0. -1.
        -11    1    3    3    0    0 -0.50461228708E+01  0.27284698635E+01  0.23273931620E+01  0.61906916427E+01  0.51100000000E-03 0.  1.
        -12    1    3    3    0    0 -0.76528306407E+00  0.17270287833E+02  0.30838730195E+02  0.35353582280E+02  0.00000000000E+00 0.  1.
</event>
<event>
 7    1  0.8986500E-014  0.5052890E+02  0.7816164E-02  0.1300439E+00
        -11   -1    0    0    0    0  0.00000000000E+00  0.00000000000E+00  0.45593999997E+02  0.45594000000E+02  0.51100000000E-03 0. -1.
         11   -1    0    0    0    0 -0.00000000000E+00 -0.00000000000E+00 -0.45593999997E+02  0.45594000000E+02  0.51100000000E-03 0.  1.
    9900012    2    1    2    0    0 -0.36773291162E+02  0.77026838179E+01 -0.15542084762E+02  0.50528896719E+02  0.30000112066E+02 0.  0.
         12    1    1    2    0    0  0.36773291162E+02 -0.77026838179E+01  0.15542084762E+02  0.40659103281E+02  0.00000000000E+00 0. -1.
         11    1    3    3    0    0 -0.20458353491E+02  0.39732063888E+01  0.67159816614E+01  0.21896004350E+02  0.51100000000E-03 0. -1.
        -11    1    3    3    0    0  0.15144066108E+00  0.50874599633E+00 -0.31904101322E+01  0.32342655790E+01  0.51100000000E-03 0.  1.
         12    1    3    3    0    0 -0.16466378333E+02  0.32207314327E+01 -0.19067656292E+02  0.25398626790E+02  0.00000000000E+00 0. -1.
</event>
<event>
 7    1  0.8986500E-014  0.5052885E+02  0.7816164E-02  0.1300439E+00
        -11   -1    0    0    0    0  0.00000000000E+00  0.00000000000E+00  0.45593999997E+02  0.45594000000E+02  0.51100000000E-03 0. -1.
         11   -1    0    0    0    0 -0.00000000000E+00 -0.00000000000E+00 -0.45593999997E+02  0.45594000000E+02  0.51100000000E-03 0.  1.
    9900012    2    1    2    0    0  0.90946612562E-01  0.15593646292E+02  0.37549913604E+02  0.50528854809E+02  0.29999984679E+02 0.  0.
        -12    1    1    2    0    0 -0.90946612562E-01 -0.15593646292E+02 -0.37549913604E+02  0.40659145191E+02  0.00000000000E+00 0.  1.
         11    1    3    3    0    0 -0.33412492008E+01  0.77112229046E+01  0.12594534782E+01  0.84978307957E+01  0.51100000000E-03 0. -1.
        -11    1    3    3    0    0  0.44267750789E+00  0.13213246898E+02  0.15558718369E+02  0.20417139234E+02  0.51100000000E-03 0.  1.
        -12    1    3    3    0    0  0.29895183055E+01 -0.53308235105E+01  0.20731741757E+02  0.21613884780E+02  0.00000000000E+00 0.  1.
</event>
<event>
 7    1  0.8986500E-014  0.5052886E+02  0.7816164E-02  0.1300439E+00
        -11   -1    0    0    0    0  0.00000000000E+00  0.00000000000E+00  0.45593999997E+02  0.45594000000E+02  0.51100000000E-03 0. -1.
         11   -1    0    0    0    0 -0.00000000000E+00 -0.00000000000E+00 -0.45593999997E+02  0.45594000000E+02  0.51100000000E-03 0.  1.
    9900012    2    1    2    0    0 -0.18550062436E+02  0.10677622846E+02  0.34569478698E+02  0.50528864452E+02  0.30000013989E+02 0.  0.
        -12    1    1    2    0    0  0.18550062436E+02 -0.10677622846E+02 -0.34569478698E+02  0.40659135548E+02  0.00000000000E+00 0.  1.
         11    1    3    3    0    0 -0.71543928884E+01  0.13178292107E+02  0.13656545167E+01  0.15057148899E+02  0.51100000000E-03 0. -1.
        -11    1    3    3    0    0 -0.65536043643E-01 -0.88059123430E+00  0.12539176422E+01  0.15336380308E+01  0.51100000000E-03 0.  1.
         12    1    3    3    0    0 -0.11330133504E+02 -0.16200780268E+01  0.31949906539E+02  0.33938077522E+02  0.00000000000E+00 0. -1.
</event>
<event>
 7    1  0.8986500E-014  0.5052882E+02  0.7816164E-02  0.1300439E+00
        -11   -1    0    0    0    0  0.00000000000E+00  0.00000000000E+00  0.45593999997E+02  0.45594000000E+02  0.51100000000E-03 0. -1.
         11   -1    0    0    0    0 -0.00000000000E+00 -0.00000000000E+00 -0.45593999997E+02  0.45594000000E+02  0.51100000000E-03 0.  1.
    9900012    2    1    2    0    0 -0.17183742443E+02 -0.21331006294E+02  0.30047895818E+02  0.50528820508E+02  0.29999880416E+02 0.  0.
        -12    1    1    2    0    0  0.17183742443E+02  0.21331006294E+02 -0.30047895818E+02  0.40659179492E+02  0.00000000000E+00 0.  1.
         11    1    3    3    0    0 -0.13016316902E+01  0.57573012410E+01  0.54349374273E+01  0.80236717117E+01  0.51100000000E-03 0. -1.
        -11    1    3    3    0    0  0.26410679879E+01 -0.14215980153E+01  0.22560032479E+01  0.37530963150E+01  0.51100000000E-03 0.  1.
         12    1    3    3    0    0 -0.18523178741E+02 -0.25666709520E+02  0.22356955143E+02  0.38752052481E+02  0.00000000000E+00 0. -1.
</event>
<event>
 7    1  0.8986500E-014  0.5052886E+02  0.7816164E-02  0.1300439E+00
        -11   -1    0    0    0    0  0.00000000000E+00  0.00000000000E+00  0.45593999997E+02  0.45594000000E+02  0.51100000000E-03 0.  1.
         11   -1    0    0    0    0 -0.00000000000E+00 -0.00000000000E+00 -0.45593999997E+02  0.45594000000E+02  0.51100000000E-03 0. -1.
    9900012    2    1    2    0    0 -0.33110602316E+02 -0.22920380141E+02 -0.56133688023E+01  0.50528859320E+02  0.29999998388E+02 0.  0.
         12    1    1    2    0    0  0.33110602316E+02  0.22920380141E+02  0.56133688023E+01  0.40659140680E+02  0.00000000000E+00 0. -1.
         11    1    3    3    0    0 -0.77044632695E+01 -0.10360785611E+02 -0.82547822448E+01  0.15324688020E+02  0.51100000000E-03 0. -1.
        -11    1    3    3    0    0 -0.16853478930E+02 -0.17480112122E+02 -0.18723955447E+01  0.24353643201E+02  0.51100000000E-03 0.  1.
         12    1    3    3    0    0 -0.85526601163E+01  0.49205175918E+01  0.45138089872E+01  0.10850528098E+02  0.00000000000E+00 0. -1.
</event>
<event>
 7    1  0.8986500E-014  0.5052887E+02  0.7816164E-02  0.1300439E+00
        -11   -1    0    0    0    0  0.00000000000E+00  0.00000000000E+00  0.45593999997E+02  0.45594000000E+02  0.51100000000E-03 0. -1.
         11   -1    0    0    0    0 -0.00000000000E+00 -0.00000000000E+00 -0.45593999997E+02  0.45594000000E+02  0.51100000000E-03 0.  1.
    9900012    2    1    2    0    0  0.40759441929E+01 -0.19604761378E+02 -0.35386507072E+02  0.50528869752E+02  0.30000030100E+02 0.  0.
         12    1    1    2    0    0 -0.40759441929E+01  0.19604761378E+02  0.35386507072E+02  0.40659130248E+02  0.00000000000E+00 0. -1.
         11    1    3    3    0    0  0.11189541587E+02 -0.64565167539E+01 -0.14251448172E+02  0.19235285930E+02  0.51100000000E-03 0. -1.
        -11    1    3    3    0    0 -0.10753786919E+02 -0.53906559855E+01 -0.18957653425E+02  0.22452076267E+02  0.51100000000E-03 0.  1.
         12    1    3    3    0    0  0.36401895250E+01 -0.77575886387E+01 -0.21774054746E+01  0.88415075562E+01  0.00000000000E+00 0. -1.
</event>
<event>
 7    1  0.8986500E-014  0.5052885E+02  0.7816164E-02  0.1300439E+00
        -11   -1    0    0    0    0  0.00000000000E+00  0.00000000000E+00  0.45593999997E+02  0.45594000000E+02  0.51100000000E-03 0. -1.
         11   -1    0    0    0    0 -0.00000000000E+00 -0.00000000000E+00 -0.45593999997E+02  0.45594000000E+02  0.51100000000E-03 0.  1.
    9900012    2    1    2    0    0  0.29682269377E+02  0.19933342839E+00 -0.27786503421E+02  0.50528848244E+02  0.29999964722E+02 0.  0.
         12    1    1    2    0    0 -0.29682269377E+02 -0.19933342839E+00  0.27786503421E+02  0.40659151756E+02  0.00000000000E+00 0. -1.
         11    1    3    3    0    0  0.90662909456E+01  0.43036297630E+00 -0.61523086321E+01  0.10965114936E+02  0.51100000000E-03 0. -1.
        -11    1    3    3    0    0  0.21694188865E+02 -0.95733843477E+01 -0.15875671803E+02  0.28536371070E+02  0.51100000000E-03 0.  1.
         12    1    3    3    0    0 -0.10782104336E+01  0.93423547998E+01 -0.57585229856E+01  0.11027362238E+02  0.00000000000E+00 0. -1.
</event>
<event>
 7    1  0.8986500E-014  0.5052885E+02  0.7816164E-02  0.1300439E+00
        -11   -1    0    0    0    0  0.00000000000E+00  0.00000000000E+00  0.45593999997E+02  0.45594000000E+02  0.51100000000E-03 0. -1.
         11   -1    0    0    0    0 -0.00000000000E+00 -0.00000000000E+00 -0.45593999997E+02  0.45594000000E+02  0.51100000000E-03 0.  1.
    9900012    2    1    2    0    0  0.23488131613E+02  0.13605714067E+02 -0.30271410653E+02  0.50528854844E+02  0.29999984783E+02 0.  0.
         12    1    1    2    0    0 -0.23488131613E+02 -0.13605714067E+02  0.30271410653E+02  0.40659145156E+02  0.00000000000E+00 0. -1.
         11    1    3    3    0    0  0.50579830772E+01  0.25681520698E+01 -0.11195541700E+02  0.12550647477E+02  0.51100000000E-03 0.  1.
        -11    1    3    3    0    0  0.11979132205E+02  0.12383893241E+02  0.58778006273E+00  0.17239660839E+02  0.51100000000E-03 0. -1.
         12    1    3    3    0    0  0.64510163308E+01 -0.13463312431E+01 -0.19663649015E+02  0.20738546528E+02  0.00000000000E+00 0. -1.
</event>
<event>
 7    1  0.8986500E-014  0.5052887E+02  0.7816164E-02  0.1300439E+00
        -11   -1    0    0    0    0  0.00000000000E+00  0.00000000000E+00  0.45593999997E+02  0.45594000000E+02  0.51100000000E-03 0. -1.
         11   -1    0    0    0    0 -0.00000000000E+00 -0.00000000000E+00 -0.45593999997E+02  0.45594000000E+02  0.51100000000E-03 0.  1.
    9900012    2    1    2    0    0  0.39863233308E+01 -0.30176745695E+02 -0.26956221090E+02  0.50528872981E+02  0.30000039914E+02 0.  0.
         12    1    1    2    0    0 -0.39863233308E+01  0.30176745695E+02  0.26956221090E+02  0.40659127019E+02  0.00000000000E+00 0. -1.
         11    1    3    3    0    0  0.62367582682E+01  0.13458432769E+00 -0.64218072422E+01  0.89529255081E+01  0.51100000000E-03 0. -1.
        -11    1    3    3    0    0  0.44462250174E+01 -0.19645852462E+00 -0.60072107961E+01  0.74762353272E+01  0.51100000000E-03 0.  1.
         12    1    3    3    0    0 -0.66966599548E+01 -0.30114871499E+02 -0.14527203052E+02  0.34099712146E+02  0.00000000000E+00 0. -1.
</event>
<event>
 7    1  0.8986500E-014  0.5052886E+02  0.7816164E-02  0.1300439E+00
        -11   -1    0    0    0    0  0.00000000000E+00  0.00000000000E+00  0.45593999997E+02  0.45594000000E+02  0.51100000000E-03 0. -1.
         11   -1    0    0    0    0 -0.00000000000E+00 -0.00000000000E+00 -0.45593999997E+02  0.45594000000E+02  0.51100000000E-03 0.  1.
    9900012    2    1    2    0    0  0.40006144552E+00  0.50472935978E+01 -0.40342659563E+02  0.50528863235E+02  0.30000010289E+02 0.  0.
         12    1    1    2    0    0 -0.40006144552E+00 -0.50472935978E+01  0.40342659563E+02  0.40659136765E+02  0.00000000000E+00 0. -1.
         11    1    3    3    0    0  0.97641786693E+01  0.10248144445E+02 -0.27778928790E+02  0.31177436307E+02  0.51100000000E-03 0. -1.
        -11    1    3    3    0    0  0.27067215007E+00  0.20480252475E+01 -0.18973219035E+00  0.20745287157E+01  0.51100000000E-03 0.  1.
        -12    1    3    3    0    0 -0.96347893738E+01 -0.72488760950E+01 -0.12373998583E+02  0.17276898213E+02  0.00000000000E+00 0.  1.
</event>
<event>
 7    1  0.8986500E-014  0.5052882E+02  0.7816164E-02  0.1300439E+00
        -11   -1    0    0    0    0  0.00000000000E+00  0.00000000000E+00  0.45593999997E+02  0.45594000000E+02  0.51100000000E-03 0. -1.
         11   -1    0    0    0    0 -0.00000000000E+00 -0.00000000000E+00 -0.45593999997E+02  0.45594000000E+02  0.51100000000E-03 0.  1.
    9900012    2    1    2    0    0 -0.29636719408E+02 -0.90840528680E+01 -0.26311848479E+02  0.50528824847E+02  0.29999893604E+02 0.  0.
         12    1    1    2    0    0  0.29636719408E+02  0.90840528680E+01  0.26311848479E+02  0.40659175153E+02  0.00000000000E+00 0. -1.
         11    1    3    3    0    0 -0.15692326677E+02 -0.87426912121E+01 -0.22600576933E+01  0.18105016631E+02  0.51100000000E-03 0. -1.
        -11    1    3    3    0    0 -0.14443287531E+02 -0.62722574562E+01 -0.16490019218E+02  0.22800668901E+02  0.51100000000E-03 0.  1.
         12    1    3    3    0    0  0.49889479977E+00  0.59308958003E+01 -0.75617715682E+01  0.96231393145E+01  0.00000000000E+00 0. -1.
</event>
<event>
 7    1  0.8986500E-014  0.5052887E+02  0.7816164E-02  0.1300439E+00
        -11   -1    0    0    0    0  0.00000000000E+00  0.00000000000E+00  0.45593999997E+02  0.45594000000E+02  0.51100000000E-03 0. -1.
         11   -1    0    0    0    0 -0.00000000000E+00 -0.00000000000E+00 -0.45593999997E+02  0.45594000000E+02  0.51100000000E-03 0.  1.
    9900012    2    1    2    0    0 -0.33977684619E+02  0.28013453199E+01  0.22154784324E+02  0.50528867495E+02  0.30000023237E+02 0.  0.
        -12    1    1    2    0    0  0.33977684619E+02 -0.28013453199E+01 -0.22154784324E+02  0.40659132505E+02  0.00000000000E+00 0.  1.
         11    1    3    3    0    0 -0.47144217079E+00  0.45079097457E+01  0.61095830435E+00  0.45734864498E+01  0.51100000000E-03 0. -1.
        -11    1    3    3    0    0 -0.60774039373E+00  0.25502110850E+01  0.10758583976E+02  0.11073393987E+02  0.51100000000E-03 0.  1.
         12    1    3    3    0    0 -0.32898502054E+02 -0.42567755108E+01  0.10785242043E+02  0.34881987058E+02  0.00000000000E+00 0. -1.
</event>
<event>
 7    1  0.8986500E-014  0.5052884E+02  0.7816164E-02  0.1300439E+00
        -11   -1    0    0    0    0  0.00000000000E+00  0.00000000000E+00  0.45593999997E+02  0.45594000000E+02  0.51100000000E-03 0. -1.
         11   -1    0    0    0    0 -0.00000000000E+00 -0.00000000000E+00 -0.45593999997E+02  0.45594000000E+02  0.51100000000E-03 0.  1.
    9900012    2    1    2    0    0 -0.12223095909E+02  0.21242469491E+00  0.38777801368E+02  0.50528842645E+02  0.29999947704E+02 0.  0.
        -12    1    1    2    0    0  0.12223095909E+02 -0.21242469491E+00 -0.38777801368E+02  0.40659157355E+02  0.00000000000E+00 0.  1.
         11    1    3    3    0    0 -0.11966073680E+02 -0.35385325200E+00  0.11500214744E+01  0.12026415971E+02  0.51100000000E-03 0. -1.
        -11    1    3    3    0    0 -0.29279539474E+01  0.64820459756E+00  0.55060745390E+01  0.62697639994E+01  0.51100000000E-03 0.  1.
         12    1    3    3    0    0  0.26709317186E+01 -0.81926650649E-01  0.32121705355E+02  0.32232662675E+02  0.00000000000E+00 0. -1.
</event>
<event>
 7    1  0.8986500E-014  0.5052885E+02  0.7816164E-02  0.1300439E+00
        -11   -1    0    0    0    0  0.00000000000E+00  0.00000000000E+00  0.45593999997E+02  0.45594000000E+02  0.51100000000E-03 0. -1.
         11   -1    0    0    0    0 -0.00000000000E+00 -0.00000000000E+00 -0.45593999997E+02  0.45594000000E+02  0.51100000000E-03 0.  1.
    9900012    2    1    2    0    0  0.23693175377E+02 -0.32002949622E+02  0.82226125808E+01  0.50528847259E+02  0.29999961727E+02 0.  0.
         12    1    1    2    0    0 -0.23693175377E+02  0.32002949622E+02 -0.82226125808E+01  0.40659152741E+02  0.00000000000E+00 0. -1.
         11    1    3    3    0    0  0.13775194041E+02 -0.18772822988E+02 -0.99232904043E+01  0.25310996553E+02  0.51100000000E-03 0. -1.
        -11    1    3    3    0    0 -0.22389012185E+00 -0.25970747735E+01  0.42978153980E+01  0.50265437053E+01  0.51100000000E-03 0.  1.
        -12    1    3    3    0    0  0.10141871458E+02 -0.10633051861E+02  0.13848087587E+02  0.20191307000E+02  0.00000000000E+00 0.  1.
</event>
<event>
 7    1  0.8986500E-014  0.5052886E+02  0.7816164E-02  0.1300439E+00
        -11   -1    0    0    0    0  0.00000000000E+00  0.00000000000E+00  0.45593999997E+02  0.45594000000E+02  0.51100000000E-03 0. -1.
         11   -1    0    0    0    0 -0.00000000000E+00 -0.00000000000E+00 -0.45593999997E+02  0.45594000000E+02  0.51100000000E-03 0.  1.
    9900012    2    1    2    0    0  0.17002924461E+02  0.27497928743E+02 -0.24656241783E+02  0.50528858540E+02  0.29999996018E+02 0.  0.
         12    1    1    2    0    0 -0.17002924461E+02 -0.27497928743E+02  0.24656241783E+02  0.40659141460E+02  0.00000000000E+00 0. -1.
         11    1    3    3    0    0  0.13719196135E+02  0.23583370659E+02 -0.17437407076E+02  0.32379852996E+02  0.51100000000E-03 0. -1.
        -11    1    3    3    0    0  0.31774985996E+01 -0.12960983661E+01 -0.11120925852E+02  0.11638357289E+02  0.51100000000E-03 0.  1.
         12    1    3    3    0    0  0.10622972567E+00  0.52106564502E+01  0.39020911448E+01  0.65106482549E+01  0.00000000000E+00 0. -1.
</event>
<event>
 7    1  0.8986500E-014  0.5052886E+02  0.7816164E-02  0.1300439E+00
        -11   -1    0    0    0    0  0.00000000000E+00  0.00000000000E+00  0.45593999997E+02  0.45594000000E+02  0.51100000000E-03 0.  1.
         11   -1    0    0    0    0 -0.00000000000E+00 -0.00000000000E+00 -0.45593999997E+02  0.45594000000E+02  0.51100000000E-03 0. -1.
    9900012    2    1    2    0    0  0.33911224552E+02  0.53545694871E+01  0.21783550887E+02  0.50528860139E+02  0.30000000879E+02 0.  0.
        -12    1    1    2    0    0 -0.33911224552E+02 -0.53545694871E+01 -0.21783550887E+02  0.40659139861E+02  0.00000000000E+00 0.  1.
         11    1    3    3    0    0  0.51627835981E+01  0.36112669213E+01 -0.51221721120E+01  0.81198664191E+01  0.51100000000E-03 0. -1.
        -11    1    3    3    0    0  0.44573538166E+01 -0.57956697560E+01  0.68468539279E+01  0.10016845808E+02  0.51100000000E-03 0.  1.
        -12    1    3    3    0    0  0.24291087137E+02  0.75389723219E+01  0.20058869071E+02  0.32392147912E+02  0.00000000000E+00 0.  1.
</event>
<event>
 7    1  0.8986500E-014  0.5052885E+02  0.7816164E-02  0.1300439E+00
        -11   -1    0    0    0    0  0.00000000000E+00  0.00000000000E+00  0.45593999997E+02  0.45594000000E+02  0.51100000000E-03 0. -1.
         11   -1    0    0    0    0 -0.00000000000E+00 -0.00000000000E+00 -0.45593999997E+02  0.45594000000E+02  0.51100000000E-03 0.  1.
    9900012    2    1    2    0    0  0.69545226296E+01  0.29768354940E+01 -0.39949213633E+02  0.50528848454E+02  0.29999965360E+02 0.  0.
         12    1    1    2    0    0 -0.69545226296E+01 -0.29768354940E+01  0.39949213633E+02  0.40659151546E+02  0.00000000000E+00 0. -1.
         11    1    3    3    0    0  0.10376420333E+02  0.65068460640E+01 -0.25954942947E+02  0.28699620351E+02  0.51100000000E-03 0. -1.
        -11    1    3    3    0    0  0.33269354626E+01  0.17144178428E+01 -0.12631473657E+02  0.13174287651E+02  0.51100000000E-03 0.  1.
        -12    1    3    3    0    0 -0.67488331659E+01 -0.52444284128E+01 -0.13627970289E+01  0.86549404516E+01  0.00000000000E+00 0.  1.
</event>
<event>
 7    1  0.8986500E-014  0.5052886E+02  0.7816164E-02  0.1300439E+00
        -11   -1    0    0    0    0  0.00000000000E+00  0.00000000000E+00  0.45593999997E+02  0.45594000000E+02  0.51100000000E-03 0. -1.
         11   -1    0    0    0    0 -0.00000000000E+00 -0.00000000000E+00 -0.45593999997E+02  0.45594000000E+02  0.51100000000E-03 0.  1.
    9900012    2    1    2    0    0 -0.27914151123E+02 -0.12857146637E+02  0.26620662334E+02  0.50528859383E+02  0.29999998582E+02 0.  0.
        -12    1    1    2    0    0  0.27914151123E+02  0.12857146637E+02 -0.26620662334E+02  0.40659140617E+02  0.00000000000E+00 0.  1.
         11    1    3    3    0    0 -0.18357345612E+02 -0.63974862157E+01  0.39109334357E+01  0.19829658807E+02  0.51100000000E-03 0.  1.
        -11    1    3    3    0    0 -0.10879862318E+02  0.83151238550E+00  0.60753049150E+01  0.12488880934E+02  0.51100000000E-03 0. -1.
        -12    1    3    3    0    0  0.13230568072E+01 -0.72911728068E+01  0.16634423984E+02  0.18210319642E+02  0.00000000000E+00 0.  1.
</event>
<event>
 7    1  0.8986500E-014  0.5052886E+02  0.7816164E-02  0.1300439E+00
        -11   -1    0    0    0    0  0.00000000000E+00  0.00000000000E+00  0.45593999997E+02  0.45594000000E+02  0.51100000000E-03 0. -1.
         11   -1    0    0    0    0 -0.00000000000E+00 -0.00000000000E+00 -0.45593999997E+02  0.45594000000E+02  0.51100000000E-03 0.  1.
    9900012    2    1    2    0    0 -0.15271983866E+01  0.22587332842E+02 -0.33773443334E+02  0.50528863088E+02  0.30000009842E+02 0.  0.
         12    1    1    2    0    0  0.15271983866E+01 -0.22587332842E+02  0.33773443334E+02  0.40659136912E+02  0.00000000000E+00 0. -1.
         11    1    3    3    0    0 -0.56647041580E-01  0.15462181803E+02 -0.72332616712E+01  0.17070511113E+02  0.51100000000E-03 0. -1.
        -11    1    3    3    0    0  0.54048721103E+01  0.10904036645E+02 -0.12986311774E+02  0.17797610835E+02  0.51100000000E-03 0.  1.
        -12    1    3    3    0    0 -0.68754234553E+01 -0.37788856057E+01 -0.13553869888E+02  0.15660741140E+02  0.00000000000E+00 0.  1.
</event>
<event>
 7    1  0.8986500E-014  0.5052886E+02  0.7816164E-02  0.1300439E+00
        -11   -1    0    0    0    0  0.00000000000E+00  0.00000000000E+00  0.45593999997E+02  0.45594000000E+02  0.51100000000E-03 0. -1.
         11   -1    0    0    0    0 -0.00000000000E+00 -0.00000000000E+00 -0.45593999997E+02  0.45594000000E+02  0.51100000000E-03 0.  1.
    9900012    2    1    2    0    0 -0.86718793827E+01 -0.21437058421E+02 -0.33442739051E+02  0.50528858826E+02  0.29999996888E+02 0.  0.
         12    1    1    2    0    0  0.86718793827E+01  0.21437058421E+02  0.33442739051E+02  0.40659141174E+02  0.00000000000E+00 0. -1.
         11    1    3    3    0    0  0.10282190537E+01  0.44135610047E+01 -0.53230056895E+00  0.45629047022E+01  0.51100000000E-03 0. -1.
        -11    1    3    3    0    0 -0.49305566016E+01  0.81773460369E+00 -0.52321775224E+01  0.72356589313E+01  0.51100000000E-03 0.  1.
        -12    1    3    3    0    0 -0.47695418348E+01 -0.26668354030E+02 -0.27678260959E+02  0.38730295193E+02  0.00000000000E+00 0.  1.
</event>
<event>
 7    1  0.8986500E-014  0.5052886E+02  0.7816164E-02  0.1300439E+00
        -11   -1    0    0    0    0  0.00000000000E+00  0.00000000000E+00  0.45593999997E+02  0.45594000000E+02  0.51100000000E-03 0. -1.
         11   -1    0    0    0    0 -0.00000000000E+00 -0.00000000000E+00 -0.45593999997E+02  0.45594000000E+02  0.51100000000E-03 0.  1.
    9900012    2    1    2    0    0  0.37000569863E+02 -0.16516350424E+02  0.33665542042E+01  0.50528859715E+02  0.29999999591E+02 0.  0.
        -12    1    1    2    0    0 -0.37000569863E+02  0.16516350424E+02 -0.33665542042E+01  0.40659140285E+02  0.00000000000E+00 0.  1.
         11    1    3    3    0    0  0.25688997557E+02 -0.10853890464E+02  0.10064976674E+02  0.29648529296E+02  0.51100000000E-03 0. -1.
        -11    1    3    3    0    0  0.61520097467E+01 -0.45169135389E+01  0.42408312626E+01  0.87312302627E+01  0.51100000000E-03 0.  1.
        -12    1    3    3    0    0  0.51595625589E+01 -0.11455464211E+01 -0.10939253732E+02  0.12149100157E+02  0.00000000000E+00 0.  1.
</event>
<event>
 7    1  0.8986500E-014  0.5052886E+02  0.7816164E-02  0.1300439E+00
        -11   -1    0    0    0    0  0.00000000000E+00  0.00000000000E+00  0.45593999997E+02  0.45594000000E+02  0.51100000000E-03 0. -1.
         11   -1    0    0    0    0 -0.00000000000E+00 -0.00000000000E+00 -0.45593999997E+02  0.45594000000E+02  0.51100000000E-03 0.  1.
    9900012    2    1    2    0    0  0.15828417168E+02  0.32120523929E+02 -0.19258733586E+02  0.50528859984E+02  0.30000000406E+02 0.  0.
         12    1    1    2    0    0 -0.15828417168E+02 -0.32120523929E+02  0.19258733586E+02  0.40659140016E+02  0.00000000000E+00 0. -1.
         11    1    3    3    0    0 -0.39356262811E+01  0.96060626191E+01 -0.77052424198E+01  0.12928122612E+02  0.51100000000E-03 0. -1.
        -11    1    3    3    0    0  0.15670629287E+01  0.15621673822E+02 -0.17069446589E+01  0.15792594453E+02  0.51100000000E-03 0.  1.
         12    1    3    3    0    0  0.18196980521E+02  0.68927874874E+01 -0.98465465075E+01  0.21808142918E+02  0.00000000000E+00 0. -1.
</event>
<event>
 7    1  0.8986500E-014  0.5052887E+02  0.7816164E-02  0.1300439E+00
        -11   -1    0    0    0    0  0.00000000000E+00  0.00000000000E+00  0.45593999997E+02  0.45594000000E+02  0.51100000000E-03 0. -1.
         11   -1    0    0    0    0 -0.00000000000E+00 -0.00000000000E+00 -0.45593999997E+02  0.45594000000E+02  0.51100000000E-03 0.  1.
    9900012    2    1    2    0    0 -0.37044135592E+01  0.38754321723E+02 -0.11727950353E+02  0.50528868781E+02  0.30000027145E+02 0.  0.
         12    1    1    2    0    0  0.37044135592E+01 -0.38754321723E+02  0.11727950353E+02  0.40659131219E+02  0.00000000000E+00 0. -1.
         11    1    3    3    0    0 -0.37229916957E+01  0.29812392726E+02 -0.27877660131E+01  0.30173018855E+02  0.51100000000E-03 0. -1.
        -11    1    3    3    0    0 -0.13477032562E+01  0.38576583652E+01  0.44057644310E+01  0.60090425703E+01  0.51100000000E-03 0.  1.
         12    1    3    3    0    0  0.13662813927E+01  0.50842706324E+01 -0.13345948771E+02  0.14346807356E+02  0.00000000000E+00 0. -1.
</event>
<event>
 7    1  0.8986500E-014  0.5052881E+02  0.7816164E-02  0.1300439E+00
        -11   -1    0    0    0    0  0.00000000000E+00  0.00000000000E+00  0.45593999997E+02  0.45594000000E+02  0.51100000000E-03 0. -1.
         11   -1    0    0    0    0 -0.00000000000E+00 -0.00000000000E+00 -0.45593999997E+02  0.45594000000E+02  0.51100000000E-03 0.  1.
    9900012    2    1    2    0    0 -0.72627151719E+01 -0.20789710172E+02  0.34179100265E+02  0.50528806998E+02  0.29999839349E+02 0.  0.
        -12    1    1    2    0    0  0.72627151719E+01  0.20789710172E+02 -0.34179100265E+02  0.40659193002E+02  0.00000000000E+00 0.  1.
         11    1    3    3    0    0  0.27690228678E+01 -0.11187262547E+02  0.54816508179E+01  0.12762085523E+02  0.51100000000E-03 0. -1.
        -11    1    3    3    0    0  0.17225008526E+01  0.50040019609E+01  0.34428530008E+01  0.63134999690E+01  0.51100000000E-03 0.  1.
        -12    1    3    3    0    0 -0.11754238892E+02 -0.14606449585E+02  0.25254596446E+02  0.31453221505E+02  0.00000000000E+00 0.  1.
</event>
<event>
 7    1  0.8986500E-014  0.5052875E+02  0.7816164E-02  0.1300439E+00
        -11   -1    0    0    0    0  0.00000000000E+00  0.00000000000E+00  0.45593999997E+02  0.45594000000E+02  0.51100000000E-03 0.  1.
         11   -1    0    0    0    0 -0.00000000000E+00 -0.00000000000E+00 -0.45593999997E+02  0.45594000000E+02  0.51100000000E-03 0. -1.
    9900012    2    1    2    0    0  0.35422279780E+02 -0.19905366317E+02  0.14876778455E+01  0.50528748919E+02  0.29999662814E+02 0.  0.
         12    1    1    2    0    0 -0.35422279780E+02  0.19905366317E+02 -0.14876778455E+01  0.40659251081E+02  0.00000000000E+00 0. -1.
         11    1    3    3    0    0  0.21779708749E+01 -0.42526205812E+01 -0.72269805033E+01  0.86635781520E+01  0.51100000000E-03 0. -1.
        -11    1    3    3    0    0  0.22229575082E+01 -0.79210866951E+01  0.51276682965E+01  0.96942321478E+01  0.51100000000E-03 0.  1.
        -12    1    3    3    0    0  0.31021351397E+02 -0.77316590407E+01  0.35869900524E+01  0.32170938620E+02  0.00000000000E+00 0.  1.
</event>
<event>
 7    1  0.8986500E-014  0.5052885E+02  0.7816164E-02  0.1300439E+00
        -11   -1    0    0    0    0  0.00000000000E+00  0.00000000000E+00  0.45593999997E+02  0.45594000000E+02  0.51100000000E-03 0. -1.
         11   -1    0    0    0    0 -0.00000000000E+00 -0.00000000000E+00 -0.45593999997E+02  0.45594000000E+02  0.51100000000E-03 0.  1.
    9900012    2    1    2    0    0  0.30062306628E+01  0.30314920139E+02  0.26928330679E+02  0.50528846061E+02  0.29999958088E+02 0.  0.
        -12    1    1    2    0    0 -0.30062306628E+01 -0.30314920139E+02 -0.26928330679E+02  0.40659153939E+02  0.00000000000E+00 0.  1.
         11    1    3    3    0    0  0.38167403379E+00  0.62395739921E+01  0.76418987532E+01  0.98730226115E+01  0.51100000000E-03 0. -1.
        -11    1    3    3    0    0 -0.85141740784E+01  0.10651979957E+02  0.18775856017E+02  0.23205357284E+02  0.51100000000E-03 0.  1.
        -12    1    3    3    0    0  0.11138730707E+02  0.13423366190E+02  0.51057590865E+00  0.17450466166E+02  0.00000000000E+00 0.  1.
</event>
<event>
 7    1  0.8986500E-014  0.5052886E+02  0.7816164E-02  0.1300439E+00
        -11   -1    0    0    0    0  0.00000000000E+00  0.00000000000E+00  0.45593999997E+02  0.45594000000E+02  0.51100000000E-03 0. -1.
         11   -1    0    0    0    0 -0.00000000000E+00 -0.00000000000E+00 -0.45593999997E+02  0.45594000000E+02  0.51100000000E-03 0.  1.
    9900012    2    1    2    0    0  0.50804289681E+01 -0.19045383979E+02 -0.35561611055E+02  0.50528860926E+02  0.30000003272E+02 0.  0.
         12    1    1    2    0    0 -0.50804289681E+01  0.19045383979E+02  0.35561611055E+02  0.40659139074E+02  0.00000000000E+00 0. -1.
         11    1    3    3    0    0 -0.35543869847E+01 -0.15848857549E+02 -0.30122563063E+02  0.34222635173E+02  0.51100000000E-03 0. -1.
        -11    1    3    3    0    0  0.32289611420E+01 -0.76644737745E+01 -0.23477076330E+01  0.86418794071E+01  0.51100000000E-03 0.  1.
        -12    1    3    3    0    0  0.54058548108E+01  0.44679473437E+01 -0.30913403583E+01  0.76643463460E+01  0.00000000000E+00 0.  1.
</event>
<event>
 7    1  0.8986500E-014  0.5052885E+02  0.7816164E-02  0.1300439E+00
        -11   -1    0    0    0    0  0.00000000000E+00  0.00000000000E+00  0.45593999997E+02  0.45594000000E+02  0.51100000000E-03 0. -1.
         11   -1    0    0    0    0 -0.00000000000E+00 -0.00000000000E+00 -0.45593999997E+02  0.45594000000E+02  0.51100000000E-03 0.  1.
    9900012    2    1    2    0    0  0.29628720502E+00  0.93749036130E+01  0.39562476248E+02  0.50528854279E+02  0.29999983066E+02 0.  0.
        -12    1    1    2    0    0 -0.29628720502E+00 -0.93749036130E+01 -0.39562476248E+02  0.40659145721E+02  0.00000000000E+00 0.  1.
         11    1    3    3    0    0 -0.20886583118E+01 -0.25574169614E+01  0.16729968529E+01  0.37015934122E+01  0.51100000000E-03 0. -1.
        -11    1    3    3    0    0 -0.60963109217E+01  0.15881013730E+02  0.17559890643E+02  0.24448340713E+02  0.51100000000E-03 0.  1.
         12    1    3    3    0    0  0.84812564385E+01 -0.39486931559E+01  0.20329588752E+02  0.22378920154E+02  0.00000000000E+00 0. -1.
</event>
<event>
 7    1  0.8986500E-014  0.5052886E+02  0.7816164E-02  0.1300439E+00
        -11   -1    0    0    0    0  0.00000000000E+00  0.00000000000E+00  0.45593999997E+02  0.45594000000E+02  0.51100000000E-03 0. -1.
         11   -1    0    0    0    0 -0.00000000000E+00 -0.00000000000E+00 -0.45593999997E+02  0.45594000000E+02  0.51100000000E-03 0.  1.
    9900012    2    1    2    0    0  0.27332410929E+02  0.81479124608E+01 -0.28977867308E+02  0.50528856399E+02  0.29999989510E+02 0.  0.
         12    1    1    2    0    0 -0.27332410929E+02 -0.81479124608E+01  0.28977867308E+02  0.40659143601E+02  0.00000000000E+00 0. -1.
         11    1    3    3    0    0  0.67081266652E+01 -0.47498666411E+00  0.13423457036E+01  0.68575847014E+01  0.51100000000E-03 0. -1.
        -11    1    3    3    0    0  0.58915521748E+01 -0.66845621064E+01 -0.37904581153E+01  0.96830434558E+01  0.51100000000E-03 0.  1.
        -12    1    3    3    0    0  0.14732732089E+02  0.15307461231E+02 -0.26529754896E+02  0.33988228242E+02  0.00000000000E+00 0.  1.
</event>
<event>
 7    1  0.8986500E-014  0.5052886E+02  0.7816164E-02  0.1300439E+00
        -11   -1    0    0    0    0  0.00000000000E+00  0.00000000000E+00  0.45593999997E+02  0.45594000000E+02  0.51100000000E-03 0. -1.
         11   -1    0    0    0    0 -0.00000000000E+00 -0.00000000000E+00 -0.45593999997E+02  0.45594000000E+02  0.51100000000E-03 0.  1.
    9900012    2    1    2    0    0  0.13911998776E+02  0.17393406374E+02 -0.34016048754E+02  0.50528857510E+02  0.29999992887E+02 0.  0.
         12    1    1    2    0    0 -0.13911998776E+02 -0.17393406374E+02  0.34016048754E+02  0.40659142490E+02  0.00000000000E+00 0. -1.
         11    1    3    3    0    0  0.10658308938E+02 -0.22735242303E+01 -0.81515113927E+01  0.13609393818E+02  0.51100000000E-03 0. -1.
        -11    1    3    3    0    0  0.58293399325E+01 -0.64061263169E+00 -0.62011174033E+01  0.85349543586E+01  0.51100000000E-03 0.  1.
        -12    1    3    3    0    0 -0.25756500939E+01  0.20307543236E+02 -0.19663419958E+02  0.28384509333E+02  0.00000000000E+00 0.  1.
</event>
<event>
 7    1  0.8986500E-014  0.5052886E+02  0.7816164E-02  0.1300439E+00
        -11   -1    0    0    0    0  0.00000000000E+00  0.00000000000E+00  0.45593999997E+02  0.45594000000E+02  0.51100000000E-03 0. -1.
         11   -1    0    0    0    0 -0.00000000000E+00 -0.00000000000E+00 -0.45593999997E+02  0.45594000000E+02  0.51100000000E-03 0.  1.
    9900012    2    1    2    0    0 -0.10484175518E+01 -0.32085186470E+02 -0.24952107424E+02  0.50528855456E+02  0.29999986643E+02 0.  0.
         12    1    1    2    0    0  0.10484175518E+01  0.32085186470E+02  0.24952107424E+02  0.40659144544E+02  0.00000000000E+00 0. -1.
         11    1    3    3    0    0 -0.54257253634E+01 -0.13482228422E+02 -0.37152517611E+01  0.15000402490E+02  0.51100000000E-03 0. -1.
        -11    1    3    3    0    0  0.33872655226E+01 -0.21088537245E+02 -0.93004778329E+01  0.23295897902E+02  0.51100000000E-03 0.  1.
        -12    1    3    3    0    0  0.99004228897E+00  0.24855791977E+01 -0.11936377830E+02  0.12232555064E+02  0.00000000000E+00 0.  1.
</event>
<event>
 7    1  0.8986500E-014  0.5052886E+02  0.7816164E-02  0.1300439E+00
        -11   -1    0    0    0    0  0.00000000000E+00  0.00000000000E+00  0.45593999997E+02  0.45594000000E+02  0.51100000000E-03 0. -1.
         11   -1    0    0    0    0 -0.00000000000E+00 -0.00000000000E+00 -0.45593999997E+02  0.45594000000E+02  0.51100000000E-03 0.  1.
    9900012    2    1    2    0    0 -0.54696568059E+01  0.13766482416E+02  0.37864661205E+02  0.50528858938E+02  0.29999997229E+02 0.  0.
        -12    1    1    2    0    0  0.54696568059E+01 -0.13766482416E+02 -0.37864661205E+02  0.40659141062E+02  0.00000000000E+00 0.  1.
         11    1    3    3    0    0 -0.34201845311E+01 -0.14697482267E+01  0.77494461950E+00  0.38024152194E+01  0.51100000000E-03 0. -1.
        -11    1    3    3    0    0 -0.52338315771E+00 -0.50895172541E+01  0.18308804695E+02  0.19010245802E+02  0.51100000000E-03 0.  1.
         12    1    3    3    0    0 -0.15260891171E+01  0.20325747897E+02  0.18780911891E+02  0.27716197917E+02  0.00000000000E+00 0. -1.
</event>
<event>
 7    1  0.8986500E-014  0.5052886E+02  0.7816164E-02  0.1300439E+00
        -11   -1    0    0    0    0  0.00000000000E+00  0.00000000000E+00  0.45593999997E+02  0.45594000000E+02  0.51100000000E-03 0. -1.
         11   -1    0    0    0    0 -0.00000000000E+00 -0.00000000000E+00 -0.45593999997E+02  0.45594000000E+02  0.51100000000E-03 0.  1.
    9900012    2    1    2    0    0  0.18677555904E+02  0.18393541492E+02  0.31080417259E+02  0.50528858345E+02  0.29999995425E+02 0.  0.
        -12    1    1    2    0    0 -0.18677555904E+02 -0.18393541492E+02 -0.31080417259E+02  0.40659141655E+02  0.00000000000E+00 0.  1.
         11    1    3    3    0    0  0.58541890643E+01  0.15797524578E+02  0.15062478152E+02  0.22598928309E+02  0.51100000000E-03 0. -1.
        -11    1    3    3    0    0 -0.27751870291E+01  0.22622138440E+01  0.10957563647E+02  0.11527683022E+02  0.51100000000E-03 0.  1.
         12    1    3    3    0    0  0.15598553869E+02  0.33380306980E+00  0.50603754599E+01  0.16402247013E+02  0.00000000000E+00 0. -1.
</event>
<event>
 7    1  0.8986500E-014  0.5052888E+02  0.7816164E-02  0.1300439E+00
        -11   -1    0    0    0    0  0.00000000000E+00  0.00000000000E+00  0.45593999997E+02  0.45594000000E+02  0.51100000000E-03 0. -1.
         11   -1    0    0    0    0 -0.00000000000E+00 -0.00000000000E+00 -0.45593999997E+02  0.45594000000E+02  0.51100000000E-03 0.  1.
    9900012    2    1    2    0    0  0.64122975662E+00 -0.49039469745E+01 -0.40357209730E+02  0.50528877423E+02  0.30000053416E+02 0.  0.
         12    1    1    2    0    0 -0.64122975662E+00  0.49039469745E+01  0.40357209730E+02  0.40659122577E+02  0.00000000000E+00 0. -1.
         11    1    3    3    0    0  0.17897522478E+01  0.30996536836E+01 -0.32502183429E+01  0.48347684127E+01  0.51100000000E-03 0. -1.
        -11    1    3    3    0    0  0.97870571183E+01  0.28352247187E+01 -0.21385056617E+02  0.23688512680E+02  0.51100000000E-03 0.  1.
        -12    1    3    3    0    0 -0.10935579609E+02 -0.10838825377E+02 -0.15721934770E+02  0.22005596330E+02  0.00000000000E+00 0.  1.
</event>
<event>
 7    1  0.8986500E-014  0.5052886E+02  0.7816164E-02  0.1300439E+00
        -11   -1    0    0    0    0  0.00000000000E+00  0.00000000000E+00  0.45593999997E+02  0.45594000000E+02  0.51100000000E-03 0. -1.
         11   -1    0    0    0    0 -0.00000000000E+00 -0.00000000000E+00 -0.45593999997E+02  0.45594000000E+02  0.51100000000E-03 0.  1.
    9900012    2    1    2    0    0  0.20221675187E+02 -0.14731461538E+02 -0.32050486960E+02  0.50528858091E+02  0.29999994652E+02 0.  0.
         12    1    1    2    0    0 -0.20221675187E+02  0.14731461538E+02  0.32050486960E+02  0.40659141909E+02  0.00000000000E+00 0. -1.
         11    1    3    3    0    0  0.94791556443E+01 -0.25176268911E+01 -0.24150344130E+02  0.26065915651E+02  0.51100000000E-03 0. -1.
        -11    1    3    3    0    0  0.45959544045E+01  0.28064769387E+01  0.16500608358E+01  0.56322118851E+01  0.51100000000E-03 0.  1.
        -12    1    3    3    0    0  0.61465651383E+01 -0.15020311586E+02 -0.95502036660E+01  0.18830730554E+02  0.00000000000E+00 0.  1.
</event>
<event>
 7    1  0.8986500E-014  0.5052883E+02  0.7816164E-02  0.1300439E+00
        -11   -1    0    0    0    0  0.00000000000E+00  0.00000000000E+00  0.45593999997E+02  0.45594000000E+02  0.51100000000E-03 0. -1.
         11   -1    0    0    0    0 -0.00000000000E+00 -0.00000000000E+00 -0.45593999997E+02  0.45594000000E+02  0.51100000000E-03 0.  1.
    9900012    2    1    2    0    0 -0.31116134126E+01 -0.25188352756E+02  0.31765275633E+02  0.50528831432E+02  0.29999913620E+02 0.  0.
        -12    1    1    2    0    0  0.31116134126E+01  0.25188352756E+02 -0.31765275633E+02  0.40659168568E+02  0.00000000000E+00 0.  1.
         11    1    3    3    0    0  0.42904151710E+01 -0.17941652375E+01 -0.93586864283E+00  0.47436843926E+01  0.51100000000E-03 0. -1.
        -11    1    3    3    0    0 -0.38871276490E+01 -0.60790634676E+01 -0.14264154559E+01  0.73552318330E+01  0.51100000000E-03 0.  1.
        -12    1    3    3    0    0 -0.35149009346E+01 -0.17315124051E+02  0.34127559732E+02  0.38429915206E+02  0.00000000000E+00 0.  1.
</event>
<event>
 7    1  0.1391378E-013  0.5052886E+02  0.7816164E-02  0.1300439E+00
        -11   -1    0    0    0    0  0.00000000000E+00  0.00000000000E+00  0.45593999997E+02  0.45594000000E+02  0.51100000000E-03 0. -1.
         11   -1    0    0    0    0 -0.00000000000E+00 -0.00000000000E+00 -0.45593999997E+02  0.45594000000E+02  0.51100000000E-03 0.  1.
    9900012    2    1    2    0    0 -0.21472522145E+02  0.18362120502E+01  0.34477885658E+02  0.50528862264E+02  0.30000007338E+02 0.  0.
        -12    1    1    2    0    0  0.21472522145E+02 -0.18362120502E+01 -0.34477885658E+02  0.40659137736E+02  0.00000000000E+00 0.  1.
         11    1    3    3    0    0 -0.45797933822E+01  0.36627826519E+01  0.22708535110E+02  0.23453529613E+02  0.51100000000E-03 0. -1.
        -11    1    3    3    0    0 -0.90919051838E+01  0.61342040634E+01  0.14186667709E+00  0.10968651958E+02  0.51100000000E-03 0.  1.
         12    1    3    3    0    0 -0.78008235790E+01 -0.79607746651E+01  0.11627483871E+02  0.16106680693E+02  0.00000000000E+00 0. -1.
</event>
<event>
 7    1  0.8986500E-014  0.5052886E+02  0.7816164E-02  0.1300439E+00
        -11   -1    0    0    0    0  0.00000000000E+00  0.00000000000E+00  0.45593999997E+02  0.45594000000E+02  0.51100000000E-03 0. -1.
         11   -1    0    0    0    0 -0.00000000000E+00 -0.00000000000E+00 -0.45593999997E+02  0.45594000000E+02  0.51100000000E-03 0.  1.
    9900012    2    1    2    0    0 -0.18572463035E+02 -0.21464157438E+02 -0.29112182966E+02  0.50528860378E+02  0.30000001606E+02 0.  0.
         12    1    1    2    0    0  0.18572463035E+02  0.21464157438E+02  0.29112182966E+02  0.40659139622E+02  0.00000000000E+00 0. -1.
         11    1    3    3    0    0  0.16145117368E+01 -0.34333261290E+01  0.38066427653E+01  0.53744679607E+01  0.51100000000E-03 0. -1.
        -11    1    3    3    0    0 -0.32469334715E+01 -0.11286483243E+02 -0.18481816042E+02  0.21897598166E+02  0.51100000000E-03 0.  1.
         12    1    3    3    0    0 -0.16940041301E+02 -0.67443480659E+01 -0.14437009689E+02  0.23256794252E+02  0.00000000000E+00 0. -1.
</event>
<event>
 7    1  0.8986500E-014  0.5052888E+02  0.7816164E-02  0.1300439E+00
        -11   -1    0    0    0    0  0.00000000000E+00  0.00000000000E+00  0.45593999997E+02  0.45594000000E+02  0.51100000000E-03 0. -1.
         11   -1    0    0    0    0 -0.00000000000E+00 -0.00000000000E+00 -0.45593999997E+02  0.45594000000E+02  0.51100000000E-03 0.  1.
    9900012    2    1    2    0    0  0.28241097731E+01 -0.81508868184E+01 -0.39733510053E+02  0.50528875894E+02  0.30000048767E+02 0.  0.
         12    1    1    2    0    0 -0.28241097731E+01  0.81508868184E+01  0.39733510053E+02  0.40659124106E+02  0.00000000000E+00 0. -1.
         11    1    3    3    0    0 -0.75941403137E+01  0.20383188908E+01 -0.35874578558E+01  0.86426596099E+01  0.51100000000E-03 0. -1.
        -11    1    3    3    0    0 -0.18780789567E+00 -0.10475173590E+02 -0.19748170410E+02  0.22355195556E+02  0.51100000000E-03 0.  1.
        -12    1    3    3    0    0  0.10606057982E+02  0.28596788069E+00 -0.16397881787E+02  0.19531020728E+02  0.00000000000E+00 0.  1.
</event>
<event>
 7    1  0.8986500E-014  0.5052886E+02  0.7816164E-02  0.1300439E+00
        -11   -1    0    0    0    0  0.00000000000E+00  0.00000000000E+00  0.45593999997E+02  0.45594000000E+02  0.51100000000E-03 0. -1.
         11   -1    0    0    0    0 -0.00000000000E+00 -0.00000000000E+00 -0.45593999997E+02  0.45594000000E+02  0.51100000000E-03 0.  1.
    9900012    2    1    2    0    0  0.16974108830E+02  0.25193108263E+02 -0.27025032452E+02  0.50528862607E+02  0.30000008381E+02 0.  0.
         12    1    1    2    0    0 -0.16974108830E+02 -0.25193108263E+02  0.27025032452E+02  0.40659137393E+02  0.00000000000E+00 0. -1.
         11    1    3    3    0    0  0.63852451488E+01  0.14101974409E+02 -0.52498128499E+01  0.16346179158E+02  0.51100000000E-03 0. -1.
        -11    1    3    3    0    0  0.82644771086E+00 -0.95535104135E+00  0.39493413584E+01  0.41464453279E+01  0.51100000000E-03 0.  1.
        -12    1    3    3    0    0  0.97624159700E+01  0.12046484896E+02 -0.25724560960E+02  0.30036238122E+02  0.00000000000E+00 0.  1.
</event>
<event>
 7    1  0.8986500E-014  0.5052886E+02  0.7816164E-02  0.1300439E+00
        -11   -1    0    0    0    0  0.00000000000E+00  0.00000000000E+00  0.45593999997E+02  0.45594000000E+02  0.51100000000E-03 0. -1.
         11   -1    0    0    0    0 -0.00000000000E+00 -0.00000000000E+00 -0.45593999997E+02  0.45594000000E+02  0.51100000000E-03 0.  1.
    9900012    2    1    2    0    0 -0.51946211060E+01  0.12242095837E+02 -0.38422816263E+02  0.50528858242E+02  0.29999995112E+02 0.  0.
         12    1    1    2    0    0  0.51946211060E+01 -0.12242095837E+02  0.38422816263E+02  0.40659141758E+02  0.00000000000E+00 0. -1.
         11    1    3    3    0    0 -0.26330204500E+01  0.14398930358E+01 -0.13602154848E+02  0.13929275122E+02  0.51100000000E-03 0. -1.
        -11    1    3    3    0    0 -0.76077166608E+01 -0.35411957005E+01 -0.18149104823E+02  0.19995185068E+02  0.51100000000E-03 0.  1.
         12    1    3    3    0    0  0.50461160048E+01  0.14343398502E+02 -0.66715565920E+01  0.16604398052E+02  0.00000000000E+00 0. -1.
</event>
<event>
 7    1  0.8986500E-014  0.5052886E+02  0.7816164E-02  0.1300439E+00
        -11   -1    0    0    0    0  0.00000000000E+00  0.00000000000E+00  0.45593999997E+02  0.45594000000E+02  0.51100000000E-03 0. -1.
         11   -1    0    0    0    0 -0.00000000000E+00 -0.00000000000E+00 -0.45593999997E+02  0.45594000000E+02  0.51100000000E-03 0.  1.
    9900012    2    1    2    0    0 -0.34354093654E+02 -0.32362616201E+00 -0.21745283525E+02  0.50528857852E+02  0.29999993926E+02 0.  0.
         12    1    1    2    0    0  0.34354093654E+02  0.32362616201E+00  0.21745283525E+02  0.40659142148E+02  0.00000000000E+00 0. -1.
         11    1    3    3    0    0 -0.18519513874E+02  0.29328438399E+01 -0.32660241365E+01  0.19032626751E+02  0.51100000000E-03 0. -1.
        -11    1    3    3    0    0 -0.11820776880E+02 -0.10826845026E+02 -0.78657635375E+01  0.17855575475E+02  0.51100000000E-03 0.  1.
         12    1    3    3    0    0 -0.40138028997E+01  0.75703750240E+01 -0.10613495851E+02  0.13640655626E+02  0.00000000000E+00 0. -1.
</event>
<event>
 7    1  0.8986500E-014  0.5052886E+02  0.7816164E-02  0.1300439E+00
        -11   -1    0    0    0    0  0.00000000000E+00  0.00000000000E+00  0.45593999997E+02  0.45594000000E+02  0.51100000000E-03 0. -1.
         11   -1    0    0    0    0 -0.00000000000E+00 -0.00000000000E+00 -0.45593999997E+02  0.45594000000E+02  0.51100000000E-03 0.  1.
    9900012    2    1    2    0    0  0.92545923640E+01  0.28545058112E+02 -0.27435333140E+02  0.50528864164E+02  0.30000013114E+02 0.  0.
         12    1    1    2    0    0 -0.92545923640E+01 -0.28545058112E+02  0.27435333140E+02  0.40659135836E+02  0.00000000000E+00 0. -1.
         11    1    3    3    0    0  0.40380144280E+01  0.51124196684E+01 -0.38747672797E+01  0.75799879367E+01  0.51100000000E-03 0. -1.
        -11    1    3    3    0    0  0.10242379511E+01  0.21215772448E+02 -0.28862302950E+02  0.35835605140E+02  0.51100000000E-03 0.  1.
         12    1    3    3    0    0  0.41923399850E+01  0.22168659956E+01  0.53017370899E+01  0.71132710874E+01  0.00000000000E+00 0. -1.
</event>
<event>
 7    1  0.8986500E-014  0.5052886E+02  0.7816164E-02  0.1300439E+00
        -11   -1    0    0    0    0  0.00000000000E+00  0.00000000000E+00  0.45593999997E+02  0.45594000000E+02  0.51100000000E-03 0. -1.
         11   -1    0    0    0    0 -0.00000000000E+00 -0.00000000000E+00 -0.45593999997E+02  0.45594000000E+02  0.51100000000E-03 0.  1.
    9900012    2    1    2    0    0  0.24374947106E+01  0.73514612546E+01  0.39914662478E+02  0.50528860268E+02  0.30000001269E+02 0.  0.
        -12    1    1    2    0    0 -0.24374947106E+01 -0.73514612546E+01 -0.39914662478E+02  0.40659139732E+02  0.00000000000E+00 0.  1.
         11    1    3    3    0    0 -0.28483701571E+01 -0.18639918717E+01  0.40026630731E+01  0.52544257714E+01  0.51100000000E-03 0. -1.
        -11    1    3    3    0    0 -0.34356067659E+00 -0.24672877601E+01 -0.32076117688E+01  0.40613195331E+01  0.51100000000E-03 0.  1.
         12    1    3    3    0    0  0.56294255443E+01  0.11682740886E+02  0.39119611174E+02  0.41213114963E+02  0.00000000000E+00 0. -1.
</event>
<event>
 7    1  0.8986500E-014  0.5052887E+02  0.7816164E-02  0.1300439E+00
        -11   -1    0    0    0    0  0.00000000000E+00  0.00000000000E+00  0.45593999997E+02  0.45594000000E+02  0.51100000000E-03 0. -1.
         11   -1    0    0    0    0 -0.00000000000E+00 -0.00000000000E+00 -0.45593999997E+02  0.45594000000E+02  0.51100000000E-03 0.  1.
    9900012    2    1    2    0    0  0.57888680844E+01  0.13604225854E+02  0.37875831397E+02  0.50528873610E+02  0.30000041825E+02 0.  0.
        -12    1    1    2    0    0 -0.57888680844E+01 -0.13604225854E+02 -0.37875831397E+02  0.40659126390E+02  0.00000000000E+00 0.  1.
         11    1    3    3    0    0  0.30940696215E+01  0.99132371591E+00  0.12849720470E+02  0.13254105249E+02  0.51100000000E-03 0. -1.
        -11    1    3    3    0    0  0.11489682888E+02 -0.23658622663E+00  0.14399175763E+02  0.18422948972E+02  0.51100000000E-03 0.  1.
         12    1    3    3    0    0 -0.87948844253E+01  0.12849488365E+02  0.10626935164E+02  0.18851819389E+02  0.00000000000E+00 0. -1.
</event>
<event>
 7    1  0.8986500E-014  0.5052886E+02  0.7816164E-02  0.1300439E+00
        -11   -1    0    0    0    0  0.00000000000E+00  0.00000000000E+00  0.45593999997E+02  0.45594000000E+02  0.51100000000E-03 0.  1.
         11   -1    0    0    0    0 -0.00000000000E+00 -0.00000000000E+00 -0.45593999997E+02  0.45594000000E+02  0.51100000000E-03 0. -1.
    9900012    2    1    2    0    0  0.15147873360E+02 -0.24229576285E+02 -0.28924652023E+02  0.50528856761E+02  0.29999990611E+02 0.  0.
         12    1    1    2    0    0 -0.15147873360E+02  0.24229576285E+02  0.28924652023E+02  0.40659143239E+02  0.00000000000E+00 0. -1.
         11    1    3    3    0    0 -0.28598909562E+01 -0.41428117626E+00 -0.12507770941E+02  0.12837248122E+02  0.51100000000E-03 0. -1.
        -11    1    3    3    0    0 -0.80798351826E+00 -0.11168504003E+02 -0.64903024381E+01  0.12942656027E+02  0.51100000000E-03 0.  1.
        -12    1    3    3    0    0  0.18815747834E+02 -0.12646791105E+02 -0.99265786438E+01  0.24748952612E+02  0.00000000000E+00 0.  1.
</event>
<event>
 7    1  0.8986500E-014  0.5052888E+02  0.7816164E-02  0.1300439E+00
        -11   -1    0    0    0    0  0.00000000000E+00  0.00000000000E+00  0.45593999997E+02  0.45594000000E+02  0.51100000000E-03 0.  1.
         11   -1    0    0    0    0 -0.00000000000E+00 -0.00000000000E+00 -0.45593999997E+02  0.45594000000E+02  0.51100000000E-03 0. -1.
    9900012    2    1    2    0    0 -0.35860598687E+02 -0.18585103625E+02  0.46664394233E+01  0.50528877139E+02  0.30000052552E+02 0.  0.
         12    1    1    2    0    0  0.35860598687E+02  0.18585103625E+02 -0.46664394233E+01  0.40659122861E+02  0.00000000000E+00 0. -1.
         11    1    3    3    0    0 -0.62678561901E+01 -0.67885508102E+01  0.52750947342E+01  0.10639411076E+02  0.51100000000E-03 0. -1.
        -11    1    3    3    0    0 -0.20765127265E+02 -0.19227840149E+02  0.43253003799E+00  0.28303487941E+02  0.51100000000E-03 0.  1.
         12    1    3    3    0    0 -0.88276152320E+01  0.74312873342E+01 -0.10411853489E+01  0.11585978123E+02  0.00000000000E+00 0. -1.
</event>
<event>
 7    1  0.8986500E-014  0.5052886E+02  0.7816164E-02  0.1300439E+00
        -11   -1    0    0    0    0  0.00000000000E+00  0.00000000000E+00  0.45593999997E+02  0.45594000000E+02  0.51100000000E-03 0. -1.
         11   -1    0    0    0    0 -0.00000000000E+00 -0.00000000000E+00 -0.45593999997E+02  0.45594000000E+02  0.51100000000E-03 0.  1.
    9900012    2    1    2    0    0  0.12706663816E+02 -0.28795798476E+02  0.25739232780E+02  0.50528863028E+02  0.30000009659E+02 0.  0.
        -12    1    1    2    0    0 -0.12706663816E+02  0.28795798476E+02 -0.25739232780E+02  0.40659136972E+02  0.00000000000E+00 0.  1.
         11    1    3    3    0    0  0.55799091555E+01  0.28015982631E+01 -0.22283468386E+00  0.62477191493E+01  0.51100000000E-03 0.  1.
        -11    1    3    3    0    0  0.29575112362E+00 -0.21250743936E+02  0.85548647926E+01  0.22909982506E+02  0.51100000000E-03 0. -1.
        -12    1    3    3    0    0  0.68310035369E+01 -0.10346652803E+02  0.17407202672E+02  0.21371161372E+02  0.00000000000E+00 0.  1.
</event>
<event>
 7    1  0.8986500E-014  0.5052885E+02  0.7816164E-02  0.1300439E+00
        -11   -1    0    0    0    0  0.00000000000E+00  0.00000000000E+00  0.45593999997E+02  0.45594000000E+02  0.51100000000E-03 0. -1.
         11   -1    0    0    0    0 -0.00000000000E+00 -0.00000000000E+00 -0.45593999997E+02  0.45594000000E+02  0.51100000000E-03 0.  1.
    9900012    2    1    2    0    0 -0.14017342743E+02 -0.11944280441E+01 -0.38147785725E+02  0.50528854514E+02  0.29999983781E+02 0.  0.
         12    1    1    2    0    0  0.14017342743E+02  0.11944280441E+01  0.38147785725E+02  0.40659145486E+02  0.00000000000E+00 0. -1.
         11    1    3    3    0    0 -0.94675235602E+01  0.91905026896E+01 -0.16237224732E+02  0.20922399703E+02  0.51100000000E-03 0. -1.
        -11    1    3    3    0    0 -0.28172094236E+01  0.41232733349E+01 -0.80105266612E+01  0.94396286782E+01  0.51100000000E-03 0.  1.
         12    1    3    3    0    0 -0.17326097595E+01 -0.14508204069E+02 -0.13900034331E+02  0.20166826133E+02  0.00000000000E+00 0. -1.
</event>
<event>
 7    1  0.8986500E-014  0.5052888E+02  0.7816164E-02  0.1300439E+00
        -11   -1    0    0    0    0  0.00000000000E+00  0.00000000000E+00  0.45593999997E+02  0.45594000000E+02  0.51100000000E-03 0. -1.
         11   -1    0    0    0    0 -0.00000000000E+00 -0.00000000000E+00 -0.45593999997E+02  0.45594000000E+02  0.51100000000E-03 0.  1.
    9900012    2    1    2    0    0 -0.25703440328E+02 -0.26996518079E+02  0.16238381016E+02  0.50528882313E+02  0.30000068277E+02 0.  0.
        -12    1    1    2    0    0  0.25703440328E+02  0.26996518079E+02 -0.16238381016E+02  0.40659117687E+02  0.00000000000E+00 0.  1.
         11    1    3    3    0    0 -0.13712648318E+02 -0.14431989785E+02  0.58528370473E+01  0.20750295294E+02  0.51100000000E-03 0. -1.
        -11    1    3    3    0    0 -0.67159852188E+01 -0.17314563439E+02  0.18294425580E+01  0.18661335024E+02  0.51100000000E-03 0.  1.
         12    1    3    3    0    0 -0.52748067914E+01  0.47500351443E+01  0.85561014110E+01  0.11117251995E+02  0.00000000000E+00 0. -1.
</event>
<event>
 7    1  0.1308858E-013  0.5052885E+02  0.7816164E-02  0.1300439E+00
        -11   -1    0    0    0    0  0.00000000000E+00  0.00000000000E+00  0.45593999997E+02  0.45594000000E+02  0.51100000000E-03 0. -1.
         11   -1    0    0    0    0 -0.00000000000E+00 -0.00000000000E+00 -0.45593999997E+02  0.45594000000E+02  0.51100000000E-03 0.  1.
    9900012    2    1    2    0    0 -0.81301634505E+00 -0.14824400920E+02  0.37851581494E+02  0.50528854906E+02  0.29999984972E+02 0.  0.
        -12    1    1    2    0    0  0.81301634505E+00  0.14824400920E+02 -0.37851581494E+02  0.40659145094E+02  0.00000000000E+00 0.  1.
         11    1    3    3    0    0 -0.67340426100E+01  0.20410994628E+01  0.77601503432E+01  0.10475368753E+02  0.51100000000E-03 0. -1.
        -11    1    3    3    0    0 -0.23785116758E-01  0.16590845023E+01 -0.19547637228E+01  0.25640258561E+01  0.51100000000E-03 0.  1.
         12    1    3    3    0    0  0.59448113817E+01 -0.18524584885E+02  0.32046194873E+02  0.37489460297E+02  0.00000000000E+00 0. -1.
</event>
<event>
 7    1  0.8986500E-014  0.5052885E+02  0.7816164E-02  0.1300439E+00
        -11   -1    0    0    0    0  0.00000000000E+00  0.00000000000E+00  0.45593999997E+02  0.45594000000E+02  0.51100000000E-03 0. -1.
         11   -1    0    0    0    0 -0.00000000000E+00 -0.00000000000E+00 -0.45593999997E+02  0.45594000000E+02  0.51100000000E-03 0.  1.
    9900012    2    1    2    0    0 -0.29507308956E+02  0.26216872462E+02 -0.97550273822E+01  0.50528852902E+02  0.29999978881E+02 0.  0.
         12    1    1    2    0    0  0.29507308956E+02 -0.26216872462E+02  0.97550273822E+01  0.40659147098E+02  0.00000000000E+00 0. -1.
         11    1    3    3    0    0  0.19219622173E+01  0.23195333506E+01  0.37482988201E+01  0.48087335168E+01  0.51100000000E-03 0. -1.
        -11    1    3    3    0    0 -0.11370152560E+02  0.18989779944E+02 -0.11580706093E+02  0.24980089380E+02  0.51100000000E-03 0.  1.
        -12    1    3    3    0    0 -0.20059118613E+02  0.49075591673E+01 -0.19226201090E+01  0.20740030005E+02  0.00000000000E+00 0.  1.
</event>
<event>
 7    1  0.8986500E-014  0.5052886E+02  0.7816164E-02  0.1300439E+00
        -11   -1    0    0    0    0  0.00000000000E+00  0.00000000000E+00  0.45593999997E+02  0.45594000000E+02  0.51100000000E-03 0. -1.
         11   -1    0    0    0    0 -0.00000000000E+00 -0.00000000000E+00 -0.45593999997E+02  0.45594000000E+02  0.51100000000E-03 0.  1.
    9900012    2    1    2    0    0 -0.13044744723E+02  0.13636299744E+02 -0.36014602028E+02  0.50528860869E+02  0.30000003099E+02 0.  0.
         12    1    1    2    0    0  0.13044744723E+02 -0.13636299744E+02  0.36014602028E+02  0.40659139131E+02  0.00000000000E+00 0. -1.
         11    1    3    3    0    0 -0.86380796050E+01  0.41266906844E+01 -0.60449739119E+01  0.11322000933E+02  0.51100000000E-03 0. -1.
        -11    1    3    3    0    0 -0.69408710302E+01  0.12464645036E+02 -0.69668989613E+01  0.15877050983E+02  0.51100000000E-03 0.  1.
         12    1    3    3    0    0  0.25342059123E+01 -0.29550359759E+01 -0.23002729155E+02  0.23329808953E+02  0.00000000000E+00 0. -1.
</event>
<event>
 7    1  0.1282371E-013  0.5052886E+02  0.7816164E-02  0.1300439E+00
        -11   -1    0    0    0    0  0.00000000000E+00  0.00000000000E+00  0.45593999997E+02  0.45594000000E+02  0.51100000000E-03 0. -1.
         11   -1    0    0    0    0 -0.00000000000E+00 -0.00000000000E+00 -0.45593999997E+02  0.45594000000E+02  0.51100000000E-03 0.  1.
    9900012    2    1    2    0    0  0.19060558891E+02  0.31453543320E+02  0.17335958511E+02  0.50528858960E+02  0.29999997295E+02 0.  0.
        -12    1    1    2    0    0 -0.19060558891E+02 -0.31453543320E+02 -0.17335958511E+02  0.40659141040E+02  0.00000000000E+00 0.  1.
         11    1    3    3    0    0 -0.15052979112E+01  0.10997398590E+02  0.28126354146E+01  0.11450747390E+02  0.51100000000E-03 0. -1.
        -11    1    3    3    0    0 -0.32903819105E+01 -0.67212305058E+00 -0.11699078067E+01  0.35562686975E+01  0.51100000000E-03 0.  1.
         12    1    3    3    0    0  0.23856238712E+02  0.21128267781E+02  0.15693230903E+02  0.35521842873E+02  0.00000000000E+00 0. -1.
</event>
<event>
 7    1  0.8986500E-014  0.5052893E+02  0.7816164E-02  0.1300439E+00
        -11   -1    0    0    0    0  0.00000000000E+00  0.00000000000E+00  0.45593999997E+02  0.45594000000E+02  0.51100000000E-03 0. -1.
         11   -1    0    0    0    0 -0.00000000000E+00 -0.00000000000E+00 -0.45593999997E+02  0.45594000000E+02  0.51100000000E-03 0.  1.
    9900012    2    1    2    0    0  0.30832863060E+02  0.79172760107E+01 -0.25294485737E+02  0.50528933205E+02  0.30000222970E+02 0.  0.
         12    1    1    2    0    0 -0.30832863060E+02 -0.79172760107E+01  0.25294485737E+02  0.40659066795E+02  0.00000000000E+00 0. -1.
         11    1    3    3    0    0  0.46640430621E+01  0.53819935593E+01  0.17546175622E+01  0.73347007715E+01  0.51100000000E-03 0. -1.
        -11    1    3    3    0    0  0.26849150309E+02  0.76469264106E+01 -0.19503759039E+02  0.34055087326E+02  0.51100000000E-03 0.  1.
        -12    1    3    3    0    0 -0.68033031133E+00 -0.51116439592E+01 -0.75453442603E+01  0.91391451080E+01  0.00000000000E+00 0.  1.
</event>
<event>
 7    1  0.8986500E-014  0.5052886E+02  0.7816164E-02  0.1300439E+00
        -11   -1    0    0    0    0  0.00000000000E+00  0.00000000000E+00  0.45593999997E+02  0.45594000000E+02  0.51100000000E-03 0. -1.
         11   -1    0    0    0    0 -0.00000000000E+00 -0.00000000000E+00 -0.45593999997E+02  0.45594000000E+02  0.51100000000E-03 0.  1.
    9900012    2    1    2    0    0  0.26696112383E+02 -0.19738096865E+02  0.23471060245E+02  0.50528861381E+02  0.30000004653E+02 0.  0.
        -12    1    1    2    0    0 -0.26696112383E+02  0.19738096865E+02 -0.23471060245E+02  0.40659138619E+02  0.00000000000E+00 0.  1.
         11    1    3    3    0    0  0.64191047404E+01 -0.16923756829E+02  0.38930404229E+01  0.18514162548E+02  0.51100000000E-03 0. -1.
        -11    1    3    3    0    0 -0.18957029370E-01  0.38928024255E+01  0.38614387478E+01  0.54831541614E+01  0.51100000000E-03 0.  1.
         12    1    3    3    0    0  0.20295964672E+02 -0.67071424616E+01  0.15716581074E+02  0.26531544671E+02  0.00000000000E+00 0. -1.
</event>
<event>
 7    1  0.1040195E-013  0.5052886E+02  0.7816164E-02  0.1300439E+00
        -11   -1    0    0    0    0  0.00000000000E+00  0.00000000000E+00  0.45593999997E+02  0.45594000000E+02  0.51100000000E-03 0. -1.
         11   -1    0    0    0    0 -0.00000000000E+00 -0.00000000000E+00 -0.45593999997E+02  0.45594000000E+02  0.51100000000E-03 0.  1.
    9900012    2    1    2    0    0 -0.35330808907E+02  0.15119334902E+02  0.13277998952E+02  0.50528860780E+02  0.30000002827E+02 0.  0.
        -12    1    1    2    0    0  0.35330808907E+02 -0.15119334902E+02 -0.13277998952E+02  0.40659139220E+02  0.00000000000E+00 0.  1.
         11    1    3    3    0    0  0.19407967782E+01 -0.35506437112E+00 -0.33076015678E+01  0.38513622570E+01  0.51100000000E-03 0. -1.
        -11    1    3    3    0    0 -0.24016677594E+01 -0.87894740866E+00  0.63212220712E+01  0.68189739190E+01  0.51100000000E-03 0.  1.
         12    1    3    3    0    0 -0.34869937926E+02  0.16353346682E+02  0.10264378449E+02  0.39858524604E+02  0.00000000000E+00 0. -1.
</event>
<event>
 7    1  0.8986500E-014  0.5052884E+02  0.7816164E-02  0.1300439E+00
        -11   -1    0    0    0    0  0.00000000000E+00  0.00000000000E+00  0.45593999997E+02  0.45594000000E+02  0.51100000000E-03 0. -1.
         11   -1    0    0    0    0 -0.00000000000E+00 -0.00000000000E+00 -0.45593999997E+02  0.45594000000E+02  0.51100000000E-03 0.  1.
    9900012    2    1    2    0    0  0.36619326601E+02 -0.95424853053E+01  0.14870557980E+02  0.50528836197E+02  0.29999928104E+02 0.  0.
        -12    1    1    2    0    0 -0.36619326601E+02  0.95424853053E+01 -0.14870557980E+02  0.40659163803E+02  0.00000000000E+00 0.  1.
         11    1    3    3    0    0  0.18581201778E+02 -0.78961143998E+01  0.23221926106E+01  0.20322457059E+02  0.51100000000E-03 0.  1.
        -11    1    3    3    0    0  0.11184199824E+02 -0.61233662585E+01 -0.25761424837E+01  0.13008399225E+02  0.51100000000E-03 0. -1.
        -12    1    3    3    0    0  0.68539249987E+01  0.44769953529E+01  0.15124507853E+02  0.17197979913E+02  0.00000000000E+00 0.  1.
</event>
<event>
 7    1  0.8986500E-014  0.5052886E+02  0.7816164E-02  0.1300439E+00
        -11   -1    0    0    0    0  0.00000000000E+00  0.00000000000E+00  0.45593999997E+02  0.45594000000E+02  0.51100000000E-03 0.  1.
         11   -1    0    0    0    0 -0.00000000000E+00 -0.00000000000E+00 -0.45593999997E+02  0.45594000000E+02  0.51100000000E-03 0. -1.
    9900012    2    1    2    0    0  0.16009022989E+02  0.37037534142E+02  0.50097581596E+01  0.50528862907E+02  0.30000009291E+02 0.  0.
        -12    1    1    2    0    0 -0.16009022989E+02 -0.37037534142E+02 -0.50097581596E+01  0.40659137093E+02  0.00000000000E+00 0.  1.
         11    1    3    3    0    0 -0.30869059375E+01  0.18552599484E+02  0.94417988569E+01  0.21044607428E+02  0.51100000000E-03 0. -1.
        -11    1    3    3    0    0 -0.85084737876E-01  0.87364773725E+00  0.24064311616E+01  0.25615251273E+01  0.51100000000E-03 0.  1.
        -12    1    3    3    0    0  0.19181013665E+02  0.17611286920E+02 -0.68384718588E+01  0.26922730351E+02  0.00000000000E+00 0.  1.
</event>
<event>
 7    1  0.8986500E-014  0.5052886E+02  0.7816164E-02  0.1300439E+00
        -11   -1    0    0    0    0  0.00000000000E+00  0.00000000000E+00  0.45593999997E+02  0.45594000000E+02  0.51100000000E-03 0. -1.
         11   -1    0    0    0    0 -0.00000000000E+00 -0.00000000000E+00 -0.45593999997E+02  0.45594000000E+02  0.51100000000E-03 0.  1.
    9900012    2    1    2    0    0 -0.31159705113E+02  0.71400447826E+01  0.25124849717E+02  0.50528861599E+02  0.30000005317E+02 0.  0.
        -12    1    1    2    0    0  0.31159705113E+02 -0.71400447826E+01 -0.25124849717E+02  0.40659138401E+02  0.00000000000E+00 0.  1.
         11    1    3    3    0    0 -0.21741815329E+02  0.99161051942E+01  0.22593418352E+02  0.32886140381E+02  0.51100000000E-03 0. -1.
        -11    1    3    3    0    0  0.27001367625E+00  0.50138461142E+01  0.49126834081E+00  0.50450872228E+01  0.51100000000E-03 0.  1.
        -12    1    3    3    0    0 -0.96879034597E+01 -0.77899065257E+01  0.20401630238E+01  0.12597633996E+02  0.00000000000E+00 0.  1.
</event>
<event>
 7    1  0.8986500E-014  0.5052887E+02  0.7816164E-02  0.1300439E+00
        -11   -1    0    0    0    0  0.00000000000E+00  0.00000000000E+00  0.45593999997E+02  0.45594000000E+02  0.51100000000E-03 0. -1.
         11   -1    0    0    0    0 -0.00000000000E+00 -0.00000000000E+00 -0.45593999997E+02  0.45594000000E+02  0.51100000000E-03 0.  1.
    9900012    2    1    2    0    0 -0.20680766765E+02 -0.63491348911E+00 -0.35000966610E+02  0.50528869503E+02  0.30000029342E+02 0.  0.
         12    1    1    2    0    0  0.20680766765E+02  0.63491348911E+00  0.35000966610E+02  0.40659130497E+02  0.00000000000E+00 0. -1.
         11    1    3    3    0    0 -0.34463856191E+01 -0.90973717151E+01 -0.76552658690E+01  0.12379129281E+02  0.51100000000E-03 0. -1.
        -11    1    3    3    0    0 -0.10225292683E+02  0.25196046014E+01 -0.13988026960E+01  0.10623637185E+02  0.51100000000E-03 0.  1.
        -12    1    3    3    0    0 -0.70090884634E+01  0.59428536246E+01 -0.25946898045E+02  0.27526103038E+02  0.00000000000E+00 0.  1.
</event>
<event>
 7    1  0.8986500E-014  0.5052882E+02  0.7816164E-02  0.1300439E+00
        -11   -1    0    0    0    0  0.00000000000E+00  0.00000000000E+00  0.45593999997E+02  0.45594000000E+02  0.51100000000E-03 0.  1.
         11   -1    0    0    0    0 -0.00000000000E+00 -0.00000000000E+00 -0.45593999997E+02  0.45594000000E+02  0.51100000000E-03 0. -1.
    9900012    2    1    2    0    0  0.64283082420E+00 -0.40574585371E+02 -0.25414405154E+01  0.50528817404E+02  0.29999870981E+02 0.  0.
        -12    1    1    2    0    0 -0.64283082420E+00  0.40574585371E+02  0.25414405154E+01  0.40659182596E+02  0.00000000000E+00 0.  1.
         11    1    3    3    0    0 -0.16801019756E+01 -0.13732143770E+02  0.25103402801E+01  0.14060452473E+02  0.51100000000E-03 0. -1.
        -11    1    3    3    0    0 -0.40349085718E+01 -0.28983562841E+02 -0.28220376251E+01  0.29398831589E+02  0.51100000000E-03 0.  1.
        -12    1    3    3    0    0  0.63578413715E+01  0.21411212404E+01 -0.22297431704E+01  0.70695333423E+01  0.00000000000E+00 0.  1.
</event>
<event>
 7    1  0.8986500E-014  0.5052885E+02  0.7816164E-02  0.1300439E+00
        -11   -1    0    0    0    0  0.00000000000E+00  0.00000000000E+00  0.45593999997E+02  0.45594000000E+02  0.51100000000E-03 0. -1.
         11   -1    0    0    0    0 -0.00000000000E+00 -0.00000000000E+00 -0.45593999997E+02  0.45594000000E+02  0.51100000000E-03 0.  1.
    9900012    2    1    2    0    0 -0.13602090685E+02 -0.16953303189E+02  0.34361822394E+02  0.50528853449E+02  0.29999980545E+02 0.  0.
        -12    1    1    2    0    0  0.13602090685E+02  0.16953303189E+02 -0.34361822394E+02  0.40659146551E+02  0.00000000000E+00 0.  1.
         11    1    3    3    0    0 -0.22166118517E+01  0.43246049879E+01  0.55300376998E+00  0.48909497884E+01  0.51100000000E-03 0.  1.
        -11    1    3    3    0    0  0.43230081748E+01 -0.44166212827E+01  0.13792896342E+02  0.15114196406E+02  0.51100000000E-03 0. -1.
         12    1    3    3    0    0 -0.15708487008E+02 -0.16861286894E+02  0.20015922282E+02  0.30523707255E+02  0.00000000000E+00 0. -1.
</event>
<event>
 7    1  0.8986500E-014  0.5052886E+02  0.7816164E-02  0.1300439E+00
        -11   -1    0    0    0    0  0.00000000000E+00  0.00000000000E+00  0.45593999997E+02  0.45594000000E+02  0.51100000000E-03 0.  1.
         11   -1    0    0    0    0 -0.00000000000E+00 -0.00000000000E+00 -0.45593999997E+02  0.45594000000E+02  0.51100000000E-03 0. -1.
    9900012    2    1    2    0    0 -0.27582473282E+02  0.29544698971E+02  0.44140331017E+01  0.50528858865E+02  0.29999997006E+02 0.  0.
         12    1    1    2    0    0  0.27582473282E+02 -0.29544698971E+02 -0.44140331017E+01  0.40659141135E+02  0.00000000000E+00 0. -1.
         11    1    3    3    0    0 -0.12105156797E+01  0.11458966020E+01 -0.39965482629E+01  0.43302223398E+01  0.51100000000E-03 0. -1.
        -11    1    3    3    0    0 -0.17013554355E+02  0.47225037844E+01 -0.36460675109E+01  0.18029333941E+02  0.51100000000E-03 0.  1.
        -12    1    3    3    0    0 -0.93584032468E+01  0.23676298584E+02  0.12056648875E+02  0.28169302584E+02  0.00000000000E+00 0.  1.
</event>
<event>
 7    1  0.8986500E-014  0.5052883E+02  0.7816164E-02  0.1300439E+00
        -11   -1    0    0    0    0  0.00000000000E+00  0.00000000000E+00  0.45593999997E+02  0.45594000000E+02  0.51100000000E-03 0.  1.
         11   -1    0    0    0    0 -0.00000000000E+00 -0.00000000000E+00 -0.45593999997E+02  0.45594000000E+02  0.51100000000E-03 0. -1.
    9900012    2    1    2    0    0 -0.24904481485E+02  0.27598649659E+02  0.16469662458E+02  0.50528825850E+02  0.29999896654E+02 0.  0.
         12    1    1    2    0    0  0.24904481485E+02 -0.27598649659E+02 -0.16469662458E+02  0.40659174150E+02  0.00000000000E+00 0. -1.
         11    1    3    3    0    0 -0.76515231550E-01  0.33527232043E+01  0.37581677576E+01  0.50369070491E+01  0.51100000000E-03 0. -1.
        -11    1    3    3    0    0  0.27015842341E+01  0.13142450622E+02  0.74435916560E+01  0.15343716067E+02  0.51100000000E-03 0.  1.
         12    1    3    3    0    0 -0.27529550488E+02  0.11103475833E+02  0.52679030447E+01  0.30148202734E+02  0.00000000000E+00 0. -1.
</event>
<event>
 7    1  0.8986500E-014  0.5052885E+02  0.7816164E-02  0.1300439E+00
        -11   -1    0    0    0    0  0.00000000000E+00  0.00000000000E+00  0.45593999997E+02  0.45594000000E+02  0.51100000000E-03 0. -1.
         11   -1    0    0    0    0 -0.00000000000E+00 -0.00000000000E+00 -0.45593999997E+02  0.45594000000E+02  0.51100000000E-03 0.  1.
    9900012    2    1    2    0    0  0.76121460274E+01  0.16755255197E+02 -0.36255800951E+02  0.50528850397E+02  0.29999971267E+02 0.  0.
         12    1    1    2    0    0 -0.76121460274E+01 -0.16755255197E+02  0.36255800951E+02  0.40659149603E+02  0.00000000000E+00 0. -1.
         11    1    3    3    0    0 -0.71969463368E+01  0.14119416641E+01 -0.10802511704E+02  0.13056947392E+02  0.51100000000E-03 0. -1.
        -11    1    3    3    0    0  0.79794245721E+00 -0.35284092286E+01 -0.57899545750E+01  0.68271486062E+01  0.51100000000E-03 0.  1.
        -12    1    3    3    0    0  0.14011149907E+02  0.18871722762E+02 -0.19663334672E+02  0.30644754398E+02  0.00000000000E+00 0.  1.
</event>
<event>
 7    1  0.8986500E-014  0.5052874E+02  0.7816164E-02  0.1300439E+00
        -11   -1    0    0    0    0  0.00000000000E+00  0.00000000000E+00  0.45593999997E+02  0.45594000000E+02  0.51100000000E-03 0. -1.
         11   -1    0    0    0    0 -0.00000000000E+00 -0.00000000000E+00 -0.45593999997E+02  0.45594000000E+02  0.51100000000E-03 0.  1.
    9900012    2    1    2    0    0  0.93918304718E+01  0.27381657901E+02  0.28551946074E+02  0.50528741600E+02  0.29999640565E+02 0.  0.
        -12    1    1    2    0    0 -0.93918304718E+01 -0.27381657901E+02 -0.28551946074E+02  0.40659258400E+02  0.00000000000E+00 0.  1.
         11    1    3    3    0    0 -0.59096389466E+00  0.23112670389E+02  0.15803796111E+02  0.28005441303E+02  0.51100000000E-03 0. -1.
        -11    1    3    3    0    0  0.64504188903E+01  0.57179495902E+01  0.15555575243E+02  0.17784228203E+02  0.51100000000E-03 0.  1.
         12    1    3    3    0    0  0.35323754761E+01 -0.14489620777E+01 -0.28074252798E+01  0.47390720936E+01  0.00000000000E+00 0. -1.
</event>
<event>
 7    1  0.8986500E-014  0.5052886E+02  0.7816164E-02  0.1300439E+00
        -11   -1    0    0    0    0  0.00000000000E+00  0.00000000000E+00  0.45593999997E+02  0.45594000000E+02  0.51100000000E-03 0.  1.
         11   -1    0    0    0    0 -0.00000000000E+00 -0.00000000000E+00 -0.45593999997E+02  0.45594000000E+02  0.51100000000E-03 0. -1.
    9900012    2    1    2    0    0  0.11483839395E+02 -0.38324523686E+02  0.72469191969E+01  0.50528861779E+02  0.30000005863E+02 0.  0.
         12    1    1    2    0    0 -0.11483839395E+02  0.38324523686E+02 -0.72469191969E+01  0.40659138221E+02  0.00000000000E+00 0. -1.
         11    1    3    3    0    0  0.63561890404E+01 -0.28699924177E+01  0.67153138987E+01  0.96816029981E+01  0.51100000000E-03 0.  1.
        -11    1    3    3    0    0  0.57952617286E+00  0.23221483015E+01 -0.13563229174E+01  0.27509699083E+01  0.51100000000E-03 0. -1.
        -12    1    3    3    0    0  0.45481241815E+01 -0.37776679570E+02  0.18879282156E+01  0.38096288873E+02  0.00000000000E+00 0.  1.
</event>
<event>
 7    1  0.8986500E-014  0.5052886E+02  0.7816164E-02  0.1300439E+00
        -11   -1    0    0    0    0  0.00000000000E+00  0.00000000000E+00  0.45593999997E+02  0.45594000000E+02  0.51100000000E-03 0.  1.
         11   -1    0    0    0    0 -0.00000000000E+00 -0.00000000000E+00 -0.45593999997E+02  0.45594000000E+02  0.51100000000E-03 0. -1.
    9900012    2    1    2    0    0  0.19691673690E+01 -0.37901669844E+02 -0.14585997720E+02  0.50528861709E+02  0.30000005652E+02 0.  0.
        -12    1    1    2    0    0 -0.19691673690E+01  0.37901669844E+02  0.14585997720E+02  0.40659138291E+02  0.00000000000E+00 0.  1.
         11    1    3    3    0    0 -0.37923970954E+01 -0.32827796414E+01 -0.24134591507E+01  0.55663006779E+01  0.51100000000E-03 0. -1.
        -11    1    3    3    0    0 -0.62704235196E+01 -0.24805768329E+02 -0.14268155869E+02  0.29295471078E+02  0.51100000000E-03 0.  1.
         12    1    3    3    0    0  0.12031987984E+02 -0.98131218732E+01  0.20956173004E+01  0.15667089954E+02  0.00000000000E+00 0. -1.
</event>
<event>
 7    1  0.8986500E-014  0.5052894E+02  0.7816164E-02  0.1300439E+00
        -11   -1    0    0    0    0  0.00000000000E+00  0.00000000000E+00  0.45593999997E+02  0.45594000000E+02  0.51100000000E-03 0. -1.
         11   -1    0    0    0    0 -0.00000000000E+00 -0.00000000000E+00 -0.45593999997E+02  0.45594000000E+02  0.51100000000E-03 0.  1.
    9900012    2    1    2    0    0 -0.21582836470E+02 -0.28836691542E+02 -0.18862286808E+02  0.50528936155E+02  0.30000231935E+02 0.  0.
         12    1    1    2    0    0  0.21582836470E+02  0.28836691542E+02  0.18862286808E+02  0.40659063845E+02  0.00000000000E+00 0. -1.
         11    1    3    3    0    0 -0.75891298802E+01 -0.56387334558E+01 -0.51985520975E+00  0.94689205840E+01  0.51100000000E-03 0. -1.
        -11    1    3    3    0    0 -0.12147472704E+02 -0.14909723791E+02  0.16863668802E+01  0.19305563709E+02  0.51100000000E-03 0.  1.
        -12    1    3    3    0    0 -0.18462338852E+01 -0.82882342951E+01 -0.20028798479E+02  0.21754451862E+02  0.00000000000E+00 0.  1.
</event>
<event>
 7    1  0.8986500E-014  0.5052885E+02  0.7816164E-02  0.1300439E+00
        -11   -1    0    0    0    0  0.00000000000E+00  0.00000000000E+00  0.45593999997E+02  0.45594000000E+02  0.51100000000E-03 0. -1.
         11   -1    0    0    0    0 -0.00000000000E+00 -0.00000000000E+00 -0.45593999997E+02  0.45594000000E+02  0.51100000000E-03 0.  1.
    9900012    2    1    2    0    0  0.30797427857E+02 -0.15518047300E+02  0.21537768758E+02  0.50528845585E+02  0.29999956642E+02 0.  0.
        -12    1    1    2    0    0 -0.30797427857E+02  0.15518047300E+02 -0.21537768758E+02  0.40659154415E+02  0.00000000000E+00 0.  1.
         11    1    3    3    0    0  0.23351573141E+01 -0.10094729075E+02  0.42046128954E+00  0.10369826553E+02  0.51100000000E-03 0. -1.
        -11    1    3    3    0    0  0.11406382046E+01 -0.28178022689E+01 -0.25115629590E+01  0.39432237951E+01  0.51100000000E-03 0.  1.
        -12    1    3    3    0    0  0.27321632338E+02 -0.26055159569E+01  0.23628870428E+02  0.36215795238E+02  0.00000000000E+00 0.  1.
</event>
<event>
 7    1  0.8986500E-014  0.5052887E+02  0.7816164E-02  0.1300439E+00
        -11   -1    0    0    0    0  0.00000000000E+00  0.00000000000E+00  0.45593999997E+02  0.45594000000E+02  0.51100000000E-03 0. -1.
         11   -1    0    0    0    0 -0.00000000000E+00 -0.00000000000E+00 -0.45593999997E+02  0.45594000000E+02  0.51100000000E-03 0.  1.
    9900012    2    1    2    0    0 -0.13048846774E+02  0.45952863364E+01  0.38233171421E+02  0.50528874880E+02  0.30000045685E+02 0.  0.
        -12    1    1    2    0    0  0.13048846774E+02 -0.45952863364E+01 -0.38233171421E+02  0.40659125120E+02  0.00000000000E+00 0.  1.
         11    1    3    3    0    0 -0.15520258439E+02 -0.17463938577E+01  0.59381758178E+01  0.16708986978E+02  0.51100000000E-03 0. -1.
        -11    1    3    3    0    0 -0.83883700461E+00  0.26573328268E+01  0.29430362345E+01  0.40529653109E+01  0.51100000000E-03 0.  1.
         12    1    3    3    0    0  0.33102486696E+01  0.36843473674E+01  0.29351959368E+02  0.29766922591E+02  0.00000000000E+00 0. -1.
</event>
<event>
 7    1  0.8986500E-014  0.5052886E+02  0.7816164E-02  0.1300439E+00
        -11   -1    0    0    0    0  0.00000000000E+00  0.00000000000E+00  0.45593999997E+02  0.45594000000E+02  0.51100000000E-03 0. -1.
         11   -1    0    0    0    0 -0.00000000000E+00 -0.00000000000E+00 -0.45593999997E+02  0.45594000000E+02  0.51100000000E-03 0.  1.
    9900012    2    1    2    0    0 -0.18874512972E+02 -0.30823410298E+02  0.18623536679E+02  0.50528856124E+02  0.29999988673E+02 0.  0.
        -12    1    1    2    0    0  0.18874512972E+02  0.30823410298E+02 -0.18623536679E+02  0.40659143876E+02  0.00000000000E+00 0.  1.
         11    1    3    3    0    0 -0.55396042532E+01 -0.39216802838E+01  0.12654447198E+02  0.14359729304E+02  0.51100000000E-03 0. -1.
        -11    1    3    3    0    0  0.37665721749E+01 -0.55204107856E+01 -0.30453310362E+01  0.73441161872E+01  0.51100000000E-03 0.  1.
         12    1    3    3    0    0 -0.17101480893E+02 -0.21381319229E+02  0.90144205173E+01  0.28825010632E+02  0.00000000000E+00 0. -1.
</event>
<event>
 7    1  0.8986500E-014  0.5052885E+02  0.7816164E-02  0.1300439E+00
        -11   -1    0    0    0    0  0.00000000000E+00  0.00000000000E+00  0.45593999997E+02  0.45594000000E+02  0.51100000000E-03 0. -1.
         11   -1    0    0    0    0 -0.00000000000E+00 -0.00000000000E+00 -0.45593999997E+02  0.45594000000E+02  0.51100000000E-03 0.  1.
    9900012    2    1    2    0    0 -0.26724872632E+00 -0.20445167842E+01 -0.40606832111E+02  0.50528852384E+02  0.29999977308E+02 0.  0.
         12    1    1    2    0    0  0.26724872632E+00  0.20445167842E+01  0.40606832111E+02  0.40659147616E+02  0.00000000000E+00 0. -1.
         11    1    3    3    0    0  0.36748721786E+01 -0.34250154954E+01 -0.39642230904E+01  0.63992563353E+01  0.51100000000E-03 0.  1.
        -11    1    3    3    0    0 -0.27801693494E+01 -0.98777928895E+01 -0.70596764722E+01  0.12455487390E+02  0.51100000000E-03 0. -1.
         12    1    3    3    0    0 -0.11619515555E+01  0.11258291601E+02 -0.29582932548E+02  0.31674108659E+02  0.00000000000E+00 0. -1.
</event>
<event>
 7    1  0.8986500E-014  0.5052885E+02  0.7816164E-02  0.1300439E+00
        -11   -1    0    0    0    0  0.00000000000E+00  0.00000000000E+00  0.45593999997E+02  0.45594000000E+02  0.51100000000E-03 0. -1.
         11   -1    0    0    0    0 -0.00000000000E+00 -0.00000000000E+00 -0.45593999997E+02  0.45594000000E+02  0.51100000000E-03 0.  1.
    9900012    2    1    2    0    0 -0.14024649209E+02 -0.15460344467E+00 -0.38163483418E+02  0.50528853990E+02  0.29999982188E+02 0.  0.
         12    1    1    2    0    0  0.14024649209E+02  0.15460344467E+00  0.38163483418E+02  0.40659146010E+02  0.00000000000E+00 0. -1.
         11    1    3    3    0    0  0.56092625094E+01 -0.63271057076E+01 -0.12980882040E+02  0.15491913740E+02  0.51100000000E-03 0. -1.
        -11    1    3    3    0    0  0.21537505416E+00 -0.26354979759E+01 -0.27809356177E+01  0.38374261121E+01  0.51100000000E-03 0.  1.
        -12    1    3    3    0    0 -0.19849286772E+02  0.88080002389E+01 -0.22401665761E+02  0.31199514138E+02  0.00000000000E+00 0.  1.
</event>
<event>
 7    1  0.8986500E-014  0.5052887E+02  0.7816164E-02  0.1300439E+00
        -11   -1    0    0    0    0  0.00000000000E+00  0.00000000000E+00  0.45593999997E+02  0.45594000000E+02  0.51100000000E-03 0. -1.
         11   -1    0    0    0    0 -0.00000000000E+00 -0.00000000000E+00 -0.45593999997E+02  0.45594000000E+02  0.51100000000E-03 0.  1.
    9900012    2    1    2    0    0 -0.26615448356E+02 -0.15977615595E+02  0.26258298748E+02  0.50528873787E+02  0.30000042363E+02 0.  0.
        -12    1    1    2    0    0  0.26615448356E+02  0.15977615595E+02 -0.26258298748E+02  0.40659126213E+02  0.00000000000E+00 0.  1.
         11    1    3    3    0    0 -0.10231138370E+02 -0.41332663251E+01  0.41232773346E+00  0.11042196217E+02  0.51100000000E-03 0. -1.
        -11    1    3    3    0    0 -0.21001553972E+02 -0.10180456308E+02  0.15447224653E+02  0.27987920780E+02  0.51100000000E-03 0.  1.
         12    1    3    3    0    0  0.46172439863E+01 -0.16638929613E+01  0.10398746362E+02  0.11498756790E+02  0.00000000000E+00 0. -1.
</event>
<event>
 7    1  0.8986500E-014  0.5052889E+02  0.7816164E-02  0.1300439E+00
        -11   -1    0    0    0    0  0.00000000000E+00  0.00000000000E+00  0.45593999997E+02  0.45594000000E+02  0.51100000000E-03 0. -1.
         11   -1    0    0    0    0 -0.00000000000E+00 -0.00000000000E+00 -0.45593999997E+02  0.45594000000E+02  0.51100000000E-03 0.  1.
    9900012    2    1    2    0    0 -0.30597574988E+02  0.28048104561E+00 -0.26774486231E+02  0.50528888135E+02  0.30000085974E+02 0.  0.
         12    1    1    2    0    0  0.30597574988E+02 -0.28048104561E+00  0.26774486231E+02  0.40659111865E+02  0.00000000000E+00 0. -1.
         11    1    3    3    0    0 -0.12323343048E+02  0.23969107979E+01 -0.92778232606E+00  0.12588516416E+02  0.51100000000E-03 0. -1.
        -11    1    3    3    0    0 -0.11320106081E+02  0.39257141667E+01 -0.17068957817E+01  0.12102459538E+02  0.51100000000E-03 0.  1.
        -12    1    3    3    0    0 -0.69541258586E+01 -0.60421439190E+01 -0.24139808123E+02  0.25837912180E+02  0.00000000000E+00 0.  1.
</event>
<event>
 7    1  0.8986500E-014  0.5052888E+02  0.7816164E-02  0.1300439E+00
        -11   -1    0    0    0    0  0.00000000000E+00  0.00000000000E+00  0.45593999997E+02  0.45594000000E+02  0.51100000000E-03 0. -1.
         11   -1    0    0    0    0 -0.00000000000E+00 -0.00000000000E+00 -0.45593999997E+02  0.45594000000E+02  0.51100000000E-03 0.  1.
    9900012    2    1    2    0    0 -0.33863713066E+02 -0.17908843582E+02  0.13626665050E+02  0.50528883661E+02  0.30000072376E+02 0.  0.
        -12    1    1    2    0    0  0.33863713066E+02  0.17908843582E+02 -0.13626665050E+02  0.40659116339E+02  0.00000000000E+00 0.  1.
         11    1    3    3    0    0  0.81274076702E+00 -0.56565372562E+01  0.46511770858E+01  0.73682026187E+01  0.51100000000E-03 0. -1.
        -11    1    3    3    0    0  0.34648473545E+00 -0.37316900179E+01 -0.33906107768E+01  0.50538899634E+01  0.51100000000E-03 0.  1.
         12    1    3    3    0    0 -0.35022938569E+02 -0.85206163081E+01  0.12366098741E+02  0.38106791079E+02  0.00000000000E+00 0. -1.
</event>
<event>
 7    1  0.8986500E-014  0.5052885E+02  0.7816164E-02  0.1300439E+00
        -11   -1    0    0    0    0  0.00000000000E+00  0.00000000000E+00  0.45593999997E+02  0.45594000000E+02  0.51100000000E-03 0. -1.
         11   -1    0    0    0    0 -0.00000000000E+00 -0.00000000000E+00 -0.45593999997E+02  0.45594000000E+02  0.51100000000E-03 0.  1.
    9900012    2    1    2    0    0  0.13104089832E+02 -0.35826288074E+02 -0.14068628427E+02  0.50528851050E+02  0.29999973253E+02 0.  0.
         12    1    1    2    0    0 -0.13104089832E+02  0.35826288074E+02  0.14068628427E+02  0.40659148950E+02  0.00000000000E+00 0. -1.
         11    1    3    3    0    0 -0.33433670887E+01 -0.45296815732E+01 -0.46984331322E+00  0.56495018935E+01  0.51100000000E-03 0. -1.
        -11    1    3    3    0    0  0.17366538934E+01 -0.36318566265E+01  0.65061748771E+01  0.76509255056E+01  0.51100000000E-03 0.  1.
        -12    1    3    3    0    0  0.14710803028E+02 -0.27664749874E+02 -0.20104959991E+02  0.37228423651E+02  0.00000000000E+00 0.  1.
</event>
<event>
 7    1  0.8986500E-014  0.5052887E+02  0.7816164E-02  0.1300439E+00
        -11   -1    0    0    0    0  0.00000000000E+00  0.00000000000E+00  0.45593999997E+02  0.45594000000E+02  0.51100000000E-03 0. -1.
         11   -1    0    0    0    0 -0.00000000000E+00 -0.00000000000E+00 -0.45593999997E+02  0.45594000000E+02  0.51100000000E-03 0.  1.
    9900012    2    1    2    0    0 -0.20365446444E+02 -0.42488966510E+01  0.34933656867E+02  0.50528869246E+02  0.30000028560E+02 0.  0.
        -12    1    1    2    0    0  0.20365446444E+02  0.42488966510E+01 -0.34933656867E+02  0.40659130754E+02  0.00000000000E+00 0.  1.
         11    1    3    3    0    0 -0.45370865765E+01  0.30099819448E+01  0.99771379042E+01  0.11366108698E+02  0.51100000000E-03 0. -1.
        -11    1    3    3    0    0 -0.14008244764E+02  0.13200896820E+01  0.26737620390E+02  0.30213803179E+02  0.51100000000E-03 0.  1.
        -12    1    3    3    0    0 -0.18201151037E+01 -0.85789682778E+01 -0.17811014277E+01  0.89489573694E+01  0.00000000000E+00 0.  1.
</event>
<event>
 7    1  0.8986500E-014  0.5052886E+02  0.7816164E-02  0.1300439E+00
        -11   -1    0    0    0    0  0.00000000000E+00  0.00000000000E+00  0.45593999997E+02  0.45594000000E+02  0.51100000000E-03 0. -1.
         11   -1    0    0    0    0 -0.00000000000E+00 -0.00000000000E+00 -0.45593999997E+02  0.45594000000E+02  0.51100000000E-03 0.  1.
    9900012    2    1    2    0    0  0.21893789174E+02 -0.32279294335E+02 -0.11483680087E+02  0.50528858894E+02  0.29999997093E+02 0.  0.
         12    1    1    2    0    0 -0.21893789174E+02  0.32279294335E+02  0.11483680087E+02  0.40659141106E+02  0.00000000000E+00 0. -1.
         11    1    3    3    0    0 -0.17758722532E+01 -0.92812766268E+01 -0.52663878748E+01  0.10818070974E+02  0.51100000000E-03 0. -1.
        -11    1    3    3    0    0  0.69077727958E+00 -0.14589696356E+02 -0.39869248212E+01  0.15140408938E+02  0.51100000000E-03 0.  1.
        -12    1    3    3    0    0  0.22978884148E+02 -0.84083213523E+01 -0.22303673907E+01  0.24570378982E+02  0.00000000000E+00 0.  1.
</event>
<event>
 7    1  0.8986500E-014  0.5052883E+02  0.7816164E-02  0.1300439E+00
        -11   -1    0    0    0    0  0.00000000000E+00  0.00000000000E+00  0.45593999997E+02  0.45594000000E+02  0.51100000000E-03 0.  1.
         11   -1    0    0    0    0 -0.00000000000E+00 -0.00000000000E+00 -0.45593999997E+02  0.45594000000E+02  0.51100000000E-03 0. -1.
    9900012    2    1    2    0    0  0.67449214389E-01 -0.34960989364E+02 -0.20757959777E+02  0.50528828577E+02  0.29999904941E+02 0.  0.
         12    1    1    2    0    0 -0.67449214389E-01  0.34960989364E+02  0.20757959777E+02  0.40659171423E+02  0.00000000000E+00 0. -1.
         11    1    3    3    0    0  0.92530459684E+01 -0.22628343354E+02 -0.37345799961E+01  0.24730707039E+02  0.51100000000E-03 0.  1.
        -11    1    3    3    0    0  0.20336516696E+00 -0.37819497875E+00  0.16586179931E+01  0.17133017076E+01  0.51100000000E-03 0. -1.
         12    1    3    3    0    0 -0.93889619210E+01 -0.11954451031E+02 -0.18681997774E+02  0.24084819830E+02  0.00000000000E+00 0. -1.
</event>
<event>
 7    1  0.8986500E-014  0.5052886E+02  0.7816164E-02  0.1300439E+00
        -11   -1    0    0    0    0  0.00000000000E+00  0.00000000000E+00  0.45593999997E+02  0.45594000000E+02  0.51100000000E-03 0. -1.
         11   -1    0    0    0    0 -0.00000000000E+00 -0.00000000000E+00 -0.45593999997E+02  0.45594000000E+02  0.51100000000E-03 0.  1.
    9900012    2    1    2    0    0  0.27719216434E+02  0.27737594895E+02  0.10744148177E+02  0.50528857728E+02  0.29999993549E+02 0.  0.
        -12    1    1    2    0    0 -0.27719216434E+02 -0.27737594895E+02 -0.10744148177E+02  0.40659142272E+02  0.00000000000E+00 0.  1.
         11    1    3    3    0    0  0.18220353807E+01  0.72918191037E+00  0.32428740410E+01  0.37904816968E+01  0.51100000000E-03 0. -1.
        -11    1    3    3    0    0  0.10128417118E+01 -0.49812129370E+01  0.31424601328E+01  0.59760678212E+01  0.51100000000E-03 0.  1.
        -12    1    3    3    0    0  0.24884339342E+02  0.31989625921E+02  0.43588140031E+01  0.40762308210E+02  0.00000000000E+00 0.  1.
</event>
<event>
 7    1  0.8986500E-014  0.5052886E+02  0.7816164E-02  0.1300439E+00
        -11   -1    0    0    0    0  0.00000000000E+00  0.00000000000E+00  0.45593999997E+02  0.45594000000E+02  0.51100000000E-03 0. -1.
         11   -1    0    0    0    0 -0.00000000000E+00 -0.00000000000E+00 -0.45593999997E+02  0.45594000000E+02  0.51100000000E-03 0.  1.
    9900012    2    1    2    0    0 -0.23435890761E+02  0.11530027928E+02 -0.31160604390E+02  0.50528858522E+02  0.29999995963E+02 0.  0.
         12    1    1    2    0    0  0.23435890761E+02 -0.11530027928E+02  0.31160604390E+02  0.40659141478E+02  0.00000000000E+00 0. -1.
         11    1    3    3    0    0  0.36162368008E+01  0.63893575764E+01 -0.89197977632E+01  0.11552655592E+02  0.51100000000E-03 0. -1.
        -11    1    3    3    0    0  0.11149239543E+01 -0.31463350601E+00 -0.57883851126E+01  0.59031730569E+01  0.51100000000E-03 0.  1.
        -12    1    3    3    0    0 -0.28167051516E+02  0.54553038579E+01 -0.16452421515E+02  0.33073029873E+02  0.00000000000E+00 0.  1.
</event>
<event>
 7    1  0.8986500E-014  0.5052876E+02  0.7816164E-02  0.1300439E+00
        -11   -1    0    0    0    0  0.00000000000E+00  0.00000000000E+00  0.45593999997E+02  0.45594000000E+02  0.51100000000E-03 0. -1.
         11   -1    0    0    0    0 -0.00000000000E+00 -0.00000000000E+00 -0.45593999997E+02  0.45594000000E+02  0.51100000000E-03 0.  1.
    9900012    2    1    2    0    0 -0.16799551741E+02 -0.16598956128E+01  0.36989099605E+02  0.50528761422E+02  0.29999700817E+02 0.  0.
        -12    1    1    2    0    0  0.16799551741E+02  0.16598956128E+01 -0.36989099605E+02  0.40659238578E+02  0.00000000000E+00 0.  1.
         11    1    3    3    0    0 -0.33713498563E+01  0.10106989868E+02  0.67533082924E+01  0.12614452711E+02  0.51100000000E-03 0. -1.
        -11    1    3    3    0    0 -0.13247800834E+02 -0.26990544847E+01  0.20953397764E+02  0.24936599611E+02  0.51100000000E-03 0.  1.
        -12    1    3    3    0    0 -0.18040105141E+00 -0.90678309957E+01  0.92823935484E+01  0.12977709100E+02  0.00000000000E+00 0.  1.
</event>
<event>
 7    1  0.8986500E-014  0.5052887E+02  0.7816164E-02  0.1300439E+00
        -11   -1    0    0    0    0  0.00000000000E+00  0.00000000000E+00  0.45593999997E+02  0.45594000000E+02  0.51100000000E-03 0. -1.
         11   -1    0    0    0    0 -0.00000000000E+00 -0.00000000000E+00 -0.45593999997E+02  0.45594000000E+02  0.51100000000E-03 0.  1.
    9900012    2    1    2    0    0  0.13600063061E+02  0.44244851630E+01 -0.38060838265E+02  0.50528865803E+02  0.30000018093E+02 0.  0.
         12    1    1    2    0    0 -0.13600063061E+02 -0.44244851630E+01  0.38060838265E+02  0.40659134197E+02  0.00000000000E+00 0. -1.
         11    1    3    3    0    0  0.57396867283E+01 -0.19210466598E+01 -0.12314821366E+02  0.13721852992E+02  0.51100000000E-03 0.  1.
        -11    1    3    3    0    0 -0.35117827123E+01 -0.32205768749E+01 -0.20501828479E+02  0.21048270819E+02  0.51100000000E-03 0. -1.
        -12    1    3    3    0    0  0.11372159045E+02  0.95661086977E+01 -0.52441884211E+01  0.15758741992E+02  0.00000000000E+00 0.  1.
</event>
<event>
 7    1  0.8986500E-014  0.5052884E+02  0.7816164E-02  0.1300439E+00
        -11   -1    0    0    0    0  0.00000000000E+00  0.00000000000E+00  0.45593999997E+02  0.45594000000E+02  0.51100000000E-03 0. -1.
         11   -1    0    0    0    0 -0.00000000000E+00 -0.00000000000E+00 -0.45593999997E+02  0.45594000000E+02  0.51100000000E-03 0.  1.
    9900012    2    1    2    0    0  0.34626767298E+01 -0.12168670738E+01  0.40493163044E+02  0.50528841758E+02  0.29999945008E+02 0.  0.
        -12    1    1    2    0    0 -0.34626767298E+01  0.12168670738E+01 -0.40493163044E+02  0.40659158242E+02  0.00000000000E+00 0.  1.
         11    1    3    3    0    0  0.45947949270E+01  0.12388007304E+01  0.21165666650E+02  0.21694059387E+02  0.51100000000E-03 0. -1.
        -11    1    3    3    0    0  0.23164384146E+01  0.12411827690E+01  0.22639092366E+02  0.22791115045E+02  0.51100000000E-03 0.  1.
        -12    1    3    3    0    0 -0.34485566118E+01 -0.36968505732E+01 -0.33115959719E+01  0.60436673259E+01  0.00000000000E+00 0.  1.
</event>
<event>
 7    1  0.9773824E-014  0.5052887E+02  0.7816164E-02  0.1300439E+00
        -11   -1    0    0    0    0  0.00000000000E+00  0.00000000000E+00  0.45593999997E+02  0.45594000000E+02  0.51100000000E-03 0. -1.
         11   -1    0    0    0    0 -0.00000000000E+00 -0.00000000000E+00 -0.45593999997E+02  0.45594000000E+02  0.51100000000E-03 0.  1.
    9900012    2    1    2    0    0 -0.11018153509E+02  0.10318384512E+02  0.37753090688E+02  0.50528872831E+02  0.30000039456E+02 0.  0.
        -12    1    1    2    0    0  0.11018153509E+02 -0.10318384512E+02 -0.37753090688E+02  0.40659127169E+02  0.00000000000E+00 0.  1.
         11    1    3    3    0    0 -0.30034932241E+01  0.23221664661E+01  0.22004875477E+02  0.22329979258E+02  0.51100000000E-03 0. -1.
        -11    1    3    3    0    0 -0.47826849030E+01 -0.67326231521E+01  0.64988733449E+01  0.10508931649E+02  0.51100000000E-03 0.  1.
         12    1    3    3    0    0 -0.32319753818E+01  0.14728841198E+02  0.92493418657E+01  0.17689961923E+02  0.00000000000E+00 0. -1.
</event>
<event>
 7    1  0.8986500E-014  0.5052886E+02  0.7816164E-02  0.1300439E+00
        -11   -1    0    0    0    0  0.00000000000E+00  0.00000000000E+00  0.45593999997E+02  0.45594000000E+02  0.51100000000E-03 0. -1.
         11   -1    0    0    0    0 -0.00000000000E+00 -0.00000000000E+00 -0.45593999997E+02  0.45594000000E+02  0.51100000000E-03 0.  1.
    9900012    2    1    2    0    0  0.14875364055E+02 -0.65785111539E+01  0.37264092175E+02  0.50528857973E+02  0.29999994294E+02 0.  0.
        -12    1    1    2    0    0 -0.14875364055E+02  0.65785111539E+01 -0.37264092175E+02  0.40659142027E+02  0.00000000000E+00 0.  1.
         11    1    3    3    0    0  0.77251133178E+01 -0.54717069500E+00  0.11388463657E+02  0.13772213921E+02  0.51100000000E-03 0. -1.
        -11    1    3    3    0    0  0.10256899380E+02 -0.13541833485E+02  0.21878304270E+02  0.27699195602E+02  0.51100000000E-03 0.  1.
        -12    1    3    3    0    0 -0.31066486427E+01  0.75104930258E+01  0.39973242480E+01  0.90574484500E+01  0.00000000000E+00 0.  1.
</event>
<event>
 7    1  0.8986500E-014  0.5052886E+02  0.7816164E-02  0.1300439E+00
        -11   -1    0    0    0    0  0.00000000000E+00  0.00000000000E+00  0.45593999997E+02  0.45594000000E+02  0.51100000000E-03 0. -1.
         11   -1    0    0    0    0 -0.00000000000E+00 -0.00000000000E+00 -0.45593999997E+02  0.45594000000E+02  0.51100000000E-03 0.  1.
    9900012    2    1    2    0    0  0.39329552694E+02 -0.10311028960E+02 -0.18560082463E+00  0.50528862269E+02  0.30000007353E+02 0.  0.
         12    1    1    2    0    0 -0.39329552694E+02  0.10311028960E+02  0.18560082463E+00  0.40659137731E+02  0.00000000000E+00 0. -1.
         11    1    3    3    0    0  0.16601389087E+02 -0.10942846072E+02 -0.33529304127E+01  0.20164179686E+02  0.51100000000E-03 0. -1.
        -11    1    3    3    0    0 -0.26360582682E+01 -0.34893443173E+01  0.14630660159E+01  0.46113869265E+01  0.51100000000E-03 0.  1.
        -12    1    3    3    0    0  0.25364221875E+02  0.41211614291E+01  0.17042635722E+01  0.25753295657E+02  0.00000000000E+00 0.  1.
</event>
<event>
 7    1  0.8986500E-014  0.5052886E+02  0.7816164E-02  0.1300439E+00
        -11   -1    0    0    0    0  0.00000000000E+00  0.00000000000E+00  0.45593999997E+02  0.45594000000E+02  0.51100000000E-03 0.  1.
         11   -1    0    0    0    0 -0.00000000000E+00 -0.00000000000E+00 -0.45593999997E+02  0.45594000000E+02  0.51100000000E-03 0. -1.
    9900012    2    1    2    0    0  0.15178576042E+02 -0.37609811569E+02 -0.28772517937E+01  0.50528859886E+02  0.30000000110E+02 0.  0.
        -12    1    1    2    0    0 -0.15178576042E+02  0.37609811569E+02  0.28772517937E+01  0.40659140114E+02  0.00000000000E+00 0.  1.
         11    1    3    3    0    0  0.95661873806E+01 -0.15558359166E+02 -0.69664312417E+01  0.19547522744E+02  0.51100000000E-03 0. -1.
        -11    1    3    3    0    0  0.12569093932E+02 -0.80925233396E+01  0.39870318514E+00  0.14954264300E+02  0.51100000000E-03 0.  1.
        -12    1    3    3    0    0 -0.69567052709E+01 -0.13958929064E+02  0.36904762628E+01  0.16027072842E+02  0.00000000000E+00 0.  1.
</event>
<event>
 7    1  0.8986500E-014  0.5052886E+02  0.7816164E-02  0.1300439E+00
        -11   -1    0    0    0    0  0.00000000000E+00  0.00000000000E+00  0.45593999997E+02  0.45594000000E+02  0.51100000000E-03 0. -1.
         11   -1    0    0    0    0 -0.00000000000E+00 -0.00000000000E+00 -0.45593999997E+02  0.45594000000E+02  0.51100000000E-03 0.  1.
    9900012    2    1    2    0    0 -0.56857537444E+01  0.17911462908E+02 -0.36055756436E+02  0.50528857469E+02  0.29999992764E+02 0.  0.
         12    1    1    2    0    0  0.56857537444E+01 -0.17911462908E+02  0.36055756436E+02  0.40659142531E+02  0.00000000000E+00 0. -1.
         11    1    3    3    0    0 -0.62246750903E+01 -0.12738441411E+01 -0.77656562832E+00  0.64009619052E+01  0.51100000000E-03 0. -1.
        -11    1    3    3    0    0 -0.32938618214E+01  0.39031298966E+00  0.66757887131E+00  0.33834201245E+01  0.51100000000E-03 0.  1.
        -12    1    3    3    0    0  0.38327831673E+01  0.18794994060E+02 -0.35946769679E+02  0.40744475440E+02  0.00000000000E+00 0.  1.
</event>
<event>
 7    1  0.8986500E-014  0.5052887E+02  0.7816164E-02  0.1300439E+00
        -11   -1    0    0    0    0  0.00000000000E+00  0.00000000000E+00  0.45593999997E+02  0.45594000000E+02  0.51100000000E-03 0. -1.
         11   -1    0    0    0    0 -0.00000000000E+00 -0.00000000000E+00 -0.45593999997E+02  0.45594000000E+02  0.51100000000E-03 0.  1.
    9900012    2    1    2    0    0  0.20260231035E+02 -0.19374836409E+02 -0.29450015415E+02  0.50528872422E+02  0.30000038213E+02 0.  0.
         12    1    1    2    0    0 -0.20260231035E+02  0.19374836409E+02  0.29450015415E+02  0.40659127578E+02  0.00000000000E+00 0. -1.
         11    1    3    3    0    0  0.14059592177E+02 -0.21102783323E+02 -0.63416395879E+01  0.26138400660E+02  0.51100000000E-03 0. -1.
        -11    1    3    3    0    0  0.10634173844E+01 -0.10502159543E+01 -0.89644474741E+01  0.90881862250E+01  0.51100000000E-03 0.  1.
        -12    1    3    3    0    0  0.51372214742E+01  0.27781628679E+01 -0.14143928353E+02  0.15302285537E+02  0.00000000000E+00 0.  1.
</event>
<event>
 7    1  0.8986500E-014  0.5052886E+02  0.7816164E-02  0.1300439E+00
        -11   -1    0    0    0    0  0.00000000000E+00  0.00000000000E+00  0.45593999997E+02  0.45594000000E+02  0.51100000000E-03 0. -1.
         11   -1    0    0    0    0 -0.00000000000E+00 -0.00000000000E+00 -0.45593999997E+02  0.45594000000E+02  0.51100000000E-03 0.  1.
    9900012    2    1    2    0    0 -0.26374515663E+02 -0.25231470720E+02  0.17914345882E+02  0.50528856139E+02  0.29999988720E+02 0.  0.
        -12    1    1    2    0    0  0.26374515663E+02  0.25231470720E+02 -0.17914345882E+02  0.40659143861E+02  0.00000000000E+00 0.  1.
         11    1    3    3    0    0 -0.73947350861E+01 -0.11320626007E+02  0.37100745625E+01  0.14021531076E+02  0.51100000000E-03 0. -1.
        -11    1    3    3    0    0 -0.42457207920E+01  0.52240114858E+01 -0.24583668035E+01  0.71665897503E+01  0.51100000000E-03 0.  1.
         12    1    3    3    0    0 -0.14734059785E+02 -0.19134856198E+02  0.16662638123E+02  0.29340735313E+02  0.00000000000E+00 0. -1.
</event>
<event>
 7    1  0.8986500E-014  0.5052886E+02  0.7816164E-02  0.1300439E+00
        -11   -1    0    0    0    0  0.00000000000E+00  0.00000000000E+00  0.45593999997E+02  0.45594000000E+02  0.51100000000E-03 0. -1.
         11   -1    0    0    0    0 -0.00000000000E+00 -0.00000000000E+00 -0.45593999997E+02  0.45594000000E+02  0.51100000000E-03 0.  1.
    9900012    2    1    2    0    0  0.36830367348E+01  0.23320408323E+02 -0.33102259585E+02  0.50528858425E+02  0.29999995669E+02 0.  0.
         12    1    1    2    0    0 -0.36830367348E+01 -0.23320408323E+02  0.33102259585E+02  0.40659141575E+02  0.00000000000E+00 0. -1.
         11    1    3    3    0    0 -0.64731837045E+00 -0.60194871901E+00  0.30187764138E+01  0.31455324876E+01  0.51100000000E-03 0. -1.
        -11    1    3    3    0    0  0.19865724273E+00  0.14825309040E+02 -0.66221005687E+01  0.16238271738E+02  0.51100000000E-03 0.  1.
         12    1    3    3    0    0  0.41316978626E+01  0.90970480023E+01 -0.29498935431E+02  0.31145054200E+02  0.00000000000E+00 0. -1.
</event>
<event>
 7    1  0.8986500E-014  0.5052883E+02  0.7816164E-02  0.1300439E+00
        -11   -1    0    0    0    0  0.00000000000E+00  0.00000000000E+00  0.45593999997E+02  0.45594000000E+02  0.51100000000E-03 0.  1.
         11   -1    0    0    0    0 -0.00000000000E+00 -0.00000000000E+00 -0.45593999997E+02  0.45594000000E+02  0.51100000000E-03 0. -1.
    9900012    2    1    2    0    0 -0.31977679097E+02  0.22118221301E+02  0.11890354342E+02  0.50528828829E+02  0.29999905708E+02 0.  0.
        -12    1    1    2    0    0  0.31977679097E+02 -0.22118221301E+02 -0.11890354342E+02  0.40659171171E+02  0.00000000000E+00 0.  1.
         11    1    3    3    0    0  0.16965499476E+01  0.11043013608E+02  0.63923061691E+01  0.12871985460E+02  0.51100000000E-03 0.  1.
        -11    1    3    3    0    0 -0.92453512764E+01 -0.21199940592E+01  0.16161684275E+01  0.96220006070E+01  0.51100000000E-03 0. -1.
        -12    1    3    3    0    0 -0.24428877768E+02  0.13195201753E+02  0.38818797452E+01  0.28034842762E+02  0.00000000000E+00 0.  1.
</event>
<event>
 7    1  0.8986500E-014  0.5052888E+02  0.7816164E-02  0.1300439E+00
        -11   -1    0    0    0    0  0.00000000000E+00  0.00000000000E+00  0.45593999997E+02  0.45594000000E+02  0.51100000000E-03 0. -1.
         11   -1    0    0    0    0 -0.00000000000E+00 -0.00000000000E+00 -0.45593999997E+02  0.45594000000E+02  0.51100000000E-03 0.  1.
    9900012    2    1    2    0    0  0.14364484375E+02 -0.37549005919E+02 -0.60743866821E+01  0.50528875189E+02  0.30000046624E+02 0.  0.
        -12    1    1    2    0    0 -0.14364484375E+02  0.37549005919E+02  0.60743866821E+01  0.40659124811E+02  0.00000000000E+00 0.  1.
         11    1    3    3    0    0  0.13992263486E+02 -0.16933995002E+02 -0.46833124771E+01  0.22460566337E+02  0.51100000000E-03 0. -1.
        -11    1    3    3    0    0  0.24816158962E+01 -0.39710202090E+01 -0.86123608655E+01  0.98030698710E+01  0.51100000000E-03 0.  1.
        -12    1    3    3    0    0 -0.21093950066E+01 -0.16643990708E+02  0.72212866605E+01  0.18265238980E+02  0.00000000000E+00 0.  1.
</event>
<event>
 7    1  0.8986500E-014  0.5052886E+02  0.7816164E-02  0.1300439E+00
        -11   -1    0    0    0    0  0.00000000000E+00  0.00000000000E+00  0.45593999997E+02  0.45594000000E+02  0.51100000000E-03 0. -1.
         11   -1    0    0    0    0 -0.00000000000E+00 -0.00000000000E+00 -0.45593999997E+02  0.45594000000E+02  0.51100000000E-03 0.  1.
    9900012    2    1    2    0    0 -0.50799433223E+01  0.26310283041E+02 -0.30579878311E+02  0.50528858649E+02  0.29999996350E+02 0.  0.
         12    1    1    2    0    0  0.50799433223E+01 -0.26310283041E+02  0.30579878311E+02  0.40659141351E+02  0.00000000000E+00 0. -1.
         11    1    3    3    0    0 -0.13467905350E+01  0.15826369656E+02 -0.24159445600E+02  0.28913087576E+02  0.51100000000E-03 0. -1.
        -11    1    3    3    0    0 -0.23788128260E+01  0.64928488208E+01 -0.12460513854E+02  0.14250622514E+02  0.51100000000E-03 0.  1.
         12    1    3    3    0    0 -0.13543399613E+01  0.39910645640E+01  0.60400811425E+01  0.73651485588E+01  0.00000000000E+00 0. -1.
</event>
<event>
 7    1  0.8986500E-014  0.5052886E+02  0.7816164E-02  0.1300439E+00
        -11   -1    0    0    0    0  0.00000000000E+00  0.00000000000E+00  0.45593999997E+02  0.45594000000E+02  0.51100000000E-03 0. -1.
         11   -1    0    0    0    0 -0.00000000000E+00 -0.00000000000E+00 -0.45593999997E+02  0.45594000000E+02  0.51100000000E-03 0.  1.
    9900012    2    1    2    0    0  0.11254805504E+02  0.27474255923E+02 -0.27778775904E+02  0.50528858640E+02  0.29999996321E+02 0.  0.
         12    1    1    2    0    0 -0.11254805504E+02 -0.27474255923E+02  0.27778775904E+02  0.40659141360E+02  0.00000000000E+00 0. -1.
         11    1    3    3    0    0 -0.42142765417E+01 -0.42329434931E+01 -0.18368042028E+01  0.62491429273E+01  0.51100000000E-03 0. -1.
        -11    1    3    3    0    0  0.89639669763E+00  0.61675294812E-01 -0.10388223412E+00  0.90450133289E+00  0.51100000000E-03 0.  1.
        -12    1    3    3    0    0  0.14572685348E+02  0.31645524121E+02 -0.25838089467E+02  0.43375214379E+02  0.00000000000E+00 0.  1.
</event>
<event>
 7    1  0.8986500E-014  0.5052886E+02  0.7816164E-02  0.1300439E+00
        -11   -1    0    0    0    0  0.00000000000E+00  0.00000000000E+00  0.45593999997E+02  0.45594000000E+02  0.51100000000E-03 0. -1.
         11   -1    0    0    0    0 -0.00000000000E+00 -0.00000000000E+00 -0.45593999997E+02  0.45594000000E+02  0.51100000000E-03 0.  1.
    9900012    2    1    2    0    0  0.31714059807E+02  0.17810003037E+02  0.18171067385E+02  0.50528862189E+02  0.30000007110E+02 0.  0.
        -12    1    1    2    0    0 -0.31714059807E+02 -0.17810003037E+02 -0.18171067385E+02  0.40659137811E+02  0.00000000000E+00 0.  1.
         11    1    3    3    0    0  0.28506328719E+02  0.96189994151E+01  0.13176171721E+02  0.32844290649E+02  0.51100000000E-03 0. -1.
        -11    1    3    3    0    0  0.70905032434E+01  0.95240855739E+01  0.93427117106E+00  0.11910344460E+02  0.51100000000E-03 0.  1.
        -12    1    3    3    0    0 -0.38827721551E+01 -0.13330819524E+01  0.40606244931E+01  0.57742270803E+01  0.00000000000E+00 0.  1.
</event>
<event>
 7    1  0.8986500E-014  0.5052886E+02  0.7816164E-02  0.1300439E+00
        -11   -1    0    0    0    0  0.00000000000E+00  0.00000000000E+00  0.45593999997E+02  0.45594000000E+02  0.51100000000E-03 0. -1.
         11   -1    0    0    0    0 -0.00000000000E+00 -0.00000000000E+00 -0.45593999997E+02  0.45594000000E+02  0.51100000000E-03 0.  1.
    9900012    2    1    2    0    0 -0.75017093409E+01 -0.91139401877E+01 -0.38907919094E+02  0.50528859367E+02  0.29999998531E+02 0.  0.
         12    1    1    2    0    0  0.75017093409E+01  0.91139401877E+01  0.38907919094E+02  0.40659140633E+02  0.00000000000E+00 0. -1.
         11    1    3    3    0    0  0.33414771780E+01 -0.38561225774E+01 -0.81283517804E+01  0.95971482217E+01  0.51100000000E-03 0. -1.
        -11    1    3    3    0    0  0.77086268242E+01 -0.18064279430E+01 -0.11428344835E+02  0.13902991597E+02  0.51100000000E-03 0.  1.
        -12    1    3    3    0    0 -0.18551813343E+02 -0.34513896672E+01 -0.19351222479E+02  0.27028719548E+02  0.00000000000E+00 0.  1.
</event>
<event>
 7    1  0.8986500E-014  0.5052886E+02  0.7816164E-02  0.1300439E+00
        -11   -1    0    0    0    0  0.00000000000E+00  0.00000000000E+00  0.45593999997E+02  0.45594000000E+02  0.51100000000E-03 0. -1.
         11   -1    0    0    0    0 -0.00000000000E+00 -0.00000000000E+00 -0.45593999997E+02  0.45594000000E+02  0.51100000000E-03 0.  1.
    9900012    2    1    2    0    0  0.16608750640E+02 -0.26966752340E+02  0.25497241850E+02  0.50528859926E+02  0.30000000231E+02 0.  0.
        -12    1    1    2    0    0 -0.16608750640E+02  0.26966752340E+02 -0.25497241850E+02  0.40659140074E+02  0.00000000000E+00 0.  1.
         11    1    3    3    0    0  0.14285163920E+02 -0.22164194040E+02  0.27904937555E+02  0.38392746006E+02  0.51100000000E-03 0. -1.
        -11    1    3    3    0    0 -0.39914288018E+01 -0.17416167650E+01  0.78703879429E+00  0.44253997741E+01  0.51100000000E-03 0.  1.
        -12    1    3    3    0    0  0.63150155222E+01 -0.30609415351E+01 -0.31947344990E+01  0.77107141463E+01  0.00000000000E+00 0.  1.
</event>
<event>
 7    1  0.8986500E-014  0.5052885E+02  0.7816164E-02  0.1300439E+00
        -11   -1    0    0    0    0  0.00000000000E+00  0.00000000000E+00  0.45593999997E+02  0.45594000000E+02  0.51100000000E-03 0. -1.
         11   -1    0    0    0    0 -0.00000000000E+00 -0.00000000000E+00 -0.45593999997E+02  0.45594000000E+02  0.51100000000E-03 0.  1.
    9900012    2    1    2    0    0 -0.30766503230E+02 -0.20764529528E+02  0.16595863275E+02  0.50528854837E+02  0.29999984763E+02 0.  0.
        -12    1    1    2    0    0  0.30766503230E+02  0.20764529528E+02 -0.16595863275E+02  0.40659145163E+02  0.00000000000E+00 0.  1.
         11    1    3    3    0    0  0.28344248383E+01 -0.16160628828E+01  0.40292212140E+01  0.51846164041E+01  0.51100000000E-03 0. -1.
        -11    1    3    3    0    0 -0.30617070789E+01 -0.68505778136E+01  0.97478472359E+01  0.12301422382E+02  0.51100000000E-03 0.  1.
         12    1    3    3    0    0 -0.30539220989E+02 -0.12297888832E+02  0.28187948249E+01  0.33042816052E+02  0.00000000000E+00 0. -1.
</event>
<event>
 7    1  0.8986500E-014  0.5052885E+02  0.7816164E-02  0.1300439E+00
        -11   -1    0    0    0    0  0.00000000000E+00  0.00000000000E+00  0.45593999997E+02  0.45594000000E+02  0.51100000000E-03 0. -1.
         11   -1    0    0    0    0 -0.00000000000E+00 -0.00000000000E+00 -0.45593999997E+02  0.45594000000E+02  0.51100000000E-03 0.  1.
    9900012    2    1    2    0    0 -0.23234066724E+02 -0.33540500870E+01  0.33197813057E+02  0.50528852194E+02  0.29999976729E+02 0.  0.
        -12    1    1    2    0    0  0.23234066724E+02  0.33540500870E+01 -0.33197813057E+02  0.40659147806E+02  0.00000000000E+00 0.  1.
         11    1    3    3    0    0 -0.93183373056E+01 -0.18852351510E+01  0.15625434372E+02  0.18290427039E+02  0.51100000000E-03 0. -1.
        -11    1    3    3    0    0 -0.10387331079E+02 -0.71222038167E+01 -0.87434996798E+00  0.12624853357E+02  0.51100000000E-03 0.  1.
         12    1    3    3    0    0 -0.35283983401E+01  0.56533888806E+01  0.18446728653E+02  0.19613571798E+02  0.00000000000E+00 0. -1.
</event>
<event>
 7    1  0.8986500E-014  0.5052885E+02  0.7816164E-02  0.1300439E+00
        -11   -1    0    0    0    0  0.00000000000E+00  0.00000000000E+00  0.45593999997E+02  0.45594000000E+02  0.51100000000E-03 0. -1.
         11   -1    0    0    0    0 -0.00000000000E+00 -0.00000000000E+00 -0.45593999997E+02  0.45594000000E+02  0.51100000000E-03 0.  1.
    9900012    2    1    2    0    0 -0.12840073615E+02  0.27456557675E+02 -0.27100487800E+02  0.50528849876E+02  0.29999969684E+02 0.  0.
         12    1    1    2    0    0  0.12840073615E+02 -0.27456557675E+02  0.27100487800E+02  0.40659150124E+02  0.00000000000E+00 0. -1.
         11    1    3    3    0    0 -0.69673785217E+01  0.88778279067E+01 -0.21628068355E+02  0.24395358838E+02  0.51100000000E-03 0. -1.
        -11    1    3    3    0    0 -0.49429992089E+01  0.17437329437E+02 -0.10464802444E+02  0.20928587853E+02  0.51100000000E-03 0.  1.
         12    1    3    3    0    0 -0.92969588471E+00  0.11414003316E+01  0.49923829996E+01  0.52049031855E+01  0.00000000000E+00 0. -1.
</event>
<event>
 7    1  0.8986500E-014  0.5052887E+02  0.7816164E-02  0.1300439E+00
        -11   -1    0    0    0    0  0.00000000000E+00  0.00000000000E+00  0.45593999997E+02  0.45594000000E+02  0.51100000000E-03 0. -1.
         11   -1    0    0    0    0 -0.00000000000E+00 -0.00000000000E+00 -0.45593999997E+02  0.45594000000E+02  0.51100000000E-03 0.  1.
    9900012    2    1    2    0    0  0.17449850915E+02  0.36638093768E+02 -0.25134200789E+01  0.50528874426E+02  0.30000044307E+02 0.  0.
         12    1    1    2    0    0 -0.17449850915E+02 -0.36638093768E+02  0.25134200789E+01  0.40659125574E+02  0.00000000000E+00 0. -1.
         11    1    3    3    0    0 -0.29058325205E+01  0.79556266316E+01 -0.15386764237E+01  0.86083321925E+01  0.51100000000E-03 0. -1.
        -11    1    3    3    0    0  0.59850219031E+01  0.18455357823E+02 -0.10302906687E+02  0.21967489752E+02  0.51100000000E-03 0.  1.
         12    1    3    3    0    0  0.14370661532E+02  0.10227109314E+02  0.93281630318E+01  0.19953052482E+02  0.00000000000E+00 0. -1.
</event>
<event>
 7    1  0.8986500E-014  0.5052885E+02  0.7816164E-02  0.1300439E+00
        -11   -1    0    0    0    0  0.00000000000E+00  0.00000000000E+00  0.45593999997E+02  0.45594000000E+02  0.51100000000E-03 0. -1.
         11   -1    0    0    0    0 -0.00000000000E+00 -0.00000000000E+00 -0.45593999997E+02  0.45594000000E+02  0.51100000000E-03 0.  1.
    9900012    2    1    2    0    0 -0.12795298689E+02 -0.30284023981E+02  0.23923300606E+02  0.50528854794E+02  0.29999984632E+02 0.  0.
        -12    1    1    2    0    0  0.12795298689E+02  0.30284023981E+02 -0.23923300606E+02  0.40659145206E+02  0.00000000000E+00 0.  1.
         11    1    3    3    0    0 -0.11274616495E+02 -0.38077418869E+01  0.29705155616E+01  0.12265391896E+02  0.51100000000E-03 0.  1.
        -11    1    3    3    0    0 -0.32565263682E+00  0.20003766675E+01 -0.10259733865E+01  0.22716025406E+01  0.51100000000E-03 0. -1.
        -12    1    3    3    0    0 -0.11950295570E+01 -0.28476658761E+02  0.21978758431E+02  0.35991860358E+02  0.00000000000E+00 0.  1.
</event>
<event>
 7    1  0.8986500E-014  0.5052886E+02  0.7816164E-02  0.1300439E+00
        -11   -1    0    0    0    0  0.00000000000E+00  0.00000000000E+00  0.45593999997E+02  0.45594000000E+02  0.51100000000E-03 0. -1.
         11   -1    0    0    0    0 -0.00000000000E+00 -0.00000000000E+00 -0.45593999997E+02  0.45594000000E+02  0.51100000000E-03 0.  1.
    9900012    2    1    2    0    0 -0.34068918262E+01  0.16406853319E+02 -0.37045568180E+02  0.50528857492E+02  0.29999992832E+02 0.  0.
         12    1    1    2    0    0  0.34068918262E+01 -0.16406853319E+02  0.37045568180E+02  0.40659142508E+02  0.00000000000E+00 0. -1.
         11    1    3    3    0    0  0.10923005520E+01  0.11504529926E+02 -0.12569639785E+02  0.17074635396E+02  0.51100000000E-03 0. -1.
        -11    1    3    3    0    0 -0.13072592998E+01  0.82404975941E+01 -0.26951868894E+02  0.28213790327E+02  0.51100000000E-03 0.  1.
         12    1    3    3    0    0 -0.31919330785E+01 -0.33381742004E+01  0.24759404994E+01  0.52404317691E+01  0.00000000000E+00 0. -1.
</event>
<event>
 7    1  0.8986500E-014  0.5052881E+02  0.7816164E-02  0.1300439E+00
        -11   -1    0    0    0    0  0.00000000000E+00  0.00000000000E+00  0.45593999997E+02  0.45594000000E+02  0.51100000000E-03 0. -1.
         11   -1    0    0    0    0 -0.00000000000E+00 -0.00000000000E+00 -0.45593999997E+02  0.45594000000E+02  0.51100000000E-03 0.  1.
    9900012    2    1    2    0    0 -0.21187242521E+02  0.21508547392E+01 -0.34635884235E+02  0.50528807946E+02  0.29999842232E+02 0.  0.
         12    1    1    2    0    0  0.21187242521E+02 -0.21508547392E+01  0.34635884235E+02  0.40659192054E+02  0.00000000000E+00 0. -1.
         11    1    3    3    0    0 -0.62497310257E+01 -0.41429898531E+01 -0.37227343436E+01  0.83715144431E+01  0.51100000000E-03 0. -1.
        -11    1    3    3    0    0  0.51128856270E+01 -0.19389536747E+01 -0.15931737090E+01  0.56955547153E+01  0.51100000000E-03 0.  1.
        -12    1    3    3    0    0 -0.20050397122E+02  0.82327982671E+01 -0.29319976183E+02  0.36461738787E+02  0.00000000000E+00 0.  1.
</event>
<event>
 7    1  0.8986500E-014  0.5052886E+02  0.7816164E-02  0.1300439E+00
        -11   -1    0    0    0    0  0.00000000000E+00  0.00000000000E+00  0.45593999997E+02  0.45594000000E+02  0.51100000000E-03 0. -1.
         11   -1    0    0    0    0 -0.00000000000E+00 -0.00000000000E+00 -0.45593999997E+02  0.45594000000E+02  0.51100000000E-03 0.  1.
    9900012    2    1    2    0    0 -0.39173458341E+02 -0.72707932341E+01  0.81080938743E+01  0.50528862541E+02  0.30000008180E+02 0.  0.
        -12    1    1    2    0    0  0.39173458341E+02  0.72707932341E+01 -0.81080938743E+01  0.40659137459E+02  0.00000000000E+00 0.  1.
         11    1    3    3    0    0 -0.36923083245E+01  0.60825914458E+01  0.46897684491E+01  0.85220295604E+01  0.51100000000E-03 0. -1.
        -11    1    3    3    0    0 -0.26931302019E+02 -0.20145255751E+01 -0.13127875568E+01  0.27038431041E+02  0.51100000000E-03 0.  1.
        -12    1    3    3    0    0 -0.85498479969E+01 -0.11338859105E+02  0.47311129820E+01  0.14968401939E+02  0.00000000000E+00 0.  1.
</event>
<event>
 7    1  0.8986501E-014  0.5052886E+02  0.7816164E-02  0.1300439E+00
        -11   -1    0    0    0    0  0.00000000000E+00  0.00000000000E+00  0.45593999997E+02  0.45594000000E+02  0.51100000000E-03 0. -1.
         11   -1    0    0    0    0 -0.00000000000E+00 -0.00000000000E+00 -0.45593999997E+02  0.45594000000E+02  0.51100000000E-03 0.  1.
    9900012    2    1    2    0    0 -0.24036574350E+02 -0.12458572060E+02  0.30334680849E+02  0.50528858513E+02  0.29999995936E+02 0.  0.
        -12    1    1    2    0    0  0.24036574350E+02  0.12458572060E+02 -0.30334680849E+02  0.40659141487E+02  0.00000000000E+00 0.  1.
         11    1    3    3    0    0 -0.68387060289E+01 -0.78340785116E+01  0.13859650774E+02  0.17327163822E+02  0.51100000000E-03 0. -1.
        -11    1    3    3    0    0  0.49951919379E+01  0.13755975447E+01  0.60304662541E+01  0.79505178828E+01  0.51100000000E-03 0.  1.
         12    1    3    3    0    0 -0.22193060259E+02 -0.60000910934E+01  0.10444563821E+02  0.25251176808E+02  0.00000000000E+00 0. -1.
</event>
<event>
 7    1  0.8986500E-014  0.5052885E+02  0.7816164E-02  0.1300439E+00
        -11   -1    0    0    0    0  0.00000000000E+00  0.00000000000E+00  0.45593999997E+02  0.45594000000E+02  0.51100000000E-03 0. -1.
         11   -1    0    0    0    0 -0.00000000000E+00 -0.00000000000E+00 -0.45593999997E+02  0.45594000000E+02  0.51100000000E-03 0.  1.
    9900012    2    1    2    0    0  0.48157916802E+01  0.66110752790E+01 -0.39827981315E+02  0.50528852671E+02  0.29999978180E+02 0.  0.
         12    1    1    2    0    0 -0.48157916802E+01 -0.66110752790E+01  0.39827981315E+02  0.40659147329E+02  0.00000000000E+00 0. -1.
         11    1    3    3    0    0  0.64180339771E+01 -0.21331259343E+01 -0.23726176242E+02  0.24671295582E+02  0.51100000000E-03 0. -1.
        -11    1    3    3    0    0  0.68350305113E+01  0.30271016693E+01 -0.13350578576E+02  0.15300945565E+02  0.51100000000E-03 0.  1.
         12    1    3    3    0    0 -0.84372728081E+01  0.57170995440E+01 -0.27512264971E+01  0.10556611524E+02  0.00000000000E+00 0. -1.
</event>
<event>
 7    1  0.1016867E-013  0.5052886E+02  0.7816164E-02  0.1300439E+00
        -11   -1    0    0    0    0  0.00000000000E+00  0.00000000000E+00  0.45593999997E+02  0.45594000000E+02  0.51100000000E-03 0. -1.
         11   -1    0    0    0    0 -0.00000000000E+00 -0.00000000000E+00 -0.45593999997E+02  0.45594000000E+02  0.51100000000E-03 0.  1.
    9900012    2    1    2    0    0 -0.26708540712E+02 -0.13682175098E+02  0.27433878827E+02  0.50528858717E+02  0.29999996557E+02 0.  0.
        -12    1    1    2    0    0  0.26708540712E+02  0.13682175098E+02 -0.27433878827E+02  0.40659141283E+02  0.00000000000E+00 0.  1.
         11    1    3    3    0    0  0.28362328245E+01 -0.15454873329E+01  0.57387999267E+01  0.65853301049E+01  0.51100000000E-03 0. -1.
        -11    1    3    3    0    0  0.14763294173E+01  0.32248189090E+01  0.13750240605E+01  0.38039054894E+01  0.51100000000E-03 0.  1.
         12    1    3    3    0    0 -0.31021102954E+02 -0.15361506674E+02  0.20320054840E+02  0.40139623123E+02  0.00000000000E+00 0. -1.
</event>
<event>
 7    1  0.8986500E-014  0.5052886E+02  0.7816164E-02  0.1300439E+00
        -11   -1    0    0    0    0  0.00000000000E+00  0.00000000000E+00  0.45593999997E+02  0.45594000000E+02  0.51100000000E-03 0. -1.
         11   -1    0    0    0    0 -0.00000000000E+00 -0.00000000000E+00 -0.45593999997E+02  0.45594000000E+02  0.51100000000E-03 0.  1.
    9900012    2    1    2    0    0 -0.38772807840E+02  0.77432763364E+01  0.94803402832E+01  0.50528858247E+02  0.29999995127E+02 0.  0.
        -12    1    1    2    0    0  0.38772807840E+02 -0.77432763364E+01 -0.94803402832E+01  0.40659141753E+02  0.00000000000E+00 0.  1.
         11    1    3    3    0    0 -0.13284825373E+02  0.93426934312E+01  0.43866681294E+01  0.16823060461E+02  0.51100000000E-03 0. -1.
        -11    1    3    3    0    0 -0.94478193380E+01  0.95338820685E+01  0.45516074297E+01  0.14172978797E+02  0.51100000000E-03 0.  1.
        -12    1    3    3    0    0 -0.16040163129E+02 -0.11133299163E+02  0.54206472413E+00  0.19532818988E+02  0.00000000000E+00 0.  1.
</event>
<event>
 7    1  0.8986500E-014  0.5052886E+02  0.7816164E-02  0.1300439E+00
        -11   -1    0    0    0    0  0.00000000000E+00  0.00000000000E+00  0.45593999997E+02  0.45594000000E+02  0.51100000000E-03 0.  1.
         11   -1    0    0    0    0 -0.00000000000E+00 -0.00000000000E+00 -0.45593999997E+02  0.45594000000E+02  0.51100000000E-03 0. -1.
    9900012    2    1    2    0    0  0.10207432112E+02 -0.36859306801E+02  0.13797307187E+02  0.50528857685E+02  0.29999993419E+02 0.  0.
        -12    1    1    2    0    0 -0.10207432112E+02  0.36859306801E+02 -0.13797307187E+02  0.40659142315E+02  0.00000000000E+00 0.  1.
         11    1    3    3    0    0  0.60674912794E+01 -0.11274397250E+02 -0.25738146057E+01  0.13059517819E+02  0.51100000000E-03 0. -1.
        -11    1    3    3    0    0 -0.18823134095E+01 -0.12240552762E+02 -0.34234794901E+01  0.12848908427E+02  0.51100000000E-03 0.  1.
        -12    1    3    3    0    0  0.60222542417E+01 -0.13344356789E+02  0.19794601283E+02  0.24620431439E+02  0.00000000000E+00 0.  1.
</event>
<event>
 7    1  0.8986500E-014  0.5052886E+02  0.7816164E-02  0.1300439E+00
        -11   -1    0    0    0    0  0.00000000000E+00  0.00000000000E+00  0.45593999997E+02  0.45594000000E+02  0.51100000000E-03 0. -1.
         11   -1    0    0    0    0 -0.00000000000E+00 -0.00000000000E+00 -0.45593999997E+02  0.45594000000E+02  0.51100000000E-03 0.  1.
    9900012    2    1    2    0    0  0.20159000383E+02 -0.10928577637E+02 -0.33575981006E+02  0.50528860731E+02  0.30000002678E+02 0.  0.
         12    1    1    2    0    0 -0.20159000383E+02  0.10928577637E+02  0.33575981006E+02  0.40659139269E+02  0.00000000000E+00 0. -1.
         11    1    3    3    0    0  0.19546752530E+02 -0.13723928381E+01 -0.21149014894E+02  0.28831230078E+02  0.51100000000E-03 0. -1.
        -11    1    3    3    0    0  0.66981571286E+01 -0.43249839853E+01 -0.10937909215E+02  0.13535459122E+02  0.51100000000E-03 0.  1.
         12    1    3    3    0    0 -0.60859092754E+01 -0.52312008135E+01 -0.14890568966E+01  0.81621715309E+01  0.00000000000E+00 0. -1.
</event>
<event>
 7    1  0.8986500E-014  0.5052886E+02  0.7816164E-02  0.1300439E+00
        -11   -1    0    0    0    0  0.00000000000E+00  0.00000000000E+00  0.45593999997E+02  0.45594000000E+02  0.51100000000E-03 0.  1.
         11   -1    0    0    0    0 -0.00000000000E+00 -0.00000000000E+00 -0.45593999997E+02  0.45594000000E+02  0.51100000000E-03 0. -1.
    9900012    2    1    2    0    0  0.11172516335E+02 -0.38753454558E+02 -0.51488167755E+01  0.50528859876E+02  0.30000000079E+02 0.  0.
        -12    1    1    2    0    0 -0.11172516335E+02  0.38753454558E+02  0.51488167755E+01  0.40659140124E+02  0.00000000000E+00 0.  1.
         11    1    3    3    0    0 -0.32055843601E+01 -0.30613716403E+01 -0.39111883084E+01  0.59114432801E+01  0.51100000000E-03 0. -1.
        -11    1    3    3    0    0  0.14226322875E+02 -0.20896276125E+02  0.87665505106E+01  0.26756214728E+02  0.51100000000E-03 0.  1.
         12    1    3    3    0    0  0.15177782058E+00 -0.14795806793E+02 -0.10004178978E+02  0.17861201868E+02  0.00000000000E+00 0. -1.
</event>
<event>
 7    1  0.8986500E-014  0.5052886E+02  0.7816164E-02  0.1300439E+00
        -11   -1    0    0    0    0  0.00000000000E+00  0.00000000000E+00  0.45593999997E+02  0.45594000000E+02  0.51100000000E-03 0. -1.
         11   -1    0    0    0    0 -0.00000000000E+00 -0.00000000000E+00 -0.45593999997E+02  0.45594000000E+02  0.51100000000E-03 0.  1.
    9900012    2    1    2    0    0 -0.80244463011E+01 -0.29380676198E+02 -0.26936029469E+02  0.50528861349E+02  0.30000004556E+02 0.  0.
         12    1    1    2    0    0  0.80244463011E+01  0.29380676198E+02  0.26936029469E+02  0.40659138651E+02  0.00000000000E+00 0. -1.
         11    1    3    3    0    0  0.17083988970E+01 -0.20506269464E+02 -0.26682162544E+02  0.33695155623E+02  0.51100000000E-03 0.  1.
        -11    1    3    3    0    0 -0.31113428057E+01 -0.15352491786E+01 -0.48252552603E+01  0.59431079986E+01  0.51100000000E-03 0. -1.
         12    1    3    3    0    0 -0.66215023924E+01 -0.73391575552E+01  0.45713883356E+01  0.10890597728E+02  0.00000000000E+00 0. -1.
</event>
<event>
 7    1  0.8986500E-014  0.5052879E+02  0.7816164E-02  0.1300439E+00
        -11   -1    0    0    0    0  0.00000000000E+00  0.00000000000E+00  0.45593999997E+02  0.45594000000E+02  0.51100000000E-03 0.  1.
         11   -1    0    0    0    0 -0.00000000000E+00 -0.00000000000E+00 -0.45593999997E+02  0.45594000000E+02  0.51100000000E-03 0. -1.
    9900012    2    1    2    0    0  0.35577867159E+02  0.37878228025E+01  0.19314218614E+02  0.50528791033E+02  0.29999790823E+02 0.  0.
        -12    1    1    2    0    0 -0.35577867159E+02 -0.37878228025E+01 -0.19314218614E+02  0.40659208967E+02  0.00000000000E+00 0.  1.
         11    1    3    3    0    0  0.78510090759E+01  0.34602695071E+01 -0.30874696329E+01  0.91183484012E+01  0.51100000000E-03 0. -1.
        -11    1    3    3    0    0  0.26853361566E+02  0.61186124636E+01  0.13293827613E+02  0.30582123843E+02  0.51100000000E-03 0.  1.
        -12    1    3    3    0    0  0.87349651673E+00 -0.57910591683E+01  0.91078606343E+01  0.10828318789E+02  0.00000000000E+00 0.  1.
</event>
<event>
 7    1  0.8986500E-014  0.5052886E+02  0.7816164E-02  0.1300439E+00
        -11   -1    0    0    0    0  0.00000000000E+00  0.00000000000E+00  0.45593999997E+02  0.45594000000E+02  0.51100000000E-03 0. -1.
         11   -1    0    0    0    0 -0.00000000000E+00 -0.00000000000E+00 -0.45593999997E+02  0.45594000000E+02  0.51100000000E-03 0.  1.
    9900012    2    1    2    0    0  0.66036353435E+01  0.12450432273E+02 -0.38138489490E+02  0.50528860263E+02  0.30000001256E+02 0.  0.
         12    1    1    2    0    0 -0.66036353435E+01 -0.12450432273E+02  0.38138489490E+02  0.40659139737E+02  0.00000000000E+00 0. -1.
         11    1    3    3    0    0  0.76970948442E+01  0.86376173745E+01 -0.18219579004E+01  0.11712097754E+02  0.51100000000E-03 0. -1.
        -11    1    3    3    0    0 -0.43204306882E+01  0.75169944033E+01 -0.20596193479E+02  0.22346689068E+02  0.51100000000E-03 0.  1.
        -12    1    3    3    0    0  0.32269711876E+01 -0.37041795046E+01 -0.15720338111E+02  0.16470073441E+02  0.00000000000E+00 0.  1.
</event>
<event>
 7    1  0.8986500E-014  0.5052885E+02  0.7816164E-02  0.1300439E+00
        -11   -1    0    0    0    0  0.00000000000E+00  0.00000000000E+00  0.45593999997E+02  0.45594000000E+02  0.51100000000E-03 0.  1.
         11   -1    0    0    0    0 -0.00000000000E+00 -0.00000000000E+00 -0.45593999997E+02  0.45594000000E+02  0.51100000000E-03 0. -1.
    9900012    2    1    2    0    0  0.44174546410E+01  0.35177863941E+02  0.19904024978E+02  0.50528853092E+02  0.29999979459E+02 0.  0.
        -12    1    1    2    0    0 -0.44174546410E+01 -0.35177863941E+02 -0.19904024978E+02  0.40659146908E+02  0.00000000000E+00 0.  1.
         11    1    3    3    0    0 -0.55117512621E+01  0.10829648789E+02  0.59711272835E+01  0.13539389062E+02  0.51100000000E-03 0. -1.
        -11    1    3    3    0    0 -0.49082041587E+01  0.10845809922E+02  0.11888044784E+02  0.16824020625E+02  0.51100000000E-03 0.  1.
         12    1    3    3    0    0  0.14837410062E+02  0.13502405229E+02  0.20448529105E+01  0.20165443406E+02  0.00000000000E+00 0. -1.
</event>
<event>
 7    1  0.8986500E-014  0.5052888E+02  0.7816164E-02  0.1300439E+00
        -11   -1    0    0    0    0  0.00000000000E+00  0.00000000000E+00  0.45593999997E+02  0.45594000000E+02  0.51100000000E-03 0. -1.
         11   -1    0    0    0    0 -0.00000000000E+00 -0.00000000000E+00 -0.45593999997E+02  0.45594000000E+02  0.51100000000E-03 0.  1.
    9900012    2    1    2    0    0 -0.45197235724E+01  0.36512830314E+02  0.17307496745E+02  0.50528878978E+02  0.30000058143E+02 0.  0.
        -12    1    1    2    0    0  0.45197235724E+01 -0.36512830314E+02 -0.17307496745E+02  0.40659121022E+02  0.00000000000E+00 0.  1.
         11    1    3    3    0    0 -0.25707767688E+01  0.11011505177E+02  0.79125655746E+01  0.13801117117E+02  0.51100000000E-03 0.  1.
        -11    1    3    3    0    0 -0.36657608882E+01  0.16775995833E+02  0.17627840052E+02  0.24609197147E+02  0.51100000000E-03 0. -1.
        -12    1    3    3    0    0  0.17168140846E+01  0.87253293041E+01 -0.82329088820E+01  0.12118564714E+02  0.00000000000E+00 0.  1.
</event>
<event>
 7    1  0.8986500E-014  0.5052883E+02  0.7816164E-02  0.1300439E+00
        -11   -1    0    0    0    0  0.00000000000E+00  0.00000000000E+00  0.45593999997E+02  0.45594000000E+02  0.51100000000E-03 0. -1.
         11   -1    0    0    0    0 -0.00000000000E+00 -0.00000000000E+00 -0.45593999997E+02  0.45594000000E+02  0.51100000000E-03 0.  1.
    9900012    2    1    2    0    0 -0.25485919052E+02  0.98097954702E+01 -0.30123145936E+02  0.50528830331E+02  0.29999910272E+02 0.  0.
         12    1    1    2    0    0  0.25485919052E+02 -0.98097954702E+01  0.30123145936E+02  0.40659169669E+02  0.00000000000E+00 0. -1.
         11    1    3    3    0    0  0.74045921014E-01  0.57672243896E+01  0.12604378631E+00  0.57690768114E+01  0.51100000000E-03 0. -1.
        -11    1    3    3    0    0 -0.24838132253E+02 -0.23222989659E+01 -0.17439883419E+02  0.30438058746E+02  0.51100000000E-03 0.  1.
         12    1    3    3    0    0 -0.72183272027E+00  0.63648700465E+01 -0.12809306304E+02  0.14321694773E+02  0.00000000000E+00 0. -1.
</event>
<event>
 7    1  0.8986500E-014  0.5052888E+02  0.7816164E-02  0.1300439E+00
        -11   -1    0    0    0    0  0.00000000000E+00  0.00000000000E+00  0.45593999997E+02  0.45594000000E+02  0.51100000000E-03 0. -1.
         11   -1    0    0    0    0 -0.00000000000E+00 -0.00000000000E+00 -0.45593999997E+02  0.45594000000E+02  0.51100000000E-03 0.  1.
    9900012    2    1    2    0    0  0.13136457148E+02  0.31054825685E+02  0.22719931682E+02  0.50528880478E+02  0.30000062700E+02 0.  0.
        -12    1    1    2    0    0 -0.13136457148E+02 -0.31054825685E+02 -0.22719931682E+02  0.40659119522E+02  0.00000000000E+00 0.  1.
         11    1    3    3    0    0  0.14182848621E+02  0.89415789487E+01  0.14506609507E+02  0.22170853586E+02  0.51100000000E-03 0. -1.
        -11    1    3    3    0    0  0.25856372371E+01 -0.10033595518E+01  0.35376989585E+01  0.44952824710E+01  0.51100000000E-03 0.  1.
        -12    1    3    3    0    0 -0.36320287103E+01  0.23116606288E+02  0.46756232171E+01  0.23862744420E+02  0.00000000000E+00 0.  1.
</event>
<event>
 7    1  0.8986500E-014  0.5052886E+02  0.7816164E-02  0.1300439E+00
        -11   -1    0    0    0    0  0.00000000000E+00  0.00000000000E+00  0.45593999997E+02  0.45594000000E+02  0.51100000000E-03 0. -1.
         11   -1    0    0    0    0 -0.00000000000E+00 -0.00000000000E+00 -0.45593999997E+02  0.45594000000E+02  0.51100000000E-03 0.  1.
    9900012    2    1    2    0    0 -0.10209575791E+02  0.68655424337E+01  0.38752990633E+02  0.50528863343E+02  0.30000010616E+02 0.  0.
        -12    1    1    2    0    0  0.10209575791E+02 -0.68655424337E+01 -0.38752990633E+02  0.40659136657E+02  0.00000000000E+00 0.  1.
         11    1    3    3    0    0  0.28536641613E+01  0.55412400587E+00  0.10772687546E+02  0.11158012806E+02  0.51100000000E-03 0. -1.
        -11    1    3    3    0    0  0.90300392423E+00  0.52802403531E+01  0.24310541375E+02  0.24893749748E+02  0.51100000000E-03 0.  1.
        -12    1    3    3    0    0 -0.13966243876E+02  0.10311780747E+01  0.36697617115E+01  0.14477100789E+02  0.00000000000E+00 0.  1.
</event>
<event>
 7    1  0.8986500E-014  0.5052886E+02  0.7816164E-02  0.1300439E+00
        -11   -1    0    0    0    0  0.00000000000E+00  0.00000000000E+00  0.45593999997E+02  0.45594000000E+02  0.51100000000E-03 0. -1.
         11   -1    0    0    0    0 -0.00000000000E+00 -0.00000000000E+00 -0.45593999997E+02  0.45594000000E+02  0.51100000000E-03 0.  1.
    9900012    2    1    2    0    0 -0.23746300956E+02 -0.26911184468E+02  0.19106717664E+02  0.50528864268E+02  0.30000013428E+02 0.  0.
        -12    1    1    2    0    0  0.23746300956E+02  0.26911184468E+02 -0.19106717664E+02  0.40659135732E+02  0.00000000000E+00 0.  1.
         11    1    3    3    0    0 -0.12805890029E+02 -0.13857724637E+02  0.11451130841E+02  0.22071605047E+02  0.51100000000E-03 0. -1.
        -11    1    3    3    0    0 -0.10888752366E+02 -0.46052545813E+01 -0.53274445957E+01  0.12967457886E+02  0.51100000000E-03 0.  1.
         12    1    3    3    0    0 -0.51658561103E-01 -0.84482052494E+01  0.12983031419E+02  0.15489801335E+02  0.00000000000E+00 0. -1.
</event>
<event>
 7    1  0.8986500E-014  0.5052886E+02  0.7816164E-02  0.1300439E+00
        -11   -1    0    0    0    0  0.00000000000E+00  0.00000000000E+00  0.45593999997E+02  0.45594000000E+02  0.51100000000E-03 0. -1.
         11   -1    0    0    0    0 -0.00000000000E+00 -0.00000000000E+00 -0.45593999997E+02  0.45594000000E+02  0.51100000000E-03 0.  1.
    9900012    2    1    2    0    0  0.25526814579E+02  0.12193837397E+02 -0.29203727527E+02  0.50528860382E+02  0.30000001616E+02 0.  0.
         12    1    1    2    0    0 -0.25526814579E+02 -0.12193837397E+02  0.29203727527E+02  0.40659139618E+02  0.00000000000E+00 0. -1.
         11    1    3    3    0    0 -0.25102629713E+01  0.79438407029E+01 -0.12488002538E+02  0.15011869736E+02  0.51100000000E-03 0. -1.
        -11    1    3    3    0    0  0.35868497631E+01  0.56344558897E+01 -0.51483155705E+01  0.84331333365E+01  0.51100000000E-03 0.  1.
         12    1    3    3    0    0  0.24450227787E+02 -0.13844591954E+01 -0.11567409418E+02  0.27083857309E+02  0.00000000000E+00 0. -1.
</event>
<event>
 7    1  0.8986500E-014  0.5052886E+02  0.7816164E-02  0.1300439E+00
        -11   -1    0    0    0    0  0.00000000000E+00  0.00000000000E+00  0.45593999997E+02  0.45594000000E+02  0.51100000000E-03 0. -1.
         11   -1    0    0    0    0 -0.00000000000E+00 -0.00000000000E+00 -0.45593999997E+02  0.45594000000E+02  0.51100000000E-03 0.  1.
    9900012    2    1    2    0    0  0.21088693697E+02 -0.61893835656E+01  0.34207076328E+02  0.50528861523E+02  0.30000005085E+02 0.  0.
        -12    1    1    2    0    0 -0.21088693697E+02  0.61893835656E+01 -0.34207076328E+02  0.40659138477E+02  0.00000000000E+00 0.  1.
         11    1    3    3    0    0  0.53805507659E+01  0.25265498768E+01  0.59853602302E+01  0.84355389971E+01  0.51100000000E-03 0. -1.
        -11    1    3    3    0    0  0.46462047422E+01  0.57679603725E+01  0.21379840164E+02  0.22626403848E+02  0.51100000000E-03 0.  1.
         12    1    3    3    0    0  0.11061938189E+02 -0.14483893815E+02  0.68418759335E+01  0.19466918678E+02  0.00000000000E+00 0. -1.
</event>
<event>
 7    1  0.8986500E-014  0.5052886E+02  0.7816164E-02  0.1300439E+00
        -11   -1    0    0    0    0  0.00000000000E+00  0.00000000000E+00  0.45593999997E+02  0.45594000000E+02  0.51100000000E-03 0. -1.
         11   -1    0    0    0    0 -0.00000000000E+00 -0.00000000000E+00 -0.45593999997E+02  0.45594000000E+02  0.51100000000E-03 0.  1.
    9900012    2    1    2    0    0 -0.11332728733E+02 -0.86246722350E+01 -0.38083460705E+02  0.50528859688E+02  0.29999999506E+02 0.  0.
         12    1    1    2    0    0  0.11332728733E+02  0.86246722350E+01  0.38083460705E+02  0.40659140312E+02  0.00000000000E+00 0. -1.
         11    1    3    3    0    0 -0.56253175030E+01  0.48677214744E+01 -0.14152721658E+02  0.15988697256E+02  0.51100000000E-03 0. -1.
        -11    1    3    3    0    0  0.64456310838E+01 -0.81330194602E+01 -0.15998797040E+02  0.19069705624E+02  0.51100000000E-03 0.  1.
         12    1    3    3    0    0 -0.12153042314E+02 -0.53593742491E+01 -0.79319420070E+01  0.15470456807E+02  0.00000000000E+00 0. -1.
</event>
<event>
 7    1  0.8986500E-014  0.5052886E+02  0.7816164E-02  0.1300439E+00
        -11   -1    0    0    0    0  0.00000000000E+00  0.00000000000E+00  0.45593999997E+02  0.45594000000E+02  0.51100000000E-03 0.  1.
         11   -1    0    0    0    0 -0.00000000000E+00 -0.00000000000E+00 -0.45593999997E+02  0.45594000000E+02  0.51100000000E-03 0. -1.
    9900012    2    1    2    0    0  0.25492167809E+02  0.31644395796E+02  0.13954488665E+01  0.50528859792E+02  0.29999999825E+02 0.  0.
         12    1    1    2    0    0 -0.25492167809E+02 -0.31644395796E+02 -0.13954488665E+01  0.40659140208E+02  0.00000000000E+00 0. -1.
         11    1    3    3    0    0  0.29264112333E+01 -0.14539366027E+01  0.54739508968E+01  0.63751041586E+01  0.51100000000E-03 0. -1.
        -11    1    3    3    0    0  0.14126827053E+02  0.17485894414E+02 -0.11096851192E+02  0.25069181332E+02  0.51100000000E-03 0.  1.
         12    1    3    3    0    0  0.84389295225E+01  0.15612437985E+02  0.70183491613E+01  0.19084574301E+02  0.00000000000E+00 0. -1.
</event>
<event>
 7    1  0.8986500E-014  0.5052884E+02  0.7816164E-02  0.1300439E+00
        -11   -1    0    0    0    0  0.00000000000E+00  0.00000000000E+00  0.45593999997E+02  0.45594000000E+02  0.51100000000E-03 0. -1.
         11   -1    0    0    0    0 -0.00000000000E+00 -0.00000000000E+00 -0.45593999997E+02  0.45594000000E+02  0.51100000000E-03 0.  1.
    9900012    2    1    2    0    0  0.24956181062E+02 -0.19966384621E+02  0.25133637518E+02  0.50528840848E+02  0.29999942241E+02 0.  0.
        -12    1    1    2    0    0 -0.24956181062E+02  0.19966384621E+02 -0.25133637518E+02  0.40659159152E+02  0.00000000000E+00 0.  1.
         11    1    3    3    0    0  0.35939479213E+01 -0.12303211635E+01 -0.31003915739E+01  0.49033233627E+01  0.51100000000E-03 0. -1.
        -11    1    3    3    0    0  0.21866378770E+01  0.18830080026E+01 -0.25893569588E+01  0.38770960865E+01  0.51100000000E-03 0.  1.
         12    1    3    3    0    0  0.19175595264E+02 -0.20619071461E+02  0.30823386051E+02  0.41748421399E+02  0.00000000000E+00 0. -1.
</event>
<event>
 7    1  0.8986500E-014  0.5052886E+02  0.7816164E-02  0.1300439E+00
        -11   -1    0    0    0    0  0.00000000000E+00  0.00000000000E+00  0.45593999997E+02  0.45594000000E+02  0.51100000000E-03 0.  1.
         11   -1    0    0    0    0 -0.00000000000E+00 -0.00000000000E+00 -0.45593999997E+02  0.45594000000E+02  0.51100000000E-03 0. -1.
    9900012    2    1    2    0    0  0.37508406554E+02 -0.12837521346E+02  0.90267808906E+01  0.50528864621E+02  0.30000014501E+02 0.  0.
        -12    1    1    2    0    0 -0.37508406554E+02  0.12837521346E+02 -0.90267808906E+01  0.40659135379E+02  0.00000000000E+00 0.  1.
         11    1    3    3    0    0  0.19765802178E+02 -0.11404728083E+02  0.35781475054E+01  0.23098872228E+02  0.51100000000E-03 0. -1.
        -11    1    3    3    0    0  0.18327272205E+02 -0.81600430775E+01  0.49228053366E+01  0.20656941258E+02  0.51100000000E-03 0.  1.
        -12    1    3    3    0    0 -0.58466782912E+00  0.67272498139E+01  0.52582804866E+00  0.67730511341E+01  0.00000000000E+00 0.  1.
</event>
<event>
 7    1  0.8986500E-014  0.5052886E+02  0.7816164E-02  0.1300439E+00
        -11   -1    0    0    0    0  0.00000000000E+00  0.00000000000E+00  0.45593999997E+02  0.45594000000E+02  0.51100000000E-03 0. -1.
         11   -1    0    0    0    0 -0.00000000000E+00 -0.00000000000E+00 -0.45593999997E+02  0.45594000000E+02  0.51100000000E-03 0.  1.
    9900012    2    1    2    0    0 -0.36308761057E+02 -0.83109056049E+01 -0.16302400069E+02  0.50528861673E+02  0.30000005542E+02 0.  0.
         12    1    1    2    0    0  0.36308761057E+02  0.83109056049E+01  0.16302400069E+02  0.40659138327E+02  0.00000000000E+00 0. -1.
         11    1    3    3    0    0 -0.45202717364E+01 -0.37339146850E+00  0.12078297840E+01  0.46937331419E+01  0.51100000000E-03 0. -1.
        -11    1    3    3    0    0 -0.25795304580E+02 -0.44695332153E+01  0.86978008899E+00  0.26194102069E+02  0.51100000000E-03 0.  1.
        -12    1    3    3    0    0 -0.59931847399E+01 -0.34679809211E+01 -0.18380009942E+02  0.19641026462E+02  0.00000000000E+00 0.  1.
</event>
<event>
 7    1  0.8986500E-014  0.5052886E+02  0.7816164E-02  0.1300439E+00
        -11   -1    0    0    0    0  0.00000000000E+00  0.00000000000E+00  0.45593999997E+02  0.45594000000E+02  0.51100000000E-03 0. -1.
         11   -1    0    0    0    0 -0.00000000000E+00 -0.00000000000E+00 -0.45593999997E+02  0.45594000000E+02  0.51100000000E-03 0.  1.
    9900012    2    1    2    0    0  0.14651585418E+02 -0.79693787306E+01  0.37080796061E+02  0.50528863399E+02  0.30000010787E+02 0.  0.
        -12    1    1    2    0    0 -0.14651585418E+02  0.79693787306E+01 -0.37080796061E+02  0.40659136601E+02  0.00000000000E+00 0.  1.
         11    1    3    3    0    0  0.18110662523E+02 -0.11060849975E+02  0.27206065567E+02  0.34503746218E+02  0.51100000000E-03 0. -1.
        -11    1    3    3    0    0 -0.31825093597E+01 -0.39072752827E+01  0.18369028031E+01  0.53637093628E+01  0.51100000000E-03 0.  1.
        -12    1    3    3    0    0 -0.27656774542E+00  0.69987465270E+01  0.80378276915E+01  0.10661407818E+02  0.00000000000E+00 0.  1.
</event>
<event>
 7    1  0.8986500E-014  0.5052887E+02  0.7816164E-02  0.1300439E+00
        -11   -1    0    0    0    0  0.00000000000E+00  0.00000000000E+00  0.45593999997E+02  0.45594000000E+02  0.51100000000E-03 0. -1.
         11   -1    0    0    0    0 -0.00000000000E+00 -0.00000000000E+00 -0.45593999997E+02  0.45594000000E+02  0.51100000000E-03 0.  1.
    9900012    2    1    2    0    0 -0.72159830855E+01  0.17510872821E+02  0.35978656161E+02  0.50528870914E+02  0.30000033632E+02 0.  0.
        -12    1    1    2    0    0  0.72159830855E+01 -0.17510872821E+02 -0.35978656161E+02  0.40659129086E+02  0.00000000000E+00 0.  1.
         11    1    3    3    0    0 -0.55534207994E+01  0.15769384332E+02  0.18609134534E+02  0.25016271768E+02  0.51100000000E-03 0. -1.
        -11    1    3    3    0    0 -0.55253712190E+01  0.54164096396E+01  0.18508464724E+02  0.20060670158E+02  0.51100000000E-03 0.  1.
        -12    1    3    3    0    0  0.38628089329E+01 -0.36749211504E+01 -0.11389430976E+01  0.54519289883E+01  0.00000000000E+00 0.  1.
</event>
<event>
 7    1  0.8986500E-014  0.5052886E+02  0.7816164E-02  0.1300439E+00
        -11   -1    0    0    0    0  0.00000000000E+00  0.00000000000E+00  0.45593999997E+02  0.45594000000E+02  0.51100000000E-03 0. -1.
         11   -1    0    0    0    0 -0.00000000000E+00 -0.00000000000E+00 -0.45593999997E+02  0.45594000000E+02  0.51100000000E-03 0.  1.
    9900012    2    1    2    0    0 -0.22502233182E+02 -0.20541156544E+02  0.26923529571E+02  0.50528855212E+02  0.29999985902E+02 0.  0.
        -12    1    1    2    0    0  0.22502233182E+02  0.20541156544E+02 -0.26923529571E+02  0.40659144788E+02  0.00000000000E+00 0.  1.
         11    1    3    3    0    0 -0.12428637810E+02 -0.12340394609E+02  0.14787843304E+02  0.22922405781E+02  0.51100000000E-03 0. -1.
        -11    1    3    3    0    0 -0.26535567048E+01 -0.91342515835E+01  0.16428475451E+02  0.18983432806E+02  0.51100000000E-03 0.  1.
        -12    1    3    3    0    0 -0.74200386668E+01  0.93348964842E+00 -0.42927891846E+01  0.86230166255E+01  0.00000000000E+00 0.  1.
</event>
<event>
 7    1  0.8986500E-014  0.5052884E+02  0.7816164E-02  0.1300439E+00
        -11   -1    0    0    0    0  0.00000000000E+00  0.00000000000E+00  0.45593999997E+02  0.45594000000E+02  0.51100000000E-03 0. -1.
         11   -1    0    0    0    0 -0.00000000000E+00 -0.00000000000E+00 -0.45593999997E+02  0.45594000000E+02  0.51100000000E-03 0.  1.
    9900012    2    1    2    0    0  0.40967508217E+01 -0.64857625562E+01 -0.39928921065E+02  0.50528840877E+02  0.29999942329E+02 0.  0.
         12    1    1    2    0    0 -0.40967508217E+01  0.64857625562E+01  0.39928921065E+02  0.40659159123E+02  0.00000000000E+00 0. -1.
         11    1    3    3    0    0  0.10014564022E+02  0.10735030365E+01 -0.60229435062E+01  0.11735405833E+02  0.51100000000E-03 0. -1.
        -11    1    3    3    0    0 -0.60134784908E+01  0.18419992267E+01 -0.25223766479E+02  0.25996024318E+02  0.51100000000E-03 0.  1.
        -12    1    3    3    0    0  0.95665290408E-01 -0.94012648194E+01 -0.86822110796E+01  0.12797410726E+02  0.00000000000E+00 0.  1.
</event>
<event>
 7    1  0.8986500E-014  0.5052887E+02  0.7816164E-02  0.1300439E+00
        -11   -1    0    0    0    0  0.00000000000E+00  0.00000000000E+00  0.45593999997E+02  0.45594000000E+02  0.51100000000E-03 0.  1.
         11   -1    0    0    0    0 -0.00000000000E+00 -0.00000000000E+00 -0.45593999997E+02  0.45594000000E+02  0.51100000000E-03 0. -1.
    9900012    2    1    2    0    0  0.31718825131E+02 -0.23860447981E+02 -0.88181785078E+01  0.50528866736E+02  0.30000020932E+02 0.  0.
         12    1    1    2    0    0 -0.31718825131E+02  0.23860447981E+02  0.88181785078E+01  0.40659133264E+02  0.00000000000E+00 0. -1.
         11    1    3    3    0    0  0.23369488504E+02 -0.16691030991E+02 -0.11794469541E+01  0.28742209446E+02  0.51100000000E-03 0.  1.
        -11    1    3    3    0    0  0.89111052494E+01 -0.83930180473E+01  0.16933835336E+01  0.12357916360E+02  0.51100000000E-03 0. -1.
         12    1    3    3    0    0 -0.56176862152E+00  0.12236010576E+01 -0.93321150872E+01  0.94287409305E+01  0.00000000000E+00 0. -1.
</event>
<event>
 7    1  0.8986500E-014  0.5052886E+02  0.7816164E-02  0.1300439E+00
        -11   -1    0    0    0    0  0.00000000000E+00  0.00000000000E+00  0.45593999997E+02  0.45594000000E+02  0.51100000000E-03 0. -1.
         11   -1    0    0    0    0 -0.00000000000E+00 -0.00000000000E+00 -0.45593999997E+02  0.45594000000E+02  0.51100000000E-03 0.  1.
    9900012    2    1    2    0    0  0.81210225853E+01 -0.25069036994E+02  0.30963818364E+02  0.50528859928E+02  0.30000000238E+02 0.  0.
        -12    1    1    2    0    0 -0.81210225853E+01  0.25069036994E+02 -0.30963818364E+02  0.40659140072E+02  0.00000000000E+00 0.  1.
         11    1    3    3    0    0  0.23366366127E+01 -0.24036805252E+02  0.13217941801E+02  0.27530743962E+02  0.51100000000E-03 0. -1.
        -11    1    3    3    0    0  0.89856062300E+00 -0.42691745447E+01  0.56457420858E-01  0.43630780635E+01  0.51100000000E-03 0.  1.
         12    1    3    3    0    0  0.48858253496E+01  0.32369428020E+01  0.17689419143E+02  0.18635037903E+02  0.00000000000E+00 0. -1.
</event>
<event>
 7    1  0.8986500E-014  0.5052885E+02  0.7816164E-02  0.1300439E+00
        -11   -1    0    0    0    0  0.00000000000E+00  0.00000000000E+00  0.45593999997E+02  0.45594000000E+02  0.51100000000E-03 0. -1.
         11   -1    0    0    0    0 -0.00000000000E+00 -0.00000000000E+00 -0.45593999997E+02  0.45594000000E+02  0.51100000000E-03 0.  1.
    9900012    2    1    2    0    0  0.14492111206E+02  0.22671486331E+02  0.30481945881E+02  0.50528848455E+02  0.29999965363E+02 0.  0.
        -12    1    1    2    0    0 -0.14492111206E+02 -0.22671486331E+02 -0.30481945881E+02  0.40659151545E+02  0.00000000000E+00 0.  1.
         11    1    3    3    0    0  0.92503011522E+01  0.14730805501E+02  0.22776882773E+02  0.28659223493E+02  0.51100000000E-03 0. -1.
        -11    1    3    3    0    0  0.69222062139E+01  0.12881843786E+02  0.79493104637E+01  0.16644830288E+02  0.51100000000E-03 0.  1.
         12    1    3    3    0    0 -0.16803961606E+01 -0.49411629555E+01 -0.24424735571E+00  0.52247946735E+01  0.00000000000E+00 0. -1.
</event>
<event>
 7    1  0.8986500E-014  0.5052886E+02  0.7816164E-02  0.1300439E+00
        -11   -1    0    0    0    0  0.00000000000E+00  0.00000000000E+00  0.45593999997E+02  0.45594000000E+02  0.51100000000E-03 0.  1.
         11   -1    0    0    0    0 -0.00000000000E+00 -0.00000000000E+00 -0.45593999997E+02  0.45594000000E+02  0.51100000000E-03 0. -1.
    9900012    2    1    2    0    0 -0.20632231468E+01 -0.33966354102E+02 -0.22252992669E+02  0.50528858550E+02  0.29999996049E+02 0.  0.
         12    1    1    2    0    0  0.20632231468E+01  0.33966354102E+02  0.22252992669E+02  0.40659141450E+02  0.00000000000E+00 0. -1.
         11    1    3    3    0    0  0.70707262789E+01 -0.11448182218E+02 -0.36052648142E+01  0.13930325942E+02  0.51100000000E-03 0. -1.
        -11    1    3    3    0    0  0.96413127229E+00 -0.14882743717E+02 -0.10914659149E+01  0.14953825856E+02  0.51100000000E-03 0.  1.
         12    1    3    3    0    0 -0.10098080698E+02 -0.76354281673E+01 -0.17556261940E+02  0.21644706752E+02  0.00000000000E+00 0. -1.
</event>
<event>
 7    1  0.8986500E-014  0.5052885E+02  0.7816164E-02  0.1300439E+00
        -11   -1    0    0    0    0  0.00000000000E+00  0.00000000000E+00  0.45593999997E+02  0.45594000000E+02  0.51100000000E-03 0. -1.
         11   -1    0    0    0    0 -0.00000000000E+00 -0.00000000000E+00 -0.45593999997E+02  0.45594000000E+02  0.51100000000E-03 0.  1.
    9900012    2    1    2    0    0 -0.17674873243E+02  0.17325517073E+02 -0.32258199210E+02  0.50528854629E+02  0.29999984130E+02 0.  0.
         12    1    1    2    0    0  0.17674873243E+02 -0.17325517073E+02  0.32258199210E+02  0.40659145371E+02  0.00000000000E+00 0. -1.
         11    1    3    3    0    0  0.14410485002E+01  0.44789844870E+00  0.20736652419E+01  0.25646289394E+01  0.51100000000E-03 0. -1.
        -11    1    3    3    0    0 -0.17829666212E+02  0.13951464896E+02 -0.12423843686E+02  0.25824257243E+02  0.51100000000E-03 0.  1.
        -12    1    3    3    0    0 -0.12862555322E+01  0.29261537282E+01 -0.21908020766E+02  0.22139968446E+02  0.00000000000E+00 0.  1.
</event>
<event>
 7    1  0.8986500E-014  0.5052886E+02  0.7816164E-02  0.1300439E+00
        -11   -1    0    0    0    0  0.00000000000E+00  0.00000000000E+00  0.45593999997E+02  0.45594000000E+02  0.51100000000E-03 0. -1.
         11   -1    0    0    0    0 -0.00000000000E+00 -0.00000000000E+00 -0.45593999997E+02  0.45594000000E+02  0.51100000000E-03 0.  1.
    9900012    2    1    2    0    0  0.13636082637E+02  0.27524626124E+02 -0.26638648653E+02  0.50528863327E+02  0.30000010568E+02 0.  0.
         12    1    1    2    0    0 -0.13636082637E+02 -0.27524626124E+02  0.26638648653E+02  0.40659136673E+02  0.00000000000E+00 0. -1.
         11    1    3    3    0    0 -0.36838146209E+01  0.58305152807E+00 -0.46079502449E+01  0.59282075678E+01  0.51100000000E-03 0. -1.
        -11    1    3    3    0    0 -0.32224142660E+01  0.65620813153E+01 -0.11853867592E+02  0.13926917894E+02  0.51100000000E-03 0.  1.
        -12    1    3    3    0    0  0.20542311524E+02  0.20379493281E+02 -0.10176830816E+02  0.30673737865E+02  0.00000000000E+00 0.  1.
</event>
<event>
 7    1  0.8986500E-014  0.5052886E+02  0.7816164E-02  0.1300439E+00
        -11   -1    0    0    0    0  0.00000000000E+00  0.00000000000E+00  0.45593999997E+02  0.45594000000E+02  0.51100000000E-03 0.  1.
         11   -1    0    0    0    0 -0.00000000000E+00 -0.00000000000E+00 -0.45593999997E+02  0.45594000000E+02  0.51100000000E-03 0. -1.
    9900012    2    1    2    0    0 -0.23403069033E+02  0.31129163603E+02  0.11680639547E+02  0.50528858261E+02  0.29999995169E+02 0.  0.
        -12    1    1    2    0    0  0.23403069033E+02 -0.31129163603E+02 -0.11680639547E+02  0.40659141739E+02  0.00000000000E+00 0.  1.
         11    1    3    3    0    0 -0.10450645769E+01  0.17795740120E+02  0.80667437104E+01  0.19566626708E+02  0.51100000000E-03 0. -1.
        -11    1    3    3    0    0 -0.73911642476E+01  0.13662546503E+02 -0.11610545070E+00  0.15534090466E+02  0.51100000000E-03 0.  1.
        -12    1    3    3    0    0 -0.14966840208E+02 -0.32912301990E+00  0.37300012871E+01  0.15428141087E+02  0.00000000000E+00 0.  1.
</event>
<event>
 7    1  0.8986500E-014  0.5052888E+02  0.7816164E-02  0.1300439E+00
        -11   -1    0    0    0    0  0.00000000000E+00  0.00000000000E+00  0.45593999997E+02  0.45594000000E+02  0.51100000000E-03 0. -1.
         11   -1    0    0    0    0 -0.00000000000E+00 -0.00000000000E+00 -0.45593999997E+02  0.45594000000E+02  0.51100000000E-03 0.  1.
    9900012    2    1    2    0    0  0.73158699485E+01 -0.12312558364E+02 -0.38053159672E+02  0.50528880389E+02  0.30000062429E+02 0.  0.
         12    1    1    2    0    0 -0.73158699485E+01  0.12312558364E+02  0.38053159672E+02  0.40659119611E+02  0.00000000000E+00 0. -1.
         11    1    3    3    0    0 -0.34344158005E+01  0.54279670033E+01  0.12436674339E+00  0.64244458927E+01  0.51100000000E-03 0. -1.
        -11    1    3    3    0    0  0.11148565611E+01 -0.18016345774E+01 -0.66145819810E+00  0.22195313720E+01  0.51100000000E-03 0.  1.
        -12    1    3    3    0    0  0.96354291879E+01 -0.15938890790E+02 -0.37516068217E+02  0.41884903124E+02  0.00000000000E+00 0.  1.
</event>
<event>
 7    1  0.8986500E-014  0.5052886E+02  0.7816164E-02  0.1300439E+00
        -11   -1    0    0    0    0  0.00000000000E+00  0.00000000000E+00  0.45593999997E+02  0.45594000000E+02  0.51100000000E-03 0. -1.
         11   -1    0    0    0    0 -0.00000000000E+00 -0.00000000000E+00 -0.45593999997E+02  0.45594000000E+02  0.51100000000E-03 0.  1.
    9900012    2    1    2    0    0 -0.98445442839E+01 -0.24931148540E+02 -0.30572670879E+02  0.50528862966E+02  0.30000009471E+02 0.  0.
         12    1    1    2    0    0  0.98445442839E+01  0.24931148540E+02  0.30572670879E+02  0.40659137034E+02  0.00000000000E+00 0. -1.
         11    1    3    3    0    0 -0.50103766769E+01 -0.10860700290E+02 -0.24593123509E+02  0.27347402243E+02  0.51100000000E-03 0. -1.
        -11    1    3    3    0    0 -0.20670757095E+01 -0.30640100630E+01 -0.10372979521E+02  0.11011796587E+02  0.51100000000E-03 0.  1.
         12    1    3    3    0    0 -0.27670918975E+01 -0.11006438187E+02  0.43934321513E+01  0.12169664137E+02  0.00000000000E+00 0. -1.
</event>
<event>
 7    1  0.8986500E-014  0.5052887E+02  0.7816164E-02  0.1300439E+00
        -11   -1    0    0    0    0  0.00000000000E+00  0.00000000000E+00  0.45593999997E+02  0.45594000000E+02  0.51100000000E-03 0. -1.
         11   -1    0    0    0    0 -0.00000000000E+00 -0.00000000000E+00 -0.45593999997E+02  0.45594000000E+02  0.51100000000E-03 0.  1.
    9900012    2    1    2    0    0 -0.24891974969E+02  0.71569569217E+00  0.32140974527E+02  0.50528869639E+02  0.30000029753E+02 0.  0.
        -12    1    1    2    0    0  0.24891974969E+02 -0.71569569217E+00 -0.32140974527E+02  0.40659130361E+02  0.00000000000E+00 0.  1.
         11    1    3    3    0    0 -0.90025146106E+01  0.24355330081E+01  0.79239644916E+01  0.12237904391E+02  0.51100000000E-03 0. -1.
        -11    1    3    3    0    0  0.48610592039E+01  0.85919764836E+00 -0.14873794297E+01  0.51556197505E+01  0.51100000000E-03 0.  1.
         12    1    3    3    0    0 -0.20750519562E+02 -0.25790349642E+01  0.25704389466E+02  0.33135345498E+02  0.00000000000E+00 0. -1.
</event>
<event>
 7    1  0.8986500E-014  0.5052881E+02  0.7816164E-02  0.1300439E+00
        -11   -1    0    0    0    0  0.00000000000E+00  0.00000000000E+00  0.45593999997E+02  0.45594000000E+02  0.51100000000E-03 0. -1.
         11   -1    0    0    0    0 -0.00000000000E+00 -0.00000000000E+00 -0.45593999997E+02  0.45594000000E+02  0.51100000000E-03 0.  1.
    9900012    2    1    2    0    0  0.29481995211E+02 -0.10344914483E+02  0.26018533374E+02  0.50528814369E+02  0.29999861756E+02 0.  0.
        -12    1    1    2    0    0 -0.29481995211E+02  0.10344914483E+02 -0.26018533374E+02  0.40659185631E+02  0.00000000000E+00 0.  1.
         11    1    3    3    0    0  0.73352927381E+01  0.41052626409E+01  0.17841905272E+02  0.19722912688E+02  0.51100000000E-03 0. -1.
        -11    1    3    3    0    0 -0.13928337208E+01  0.56731311614E+00  0.14413648104E+01  0.20831137087E+01  0.51100000000E-03 0.  1.
        -12    1    3    3    0    0  0.23539536193E+02 -0.15017490240E+02  0.67352632913E+01  0.28722787972E+02  0.00000000000E+00 0.  1.
</event>
<event>
 7    1  0.8986500E-014  0.5052886E+02  0.7816164E-02  0.1300439E+00
        -11   -1    0    0    0    0  0.00000000000E+00  0.00000000000E+00  0.45593999997E+02  0.45594000000E+02  0.51100000000E-03 0. -1.
         11   -1    0    0    0    0 -0.00000000000E+00 -0.00000000000E+00 -0.45593999997E+02  0.45594000000E+02  0.51100000000E-03 0.  1.
    9900012    2    1    2    0    0 -0.17887644287E+01  0.20998898333E+02  0.34770852268E+02  0.50528861091E+02  0.30000003773E+02 0.  0.
        -12    1    1    2    0    0  0.17887644287E+01 -0.20998898333E+02 -0.34770852268E+02  0.40659138909E+02  0.00000000000E+00 0.  1.
         11    1    3    3    0    0 -0.13918871876E+02  0.75177979516E+01  0.10185084457E+02  0.18814574829E+02  0.51100000000E-03 0. -1.
        -11    1    3    3    0    0  0.54408892085E+01  0.82836794530E+01  0.68149567487E+01  0.12027728647E+02  0.51100000000E-03 0.  1.
        -12    1    3    3    0    0  0.66892182384E+01  0.51974209282E+01  0.17770811062E+02  0.19686557615E+02  0.00000000000E+00 0.  1.
</event>
<event>
 7    1  0.8986500E-014  0.5052886E+02  0.7816164E-02  0.1300439E+00
        -11   -1    0    0    0    0  0.00000000000E+00  0.00000000000E+00  0.45593999997E+02  0.45594000000E+02  0.51100000000E-03 0. -1.
         11   -1    0    0    0    0 -0.00000000000E+00 -0.00000000000E+00 -0.45593999997E+02  0.45594000000E+02  0.51100000000E-03 0.  1.
    9900012    2    1    2    0    0  0.11012299974E+02 -0.20347721050E+02  0.33434487837E+02  0.50528862287E+02  0.30000007407E+02 0.  0.
        -12    1    1    2    0    0 -0.11012299974E+02  0.20347721050E+02 -0.33434487837E+02  0.40659137713E+02  0.00000000000E+00 0.  1.
         11    1    3    3    0    0  0.48293663417E+01 -0.60411332179E+01  0.84352245508E+01  0.11444259841E+02  0.51100000000E-03 0. -1.
        -11    1    3    3    0    0 -0.11958805955E+01 -0.20333898020E+02  0.18791005459E+02  0.27712802556E+02  0.51100000000E-03 0.  1.
        -12    1    3    3    0    0  0.73788142275E+01  0.60273101875E+01  0.62082578274E+01  0.11371799891E+02  0.00000000000E+00 0.  1.
</event>
<event>
 7    1  0.8986500E-014  0.5052886E+02  0.7816164E-02  0.1300439E+00
        -11   -1    0    0    0    0  0.00000000000E+00  0.00000000000E+00  0.45593999997E+02  0.45594000000E+02  0.51100000000E-03 0. -1.
         11   -1    0    0    0    0 -0.00000000000E+00 -0.00000000000E+00 -0.45593999997E+02  0.45594000000E+02  0.51100000000E-03 0.  1.
    9900012    2    1    2    0    0  0.26898908860E+01 -0.59183396734E+01  0.40136058339E+02  0.50528862817E+02  0.30000009018E+02 0.  0.
        -12    1    1    2    0    0 -0.26898908860E+01  0.59183396734E+01 -0.40136058339E+02  0.40659137183E+02  0.00000000000E+00 0.  1.
         11    1    3    3    0    0  0.15724476795E+01 -0.35287231687E+01  0.81589227088E+01  0.90273195876E+01  0.51100000000E-03 0. -1.
        -11    1    3    3    0    0  0.78800646747E+01 -0.12107700329E+02  0.19883061011E+02  0.24576979919E+02  0.51100000000E-03 0.  1.
        -12    1    3    3    0    0 -0.67626214682E+01  0.97180838239E+01  0.12094074619E+02  0.16924563310E+02  0.00000000000E+00 0.  1.
</event>
<event>
 7    1  0.8986500E-014  0.5052884E+02  0.7816164E-02  0.1300439E+00
        -11   -1    0    0    0    0  0.00000000000E+00  0.00000000000E+00  0.45593999997E+02  0.45594000000E+02  0.51100000000E-03 0. -1.
         11   -1    0    0    0    0 -0.00000000000E+00 -0.00000000000E+00 -0.45593999997E+02  0.45594000000E+02  0.51100000000E-03 0.  1.
    9900012    2    1    2    0    0 -0.20828120625E+02  0.38272127279E+01 -0.34708921708E+02  0.50528838521E+02  0.29999935168E+02 0.  0.
         12    1    1    2    0    0  0.20828120625E+02 -0.38272127279E+01  0.34708921708E+02  0.40659161479E+02  0.00000000000E+00 0. -1.
         11    1    3    3    0    0 -0.90797876047E+01 -0.39047502970E+01 -0.71985147394E+01  0.12227355910E+02  0.51100000000E-03 0. -1.
        -11    1    3    3    0    0 -0.14588639203E+02  0.29734723570E+01 -0.59386430691E+01  0.16029267401E+02  0.51100000000E-03 0.  1.
        -12    1    3    3    0    0  0.28403061823E+01  0.47584906680E+01 -0.21571763899E+02  0.22272215210E+02  0.00000000000E+00 0.  1.
</event>
<event>
 7    1  0.8986500E-014  0.5052884E+02  0.7816164E-02  0.1300439E+00
        -11   -1    0    0    0    0  0.00000000000E+00  0.00000000000E+00  0.45593999997E+02  0.45594000000E+02  0.51100000000E-03 0.  1.
         11   -1    0    0    0    0 -0.00000000000E+00 -0.00000000000E+00 -0.45593999997E+02  0.45594000000E+02  0.51100000000E-03 0. -1.
    9900012    2    1    2    0    0 -0.60472441137E-01 -0.36956242986E+02  0.16952877266E+02  0.50528836210E+02  0.29999928143E+02 0.  0.
        -12    1    1    2    0    0  0.60472441137E-01  0.36956242986E+02 -0.16952877266E+02  0.40659163790E+02  0.00000000000E+00 0.  1.
         11    1    3    3    0    0 -0.90524136900E+01 -0.30665216745E+02  0.17279598525E+02  0.36343998639E+02  0.51100000000E-03 0. -1.
        -11    1    3    3    0    0 -0.22520714167E+00 -0.11062115083E+01  0.29132223382E+01  0.31243058126E+01  0.51100000000E-03 0.  1.
        -12    1    3    3    0    0  0.92171483906E+01 -0.51848147326E+01 -0.32399435973E+01  0.11060531758E+02  0.00000000000E+00 0.  1.
</event>
<event>
 7    1  0.8986500E-014  0.5052885E+02  0.7816164E-02  0.1300439E+00
        -11   -1    0    0    0    0  0.00000000000E+00  0.00000000000E+00  0.45593999997E+02  0.45594000000E+02  0.51100000000E-03 0. -1.
         11   -1    0    0    0    0 -0.00000000000E+00 -0.00000000000E+00 -0.45593999997E+02  0.45594000000E+02  0.51100000000E-03 0.  1.
    9900012    2    1    2    0    0  0.94103404683E+00  0.16108949795E+02 -0.37320002039E+02  0.50528851450E+02  0.29999974468E+02 0.  0.
         12    1    1    2    0    0 -0.94103404683E+00 -0.16108949795E+02  0.37320002039E+02  0.40659148550E+02  0.00000000000E+00 0. -1.
         11    1    3    3    0    0  0.70597652302E+01  0.44707305997E+01 -0.28672993263E+02  0.29865837676E+02  0.51100000000E-03 0. -1.
        -11    1    3    3    0    0 -0.24874985449E+00  0.35013359881E+01 -0.99448960966E+01  0.10546193096E+02  0.51100000000E-03 0.  1.
         12    1    3    3    0    0 -0.58699813289E+01  0.81368832074E+01  0.12978873199E+01  0.10116820678E+02  0.00000000000E+00 0. -1.
</event>
<event>
 7    1  0.8986500E-014  0.5052884E+02  0.7816164E-02  0.1300439E+00
        -11   -1    0    0    0    0  0.00000000000E+00  0.00000000000E+00  0.45593999997E+02  0.45594000000E+02  0.51100000000E-03 0. -1.
         11   -1    0    0    0    0 -0.00000000000E+00 -0.00000000000E+00 -0.45593999997E+02  0.45594000000E+02  0.51100000000E-03 0.  1.
    9900012    2    1    2    0    0 -0.84717099725E+01 -0.20243453682E+02 -0.34228643161E+02  0.50528839907E+02  0.29999939381E+02 0.  0.
         12    1    1    2    0    0  0.84717099725E+01  0.20243453682E+02  0.34228643161E+02  0.40659160093E+02  0.00000000000E+00 0. -1.
         11    1    3    3    0    0  0.10100616679E+02 -0.38631841493E+01 -0.73448513854E+01  0.13072623731E+02  0.51100000000E-03 0. -1.
        -11    1    3    3    0    0 -0.10862715310E+01 -0.29675611635E+01 -0.73768024947E+01  0.80251866274E+01  0.51100000000E-03 0.  1.
         12    1    3    3    0    0 -0.17486055121E+02 -0.13412708369E+02 -0.19506989281E+02  0.29431029549E+02  0.00000000000E+00 0. -1.
</event>
<event>
 7    1  0.8986500E-014  0.5052885E+02  0.7816164E-02  0.1300439E+00
        -11   -1    0    0    0    0  0.00000000000E+00  0.00000000000E+00  0.45593999997E+02  0.45594000000E+02  0.51100000000E-03 0. -1.
         11   -1    0    0    0    0 -0.00000000000E+00 -0.00000000000E+00 -0.45593999997E+02  0.45594000000E+02  0.51100000000E-03 0.  1.
    9900012    2    1    2    0    0 -0.19742071994E+02 -0.11985420401E+02 -0.33462916775E+02  0.50528849641E+02  0.29999968968E+02 0.  0.
         12    1    1    2    0    0  0.19742071994E+02  0.11985420401E+02  0.33462916775E+02  0.40659150359E+02  0.00000000000E+00 0. -1.
         11    1    3    3    0    0  0.38384743740E+01 -0.59135323642E+01 -0.12303919779E+02  0.14180627374E+02  0.51100000000E-03 0. -1.
        -11    1    3    3    0    0 -0.96090001872E-01 -0.60694252945E+01 -0.44030380510E+01  0.74989266588E+01  0.51100000000E-03 0.  1.
        -12    1    3    3    0    0 -0.23484456366E+02 -0.24627421479E-02 -0.16755958946E+02  0.28849295608E+02  0.00000000000E+00 0.  1.
</event>
<event>
 7    1  0.8986500E-014  0.5052886E+02  0.7816164E-02  0.1300439E+00
        -11   -1    0    0    0    0  0.00000000000E+00  0.00000000000E+00  0.45593999997E+02  0.45594000000E+02  0.51100000000E-03 0. -1.
         11   -1    0    0    0    0 -0.00000000000E+00 -0.00000000000E+00 -0.45593999997E+02  0.45594000000E+02  0.51100000000E-03 0.  1.
    9900012    2    1    2    0    0  0.25925360572E+02 -0.74588384945E+01 -0.30420506003E+02  0.50528858618E+02  0.29999996254E+02 0.  0.
         12    1    1    2    0    0 -0.25925360572E+02  0.74588384945E+01  0.30420506003E+02  0.40659141382E+02  0.00000000000E+00 0. -1.
         11    1    3    3    0    0  0.86722668299E+00  0.52833736335E+01 -0.34962267965E+01  0.63945071073E+01  0.51100000000E-03 0. -1.
        -11    1    3    3    0    0  0.90587093171E+01  0.27252034160E+01 -0.17650643914E+02  0.20025787849E+02  0.51100000000E-03 0.  1.
        -12    1    3    3    0    0  0.15999424572E+02 -0.15467415544E+02 -0.92736352922E+01  0.24108563661E+02  0.00000000000E+00 0.  1.
</event>
<event>
 7    1  0.8986500E-014  0.5052886E+02  0.7816164E-02  0.1300439E+00
        -11   -1    0    0    0    0  0.00000000000E+00  0.00000000000E+00  0.45593999997E+02  0.45594000000E+02  0.51100000000E-03 0.  1.
         11   -1    0    0    0    0 -0.00000000000E+00 -0.00000000000E+00 -0.45593999997E+02  0.45594000000E+02  0.51100000000E-03 0. -1.
    9900012    2    1    2    0    0  0.37023491044E+02  0.14915468908E+02  0.77430962874E+01  0.50528860290E+02  0.30000001337E+02 0.  0.
        -12    1    1    2    0    0 -0.37023491044E+02 -0.14915468908E+02 -0.77430962874E+01  0.40659139710E+02  0.00000000000E+00 0.  1.
         11    1    3    3    0    0  0.61314748501E+01  0.10567604917E+02  0.11664604518E+02  0.16891780733E+02  0.51100000000E-03 0. -1.
        -11    1    3    3    0    0  0.70339125289E+01  0.36092358080E+01  0.34920950140E+01  0.86427562982E+01  0.51100000000E-03 0.  1.
         12    1    3    3    0    0  0.23858103665E+02  0.73862818343E+00 -0.74136032442E+01  0.24994323259E+02  0.00000000000E+00 0. -1.
</event>
<event>
 7    1  0.8986500E-014  0.5052885E+02  0.7816164E-02  0.1300439E+00
        -11   -1    0    0    0    0  0.00000000000E+00  0.00000000000E+00  0.45593999997E+02  0.45594000000E+02  0.51100000000E-03 0. -1.
         11   -1    0    0    0    0 -0.00000000000E+00 -0.00000000000E+00 -0.45593999997E+02  0.45594000000E+02  0.51100000000E-03 0.  1.
    9900012    2    1    2    0    0  0.37266334318E+01  0.18319725280E+02 -0.36106319758E+02  0.50528850261E+02  0.29999970852E+02 0.  0.
         12    1    1    2    0    0 -0.37266334318E+01 -0.18319725280E+02  0.36106319758E+02  0.40659149739E+02  0.00000000000E+00 0. -1.
         11    1    3    3    0    0  0.66527783278E+01  0.30172656628E+01 -0.50235396086E+01  0.88656247393E+01  0.51100000000E-03 0. -1.
        -11    1    3    3    0    0  0.19906870929E+01 -0.50202562421E+01 -0.18219785737E+01  0.56995977070E+01  0.51100000000E-03 0.  1.
        -12    1    3    3    0    0 -0.49168319888E+01  0.20322715860E+02 -0.29260801576E+02  0.35963627814E+02  0.00000000000E+00 0.  1.
</event>
<event>
 7    1  0.8986500E-014  0.5052886E+02  0.7816164E-02  0.1300439E+00
        -11   -1    0    0    0    0  0.00000000000E+00  0.00000000000E+00  0.45593999997E+02  0.45594000000E+02  0.51100000000E-03 0. -1.
         11   -1    0    0    0    0 -0.00000000000E+00 -0.00000000000E+00 -0.45593999997E+02  0.45594000000E+02  0.51100000000E-03 0.  1.
    9900012    2    1    2    0    0 -0.16669211642E+02  0.12781791592E+01 -0.37063044140E+02  0.50528860810E+02  0.30000002918E+02 0.  0.
         12    1    1    2    0    0  0.16669211642E+02 -0.12781791592E+01  0.37063044140E+02  0.40659139190E+02  0.00000000000E+00 0. -1.
         11    1    3    3    0    0 -0.85075626723E+00  0.33769383125E+01  0.22987445486E+01  0.41727359554E+01  0.51100000000E-03 0. -1.
        -11    1    3    3    0    0 -0.80648407210E+01 -0.93082966719E+01 -0.12805106845E+02  0.17766733080E+02  0.51100000000E-03 0.  1.
         12    1    3    3    0    0 -0.77536146540E+01  0.72095375186E+01 -0.26556681844E+02  0.28589391774E+02  0.00000000000E+00 0. -1.
</event>
<event>
 7    1  0.8986500E-014  0.5052887E+02  0.7816164E-02  0.1300439E+00
        -11   -1    0    0    0    0  0.00000000000E+00  0.00000000000E+00  0.45593999997E+02  0.45594000000E+02  0.51100000000E-03 0. -1.
         11   -1    0    0    0    0 -0.00000000000E+00 -0.00000000000E+00 -0.45593999997E+02  0.45594000000E+02  0.51100000000E-03 0.  1.
    9900012    2    1    2    0    0 -0.13240158978E+02 -0.23504308643E+02 -0.30420564517E+02  0.50528867199E+02  0.30000022339E+02 0.  0.
         12    1    1    2    0    0  0.13240158978E+02  0.23504308643E+02  0.30420564517E+02  0.40659132801E+02  0.00000000000E+00 0. -1.
         11    1    3    3    0    0  0.71187034818E+01 -0.11584645350E+02 -0.64414318648E+01  0.15045663557E+02  0.51100000000E-03 0. -1.
        -11    1    3    3    0    0 -0.12860114825E+02 -0.11717349636E+02 -0.11281524687E+02  0.20735275145E+02  0.51100000000E-03 0.  1.
        -12    1    3    3    0    0 -0.74987476347E+01 -0.20231365689E+00 -0.12697607965E+02  0.14747928497E+02  0.00000000000E+00 0.  1.
</event>
<event>
 7    1  0.8986500E-014  0.5052886E+02  0.7816164E-02  0.1300439E+00
        -11   -1    0    0    0    0  0.00000000000E+00  0.00000000000E+00  0.45593999997E+02  0.45594000000E+02  0.51100000000E-03 0. -1.
         11   -1    0    0    0    0 -0.00000000000E+00 -0.00000000000E+00 -0.45593999997E+02  0.45594000000E+02  0.51100000000E-03 0.  1.
    9900012    2    1    2    0    0  0.20453560295E+02 -0.23287957090E+02 -0.26315178147E+02  0.50528859883E+02  0.30000000100E+02 0.  0.
         12    1    1    2    0    0 -0.20453560295E+02  0.23287957090E+02  0.26315178147E+02  0.40659140117E+02  0.00000000000E+00 0. -1.
         11    1    3    3    0    0 -0.29805513320E+01  0.34208105352E+01 -0.16164789756E+01  0.48164961850E+01  0.51100000000E-03 0. -1.
        -11    1    3    3    0    0  0.62687386019E+01 -0.13803471632E+02 -0.17289286117E+02  0.22994615183E+02  0.51100000000E-03 0.  1.
         12    1    3    3    0    0  0.17165373025E+02 -0.12905295993E+02 -0.74094130551E+01  0.22717748515E+02  0.00000000000E+00 0. -1.
</event>
<event>
 7    1  0.8986500E-014  0.5052891E+02  0.7816164E-02  0.1300439E+00
        -11   -1    0    0    0    0  0.00000000000E+00  0.00000000000E+00  0.45593999997E+02  0.45594000000E+02  0.51100000000E-03 0. -1.
         11   -1    0    0    0    0 -0.00000000000E+00 -0.00000000000E+00 -0.45593999997E+02  0.45594000000E+02  0.51100000000E-03 0.  1.
    9900012    2    1    2    0    0 -0.25069704707E+02 -0.34907570376E+00 -0.32008584030E+02  0.50528912460E+02  0.30000159913E+02 0.  0.
         12    1    1    2    0    0  0.25069704707E+02  0.34907570376E+00  0.32008584030E+02  0.40659087540E+02  0.00000000000E+00 0. -1.
         11    1    3    3    0    0 -0.15600953739E+02  0.72227710917E+01 -0.72042995712E+01  0.18640281983E+02  0.51100000000E-03 0. -1.
        -11    1    3    3    0    0 -0.16587126446E+01  0.16367426695E+01  0.16188058937E+01  0.28373908765E+01  0.51100000000E-03 0.  1.
        -12    1    3    3    0    0 -0.78100383235E+01 -0.92085894650E+01 -0.26423090353E+02  0.29051239601E+02  0.00000000000E+00 0.  1.
</event>
<event>
 7    1  0.8986500E-014  0.5052887E+02  0.7816164E-02  0.1300439E+00
        -11   -1    0    0    0    0  0.00000000000E+00  0.00000000000E+00  0.45593999997E+02  0.45594000000E+02  0.51100000000E-03 0. -1.
         11   -1    0    0    0    0 -0.00000000000E+00 -0.00000000000E+00 -0.45593999997E+02  0.45594000000E+02  0.51100000000E-03 0.  1.
    9900012    2    1    2    0    0 -0.23382080445E+02 -0.17434486426E+01 -0.33217515979E+02  0.50528872280E+02  0.30000037783E+02 0.  0.
         12    1    1    2    0    0  0.23382080445E+02  0.17434486426E+01  0.33217515979E+02  0.40659127720E+02  0.00000000000E+00 0. -1.
         11    1    3    3    0    0 -0.39837479893E+01  0.88852439004E+01 -0.53610353552E+01  0.11115687453E+02  0.51100000000E-03 0.  1.
        -11    1    3    3    0    0 -0.10321668882E+02  0.18122282127E+01 -0.44283533718E+01  0.11376789242E+02  0.51100000000E-03 0. -1.
        -12    1    3    3    0    0 -0.90766635735E+01 -0.12440920756E+02 -0.23428127252E+02  0.28036395585E+02  0.00000000000E+00 0.  1.
</event>
<event>
 7    1  0.8986500E-014  0.5052887E+02  0.7816164E-02  0.1300439E+00
        -11   -1    0    0    0    0  0.00000000000E+00  0.00000000000E+00  0.45593999997E+02  0.45594000000E+02  0.51100000000E-03 0.  1.
         11   -1    0    0    0    0 -0.00000000000E+00 -0.00000000000E+00 -0.45593999997E+02  0.45594000000E+02  0.51100000000E-03 0. -1.
    9900012    2    1    2    0    0  0.13637165348E+02  0.37329570747E+02  0.85846407455E+01  0.50528865877E+02  0.30000018320E+02 0.  0.
        -12    1    1    2    0    0 -0.13637165348E+02 -0.37329570747E+02 -0.85846407455E+01  0.40659134123E+02  0.00000000000E+00 0.  1.
         11    1    3    3    0    0  0.10768925360E+02  0.20536950616E+02  0.16112155026E+02  0.28237167596E+02  0.51100000000E-03 0. -1.
        -11    1    3    3    0    0  0.67874677181E+01  0.13387555035E+02 -0.27975516893E+01  0.15268354317E+02  0.51100000000E-03 0.  1.
        -12    1    3    3    0    0 -0.39192277306E+01  0.34050650969E+01 -0.47299625914E+01  0.70233439638E+01  0.00000000000E+00 0.  1.
</event>
<event>
 7    1  0.8986500E-014  0.5052886E+02  0.7816164E-02  0.1300439E+00
        -11   -1    0    0    0    0  0.00000000000E+00  0.00000000000E+00  0.45593999997E+02  0.45594000000E+02  0.51100000000E-03 0. -1.
         11   -1    0    0    0    0 -0.00000000000E+00 -0.00000000000E+00 -0.45593999997E+02  0.45594000000E+02  0.51100000000E-03 0.  1.
    9900012    2    1    2    0    0 -0.10944964189E+02 -0.22382564977E+02  0.32130892400E+02  0.50528859546E+02  0.29999999075E+02 0.  0.
        -12    1    1    2    0    0  0.10944964189E+02  0.22382564977E+02 -0.32130892400E+02  0.40659140454E+02  0.00000000000E+00 0.  1.
         11    1    3    3    0    0 -0.87266591160E+01 -0.21284695728E+02  0.21514574001E+02  0.31497138700E+02  0.51100000000E-03 0. -1.
        -11    1    3    3    0    0 -0.14938610073E+01 -0.78416161349E+01  0.23143106181E+01  0.83113535730E+01  0.51100000000E-03 0.  1.
        -12    1    3    3    0    0 -0.72444406561E+00  0.67437468860E+01  0.83020077810E+01  0.10720367273E+02  0.00000000000E+00 0.  1.
</event>
<event>
 7    1  0.8986500E-014  0.5052888E+02  0.7816164E-02  0.1300439E+00
        -11   -1    0    0    0    0  0.00000000000E+00  0.00000000000E+00  0.45593999997E+02  0.45594000000E+02  0.51100000000E-03 0. -1.
         11   -1    0    0    0    0 -0.00000000000E+00 -0.00000000000E+00 -0.45593999997E+02  0.45594000000E+02  0.51100000000E-03 0.  1.
    9900012    2    1    2    0    0  0.32381579783E+02 -0.18974507824E+02  0.15638575310E+02  0.50528884243E+02  0.30000074145E+02 0.  0.
        -12    1    1    2    0    0 -0.32381579783E+02  0.18974507824E+02 -0.15638575310E+02  0.40659115757E+02  0.00000000000E+00 0.  1.
         11    1    3    3    0    0  0.22675476048E+02 -0.13121703029E+02  0.10935488750E+02  0.28389103875E+02  0.51100000000E-03 0. -1.
        -11    1    3    3    0    0  0.98259441799E+01 -0.39989025684E+01  0.11173834107E+02  0.15407626997E+02  0.51100000000E-03 0.  1.
        -12    1    3    3    0    0 -0.11984044442E+00 -0.18539022264E+01 -0.64707475467E+01  0.67321533709E+01  0.00000000000E+00 0.  1.
</event>
<event>
 7    1  0.8986500E-014  0.5052885E+02  0.7816164E-02  0.1300439E+00
        -11   -1    0    0    0    0  0.00000000000E+00  0.00000000000E+00  0.45593999997E+02  0.45594000000E+02  0.51100000000E-03 0. -1.
         11   -1    0    0    0    0 -0.00000000000E+00 -0.00000000000E+00 -0.45593999997E+02  0.45594000000E+02  0.51100000000E-03 0.  1.
    9900012    2    1    2    0    0  0.18477368136E+01 -0.34415677355E+00 -0.40615681402E+02  0.50528854030E+02  0.29999982311E+02 0.  0.
         12    1    1    2    0    0 -0.18477368136E+01  0.34415677355E+00  0.40615681402E+02  0.40659145970E+02  0.00000000000E+00 0. -1.
         11    1    3    3    0    0 -0.50839006570E+00 -0.89302279489E+01 -0.60736098745E+01  0.10811853164E+02  0.51100000000E-03 0. -1.
        -11    1    3    3    0    0 -0.44369376248E+01 -0.32845625124E+01 -0.65780041175E+01  0.85874853604E+01  0.51100000000E-03 0.  1.
         12    1    3    3    0    0  0.67930645041E+01  0.11870633688E+02 -0.27964067410E+02  0.31129515506E+02  0.00000000000E+00 0. -1.
</event>
<event>
 7    1  0.8986500E-014  0.5052886E+02  0.7816164E-02  0.1300439E+00
        -11   -1    0    0    0    0  0.00000000000E+00  0.00000000000E+00  0.45593999997E+02  0.45594000000E+02  0.51100000000E-03 0. -1.
         11   -1    0    0    0    0 -0.00000000000E+00 -0.00000000000E+00 -0.45593999997E+02  0.45594000000E+02  0.51100000000E-03 0.  1.
    9900012    2    1    2    0    0 -0.39297521956E+01  0.75379244260E+01  0.39760560529E+02  0.50528862890E+02  0.30000009239E+02 0.  0.
        -12    1    1    2    0    0  0.39297521956E+01 -0.75379244260E+01 -0.39760560529E+02  0.40659137110E+02  0.00000000000E+00 0.  1.
         11    1    3    3    0    0 -0.36646918112E+01  0.13803056706E+02  0.20570701308E+02  0.25042126369E+02  0.51100000000E-03 0. -1.
        -11    1    3    3    0    0  0.26742809819E+01  0.45434801512E+01  0.40212926419E+01  0.66306700587E+01  0.51100000000E-03 0.  1.
        -12    1    3    3    0    0 -0.29393413662E+01 -0.10808612431E+02  0.15168566580E+02  0.18856066462E+02  0.00000000000E+00 0.  1.
</event>
<event>
 7    1  0.1149843E-013  0.5052887E+02  0.7816164E-02  0.1300439E+00
        -11   -1    0    0    0    0  0.00000000000E+00  0.00000000000E+00  0.45593999997E+02  0.45594000000E+02  0.51100000000E-03 0.  1.
         11   -1    0    0    0    0 -0.00000000000E+00 -0.00000000000E+00 -0.45593999997E+02  0.45594000000E+02  0.51100000000E-03 0. -1.
    9900012    2    1    2    0    0 -0.34462954597E+02 -0.15096027194E+02  0.15413627232E+02  0.50528865958E+02  0.30000018565E+02 0.  0.
        -12    1    1    2    0    0  0.34462954597E+02  0.15096027194E+02 -0.15413627232E+02  0.40659134042E+02  0.00000000000E+00 0.  1.
         11    1    3    3    0    0 -0.44326555959E+01 -0.62545027228E+01 -0.27777035612E+01  0.81537032860E+01  0.51100000000E-03 0. -1.
        -11    1    3    3    0    0 -0.46920360469E+01 -0.12370531229E+01  0.14955772136E+02  0.15723251036E+02  0.51100000000E-03 0.  1.
         12    1    3    3    0    0 -0.25338262955E+02 -0.76044713478E+01  0.32355586576E+01  0.26651911636E+02  0.00000000000E+00 0. -1.
</event>
<event>
 7    1  0.8986500E-014  0.5052900E+02  0.7816164E-02  0.1300438E+00
        -11   -1    0    0    0    0  0.00000000000E+00  0.00000000000E+00  0.45593999997E+02  0.45594000000E+02  0.51100000000E-03 0. -1.
         11   -1    0    0    0    0 -0.00000000000E+00 -0.00000000000E+00 -0.45593999997E+02  0.45594000000E+02  0.51100000000E-03 0.  1.
    9900012    2    1    2    0    0 -0.23104573744E+02  0.67177286058E+01 -0.32775069474E+02  0.50528998727E+02  0.30000422126E+02 0.  0.
         12    1    1    2    0    0  0.23104573744E+02 -0.67177286058E+01  0.32775069474E+02  0.40659001273E+02  0.00000000000E+00 0. -1.
         11    1    3    3    0    0 -0.30208648822E+01 -0.55316508243E+01 -0.15560924800E+02  0.16788900094E+02  0.51100000000E-03 0. -1.
        -11    1    3    3    0    0 -0.88799437568E+01  0.10107952546E+02 -0.17806610761E+02  0.22318142684E+02  0.51100000000E-03 0.  1.
         12    1    3    3    0    0 -0.11203765105E+02  0.21414268837E+01  0.59246608661E+00  0.11421955949E+02  0.00000000000E+00 0. -1.
</event>
<event>
 7    1  0.8986500E-014  0.5052884E+02  0.7816164E-02  0.1300439E+00
        -11   -1    0    0    0    0  0.00000000000E+00  0.00000000000E+00  0.45593999997E+02  0.45594000000E+02  0.51100000000E-03 0. -1.
         11   -1    0    0    0    0 -0.00000000000E+00 -0.00000000000E+00 -0.45593999997E+02  0.45594000000E+02  0.51100000000E-03 0.  1.
    9900012    2    1    2    0    0  0.21730357828E+02  0.20938409755E+02 -0.27249613645E+02  0.50528844841E+02  0.29999954379E+02 0.  0.
         12    1    1    2    0    0 -0.21730357828E+02 -0.20938409755E+02  0.27249613645E+02  0.40659155159E+02  0.00000000000E+00 0. -1.
         11    1    3    3    0    0  0.20932256807E+02  0.15919224102E+02 -0.79876145473E+01  0.27484232888E+02  0.51100000000E-03 0. -1.
        -11    1    3    3    0    0  0.40265501741E+01  0.58345966638E+01 -0.57485637536E+01  0.91269715692E+01  0.51100000000E-03 0.  1.
         12    1    3    3    0    0 -0.32284491527E+01 -0.81541101098E+00 -0.13513435344E+02  0.13917640384E+02  0.00000000000E+00 0. -1.
</event>
<event>
 7    1  0.8986500E-014  0.5052887E+02  0.7816164E-02  0.1300439E+00
        -11   -1    0    0    0    0  0.00000000000E+00  0.00000000000E+00  0.45593999997E+02  0.45594000000E+02  0.51100000000E-03 0. -1.
         11   -1    0    0    0    0 -0.00000000000E+00 -0.00000000000E+00 -0.45593999997E+02  0.45594000000E+02  0.51100000000E-03 0.  1.
    9900012    2    1    2    0    0  0.17480023547E+02  0.29404604216E+02 -0.21976879097E+02  0.50528865883E+02  0.30000018338E+02 0.  0.
         12    1    1    2    0    0 -0.17480023547E+02 -0.29404604216E+02  0.21976879097E+02  0.40659134117E+02  0.00000000000E+00 0. -1.
         11    1    3    3    0    0  0.24092847160E+01 -0.25675187548E+01 -0.25444464170E+01  0.43440779493E+01  0.51100000000E-03 0. -1.
        -11    1    3    3    0    0 -0.96907639400E+00  0.16005263139E+02 -0.17085523605E+02  0.23431232881E+02  0.51100000000E-03 0.  1.
         12    1    3    3    0    0  0.16039815225E+02  0.15966859832E+02 -0.23469090746E+01  0.22753555053E+02  0.00000000000E+00 0. -1.
</event>
<event>
 7    1  0.8986500E-014  0.5052882E+02  0.7816164E-02  0.1300439E+00
        -11   -1    0    0    0    0  0.00000000000E+00  0.00000000000E+00  0.45593999997E+02  0.45594000000E+02  0.51100000000E-03 0. -1.
         11   -1    0    0    0    0 -0.00000000000E+00 -0.00000000000E+00 -0.45593999997E+02  0.45594000000E+02  0.51100000000E-03 0.  1.
    9900012    2    1    2    0    0 -0.16055867574E+02 -0.61340683628E+00 -0.37349727422E+02  0.50528815429E+02  0.29999864978E+02 0.  0.
         12    1    1    2    0    0  0.16055867574E+02  0.61340683628E+00  0.37349727422E+02  0.40659184571E+02  0.00000000000E+00 0. -1.
         11    1    3    3    0    0 -0.91062892936E+01  0.40050690472E+01 -0.90792287684E+01  0.13468388102E+02  0.51100000000E-03 0. -1.
        -11    1    3    3    0    0 -0.83197850554E+01  0.68756320129E+01 -0.20348170118E+02  0.23033479250E+02  0.51100000000E-03 0.  1.
         12    1    3    3    0    0  0.13702067752E+01 -0.11494107896E+02 -0.79223285355E+01  0.14026948077E+02  0.00000000000E+00 0. -1.
</event>
<event>
 7    1  0.8986500E-014  0.5052892E+02  0.7816164E-02  0.1300439E+00
        -11   -1    0    0    0    0  0.00000000000E+00  0.00000000000E+00  0.45593999997E+02  0.45594000000E+02  0.51100000000E-03 0. -1.
         11   -1    0    0    0    0 -0.00000000000E+00 -0.00000000000E+00 -0.45593999997E+02  0.45594000000E+02  0.51100000000E-03 0.  1.
    9900012    2    1    2    0    0  0.32539374362E+01  0.24245717018E+02 -0.32476421992E+02  0.50528918751E+02  0.30000179035E+02 0.  0.
         12    1    1    2    0    0 -0.32539374362E+01 -0.24245717018E+02  0.32476421992E+02  0.40659081249E+02  0.00000000000E+00 0. -1.
         11    1    3    3    0    0 -0.57601371580E+01 -0.14455564283E+01 -0.69216528699E+01  0.91202024199E+01  0.51100000000E-03 0. -1.
        -11    1    3    3    0    0 -0.53058303248E+01  0.89458829054E+01 -0.10080398426E+02  0.14484304922E+02  0.51100000000E-03 0.  1.
        -12    1    3    3    0    0  0.14319904919E+02  0.16745390541E+02 -0.15474370696E+02  0.26924411409E+02  0.00000000000E+00 0.  1.
</event>
<event>
 7    1  0.8986500E-014  0.5052886E+02  0.7816164E-02  0.1300439E+00
        -11   -1    0    0    0    0  0.00000000000E+00  0.00000000000E+00  0.45593999997E+02  0.45594000000E+02  0.51100000000E-03 0. -1.
         11   -1    0    0    0    0 -0.00000000000E+00 -0.00000000000E+00 -0.45593999997E+02  0.45594000000E+02  0.51100000000E-03 0.  1.
    9900012    2    1    2    0    0  0.19892133582E+02  0.28598609054E+01 -0.35345292730E+02  0.50528862024E+02  0.30000006607E+02 0.  0.
         12    1    1    2    0    0 -0.19892133582E+02 -0.28598609054E+01  0.35345292730E+02  0.40659137976E+02  0.00000000000E+00 0. -1.
         11    1    3    3    0    0  0.11467007485E+02  0.90389138833E+00 -0.47775943929E+01  0.12455307653E+02  0.51100000000E-03 0. -1.
        -11    1    3    3    0    0  0.97611761576E+01 -0.74871017563E+01 -0.22224625208E+02  0.25402189248E+02  0.51100000000E-03 0.  1.
         12    1    3    3    0    0 -0.13360500606E+01  0.94430712733E+01 -0.83430731288E+01  0.12671365123E+02  0.00000000000E+00 0. -1.
</event>
<event>
 7    1  0.8986500E-014  0.5052887E+02  0.7816164E-02  0.1300439E+00
        -11   -1    0    0    0    0  0.00000000000E+00  0.00000000000E+00  0.45593999997E+02  0.45594000000E+02  0.51100000000E-03 0. -1.
         11   -1    0    0    0    0 -0.00000000000E+00 -0.00000000000E+00 -0.45593999997E+02  0.45594000000E+02  0.51100000000E-03 0.  1.
    9900012    2    1    2    0    0  0.23357213910E+02  0.69150165290E+01 -0.32554381424E+02  0.50528872549E+02  0.30000038599E+02 0.  0.
         12    1    1    2    0    0 -0.23357213910E+02 -0.69150165290E+01  0.32554381424E+02  0.40659127451E+02  0.00000000000E+00 0. -1.
         11    1    3    3    0    0  0.29722650688E+01  0.19192809873E+01 -0.43869624451E+00  0.35651723385E+01  0.51100000000E-03 0. -1.
        -11    1    3    3    0    0 -0.37742008298E+01 -0.64893779625E+01 -0.65995987458E+01  0.99955651221E+01  0.51100000000E-03 0.  1.
        -12    1    3    3    0    0  0.24159149671E+02  0.11485113504E+02 -0.25516086433E+02  0.36968135088E+02  0.00000000000E+00 0.  1.
</event>
<event>
 7    1  0.8986500E-014  0.5052883E+02  0.7816164E-02  0.1300439E+00
        -11   -1    0    0    0    0  0.00000000000E+00  0.00000000000E+00  0.45593999997E+02  0.45594000000E+02  0.51100000000E-03 0. -1.
         11   -1    0    0    0    0 -0.00000000000E+00 -0.00000000000E+00 -0.45593999997E+02  0.45594000000E+02  0.51100000000E-03 0.  1.
    9900012    2    1    2    0    0 -0.15768523771E+01 -0.17701308878E+02 -0.36569727250E+02  0.50528834360E+02  0.29999922520E+02 0.  0.
         12    1    1    2    0    0  0.15768523771E+01  0.17701308878E+02  0.36569727250E+02  0.40659165640E+02  0.00000000000E+00 0. -1.
         11    1    3    3    0    0 -0.72068879570E+01  0.16933425098E+01 -0.94685000322E+01  0.12019115442E+02  0.51100000000E-03 0. -1.
        -11    1    3    3    0    0 -0.17387990827E+01 -0.22212402073E+01 -0.17067101465E+02  0.17298649744E+02  0.51100000000E-03 0.  1.
         12    1    3    3    0    0  0.73688346627E+01 -0.17173411180E+02 -0.10034125753E+02  0.21211069174E+02  0.00000000000E+00 0. -1.
</event>
<event>
 7    1  0.8986500E-014  0.5052886E+02  0.7816164E-02  0.1300439E+00
        -11   -1    0    0    0    0  0.00000000000E+00  0.00000000000E+00  0.45593999997E+02  0.45594000000E+02  0.51100000000E-03 0. -1.
         11   -1    0    0    0    0 -0.00000000000E+00 -0.00000000000E+00 -0.45593999997E+02  0.45594000000E+02  0.51100000000E-03 0.  1.
    9900012    2    1    2    0    0  0.30734713624E+02 -0.25166354363E+02 -0.86716495092E+01  0.50528861806E+02  0.30000005947E+02 0.  0.
         12    1    1    2    0    0 -0.30734713624E+02  0.25166354363E+02  0.86716495092E+01  0.40659138194E+02  0.00000000000E+00 0. -1.
         11    1    3    3    0    0  0.23323148526E+02 -0.23195969900E+02  0.10540474351E+01  0.32910990459E+02  0.51100000000E-03 0. -1.
        -11    1    3    3    0    0  0.10070575774E+02 -0.27958950248E+01 -0.38898344976E+01  0.11151875990E+02  0.51100000000E-03 0.  1.
        -12    1    3    3    0    0 -0.26590106763E+01  0.82551056201E+00 -0.58358624467E+01  0.64659953574E+01  0.00000000000E+00 0.  1.
</event>
<event>
 7    1  0.8986500E-014  0.5052886E+02  0.7816164E-02  0.1300439E+00
        -11   -1    0    0    0    0  0.00000000000E+00  0.00000000000E+00  0.45593999997E+02  0.45594000000E+02  0.51100000000E-03 0. -1.
         11   -1    0    0    0    0 -0.00000000000E+00 -0.00000000000E+00 -0.45593999997E+02  0.45594000000E+02  0.51100000000E-03 0.  1.
    9900012    2    1    2    0    0  0.36702079270E+01 -0.22669627552E+02 -0.33552695131E+02  0.50528858468E+02  0.29999995799E+02 0.  0.
         12    1    1    2    0    0 -0.36702079270E+01  0.22669627552E+02  0.33552695131E+02  0.40659141532E+02  0.00000000000E+00 0. -1.
         11    1    3    3    0    0 -0.26944627489E+01 -0.85181884810E+00 -0.11084322784E+02  0.11438878297E+02  0.51100000000E-03 0. -1.
        -11    1    3    3    0    0  0.65698789280E+01 -0.39816025476E+01 -0.19563278694E+02  0.21017572207E+02  0.51100000000E-03 0.  1.
         12    1    3    3    0    0 -0.20520825209E+00 -0.17836206156E+02 -0.29050936534E+01  0.18072407964E+02  0.00000000000E+00 0. -1.
</event>
<event>
 7    1  0.8986500E-014  0.5052885E+02  0.7816164E-02  0.1300439E+00
        -11   -1    0    0    0    0  0.00000000000E+00  0.00000000000E+00  0.45593999997E+02  0.45594000000E+02  0.51100000000E-03 0. -1.
         11   -1    0    0    0    0 -0.00000000000E+00 -0.00000000000E+00 -0.45593999997E+02  0.45594000000E+02  0.51100000000E-03 0.  1.
    9900012    2    1    2    0    0 -0.10809709096E+02  0.30832199344E+02 -0.24201079473E+02  0.50528848818E+02  0.29999966467E+02 0.  0.
         12    1    1    2    0    0  0.10809709096E+02 -0.30832199344E+02  0.24201079473E+02  0.40659151182E+02  0.00000000000E+00 0. -1.
         11    1    3    3    0    0 -0.32738632556E+01  0.23730019200E+01 -0.16563846948E+02  0.17050230048E+02  0.51100000000E-03 0. -1.
        -11    1    3    3    0    0 -0.79992704820E+00  0.45678962415E+01 -0.73062314817E+01  0.86537031426E+01  0.51100000000E-03 0.  1.
        -12    1    3    3    0    0 -0.67359187927E+01  0.23891301183E+02 -0.33100104356E+00  0.24824915627E+02  0.00000000000E+00 0.  1.
</event>
<event>
 7    1  0.8986500E-014  0.5052886E+02  0.7816164E-02  0.1300439E+00
        -11   -1    0    0    0    0  0.00000000000E+00  0.00000000000E+00  0.45593999997E+02  0.45594000000E+02  0.51100000000E-03 0. -1.
         11   -1    0    0    0    0 -0.00000000000E+00 -0.00000000000E+00 -0.45593999997E+02  0.45594000000E+02  0.51100000000E-03 0.  1.
    9900012    2    1    2    0    0  0.16982030978E+02 -0.35237761962E+02  0.11093963119E+02  0.50528864963E+02  0.30000015543E+02 0.  0.
        -12    1    1    2    0    0 -0.16982030978E+02  0.35237761962E+02 -0.11093963119E+02  0.40659135037E+02  0.00000000000E+00 0.  1.
         11    1    3    3    0    0  0.42790867232E+01 -0.21328161641E+02  0.16544929487E+02  0.27330125396E+02  0.51100000000E-03 0. -1.
        -11    1    3    3    0    0  0.60317871699E+01 -0.47445783225E+01  0.38034282297E+01  0.85650187671E+01  0.51100000000E-03 0.  1.
         12    1    3    3    0    0  0.66711570853E+01 -0.91650219986E+01 -0.92543945977E+01  0.14633720800E+02  0.00000000000E+00 0. -1.
</event>
<event>
 7    1  0.8986500E-014  0.5052888E+02  0.7816164E-02  0.1300439E+00
        -11   -1    0    0    0    0  0.00000000000E+00  0.00000000000E+00  0.45593999997E+02  0.45594000000E+02  0.51100000000E-03 0. -1.
         11   -1    0    0    0    0 -0.00000000000E+00 -0.00000000000E+00 -0.45593999997E+02  0.45594000000E+02  0.51100000000E-03 0.  1.
    9900012    2    1    2    0    0  0.96399790065E+00 -0.22727102712E+02  0.33700352379E+02  0.50528877529E+02  0.30000053737E+02 0.  0.
        -12    1    1    2    0    0 -0.96399790065E+00  0.22727102712E+02 -0.33700352379E+02  0.40659122471E+02  0.00000000000E+00 0.  1.
         11    1    3    3    0    0  0.14803535594E+00  0.16646679107E+01 -0.27353404940E+01  0.32054830523E+01  0.51100000000E-03 0. -1.
        -11    1    3    3    0    0  0.86919513218E+01 -0.76047725556E+01  0.15945113570E+02  0.19688301868E+02  0.51100000000E-03 0.  1.
         12    1    3    3    0    0 -0.78759887770E+01 -0.16786998067E+02  0.20490579303E+02  0.27635092609E+02  0.00000000000E+00 0. -1.
</event>
<event>
 7    1  0.8986500E-014  0.5052879E+02  0.7816164E-02  0.1300439E+00
        -11   -1    0    0    0    0  0.00000000000E+00  0.00000000000E+00  0.45593999997E+02  0.45594000000E+02  0.51100000000E-03 0. -1.
         11   -1    0    0    0    0 -0.00000000000E+00 -0.00000000000E+00 -0.45593999997E+02  0.45594000000E+02  0.51100000000E-03 0.  1.
    9900012    2    1    2    0    0  0.19044456038E+02  0.82148488757E+01 -0.34971368505E+02  0.50528786248E+02  0.29999776278E+02 0.  0.
         12    1    1    2    0    0 -0.19044456038E+02 -0.82148488757E+01  0.34971368505E+02  0.40659213752E+02  0.00000000000E+00 0. -1.
         11    1    3    3    0    0  0.82958690764E+01  0.46466175954E+01 -0.13654916396E+02  0.16639388236E+02  0.51100000000E-03 0. -1.
        -11    1    3    3    0    0  0.61966341570E+01 -0.56713045092E+00 -0.25631927279E+02  0.26376421443E+02  0.51100000000E-03 0.  1.
         12    1    3    3    0    0  0.45519528046E+01  0.41353617313E+01  0.43154751706E+01  0.75129765693E+01  0.00000000000E+00 0. -1.
</event>
<event>
 7    1  0.8986500E-014  0.5052886E+02  0.7816164E-02  0.1300439E+00
        -11   -1    0    0    0    0  0.00000000000E+00  0.00000000000E+00  0.45593999997E+02  0.45594000000E+02  0.51100000000E-03 0. -1.
         11   -1    0    0    0    0 -0.00000000000E+00 -0.00000000000E+00 -0.45593999997E+02  0.45594000000E+02  0.51100000000E-03 0.  1.
    9900012    2    1    2    0    0  0.14829691228E+02  0.10219777425E+02 -0.36452741827E+02  0.50528856142E+02  0.29999988730E+02 0.  0.
         12    1    1    2    0    0 -0.14829691228E+02 -0.10219777425E+02  0.36452741827E+02  0.40659143858E+02  0.00000000000E+00 0. -1.
         11    1    3    3    0    0 -0.27478074692E+01 -0.43632461563E+01 -0.30975333798E+01  0.60152370035E+01  0.51100000000E-03 0. -1.
        -11    1    3    3    0    0  0.15680838644E+02  0.14505149181E+01 -0.21962874562E+02  0.27025183689E+02  0.51100000000E-03 0.  1.
         12    1    3    3    0    0  0.18966600532E+01  0.13132508663E+02 -0.11392333885E+02  0.17488435450E+02  0.00000000000E+00 0. -1.
</event>
<event>
 7    1  0.8986500E-014  0.5052887E+02  0.7816164E-02  0.1300439E+00
        -11   -1    0    0    0    0  0.00000000000E+00  0.00000000000E+00  0.45593999997E+02  0.45594000000E+02  0.51100000000E-03 0.  1.
         11   -1    0    0    0    0 -0.00000000000E+00 -0.00000000000E+00 -0.45593999997E+02  0.45594000000E+02  0.51100000000E-03 0. -1.
    9900012    2    1    2    0    0  0.23547774304E+02 -0.13542731092E+02  0.30253295676E+02  0.50528866471E+02  0.30000020124E+02 0.  0.
        -12    1    1    2    0    0 -0.23547774304E+02  0.13542731092E+02 -0.30253295676E+02  0.40659133529E+02  0.00000000000E+00 0.  1.
         11    1    3    3    0    0  0.96353757355E+01 -0.45615345154E+01  0.11254279728E+02  0.15501834574E+02  0.51100000000E-03 0. -1.
        -11    1    3    3    0    0  0.12003339218E+02 -0.26422069154E+01  0.23842637182E+02  0.26824107773E+02  0.51100000000E-03 0.  1.
         12    1    3    3    0    0  0.19090593502E+01 -0.63389896608E+01 -0.48436212339E+01  0.82029241237E+01  0.00000000000E+00 0. -1.
</event>
<event>
 7    1  0.8986500E-014  0.5052885E+02  0.7816164E-02  0.1300439E+00
        -11   -1    0    0    0    0  0.00000000000E+00  0.00000000000E+00  0.45593999997E+02  0.45594000000E+02  0.51100000000E-03 0. -1.
         11   -1    0    0    0    0 -0.00000000000E+00 -0.00000000000E+00 -0.45593999997E+02  0.45594000000E+02  0.51100000000E-03 0.  1.
    9900012    2    1    2    0    0  0.31220127515E+02  0.56065615293E+01 -0.25436910828E+02  0.50528851870E+02  0.29999975743E+02 0.  0.
         12    1    1    2    0    0 -0.31220127515E+02 -0.56065615293E+01  0.25436910828E+02  0.40659148130E+02  0.00000000000E+00 0. -1.
         11    1    3    3    0    0 -0.25474527684E+00  0.83843405602E+01 -0.66772033385E+01  0.10721338838E+02  0.51100000000E-03 0.  1.
        -11    1    3    3    0    0  0.20438493457E+02 -0.15581996155E+01 -0.19995625495E+02  0.28635380913E+02  0.51100000000E-03 0. -1.
        -12    1    3    3    0    0  0.11036379335E+02 -0.12195794154E+01  0.12359180055E+01  0.11172132119E+02  0.00000000000E+00 0.  1.
</event>
<event>
 7    1  0.8986500E-014  0.5052886E+02  0.7816164E-02  0.1300439E+00
        -11   -1    0    0    0    0  0.00000000000E+00  0.00000000000E+00  0.45593999997E+02  0.45594000000E+02  0.51100000000E-03 0. -1.
         11   -1    0    0    0    0 -0.00000000000E+00 -0.00000000000E+00 -0.45593999997E+02  0.45594000000E+02  0.51100000000E-03 0.  1.
    9900012    2    1    2    0    0  0.13578254843E+02  0.98761774758E+01 -0.37030493140E+02  0.50528864393E+02  0.30000013808E+02 0.  0.
         12    1    1    2    0    0 -0.13578254843E+02 -0.98761774758E+01  0.37030493140E+02  0.40659135607E+02  0.00000000000E+00 0. -1.
         11    1    3    3    0    0  0.84614571618E+01 -0.48303771476E+01 -0.42362817223E+01  0.10624259211E+02  0.51100000000E-03 0. -1.
        -11    1    3    3    0    0 -0.49247148064E+01  0.32493145018E-01 -0.62910398122E+01  0.79894338916E+01  0.51100000000E-03 0.  1.
        -12    1    3    3    0    0  0.10041512487E+02  0.14674061478E+02 -0.26503171606E+02  0.31915171290E+02  0.00000000000E+00 0.  1.
</event>
<event>
 7    1  0.8986500E-014  0.5052888E+02  0.7816164E-02  0.1300439E+00
        -11   -1    0    0    0    0  0.00000000000E+00  0.00000000000E+00  0.45593999997E+02  0.45594000000E+02  0.51100000000E-03 0. -1.
         11   -1    0    0    0    0 -0.00000000000E+00 -0.00000000000E+00 -0.45593999997E+02  0.45594000000E+02  0.51100000000E-03 0.  1.
    9900012    2    1    2    0    0  0.80750926528E+01  0.32695462719E+02  0.22780782044E+02  0.50528875141E+02  0.30000046477E+02 0.  0.
        -12    1    1    2    0    0 -0.80750926528E+01 -0.32695462719E+02 -0.22780782044E+02  0.40659124859E+02  0.00000000000E+00 0.  1.
         11    1    3    3    0    0  0.99090163601E+01  0.11379511949E+02  0.66142249539E+01  0.16475128813E+02  0.51100000000E-03 0.  1.
        -11    1    3    3    0    0  0.56034568942E+01  0.19028686253E+02  0.17135020169E+02  0.26212564661E+02  0.51100000000E-03 0. -1.
        -12    1    3    3    0    0 -0.74373806015E+01  0.22872645173E+01 -0.96846307808E+00  0.78411816658E+01  0.00000000000E+00 0.  1.
</event>
<event>
 7    1  0.8986500E-014  0.5052886E+02  0.7816164E-02  0.1300439E+00
        -11   -1    0    0    0    0  0.00000000000E+00  0.00000000000E+00  0.45593999997E+02  0.45594000000E+02  0.51100000000E-03 0.  1.
         11   -1    0    0    0    0 -0.00000000000E+00 -0.00000000000E+00 -0.45593999997E+02  0.45594000000E+02  0.51100000000E-03 0. -1.
    9900012    2    1    2    0    0  0.19867475160E+02 -0.32707143311E+02  0.13736519373E+02  0.50528858872E+02  0.29999997027E+02 0.  0.
        -12    1    1    2    0    0 -0.19867475160E+02  0.32707143311E+02 -0.13736519373E+02  0.40659141128E+02  0.00000000000E+00 0.  1.
         11    1    3    3    0    0  0.60645648766E+01 -0.24367840026E+02  0.42610507625E+01  0.25470122272E+02  0.51100000000E-03 0.  1.
        -11    1    3    3    0    0  0.17915078620E+01 -0.10439283876E+02  0.67636785981E+01  0.12567239025E+02  0.51100000000E-03 0. -1.
        -12    1    3    3    0    0  0.12011402421E+02  0.20999805914E+01  0.27117900122E+01  0.12491497575E+02  0.00000000000E+00 0.  1.
</event>
<event>
 7    1  0.8986500E-014  0.5052887E+02  0.7816164E-02  0.1300439E+00
        -11   -1    0    0    0    0  0.00000000000E+00  0.00000000000E+00  0.45593999997E+02  0.45594000000E+02  0.51100000000E-03 0. -1.
         11   -1    0    0    0    0 -0.00000000000E+00 -0.00000000000E+00 -0.45593999997E+02  0.45594000000E+02  0.51100000000E-03 0.  1.
    9900012    2    1    2    0    0 -0.12331759294E+02 -0.37209103725E+02 -0.10797015203E+02  0.50528865423E+02  0.30000016938E+02 0.  0.
         12    1    1    2    0    0  0.12331759294E+02  0.37209103725E+02  0.10797015203E+02  0.40659134577E+02  0.00000000000E+00 0. -1.
         11    1    3    3    0    0  0.16480700372E+01 -0.54383543088E+01  0.26124121676E+01  0.62543209088E+01  0.51100000000E-03 0. -1.
        -11    1    3    3    0    0  0.50685587704E+01 -0.16891444960E+02 -0.27145133416E+01  0.17843199931E+02  0.51100000000E-03 0.  1.
        -12    1    3    3    0    0 -0.19048388101E+02 -0.14879304456E+02 -0.10694914029E+02  0.26431344583E+02  0.00000000000E+00 0.  1.
</event>
<event>
 7    1  0.8986500E-014  0.5052888E+02  0.7816164E-02  0.1300439E+00
        -11   -1    0    0    0    0  0.00000000000E+00  0.00000000000E+00  0.45593999997E+02  0.45594000000E+02  0.51100000000E-03 0. -1.
         11   -1    0    0    0    0 -0.00000000000E+00 -0.00000000000E+00 -0.45593999997E+02  0.45594000000E+02  0.51100000000E-03 0.  1.
    9900012    2    1    2    0    0  0.43366135445E+01 -0.69032686657E+01  0.39833440538E+02  0.50528876541E+02  0.30000050735E+02 0.  0.
        -12    1    1    2    0    0 -0.43366135445E+01  0.69032686657E+01 -0.39833440538E+02  0.40659123459E+02  0.00000000000E+00 0.  1.
         11    1    3    3    0    0 -0.53972170304E+01  0.18177472205E+00  0.95475982431E+01  0.10969030322E+02  0.51100000000E-03 0. -1.
        -11    1    3    3    0    0 -0.48451030018E+01 -0.84583902231E+01  0.17893945285E+02  0.20376767811E+02  0.51100000000E-03 0.  1.
        -12    1    3    3    0    0  0.14578933577E+02  0.13733468353E+01  0.12391897010E+02  0.19183078409E+02  0.00000000000E+00 0.  1.
</event>
<event>
 7    1  0.8986500E-014  0.5052888E+02  0.7816164E-02  0.1300439E+00
        -11   -1    0    0    0    0  0.00000000000E+00  0.00000000000E+00  0.45593999997E+02  0.45594000000E+02  0.51100000000E-03 0. -1.
         11   -1    0    0    0    0 -0.00000000000E+00 -0.00000000000E+00 -0.45593999997E+02  0.45594000000E+02  0.51100000000E-03 0.  1.
    9900012    2    1    2    0    0  0.15935901548E+02  0.85044039137E+01 -0.36426450406E+02  0.50528878843E+02  0.30000057731E+02 0.  0.
         12    1    1    2    0    0 -0.15935901548E+02 -0.85044039137E+01  0.36426450406E+02  0.40659121157E+02  0.00000000000E+00 0. -1.
         11    1    3    3    0    0 -0.58500622669E+01  0.52258900037E+01 -0.78268049685E+01  0.11081156579E+02  0.51100000000E-03 0. -1.
        -11    1    3    3    0    0 -0.99988350031E+00 -0.21546555292E+01  0.12984110272E+00  0.23789002579E+01  0.51100000000E-03 0.  1.
        -12    1    3    3    0    0  0.22785847315E+02  0.54331694393E+01 -0.28729486540E+02  0.37068822006E+02  0.00000000000E+00 0.  1.
</event>
<event>
 7    1  0.8986500E-014  0.5052887E+02  0.7816164E-02  0.1300439E+00
        -11   -1    0    0    0    0  0.00000000000E+00  0.00000000000E+00  0.45593999997E+02  0.45594000000E+02  0.51100000000E-03 0. -1.
         11   -1    0    0    0    0 -0.00000000000E+00 -0.00000000000E+00 -0.45593999997E+02  0.45594000000E+02  0.51100000000E-03 0.  1.
    9900012    2    1    2    0    0  0.17035298913E+02  0.35105987752E+02  0.11425116624E+02  0.50528867263E+02  0.30000022531E+02 0.  0.
        -12    1    1    2    0    0 -0.17035298913E+02 -0.35105987752E+02 -0.11425116624E+02  0.40659132737E+02  0.00000000000E+00 0.  1.
         11    1    3    3    0    0 -0.30075155092E+01  0.51574931940E+01  0.17079631196E+01  0.62098328370E+01  0.51100000000E-03 0.  1.
        -11    1    3    3    0    0  0.24551902816E+01  0.69502570121E+01 -0.75963004488E+01  0.10584791572E+02  0.51100000000E-03 0. -1.
         12    1    3    3    0    0  0.17587624140E+02  0.22998237546E+02  0.17313453953E+02  0.33734242854E+02  0.00000000000E+00 0. -1.
</event>
<event>
 7    1  0.8986500E-014  0.5052886E+02  0.7816164E-02  0.1300439E+00
        -11   -1    0    0    0    0  0.00000000000E+00  0.00000000000E+00  0.45593999997E+02  0.45594000000E+02  0.51100000000E-03 0. -1.
         11   -1    0    0    0    0 -0.00000000000E+00 -0.00000000000E+00 -0.45593999997E+02  0.45594000000E+02  0.51100000000E-03 0.  1.
    9900012    2    1    2    0    0 -0.33433308997E+02  0.14205420532E+02  0.18264320383E+02  0.50528861765E+02  0.30000005820E+02 0.  0.
        -12    1    1    2    0    0  0.33433308997E+02 -0.14205420532E+02 -0.18264320383E+02  0.40659138235E+02  0.00000000000E+00 0.  1.
         11    1    3    3    0    0 -0.11474904140E+02  0.17069441635E+02  0.12368567656E+02  0.24000431848E+02  0.51100000000E-03 0. -1.
        -11    1    3    3    0    0 -0.14869781177E+02  0.15449875716E+01 -0.19448328693E+01  0.15075800277E+02  0.51100000000E-03 0.  1.
        -12    1    3    3    0    0 -0.70886236799E+01 -0.44090086746E+01  0.78405855965E+01  0.11452629640E+02  0.00000000000E+00 0.  1.
</event>
<event>
 7    1  0.8986500E-014  0.5052883E+02  0.7816164E-02  0.1300439E+00
        -11   -1    0    0    0    0  0.00000000000E+00  0.00000000000E+00  0.45593999997E+02  0.45594000000E+02  0.51100000000E-03 0.  1.
         11   -1    0    0    0    0 -0.00000000000E+00 -0.00000000000E+00 -0.45593999997E+02  0.45594000000E+02  0.51100000000E-03 0. -1.
    9900012    2    1    2    0    0  0.36741305893E+02  0.16162192514E+02 -0.64829005129E+01  0.50528830989E+02  0.29999912275E+02 0.  0.
        -12    1    1    2    0    0 -0.36741305893E+02 -0.16162192514E+02  0.64829005129E+01  0.40659169011E+02  0.00000000000E+00 0.  1.
         11    1    3    3    0    0  0.21518192323E+02  0.16148009226E+02  0.43036151870E+01  0.27245401571E+02  0.51100000000E-03 0. -1.
        -11    1    3    3    0    0  0.14557713503E+02  0.47889238222E+01 -0.59072447950E+01  0.16424261175E+02  0.51100000000E-03 0.  1.
        -12    1    3    3    0    0  0.66540006688E+00 -0.47747405348E+01 -0.48792709049E+01  0.68591682431E+01  0.00000000000E+00 0.  1.
</event>
<event>
 7    1  0.8986500E-014  0.5052887E+02  0.7816164E-02  0.1300439E+00
        -11   -1    0    0    0    0  0.00000000000E+00  0.00000000000E+00  0.45593999997E+02  0.45594000000E+02  0.51100000000E-03 0. -1.
         11   -1    0    0    0    0 -0.00000000000E+00 -0.00000000000E+00 -0.45593999997E+02  0.45594000000E+02  0.51100000000E-03 0.  1.
    9900012    2    1    2    0    0  0.11919600071E+02  0.17030642839E+02  0.34943457976E+02  0.50528869209E+02  0.30000028447E+02 0.  0.
        -12    1    1    2    0    0 -0.11919600071E+02 -0.17030642839E+02 -0.34943457976E+02  0.40659130791E+02  0.00000000000E+00 0.  1.
         11    1    3    3    0    0  0.38311297131E+01  0.11784546804E+02  0.99777981046E+01  0.15909417134E+02  0.51100000000E-03 0. -1.
        -11    1    3    3    0    0  0.11621342840E+02  0.91189209413E+01  0.78689000944E+01  0.16737082108E+02  0.51100000000E-03 0.  1.
         12    1    3    3    0    0 -0.35328724827E+01 -0.38728249062E+01  0.17096759777E+02  0.17882369966E+02  0.00000000000E+00 0. -1.
</event>
<event>
 7    1  0.8986500E-014  0.5052892E+02  0.7816164E-02  0.1300439E+00
        -11   -1    0    0    0    0  0.00000000000E+00  0.00000000000E+00  0.45593999997E+02  0.45594000000E+02  0.51100000000E-03 0. -1.
         11   -1    0    0    0    0 -0.00000000000E+00 -0.00000000000E+00 -0.45593999997E+02  0.45594000000E+02  0.51100000000E-03 0.  1.
    9900012    2    1    2    0    0  0.20341097402E+02 -0.33924425797E+02 -0.94092351912E+01  0.50528922095E+02  0.30000189200E+02 0.  0.
         12    1    1    2    0    0 -0.20341097402E+02  0.33924425797E+02  0.94092351912E+01  0.40659077905E+02  0.00000000000E+00 0. -1.
         11    1    3    3    0    0  0.10275246454E+02 -0.19518655138E+02  0.10023602794E+01  0.22080835909E+02  0.51100000000E-03 0. -1.
        -11    1    3    3    0    0  0.53733278396E+01 -0.15735450977E+02  0.35168369513E+00  0.16631318384E+02  0.51100000000E-03 0.  1.
         12    1    3    3    0    0  0.46925231091E+01  0.13296803173E+01 -0.10763279166E+02  0.11816767802E+02  0.00000000000E+00 0. -1.
</event>
<event>
 7    1  0.8986500E-014  0.5052886E+02  0.7816164E-02  0.1300439E+00
        -11   -1    0    0    0    0  0.00000000000E+00  0.00000000000E+00  0.45593999997E+02  0.45594000000E+02  0.51100000000E-03 0. -1.
         11   -1    0    0    0    0 -0.00000000000E+00 -0.00000000000E+00 -0.45593999997E+02  0.45594000000E+02  0.51100000000E-03 0.  1.
    9900012    2    1    2    0    0 -0.22620706199E+02 -0.29061506895E+02  0.17230727942E+02  0.50528861822E+02  0.30000005993E+02 0.  0.
        -12    1    1    2    0    0  0.22620706199E+02  0.29061506895E+02 -0.17230727942E+02  0.40659138178E+02  0.00000000000E+00 0.  1.
         11    1    3    3    0    0 -0.15065940267E+02 -0.62252459813E+01  0.11669454137E+02  0.20047753086E+02  0.51100000000E-03 0. -1.
        -11    1    3    3    0    0  0.24020767140E+01 -0.10525724093E+02  0.92579230755E+01  0.14222165100E+02  0.51100000000E-03 0.  1.
        -12    1    3    3    0    0 -0.99568426460E+01 -0.12310536821E+02 -0.36966492707E+01  0.16258943635E+02  0.00000000000E+00 0.  1.
</event>
<event>
 7    1  0.8986500E-014  0.5052887E+02  0.7816164E-02  0.1300439E+00
        -11   -1    0    0    0    0  0.00000000000E+00  0.00000000000E+00  0.45593999997E+02  0.45594000000E+02  0.51100000000E-03 0. -1.
         11   -1    0    0    0    0 -0.00000000000E+00 -0.00000000000E+00 -0.45593999997E+02  0.45594000000E+02  0.51100000000E-03 0.  1.
    9900012    2    1    2    0    0 -0.78661488894E+01  0.24436397025E+02 -0.31530162272E+02  0.50528869035E+02  0.30000027918E+02 0.  0.
         12    1    1    2    0    0  0.78661488894E+01 -0.24436397025E+02  0.31530162272E+02  0.40659130965E+02  0.00000000000E+00 0. -1.
         11    1    3    3    0    0 -0.65339969052E+01  0.37009135747E+01 -0.33843348219E+01  0.82367226062E+01  0.51100000000E-03 0. -1.
        -11    1    3    3    0    0 -0.98148529655E+01  0.11684394344E+02 -0.25330686998E+02  0.29571948092E+02  0.51100000000E-03 0.  1.
         12    1    3    3    0    0  0.84827009812E+01  0.90510891065E+01 -0.28151404529E+01  0.12720198336E+02  0.00000000000E+00 0. -1.
</event>
<event>
 7    1  0.8986500E-014  0.5052888E+02  0.7816164E-02  0.1300439E+00
        -11   -1    0    0    0    0  0.00000000000E+00  0.00000000000E+00  0.45593999997E+02  0.45594000000E+02  0.51100000000E-03 0.  1.
         11   -1    0    0    0    0 -0.00000000000E+00 -0.00000000000E+00 -0.45593999997E+02  0.45594000000E+02  0.51100000000E-03 0. -1.
    9900012    2    1    2    0    0  0.35676610518E+02  0.17607542813E+02 -0.83855791387E+01  0.50528879996E+02  0.30000061237E+02 0.  0.
         12    1    1    2    0    0 -0.35676610518E+02 -0.17607542813E+02  0.83855791387E+01  0.40659120004E+02  0.00000000000E+00 0. -1.
         11    1    3    3    0    0  0.16989908762E+01 -0.27970653577E+01  0.15458691236E+01  0.36193723518E+01  0.51100000000E-03 0. -1.
        -11    1    3    3    0    0  0.16733918670E+02  0.36669052968E+01  0.59156819142E+01  0.18123617776E+02  0.51100000000E-03 0.  1.
         12    1    3    3    0    0  0.17243700971E+02  0.16737702874E+02 -0.15847130177E+02  0.28785889869E+02  0.00000000000E+00 0. -1.
</event>
<event>
 7    1  0.8986500E-014  0.5052886E+02  0.7816164E-02  0.1300439E+00
        -11   -1    0    0    0    0  0.00000000000E+00  0.00000000000E+00  0.45593999997E+02  0.45594000000E+02  0.51100000000E-03 0.  1.
         11   -1    0    0    0    0 -0.00000000000E+00 -0.00000000000E+00 -0.45593999997E+02  0.45594000000E+02  0.51100000000E-03 0. -1.
    9900012    2    1    2    0    0 -0.95972418457E+01  0.38161413452E+02 -0.10235496404E+02  0.50528856941E+02  0.29999991157E+02 0.  0.
         12    1    1    2    0    0  0.95972418457E+01 -0.38161413452E+02  0.10235496404E+02  0.40659143059E+02  0.00000000000E+00 0. -1.
         11    1    3    3    0    0 -0.17423201993E+00  0.56220409838E+01 -0.94106749131E+01  0.10963507842E+02  0.51100000000E-03 0. -1.
        -11    1    3    3    0    0 -0.33453237956E+01  0.58600865643E+00 -0.57403362099E+01  0.66697869161E+01  0.51100000000E-03 0.  1.
        -12    1    3    3    0    0 -0.60776860302E+01  0.31953363812E+02  0.49155147192E+01  0.32895562183E+02  0.00000000000E+00 0.  1.
</event>
<event>
 7    1  0.8986500E-014  0.5052886E+02  0.7816164E-02  0.1300439E+00
        -11   -1    0    0    0    0  0.00000000000E+00  0.00000000000E+00  0.45593999997E+02  0.45594000000E+02  0.51100000000E-03 0. -1.
         11   -1    0    0    0    0 -0.00000000000E+00 -0.00000000000E+00 -0.45593999997E+02  0.45594000000E+02  0.51100000000E-03 0.  1.
    9900012    2    1    2    0    0 -0.30933839087E+02 -0.14815418240E+02  0.21834982448E+02  0.50528862321E+02  0.30000007510E+02 0.  0.
        -12    1    1    2    0    0  0.30933839087E+02  0.14815418240E+02 -0.21834982448E+02  0.40659137679E+02  0.00000000000E+00 0.  1.
         11    1    3    3    0    0 -0.72020879632E+01 -0.16686251056E+01  0.15567967664E+01  0.75549981605E+01  0.51100000000E-03 0. -1.
        -11    1    3    3    0    0 -0.19404418401E+02 -0.12321861121E+02  0.79602233515E+00  0.22999855800E+02  0.51100000000E-03 0.  1.
         12    1    3    3    0    0 -0.43273327226E+01 -0.82493201326E+00  0.19482163347E+02  0.19974008361E+02  0.00000000000E+00 0. -1.
</event>
<event>
 7    1  0.8986500E-014  0.5052886E+02  0.7816164E-02  0.1300439E+00
        -11   -1    0    0    0    0  0.00000000000E+00  0.00000000000E+00  0.45593999997E+02  0.45594000000E+02  0.51100000000E-03 0. -1.
         11   -1    0    0    0    0 -0.00000000000E+00 -0.00000000000E+00 -0.45593999997E+02  0.45594000000E+02  0.51100000000E-03 0.  1.
    9900012    2    1    2    0    0 -0.37203564927E+02 -0.16349398538E+02 -0.13257137473E+01  0.50528860895E+02  0.30000003176E+02 0.  0.
         12    1    1    2    0    0  0.37203564927E+02  0.16349398538E+02  0.13257137473E+01  0.40659139105E+02  0.00000000000E+00 0. -1.
         11    1    3    3    0    0 -0.41529827901E+01 -0.42429569265E+01 -0.15432006959E+01  0.61344452221E+01  0.51100000000E-03 0.  1.
        -11    1    3    3    0    0 -0.13405724157E+02  0.74149070098E+01  0.53519046444E+01  0.16227666799E+02  0.51100000000E-03 0. -1.
         12    1    3    3    0    0 -0.19644857980E+02 -0.19521348622E+02 -0.51344176959E+01  0.28166748874E+02  0.00000000000E+00 0. -1.
</event>
<event>
 7    1  0.8986500E-014  0.5052886E+02  0.7816164E-02  0.1300439E+00
        -11   -1    0    0    0    0  0.00000000000E+00  0.00000000000E+00  0.45593999997E+02  0.45594000000E+02  0.51100000000E-03 0. -1.
         11   -1    0    0    0    0 -0.00000000000E+00 -0.00000000000E+00 -0.45593999997E+02  0.45594000000E+02  0.51100000000E-03 0.  1.
    9900012    2    1    2    0    0  0.22362918435E+02  0.29317713344E+02  0.17132927497E+02  0.50528860299E+02  0.30000001364E+02 0.  0.
        -12    1    1    2    0    0 -0.22362918435E+02 -0.29317713344E+02 -0.17132927497E+02  0.40659139701E+02  0.00000000000E+00 0.  1.
         11    1    3    3    0    0  0.21491346501E+01  0.53174141209E+01  0.11210540895E+02  0.12592454094E+02  0.51100000000E-03 0. -1.
        -11    1    3    3    0    0  0.89071444207E+01  0.10921759498E+02  0.13077285773E+02  0.19225957862E+02  0.51100000000E-03 0.  1.
        -12    1    3    3    0    0  0.11306639364E+02  0.13078539725E+02 -0.71548991716E+01  0.18710448343E+02  0.00000000000E+00 0.  1.
</event>
<event>
 7    1  0.8986500E-014  0.5052886E+02  0.7816164E-02  0.1300439E+00
        -11   -1    0    0    0    0  0.00000000000E+00  0.00000000000E+00  0.45593999997E+02  0.45594000000E+02  0.51100000000E-03 0. -1.
         11   -1    0    0    0    0 -0.00000000000E+00 -0.00000000000E+00 -0.45593999997E+02  0.45594000000E+02  0.51100000000E-03 0.  1.
    9900012    2    1    2    0    0 -0.26245922210E+01 -0.13745334700E+02 -0.38175161952E+02  0.50528859571E+02  0.29999999153E+02 0.  0.
         12    1    1    2    0    0  0.26245922210E+01  0.13745334700E+02  0.38175161952E+02  0.40659140429E+02  0.00000000000E+00 0. -1.
         11    1    3    3    0    0 -0.47699477140E+01  0.88481574576E+00 -0.29608544258E+01  0.56834812650E+01  0.51100000000E-03 0. -1.
        -11    1    3    3    0    0 -0.14941228125E+01  0.38965374591E+01 -0.20466040260E+02  0.20887178157E+02  0.51100000000E-03 0.  1.
        -12    1    3    3    0    0  0.36394783055E+01 -0.18526687905E+02 -0.14748267266E+02  0.23958200149E+02  0.00000000000E+00 0.  1.
</event>
<event>
 7    1  0.8986500E-014  0.5052885E+02  0.7816164E-02  0.1300439E+00
        -11   -1    0    0    0    0  0.00000000000E+00  0.00000000000E+00  0.45593999997E+02  0.45594000000E+02  0.51100000000E-03 0.  1.
         11   -1    0    0    0    0 -0.00000000000E+00 -0.00000000000E+00 -0.45593999997E+02  0.45594000000E+02  0.51100000000E-03 0. -1.
    9900012    2    1    2    0    0 -0.23185565702E+02 -0.18477872802E+02  0.27823802304E+02  0.50528853245E+02  0.29999979923E+02 0.  0.
        -12    1    1    2    0    0  0.23185565702E+02  0.18477872802E+02 -0.27823802304E+02  0.40659146755E+02  0.00000000000E+00 0.  1.
         11    1    3    3    0    0 -0.21492343740E+01  0.23736810910E+01  0.60818814423E+00  0.32593654898E+01  0.51100000000E-03 0. -1.
        -11    1    3    3    0    0 -0.10400368306E+02  0.33993827395E+01  0.29028702295E+01  0.11320340973E+02  0.51100000000E-03 0.  1.
         12    1    3    3    0    0 -0.10635963022E+02 -0.24250936633E+02  0.24312743930E+02  0.35949146783E+02  0.00000000000E+00 0. -1.
</event>
<event>
 7    1  0.8986500E-014  0.5052885E+02  0.7816164E-02  0.1300439E+00
        -11   -1    0    0    0    0  0.00000000000E+00  0.00000000000E+00  0.45593999997E+02  0.45594000000E+02  0.51100000000E-03 0. -1.
         11   -1    0    0    0    0 -0.00000000000E+00 -0.00000000000E+00 -0.45593999997E+02  0.45594000000E+02  0.51100000000E-03 0.  1.
    9900012    2    1    2    0    0 -0.24274036029E+02  0.18539864587E+02  0.26836756096E+02  0.50528845043E+02  0.29999954994E+02 0.  0.
        -12    1    1    2    0    0  0.24274036029E+02 -0.18539864587E+02 -0.26836756096E+02  0.40659154957E+02  0.00000000000E+00 0.  1.
         11    1    3    3    0    0 -0.14448480740E+02 -0.11574984223E+01  0.88847735453E+01  0.17001105832E+02  0.51100000000E-03 0. -1.
        -11    1    3    3    0    0 -0.10181574310E+02  0.14920295018E+02  0.36279667604E+01  0.18423946427E+02  0.51100000000E-03 0.  1.
         12    1    3    3    0    0  0.35601902114E+00  0.47770679914E+01  0.14324015790E+02  0.15103792785E+02  0.00000000000E+00 0. -1.
</event>
<event>
 7    1  0.8986500E-014  0.5052885E+02  0.7816164E-02  0.1300439E+00
        -11   -1    0    0    0    0  0.00000000000E+00  0.00000000000E+00  0.45593999997E+02  0.45594000000E+02  0.51100000000E-03 0. -1.
         11   -1    0    0    0    0 -0.00000000000E+00 -0.00000000000E+00 -0.45593999997E+02  0.45594000000E+02  0.51100000000E-03 0.  1.
    9900012    2    1    2    0    0  0.20445887949E+02  0.14484217662E+02 -0.32020925670E+02  0.50528848803E+02  0.29999966421E+02 0.  0.
         12    1    1    2    0    0 -0.20445887949E+02 -0.14484217662E+02  0.32020925670E+02  0.40659151197E+02  0.00000000000E+00 0. -1.
         11    1    3    3    0    0  0.66092261209E+01 -0.95807231573E+00 -0.88487814625E+01  0.11086059088E+02  0.51100000000E-03 0.  1.
        -11    1    3    3    0    0  0.21719567480E+01  0.72169969567E+01 -0.23990270499E+02  0.25146282430E+02  0.51100000000E-03 0. -1.
         12    1    3    3    0    0  0.11664705080E+02  0.82252930213E+01  0.81812629147E+00  0.14296507284E+02  0.00000000000E+00 0. -1.
</event>
<event>
 7    1  0.8986500E-014  0.5052884E+02  0.7816164E-02  0.1300439E+00
        -11   -1    0    0    0    0  0.00000000000E+00  0.00000000000E+00  0.45593999997E+02  0.45594000000E+02  0.51100000000E-03 0. -1.
         11   -1    0    0    0    0 -0.00000000000E+00 -0.00000000000E+00 -0.45593999997E+02  0.45594000000E+02  0.51100000000E-03 0.  1.
    9900012    2    1    2    0    0  0.13473608315E+02 -0.31998077044E+02 -0.21160158388E+02  0.50528839180E+02  0.29999937171E+02 0.  0.
         12    1    1    2    0    0 -0.13473608315E+02  0.31998077044E+02  0.21160158388E+02  0.40659160820E+02  0.00000000000E+00 0. -1.
         11    1    3    3    0    0 -0.17360772189E+00 -0.15929419103E+02 -0.80914075180E+01  0.17867495865E+02  0.51100000000E-03 0. -1.
        -11    1    3    3    0    0 -0.21217794494E+01 -0.37607749278E+01  0.43554218829E+01  0.61331130862E+01  0.51100000000E-03 0.  1.
        -12    1    3    3    0    0  0.15768995487E+02 -0.12307883014E+02 -0.17424172753E+02  0.26528230229E+02  0.00000000000E+00 0.  1.
</event>
<event>
 7    1  0.8986500E-014  0.5052886E+02  0.7816164E-02  0.1300439E+00
        -11   -1    0    0    0    0  0.00000000000E+00  0.00000000000E+00  0.45593999997E+02  0.45594000000E+02  0.51100000000E-03 0.  1.
         11   -1    0    0    0    0 -0.00000000000E+00 -0.00000000000E+00 -0.45593999997E+02  0.45594000000E+02  0.51100000000E-03 0. -1.
    9900012    2    1    2    0    0 -0.14162204635E+02 -0.36572989975E+02 -0.10724459590E+02  0.50528859953E+02  0.30000000312E+02 0.  0.
        -12    1    1    2    0    0  0.14162204635E+02  0.36572989975E+02  0.10724459590E+02  0.40659140047E+02  0.00000000000E+00 0.  1.
         11    1    3    3    0    0  0.18296824758E+01 -0.63431584924E+01 -0.90825760203E+00  0.66639575145E+01  0.51100000000E-03 0. -1.
        -11    1    3    3    0    0  0.79710726769E+00 -0.79473857279E+01 -0.13537748829E+02  0.15718363895E+02  0.51100000000E-03 0.  1.
        -12    1    3    3    0    0 -0.16788994379E+02 -0.22282445755E+02  0.37215468409E+01  0.28146538543E+02  0.00000000000E+00 0.  1.
</event>
<event>
 7    1  0.8986500E-014  0.5052886E+02  0.7816164E-02  0.1300439E+00
        -11   -1    0    0    0    0  0.00000000000E+00  0.00000000000E+00  0.45593999997E+02  0.45594000000E+02  0.51100000000E-03 0. -1.
         11   -1    0    0    0    0 -0.00000000000E+00 -0.00000000000E+00 -0.45593999997E+02  0.45594000000E+02  0.51100000000E-03 0.  1.
    9900012    2    1    2    0    0  0.15241480317E+02  0.28985808265E+01 -0.37582721785E+02  0.50528862407E+02  0.30000007771E+02 0.  0.
         12    1    1    2    0    0 -0.15241480317E+02 -0.28985808265E+01  0.37582721785E+02  0.40659137593E+02  0.00000000000E+00 0. -1.
         11    1    3    3    0    0  0.73233693294E+01  0.81252590544E-01 -0.24296817707E+02  0.25376636721E+02  0.51100000000E-03 0. -1.
        -11    1    3    3    0    0  0.33773872585E+01  0.15642655176E+01 -0.18063506462E+02  0.18442991549E+02  0.51100000000E-03 0.  1.
         12    1    3    3    0    0  0.45407237295E+01  0.12530627183E+01  0.47776023841E+01  0.67092341370E+01  0.00000000000E+00 0. -1.
</event>
<event>
 7    1  0.8986500E-014  0.5052886E+02  0.7816164E-02  0.1300439E+00
        -11   -1    0    0    0    0  0.00000000000E+00  0.00000000000E+00  0.45593999997E+02  0.45594000000E+02  0.51100000000E-03 0.  1.
         11   -1    0    0    0    0 -0.00000000000E+00 -0.00000000000E+00 -0.45593999997E+02  0.45594000000E+02  0.51100000000E-03 0. -1.
    9900012    2    1    2    0    0 -0.25098291652E+02  0.14871680204E+01 -0.31953557530E+02  0.50528858944E+02  0.29999997246E+02 0.  0.
         12    1    1    2    0    0  0.25098291652E+02 -0.14871680204E+01  0.31953557530E+02  0.40659141056E+02  0.00000000000E+00 0. -1.
         11    1    3    3    0    0  0.12526385753E+01  0.26141021082E+01 -0.90780768533E+01  0.95296438993E+01  0.51100000000E-03 0. -1.
        -11    1    3    3    0    0  0.22795269492E+01 -0.32098556635E+01 -0.74129348432E+01  0.83935105732E+01  0.51100000000E-03 0.  1.
        -12    1    3    3    0    0 -0.28630457176E+02  0.20829215757E+01 -0.15462545834E+02  0.32605704472E+02  0.00000000000E+00 0.  1.
</event>
<event>
 7    1  0.8986500E-014  0.5052886E+02  0.7816164E-02  0.1300439E+00
        -11   -1    0    0    0    0  0.00000000000E+00  0.00000000000E+00  0.45593999997E+02  0.45594000000E+02  0.51100000000E-03 0.  1.
         11   -1    0    0    0    0 -0.00000000000E+00 -0.00000000000E+00 -0.45593999997E+02  0.45594000000E+02  0.51100000000E-03 0. -1.
    9900012    2    1    2    0    0  0.21323945052E+02 -0.29264837135E+02  0.18493895033E+02  0.50528862299E+02  0.30000007445E+02 0.  0.
        -12    1    1    2    0    0 -0.21323945052E+02  0.29264837135E+02 -0.18493895033E+02  0.40659137701E+02  0.00000000000E+00 0.  1.
         11    1    3    3    0    0  0.11631716518E+02 -0.10534641295E+01 -0.18742468714E+01  0.11828753841E+02  0.51100000000E-03 0. -1.
        -11    1    3    3    0    0  0.52168827496E+01 -0.13149770676E+01  0.16505009819E+01  0.56275380109E+01  0.51100000000E-03 0.  1.
        -12    1    3    3    0    0  0.44753457835E+01 -0.26896395938E+02  0.18717640922E+02  0.33072570447E+02  0.00000000000E+00 0.  1.
</event>
<event>
 7    1  0.8986500E-014  0.5052886E+02  0.7816164E-02  0.1300439E+00
        -11   -1    0    0    0    0  0.00000000000E+00  0.00000000000E+00  0.45593999997E+02  0.45594000000E+02  0.51100000000E-03 0. -1.
         11   -1    0    0    0    0 -0.00000000000E+00 -0.00000000000E+00 -0.45593999997E+02  0.45594000000E+02  0.51100000000E-03 0.  1.
    9900012    2    1    2    0    0  0.39737212535E+02  0.12063460816E+01  0.85243577686E+01  0.50528855810E+02  0.29999987719E+02 0.  0.
        -12    1    1    2    0    0 -0.39737212535E+02 -0.12063460816E+01 -0.85243577686E+01  0.40659144190E+02  0.00000000000E+00 0.  1.
         11    1    3    3    0    0  0.11391425072E+02  0.10663648766E+01 -0.91731890275E+01  0.14664552377E+02  0.51100000000E-03 0. -1.
        -11    1    3    3    0    0  0.32848170795E+01 -0.36328020180E+01 -0.95375929269E-01  0.48986090451E+01  0.51100000000E-03 0.  1.
         12    1    3    3    0    0  0.25060970383E+02  0.37727832231E+01  0.17792922725E+02  0.30965694388E+02  0.00000000000E+00 0. -1.
</event>
<event>
 7    1  0.8986500E-014  0.5052886E+02  0.7816164E-02  0.1300439E+00
        -11   -1    0    0    0    0  0.00000000000E+00  0.00000000000E+00  0.45593999997E+02  0.45594000000E+02  0.51100000000E-03 0. -1.
         11   -1    0    0    0    0 -0.00000000000E+00 -0.00000000000E+00 -0.45593999997E+02  0.45594000000E+02  0.51100000000E-03 0.  1.
    9900012    2    1    2    0    0 -0.34895952999E+02  0.65735986433E+01 -0.19804695719E+02  0.50528859486E+02  0.29999998894E+02 0.  0.
         12    1    1    2    0    0  0.34895952999E+02 -0.65735986433E+01  0.19804695719E+02  0.40659140514E+02  0.00000000000E+00 0. -1.
         11    1    3    3    0    0 -0.34366253703E+01  0.10066128066E+02 -0.30115571354E+01  0.11054718668E+02  0.51100000000E-03 0. -1.
        -11    1    3    3    0    0 -0.54843278286E+01 -0.59948437028E+01  0.54627394781E+00  0.81433665176E+01  0.51100000000E-03 0.  1.
        -12    1    3    3    0    0 -0.25974999800E+02  0.25023142799E+01 -0.17339412531E+02  0.31330774301E+02  0.00000000000E+00 0.  1.
</event>
<event>
 7    1  0.8986500E-014  0.5052887E+02  0.7816164E-02  0.1300439E+00
        -11   -1    0    0    0    0  0.00000000000E+00  0.00000000000E+00  0.45593999997E+02  0.45594000000E+02  0.51100000000E-03 0.  1.
         11   -1    0    0    0    0 -0.00000000000E+00 -0.00000000000E+00 -0.45593999997E+02  0.45594000000E+02  0.51100000000E-03 0. -1.
    9900012    2    1    2    0    0 -0.30302751343E+02 -0.18208489075E+02 -0.20083803495E+02  0.50528868477E+02  0.30000026224E+02 0.  0.
         12    1    1    2    0    0  0.30302751343E+02  0.18208489075E+02  0.20083803495E+02  0.40659131523E+02  0.00000000000E+00 0. -1.
         11    1    3    3    0    0 -0.14993824453E+02 -0.70678926910E+01 -0.32983818794E+01  0.16901159785E+02  0.51100000000E-03 0. -1.
        -11    1    3    3    0    0 -0.34218645774E+00 -0.67822623603E+01  0.38188612946E+01  0.77910125237E+01  0.51100000000E-03 0.  1.
         12    1    3    3    0    0 -0.14966740433E+02 -0.43583340233E+01 -0.20604282910E+02  0.25836696168E+02  0.00000000000E+00 0. -1.
</event>
<event>
 7    1  0.8986500E-014  0.5052882E+02  0.7816164E-02  0.1300439E+00
        -11   -1    0    0    0    0  0.00000000000E+00  0.00000000000E+00  0.45593999997E+02  0.45594000000E+02  0.51100000000E-03 0. -1.
         11   -1    0    0    0    0 -0.00000000000E+00 -0.00000000000E+00 -0.45593999997E+02  0.45594000000E+02  0.51100000000E-03 0.  1.
    9900012    2    1    2    0    0 -0.57589690636E+01  0.23219639800E+01 -0.40182228635E+02  0.50528822198E+02  0.29999885554E+02 0.  0.
         12    1    1    2    0    0  0.57589690636E+01 -0.23219639800E+01  0.40182228635E+02  0.40659177802E+02  0.00000000000E+00 0. -1.
         11    1    3    3    0    0  0.32406760489E+01  0.32617041949E+01 -0.28767041044E+01  0.54236631786E+01  0.51100000000E-03 0. -1.
        -11    1    3    3    0    0 -0.11492569605E+01 -0.10390997518E+02 -0.74993188270E+01  0.12865978553E+02  0.51100000000E-03 0.  1.
         12    1    3    3    0    0 -0.78503881520E+01  0.94512573033E+01 -0.29806205704E+02  0.32239180467E+02  0.00000000000E+00 0. -1.
</event>
<event>
 7    1  0.8986500E-014  0.5052886E+02  0.7816164E-02  0.1300439E+00
        -11   -1    0    0    0    0  0.00000000000E+00  0.00000000000E+00  0.45593999997E+02  0.45594000000E+02  0.51100000000E-03 0. -1.
         11   -1    0    0    0    0 -0.00000000000E+00 -0.00000000000E+00 -0.45593999997E+02  0.45594000000E+02  0.51100000000E-03 0.  1.
    9900012    2    1    2    0    0  0.35547858745E+02  0.15797200530E+02  0.11830628460E+02  0.50528861105E+02  0.30000003813E+02 0.  0.
        -12    1    1    2    0    0 -0.35547858745E+02 -0.15797200530E+02 -0.11830628460E+02  0.40659138895E+02  0.00000000000E+00 0.  1.
         11    1    3    3    0    0 -0.10502072077E+01  0.79875519314E+01 -0.21536859653E+01  0.83392016725E+01  0.51100000000E-03 0. -1.
        -11    1    3    3    0    0  0.90042922705E+01  0.70003565680E+01  0.37464928251E+00  0.11411513209E+02  0.51100000000E-03 0.  1.
         12    1    3    3    0    0  0.27593773683E+02  0.80929203039E+00  0.13609665143E+02  0.30778146223E+02  0.00000000000E+00 0. -1.
</event>
<event>
 7    1  0.8986500E-014  0.5052886E+02  0.7816164E-02  0.1300439E+00
        -11   -1    0    0    0    0  0.00000000000E+00  0.00000000000E+00  0.45593999997E+02  0.45594000000E+02  0.51100000000E-03 0.  1.
         11   -1    0    0    0    0 -0.00000000000E+00 -0.00000000000E+00 -0.45593999997E+02  0.45594000000E+02  0.51100000000E-03 0. -1.
    9900012    2    1    2    0    0  0.15250605634E+02 -0.35561388955E+02 -0.12488874400E+02  0.50528863998E+02  0.30000012609E+02 0.  0.
        -12    1    1    2    0    0 -0.15250605634E+02  0.35561388955E+02  0.12488874400E+02  0.40659136002E+02  0.00000000000E+00 0.  1.
         11    1    3    3    0    0 -0.60668429867E+01 -0.42872863780E+01  0.13732107057E+01  0.75546751231E+01  0.51100000000E-03 0. -1.
        -11    1    3    3    0    0  0.25224500020E+01 -0.10099907787E+02  0.18815577027E+01  0.10578806689E+02  0.51100000000E-03 0.  1.
         12    1    3    3    0    0  0.18794998619E+02 -0.21174194790E+02 -0.15743642808E+02  0.32395382186E+02  0.00000000000E+00 0. -1.
</event>
<event>
 7    1  0.8986500E-014  0.5052886E+02  0.7816164E-02  0.1300439E+00
        -11   -1    0    0    0    0  0.00000000000E+00  0.00000000000E+00  0.45593999997E+02  0.45594000000E+02  0.51100000000E-03 0. -1.
         11   -1    0    0    0    0 -0.00000000000E+00 -0.00000000000E+00 -0.45593999997E+02  0.45594000000E+02  0.51100000000E-03 0.  1.
    9900012    2    1    2    0    0  0.25078058253E+02 -0.82119567920E+01 -0.30932514676E+02  0.50528859524E+02  0.29999999008E+02 0.  0.
         12    1    1    2    0    0 -0.25078058253E+02  0.82119567920E+01  0.30932514676E+02  0.40659140476E+02  0.00000000000E+00 0. -1.
         11    1    3    3    0    0  0.70828651656E+01  0.43608580427E+01 -0.17249548847E+02  0.19150221865E+02  0.51100000000E-03 0. -1.
        -11    1    3    3    0    0  0.14236593239E+02 -0.51480153479E+00 -0.12020061051E+02  0.18639406525E+02  0.51100000000E-03 0.  1.
        -12    1    3    3    0    0  0.37585998485E+01 -0.12058013300E+02 -0.16629047785E+01  0.12739231133E+02  0.00000000000E+00 0.  1.
</event>
<event>
 7    1  0.8986500E-014  0.5052887E+02  0.7816164E-02  0.1300439E+00
        -11   -1    0    0    0    0  0.00000000000E+00  0.00000000000E+00  0.45593999997E+02  0.45594000000E+02  0.51100000000E-03 0. -1.
         11   -1    0    0    0    0 -0.00000000000E+00 -0.00000000000E+00 -0.45593999997E+02  0.45594000000E+02  0.51100000000E-03 0.  1.
    9900012    2    1    2    0    0  0.39438786496E+02  0.93963102750E+01  0.30751769818E+01  0.50528865226E+02  0.30000016342E+02 0.  0.
        -12    1    1    2    0    0 -0.39438786496E+02 -0.93963102750E+01 -0.30751769818E+01  0.40659134774E+02  0.00000000000E+00 0.  1.
         11    1    3    3    0    0  0.73466822272E+01  0.16964170251E+00  0.15572369476E+01  0.75118243607E+01  0.51100000000E-03 0. -1.
        -11    1    3    3    0    0  0.12389310622E+02 -0.92535721666E+01 -0.26344970188E+01  0.15686433321E+02  0.51100000000E-03 0.  1.
         12    1    3    3    0    0  0.19702793648E+02  0.18480240739E+02  0.41524370531E+01  0.27330607545E+02  0.00000000000E+00 0. -1.
</event>
<event>
 7    1  0.8986500E-014  0.5052886E+02  0.7816164E-02  0.1300439E+00
        -11   -1    0    0    0    0  0.00000000000E+00  0.00000000000E+00  0.45593999997E+02  0.45594000000E+02  0.51100000000E-03 0. -1.
         11   -1    0    0    0    0 -0.00000000000E+00 -0.00000000000E+00 -0.45593999997E+02  0.45594000000E+02  0.51100000000E-03 0.  1.
    9900012    2    1    2    0    0  0.73758630819E+01  0.39753730433E+02 -0.42898750436E+01  0.50528862436E+02  0.30000007861E+02 0.  0.
        -12    1    1    2    0    0 -0.73758630819E+01 -0.39753730433E+02  0.42898750436E+01  0.40659137564E+02  0.00000000000E+00 0.  1.
         11    1    3    3    0    0  0.78377139490E+01  0.18439275143E+01  0.23237878854E+01  0.83803233244E+01  0.51100000000E-03 0. -1.
        -11    1    3    3    0    0 -0.51108441656E+01  0.27730580473E+01 -0.29400144874E+01  0.65156937056E+01  0.51100000000E-03 0.  1.
        -12    1    3    3    0    0  0.46489932985E+01  0.35136744872E+02 -0.36736484416E+01  0.35632845406E+02  0.00000000000E+00 0.  1.
</event>
<event>
 7    1  0.8986500E-014  0.5052886E+02  0.7816164E-02  0.1300439E+00
        -11   -1    0    0    0    0  0.00000000000E+00  0.00000000000E+00  0.45593999997E+02  0.45594000000E+02  0.51100000000E-03 0. -1.
         11   -1    0    0    0    0 -0.00000000000E+00 -0.00000000000E+00 -0.45593999997E+02  0.45594000000E+02  0.51100000000E-03 0.  1.
    9900012    2    1    2    0    0 -0.13163039549E+02  0.12491054324E+02  0.36385075210E+02  0.50528859007E+02  0.29999997437E+02 0.  0.
        -12    1    1    2    0    0  0.13163039549E+02 -0.12491054324E+02 -0.36385075210E+02  0.40659140993E+02  0.00000000000E+00 0.  1.
         11    1    3    3    0    0 -0.69757451654E+01 -0.22302925550E+01  0.19298652710E+02  0.20641541178E+02  0.51100000000E-03 0. -1.
        -11    1    3    3    0    0  0.67542243245E+00 -0.28339688058E+00  0.12825431250E+02  0.12846330070E+02  0.51100000000E-03 0.  1.
        -12    1    3    3    0    0 -0.68627168158E+01  0.15004743759E+02  0.42609912496E+01  0.17040987759E+02  0.00000000000E+00 0.  1.
</event>
<event>
 7    1  0.8986500E-014  0.5052886E+02  0.7816164E-02  0.1300439E+00
        -11   -1    0    0    0    0  0.00000000000E+00  0.00000000000E+00  0.45593999997E+02  0.45594000000E+02  0.51100000000E-03 0. -1.
         11   -1    0    0    0    0 -0.00000000000E+00 -0.00000000000E+00 -0.45593999997E+02  0.45594000000E+02  0.51100000000E-03 0.  1.
    9900012    2    1    2    0    0  0.82219922719E+01  0.62148687437E+01  0.39331158624E+02  0.50528858480E+02  0.29999995836E+02 0.  0.
        -12    1    1    2    0    0 -0.82219922719E+01 -0.62148687437E+01 -0.39331158624E+02  0.40659141520E+02  0.00000000000E+00 0.  1.
         11    1    3    3    0    0  0.86170429808E+01  0.77784728555E+01  0.12354958524E+02  0.16952966410E+02  0.51100000000E-03 0. -1.
        -11    1    3    3    0    0 -0.78945259615E+01  0.32893373808E+01  0.51275184573E+01  0.99716962625E+01  0.51100000000E-03 0.  1.
        -12    1    3    3    0    0  0.74994752526E+01 -0.48529414926E+01  0.21848681643E+02  0.23604195808E+02  0.00000000000E+00 0.  1.
</event>
<event>
 7    1  0.8986500E-014  0.5052886E+02  0.7816164E-02  0.1300439E+00
        -11   -1    0    0    0    0  0.00000000000E+00  0.00000000000E+00  0.45593999997E+02  0.45594000000E+02  0.51100000000E-03 0. -1.
         11   -1    0    0    0    0 -0.00000000000E+00 -0.00000000000E+00 -0.45593999997E+02  0.45594000000E+02  0.51100000000E-03 0.  1.
    9900012    2    1    2    0    0 -0.23732876887E+01  0.33593599911E+02  0.22781644097E+02  0.50528858873E+02  0.29999997029E+02 0.  0.
        -12    1    1    2    0    0  0.23732876887E+01 -0.33593599911E+02 -0.22781644097E+02  0.40659141127E+02  0.00000000000E+00 0.  1.
         11    1    3    3    0    0 -0.69462318150E+01  0.26053933064E+01  0.15466659672E+02  0.17153885052E+02  0.51100000000E-03 0.  1.
        -11    1    3    3    0    0 -0.13758452642E+01  0.13043961971E+02  0.60033820904E+01  0.14424926026E+02  0.51100000000E-03 0. -1.
        -12    1    3    3    0    0  0.59487893905E+01  0.17944244634E+02  0.13116023344E+01  0.18950047794E+02  0.00000000000E+00 0.  1.
</event>
<event>
 7    1  0.8986500E-014  0.5052886E+02  0.7816164E-02  0.1300439E+00
        -11   -1    0    0    0    0  0.00000000000E+00  0.00000000000E+00  0.45593999997E+02  0.45594000000E+02  0.51100000000E-03 0. -1.
         11   -1    0    0    0    0 -0.00000000000E+00 -0.00000000000E+00 -0.45593999997E+02  0.45594000000E+02  0.51100000000E-03 0.  1.
    9900012    2    1    2    0    0 -0.14750666835E+02  0.12777334496E+02 -0.35669643050E+02  0.50528857311E+02  0.29999992283E+02 0.  0.
         12    1    1    2    0    0  0.14750666835E+02 -0.12777334496E+02  0.35669643050E+02  0.40659142689E+02  0.00000000000E+00 0. -1.
         11    1    3    3    0    0  0.48342873616E+01 -0.70186637720E+00 -0.10918360892E+02  0.11961335859E+02  0.51100000000E-03 0. -1.
        -11    1    3    3    0    0  0.22066864875E+01 -0.17300091223E+01 -0.38261707769E+01  0.47436251847E+01  0.51100000000E-03 0.  1.
         12    1    3    3    0    0 -0.21791640684E+02  0.15209209996E+02 -0.20925111381E+02  0.33823896267E+02  0.00000000000E+00 0. -1.
</event>
<event>
 7    1  0.8986500E-014  0.5052886E+02  0.7816164E-02  0.1300439E+00
        -11   -1    0    0    0    0  0.00000000000E+00  0.00000000000E+00  0.45593999997E+02  0.45594000000E+02  0.51100000000E-03 0. -1.
         11   -1    0    0    0    0 -0.00000000000E+00 -0.00000000000E+00 -0.45593999997E+02  0.45594000000E+02  0.51100000000E-03 0.  1.
    9900012    2    1    2    0    0  0.25249894185E+02  0.22344626933E+02 -0.22722808601E+02  0.50528861546E+02  0.30000005156E+02 0.  0.
         12    1    1    2    0    0 -0.25249894185E+02 -0.22344626933E+02  0.22722808601E+02  0.40659138454E+02  0.00000000000E+00 0. -1.
         11    1    3    3    0    0 -0.14843145215E+01 -0.23047347799E+01  0.16120838378E+01  0.31802211505E+01  0.51100000000E-03 0. -1.
        -11    1    3    3    0    0  0.13343828303E+02  0.29887776931E+01 -0.14817118514E+02  0.20162776277E+02  0.51100000000E-03 0.  1.
        -12    1    3    3    0    0  0.13390380403E+02  0.21660584020E+02 -0.95177739253E+01  0.27185864119E+02  0.00000000000E+00 0.  1.
</event>
<event>
 7    1  0.8986500E-014  0.5052889E+02  0.7816164E-02  0.1300439E+00
        -11   -1    0    0    0    0  0.00000000000E+00  0.00000000000E+00  0.45593999997E+02  0.45594000000E+02  0.51100000000E-03 0. -1.
         11   -1    0    0    0    0 -0.00000000000E+00 -0.00000000000E+00 -0.45593999997E+02  0.45594000000E+02  0.51100000000E-03 0.  1.
    9900012    2    1    2    0    0 -0.90962825211E+01  0.21697615611E+01 -0.39569092662E+02  0.50528888905E+02  0.30000088315E+02 0.  0.
         12    1    1    2    0    0  0.90962825211E+01 -0.21697615611E+01  0.39569092662E+02  0.40659111095E+02  0.00000000000E+00 0. -1.
         11    1    3    3    0    0  0.19371631227E+01  0.96222651064E+00 -0.69440650417E+00  0.22717133349E+01  0.51100000000E-03 0. -1.
        -11    1    3    3    0    0  0.11552093691E+01  0.87171637452E+01 -0.30342877824E+02  0.31591354629E+02  0.51100000000E-03 0.  1.
        -12    1    3    3    0    0 -0.12188655013E+02 -0.75096286948E+01 -0.85318083346E+01  0.16665820940E+02  0.00000000000E+00 0.  1.
</event>
<event>
 7    1  0.8986500E-014  0.5052885E+02  0.7816164E-02  0.1300439E+00
        -11   -1    0    0    0    0  0.00000000000E+00  0.00000000000E+00  0.45593999997E+02  0.45594000000E+02  0.51100000000E-03 0.  1.
         11   -1    0    0    0    0 -0.00000000000E+00 -0.00000000000E+00 -0.45593999997E+02  0.45594000000E+02  0.51100000000E-03 0. -1.
    9900012    2    1    2    0    0  0.39624924774E+02 -0.78328007895E+01 -0.46560534621E+01  0.50528852623E+02  0.29999978034E+02 0.  0.
         12    1    1    2    0    0 -0.39624924774E+02  0.78328007895E+01  0.46560534621E+01  0.40659147377E+02  0.00000000000E+00 0. -1.
         11    1    3    3    0    0  0.22634299637E+02 -0.15609154091E+00 -0.47521193363E+00  0.22639825778E+02  0.51100000000E-03 0. -1.
        -11    1    3    3    0    0  0.21113496371E+02 -0.53250413689E+01 -0.33032894851E+00  0.21777164923E+02  0.51100000000E-03 0.  1.
         12    1    3    3    0    0 -0.41228712342E+01 -0.23516678797E+01 -0.38505125799E+01  0.61118619224E+01  0.00000000000E+00 0. -1.
</event>
<event>
 7    1  0.8986500E-014  0.5052886E+02  0.7816164E-02  0.1300439E+00
        -11   -1    0    0    0    0  0.00000000000E+00  0.00000000000E+00  0.45593999997E+02  0.45594000000E+02  0.51100000000E-03 0. -1.
         11   -1    0    0    0    0 -0.00000000000E+00 -0.00000000000E+00 -0.45593999997E+02  0.45594000000E+02  0.51100000000E-03 0.  1.
    9900012    2    1    2    0    0  0.17974889209E+02 -0.11277176025E+02 -0.34682767772E+02  0.50528859311E+02  0.29999998363E+02 0.  0.
         12    1    1    2    0    0 -0.17974889209E+02  0.11277176025E+02  0.34682767772E+02  0.40659140689E+02  0.00000000000E+00 0. -1.
         11    1    3    3    0    0  0.20327696771E+02 -0.76467920686E+01 -0.17849676922E+02  0.28112268699E+02  0.51100000000E-03 0. -1.
        -11    1    3    3    0    0  0.35976591684E+01 -0.70088290174E+01 -0.10183125821E+02  0.12874893686E+02  0.51100000000E-03 0.  1.
         12    1    3    3    0    0 -0.59504667299E+01  0.33784450612E+01 -0.66499650297E+01  0.95416969262E+01  0.00000000000E+00 0. -1.
</event>
<event>
 7    1  0.8986500E-014  0.5052886E+02  0.7816164E-02  0.1300439E+00
        -11   -1    0    0    0    0  0.00000000000E+00  0.00000000000E+00  0.45593999997E+02  0.45594000000E+02  0.51100000000E-03 0. -1.
         11   -1    0    0    0    0 -0.00000000000E+00 -0.00000000000E+00 -0.45593999997E+02  0.45594000000E+02  0.51100000000E-03 0.  1.
    9900012    2    1    2    0    0 -0.10113534749E+02  0.89587252139E+01  0.38348708503E+02  0.50528858513E+02  0.29999995937E+02 0.  0.
        -12    1    1    2    0    0  0.10113534749E+02 -0.89587252139E+01 -0.38348708503E+02  0.40659141487E+02  0.00000000000E+00 0.  1.
         11    1    3    3    0    0 -0.13510858901E+02  0.51477799427E+01  0.12616953638E+02  0.19189332087E+02  0.51100000000E-03 0. -1.
        -11    1    3    3    0    0 -0.63720481164E+01 -0.14427408532E+01  0.12228867518E+02  0.13864692546E+02  0.51100000000E-03 0.  1.
        -12    1    3    3    0    0  0.97693722686E+01  0.52536861243E+01  0.13502887347E+02  0.17474833880E+02  0.00000000000E+00 0.  1.
</event>
<event>
 7    1  0.8986500E-014  0.5052886E+02  0.7816164E-02  0.1300439E+00
        -11   -1    0    0    0    0  0.00000000000E+00  0.00000000000E+00  0.45593999997E+02  0.45594000000E+02  0.51100000000E-03 0. -1.
         11   -1    0    0    0    0 -0.00000000000E+00 -0.00000000000E+00 -0.45593999997E+02  0.45594000000E+02  0.51100000000E-03 0.  1.
    9900012    2    1    2    0    0 -0.18310585709E+02 -0.33246180759E+02 -0.14580122584E+02  0.50528855166E+02  0.29999985762E+02 0.  0.
         12    1    1    2    0    0  0.18310585709E+02  0.33246180759E+02  0.14580122584E+02  0.40659144834E+02  0.00000000000E+00 0. -1.
         11    1    3    3    0    0  0.79481845409E+00 -0.23678382651E+02 -0.70676287528E+01  0.24723448744E+02  0.51100000000E-03 0. -1.
        -11    1    3    3    0    0 -0.31133865447E+01 -0.61143102788E+01  0.16456540587E+01  0.70559296698E+01  0.51100000000E-03 0.  1.
         12    1    3    3    0    0 -0.15992017619E+02 -0.34534878293E+01 -0.91581478894E+01  0.18749476752E+02  0.00000000000E+00 0. -1.
</event>
<event>
 7    1  0.8986500E-014  0.5052887E+02  0.7816164E-02  0.1300439E+00
        -11   -1    0    0    0    0  0.00000000000E+00  0.00000000000E+00  0.45593999997E+02  0.45594000000E+02  0.51100000000E-03 0. -1.
         11   -1    0    0    0    0 -0.00000000000E+00 -0.00000000000E+00 -0.45593999997E+02  0.45594000000E+02  0.51100000000E-03 0.  1.
    9900012    2    1    2    0    0 -0.37722772566E+02 -0.87165300363E+01  0.12416914400E+02  0.50528865366E+02  0.30000016767E+02 0.  0.
        -12    1    1    2    0    0  0.37722772566E+02  0.87165300363E+01 -0.12416914400E+02  0.40659134634E+02  0.00000000000E+00 0.  1.
         11    1    3    3    0    0 -0.21187866518E+01 -0.24092625304E+01 -0.66766937029E+00  0.32771306757E+01  0.51100000000E-03 0. -1.
        -11    1    3    3    0    0 -0.89875851303E+01 -0.10339619414E+02  0.14936749382E+02  0.20267977168E+02  0.51100000000E-03 0.  1.
        -12    1    3    3    0    0 -0.26616400784E+02  0.40323519085E+01 -0.18521656113E+01  0.26983757523E+02  0.00000000000E+00 0.  1.
</event>
<event>
 7    1  0.8986500E-014  0.5052885E+02  0.7816164E-02  0.1300439E+00
        -11   -1    0    0    0    0  0.00000000000E+00  0.00000000000E+00  0.45593999997E+02  0.45594000000E+02  0.51100000000E-03 0.  1.
         11   -1    0    0    0    0 -0.00000000000E+00 -0.00000000000E+00 -0.45593999997E+02  0.45594000000E+02  0.51100000000E-03 0. -1.
    9900012    2    1    2    0    0 -0.37327625743E+02 -0.15779687404E+02  0.32888044160E+01  0.50528850812E+02  0.29999972529E+02 0.  0.
        -12    1    1    2    0    0  0.37327625743E+02  0.15779687404E+02 -0.32888044160E+01  0.40659149188E+02  0.00000000000E+00 0.  1.
         11    1    3    3    0    0 -0.11233316035E+02 -0.13911965694E+01 -0.84355764652E+01  0.14116719435E+02  0.51100000000E-03 0. -1.
        -11    1    3    3    0    0 -0.23398912933E+01 -0.29463986888E+01 -0.41770248306E+01  0.56217340024E+01  0.51100000000E-03 0.  1.
         12    1    3    3    0    0 -0.23754418415E+02 -0.11442092146E+02  0.15901405712E+02  0.30790397375E+02  0.00000000000E+00 0. -1.
</event>
<event>
 7    1  0.8986500E-014  0.5052886E+02  0.7816164E-02  0.1300439E+00
        -11   -1    0    0    0    0  0.00000000000E+00  0.00000000000E+00  0.45593999997E+02  0.45594000000E+02  0.51100000000E-03 0. -1.
         11   -1    0    0    0    0 -0.00000000000E+00 -0.00000000000E+00 -0.45593999997E+02  0.45594000000E+02  0.51100000000E-03 0.  1.
    9900012    2    1    2    0    0  0.78618528101E+00  0.14092038922E+02 -0.38130859081E+02  0.50528855118E+02  0.29999985616E+02 0.  0.
         12    1    1    2    0    0 -0.78618528101E+00 -0.14092038922E+02  0.38130859081E+02  0.40659144882E+02  0.00000000000E+00 0. -1.
         11    1    3    3    0    0 -0.42310251327E+01  0.12992494791E+01 -0.13294837392E+02  0.14012220539E+02  0.51100000000E-03 0. -1.
        -11    1    3    3    0    0 -0.38965239996E+01 -0.51506808881E+01 -0.39310310553E+01  0.75607815938E+01  0.51100000000E-03 0.  1.
        -12    1    3    3    0    0  0.89137344134E+01  0.17943470331E+02 -0.20904990633E+02  0.28955852985E+02  0.00000000000E+00 0.  1.
</event>
<event>
 7    1  0.8986500E-014  0.5052887E+02  0.7816164E-02  0.1300439E+00
        -11   -1    0    0    0    0  0.00000000000E+00  0.00000000000E+00  0.45593999997E+02  0.45594000000E+02  0.51100000000E-03 0.  1.
         11   -1    0    0    0    0 -0.00000000000E+00 -0.00000000000E+00 -0.45593999997E+02  0.45594000000E+02  0.51100000000E-03 0. -1.
    9900012    2    1    2    0    0 -0.83433772832E+01 -0.25860786845E+02  0.30245213576E+02  0.50528865909E+02  0.30000018417E+02 0.  0.
        -12    1    1    2    0    0  0.83433772832E+01  0.25860786845E+02 -0.30245213576E+02  0.40659134091E+02  0.00000000000E+00 0.  1.
         11    1    3    3    0    0 -0.11862836881E+02 -0.18532643099E+02  0.22935004798E+02  0.31783646808E+02  0.51100000000E-03 0. -1.
        -11    1    3    3    0    0 -0.49419871712E+01  0.17390142358E+00 -0.54703898525E+00  0.49752116355E+01  0.51100000000E-03 0.  1.
        -12    1    3    3    0    0  0.84614467695E+01 -0.75020451702E+01  0.78572477636E+01  0.13770007465E+02  0.00000000000E+00 0.  1.
</event>
<event>
 7    1  0.8986500E-014  0.5052886E+02  0.7816164E-02  0.1300439E+00
        -11   -1    0    0    0    0  0.00000000000E+00  0.00000000000E+00  0.45593999997E+02  0.45594000000E+02  0.51100000000E-03 0.  1.
         11   -1    0    0    0    0 -0.00000000000E+00 -0.00000000000E+00 -0.45593999997E+02  0.45594000000E+02  0.51100000000E-03 0. -1.
    9900012    2    1    2    0    0 -0.34104652551E+02 -0.20921714931E+02 -0.72332687516E+01  0.50528860092E+02  0.30000000734E+02 0.  0.
         12    1    1    2    0    0  0.34104652551E+02  0.20921714931E+02  0.72332687516E+01  0.40659139908E+02  0.00000000000E+00 0. -1.
         11    1    3    3    0    0 -0.83097173242E+01 -0.94404211567E+00 -0.10928730808E+02  0.13761532431E+02  0.51100000000E-03 0. -1.
        -11    1    3    3    0    0 -0.37840348926E+01 -0.66352264728E+01 -0.55243838371E+01  0.94267686646E+01  0.51100000000E-03 0.  1.
        -12    1    3    3    0    0 -0.22010900334E+02 -0.13342446343E+02  0.92198458932E+01  0.27340558996E+02  0.00000000000E+00 0.  1.
</event>
<event>
 7    1  0.8986500E-014  0.5052886E+02  0.7816164E-02  0.1300439E+00
        -11   -1    0    0    0    0  0.00000000000E+00  0.00000000000E+00  0.45593999997E+02  0.45594000000E+02  0.51100000000E-03 0.  1.
         11   -1    0    0    0    0 -0.00000000000E+00 -0.00000000000E+00 -0.45593999997E+02  0.45594000000E+02  0.51100000000E-03 0. -1.
    9900012    2    1    2    0    0 -0.13511154999E+02 -0.37314472413E+02 -0.88456063418E+01  0.50528856964E+02  0.29999991227E+02 0.  0.
        -12    1    1    2    0    0  0.13511154999E+02  0.37314472413E+02  0.88456063418E+01  0.40659143036E+02  0.00000000000E+00 0.  1.
         11    1    3    3    0    0 -0.31284061073E+01 -0.12187357031E+02  0.45886299383E+01  0.13393062426E+02  0.51100000000E-03 0. -1.
        -11    1    3    3    0    0 -0.11038748215E+02 -0.20547681943E+02 -0.42554675248E+00  0.23329000958E+02  0.51100000000E-03 0.  1.
         12    1    3    3    0    0  0.65599932292E+00 -0.45794334392E+01 -0.13008689528E+02  0.13806793580E+02  0.00000000000E+00 0. -1.
</event>
<event>
 7    1  0.8986500E-014  0.5052885E+02  0.7816164E-02  0.1300439E+00
        -11   -1    0    0    0    0  0.00000000000E+00  0.00000000000E+00  0.45593999997E+02  0.45594000000E+02  0.51100000000E-03 0. -1.
         11   -1    0    0    0    0 -0.00000000000E+00 -0.00000000000E+00 -0.45593999997E+02  0.45594000000E+02  0.51100000000E-03 0.  1.
    9900012    2    1    2    0    0  0.12614170723E+02 -0.13675956333E+01  0.38628726289E+02  0.50528854466E+02  0.29999983635E+02 0.  0.
        -12    1    1    2    0    0 -0.12614170723E+02  0.13675956333E+01 -0.38628726289E+02  0.40659145534E+02  0.00000000000E+00 0.  1.
         11    1    3    3    0    0  0.60446871944E+01 -0.52315563268E+01 -0.16845805876E+01  0.81697758168E+01  0.51100000000E-03 0. -1.
        -11    1    3    3    0    0 -0.20522761577E+01  0.29331272330E+00  0.18455651867E+01  0.27756046009E+01  0.51100000000E-03 0.  1.
         12    1    3    3    0    0  0.86217596866E+01  0.35706479702E+01  0.38467741690E+02  0.39583474048E+02  0.00000000000E+00 0. -1.
</event>
<event>
 7    1  0.8986500E-014  0.5052889E+02  0.7816164E-02  0.1300439E+00
        -11   -1    0    0    0    0  0.00000000000E+00  0.00000000000E+00  0.45593999997E+02  0.45594000000E+02  0.51100000000E-03 0. -1.
         11   -1    0    0    0    0 -0.00000000000E+00 -0.00000000000E+00 -0.45593999997E+02  0.45594000000E+02  0.51100000000E-03 0.  1.
    9900012    2    1    2    0    0  0.17267648308E+02 -0.31564315189E+02 -0.18939001623E+02  0.50528887196E+02  0.30000083122E+02 0.  0.
         12    1    1    2    0    0 -0.17267648308E+02  0.31564315189E+02  0.18939001623E+02  0.40659112804E+02  0.00000000000E+00 0. -1.
         11    1    3    3    0    0  0.10471180791E+02 -0.16495448407E+01 -0.69865457910E+01  0.12695607417E+02  0.51100000000E-03 0. -1.
        -11    1    3    3    0    0  0.57704805488E+01  0.16010654804E+00 -0.25046314416E+01  0.62926352819E+01  0.51100000000E-03 0.  1.
        -12    1    3    3    0    0  0.10259869690E+01 -0.30074876897E+02 -0.94478243907E+01  0.31540644498E+02  0.00000000000E+00 0.  1.
</event>
<event>
 7    1  0.8986500E-014  0.5052886E+02  0.7816164E-02  0.1300439E+00
        -11   -1    0    0    0    0  0.00000000000E+00  0.00000000000E+00  0.45593999997E+02  0.45594000000E+02  0.51100000000E-03 0. -1.
         11   -1    0    0    0    0 -0.00000000000E+00 -0.00000000000E+00 -0.45593999997E+02  0.45594000000E+02  0.51100000000E-03 0.  1.
    9900012    2    1    2    0    0 -0.18098668003E+01 -0.27260923488E+02  0.30111995413E+02  0.50528857917E+02  0.29999994123E+02 0.  0.
        -12    1    1    2    0    0  0.18098668003E+01  0.27260923488E+02 -0.30111995413E+02  0.40659142083E+02  0.00000000000E+00 0.  1.
         11    1    3    3    0    0  0.39256610817E+01 -0.13426140286E+02  0.21997334163E+02  0.26068271297E+02  0.51100000000E-03 0. -1.
        -11    1    3    3    0    0 -0.54441013030E+01  0.24443221036E+01  0.52097334730E+01  0.79217594425E+01  0.51100000000E-03 0.  1.
        -12    1    3    3    0    0 -0.29142657898E+00 -0.16279105306E+02  0.29049277772E+01  0.16538827177E+02  0.00000000000E+00 0.  1.
</event>
<event>
 7    1  0.8986500E-014  0.5052886E+02  0.7816164E-02  0.1300439E+00
        -11   -1    0    0    0    0  0.00000000000E+00  0.00000000000E+00  0.45593999997E+02  0.45594000000E+02  0.51100000000E-03 0. -1.
         11   -1    0    0    0    0 -0.00000000000E+00 -0.00000000000E+00 -0.45593999997E+02  0.45594000000E+02  0.51100000000E-03 0.  1.
    9900012    2    1    2    0    0 -0.52493553199E+01  0.90733697828E-01 -0.40318753241E+02  0.50528858017E+02  0.29999994429E+02 0.  0.
         12    1    1    2    0    0  0.52493553199E+01 -0.90733697828E-01  0.40318753241E+02  0.40659141983E+02  0.00000000000E+00 0. -1.
         11    1    3    3    0    0 -0.11627700732E+01 -0.37718953378E+01 -0.41663011207E+01  0.57391021921E+01  0.51100000000E-03 0. -1.
        -11    1    3    3    0    0 -0.14171744085E+02 -0.23068632634E+01 -0.22911640521E+02  0.27038920469E+02  0.51100000000E-03 0.  1.
         12    1    3    3    0    0  0.10085158838E+02  0.61694922990E+01 -0.13240811600E+02  0.17750835356E+02  0.00000000000E+00 0. -1.
</event>
<event>
 7    1  0.8986500E-014  0.5052874E+02  0.7816164E-02  0.1300439E+00
        -11   -1    0    0    0    0  0.00000000000E+00  0.00000000000E+00  0.45593999997E+02  0.45594000000E+02  0.51100000000E-03 0. -1.
         11   -1    0    0    0    0 -0.00000000000E+00 -0.00000000000E+00 -0.45593999997E+02  0.45594000000E+02  0.51100000000E-03 0.  1.
    9900012    2    1    2    0    0  0.52177474231E+01  0.38931237462E+02 -0.10502808613E+02  0.50528743646E+02  0.29999646783E+02 0.  0.
         12    1    1    2    0    0 -0.52177474231E+01 -0.38931237462E+02  0.10502808613E+02  0.40659256354E+02  0.00000000000E+00 0. -1.
         11    1    3    3    0    0  0.43678347918E+01  0.29898764083E+02 -0.13095808853E+02  0.32931964476E+02  0.51100000000E-03 0. -1.
        -11    1    3    3    0    0 -0.10296739658E+01  0.95140946475E+01 -0.42595479002E+01  0.10474825727E+02  0.51100000000E-03 0.  1.
         12    1    3    3    0    0  0.18795865970E+01 -0.48162126789E+00  0.68525481407E+01  0.71219534429E+01  0.00000000000E+00 0. -1.
</event>
<event>
 7    1  0.8986500E-014  0.5052886E+02  0.7816164E-02  0.1300439E+00
        -11   -1    0    0    0    0  0.00000000000E+00  0.00000000000E+00  0.45593999997E+02  0.45594000000E+02  0.51100000000E-03 0. -1.
         11   -1    0    0    0    0 -0.00000000000E+00 -0.00000000000E+00 -0.45593999997E+02  0.45594000000E+02  0.51100000000E-03 0.  1.
    9900012    2    1    2    0    0 -0.12526302745E+02 -0.34492538090E+02  0.17507773722E+02  0.50528860990E+02  0.30000003465E+02 0.  0.
        -12    1    1    2    0    0  0.12526302745E+02  0.34492538090E+02 -0.17507773722E+02  0.40659139010E+02  0.00000000000E+00 0.  1.
         11    1    3    3    0    0 -0.14979111792E+02 -0.22831710478E+02  0.11731502655E+02  0.29720177460E+02  0.51100000000E-03 0. -1.
        -11    1    3    3    0    0  0.29298831163E+01 -0.15446609332E+02  0.63387096962E+01  0.16951731351E+02  0.51100000000E-03 0.  1.
        -12    1    3    3    0    0 -0.47707406929E+00  0.37857817201E+01 -0.56243862951E+00  0.38569521791E+01  0.00000000000E+00 0.  1.
</event>
<event>
 7    1  0.8986500E-014  0.5052886E+02  0.7816164E-02  0.1300439E+00
        -11   -1    0    0    0    0  0.00000000000E+00  0.00000000000E+00  0.45593999997E+02  0.45594000000E+02  0.51100000000E-03 0.  1.
         11   -1    0    0    0    0 -0.00000000000E+00 -0.00000000000E+00 -0.45593999997E+02  0.45594000000E+02  0.51100000000E-03 0. -1.
    9900012    2    1    2    0    0 -0.37045744239E+02  0.16036204684E+02  0.48599142176E+01  0.50528858431E+02  0.29999995687E+02 0.  0.
        -12    1    1    2    0    0  0.37045744239E+02 -0.16036204684E+02 -0.48599142176E+01  0.40659141569E+02  0.00000000000E+00 0.  1.
         11    1    3    3    0    0 -0.11211430998E+02  0.98585569421E+01  0.12774956186E+02  0.19649092494E+02  0.51100000000E-03 0. -1.
        -11    1    3    3    0    0 -0.71471459456E+01 -0.42899638239E+01 -0.33239211151E+01  0.89740702370E+01  0.51100000000E-03 0.  1.
        -12    1    3    3    0    0 -0.18687167295E+02  0.10467611566E+02 -0.45911208536E+01  0.21905695700E+02  0.00000000000E+00 0.  1.
</event>
<event>
 7    1  0.8986500E-014  0.5052886E+02  0.7816164E-02  0.1300439E+00
        -11   -1    0    0    0    0  0.00000000000E+00  0.00000000000E+00  0.45593999997E+02  0.45594000000E+02  0.51100000000E-03 0. -1.
         11   -1    0    0    0    0 -0.00000000000E+00 -0.00000000000E+00 -0.45593999997E+02  0.45594000000E+02  0.51100000000E-03 0.  1.
    9900012    2    1    2    0    0 -0.21820398050E+01  0.22504088091E+02 -0.33793049093E+02  0.50528862706E+02  0.30000008681E+02 0.  0.
         12    1    1    2    0    0  0.21820398050E+01 -0.22504088091E+02  0.33793049093E+02  0.40659137294E+02  0.00000000000E+00 0. -1.
         11    1    3    3    0    0  0.11411922841E+01  0.21946514590E+01 -0.60316332214E+01  0.65191574942E+01  0.51100000000E-03 0. -1.
        -11    1    3    3    0    0 -0.49174930523E+01  0.81626237995E+01 -0.30069331355E+02  0.31543221992E+02  0.51100000000E-03 0.  1.
         12    1    3    3    0    0  0.15942609632E+01  0.12146812832E+02  0.23079154837E+01  0.12466483220E+02  0.00000000000E+00 0. -1.
</event>
<event>
 7    1  0.8986500E-014  0.5052886E+02  0.7816164E-02  0.1300439E+00
        -11   -1    0    0    0    0  0.00000000000E+00  0.00000000000E+00  0.45593999997E+02  0.45594000000E+02  0.51100000000E-03 0. -1.
         11   -1    0    0    0    0 -0.00000000000E+00 -0.00000000000E+00 -0.45593999997E+02  0.45594000000E+02  0.51100000000E-03 0.  1.
    9900012    2    1    2    0    0  0.25616952297E+02  0.25420915541E+02  0.18727366313E+02  0.50528862762E+02  0.30000008852E+02 0.  0.
        -12    1    1    2    0    0 -0.25616952297E+02 -0.25420915541E+02 -0.18727366313E+02  0.40659137238E+02  0.00000000000E+00 0.  1.
         11    1    3    3    0    0  0.17739824772E+02  0.15876239088E+02  0.25105230055E+02  0.34598105828E+02  0.51100000000E-03 0.  1.
        -11    1    3    3    0    0  0.80291210865E+01  0.86455432379E+01 -0.26496961353E+01  0.12092687591E+02  0.51100000000E-03 0. -1.
        -12    1    3    3    0    0 -0.15199356212E+00  0.89913321509E+00 -0.37281676066E+01  0.38380693433E+01  0.00000000000E+00 0.  1.
</event>
<event>
 7    1  0.8986500E-014  0.5052887E+02  0.7816164E-02  0.1300439E+00
        -11   -1    0    0    0    0  0.00000000000E+00  0.00000000000E+00  0.45593999997E+02  0.45594000000E+02  0.51100000000E-03 0. -1.
         11   -1    0    0    0    0 -0.00000000000E+00 -0.00000000000E+00 -0.45593999997E+02  0.45594000000E+02  0.51100000000E-03 0.  1.
    9900012    2    1    2    0    0 -0.25887913760E+02 -0.18560284689E+02 -0.25268495800E+02  0.50528866628E+02  0.30000020602E+02 0.  0.
         12    1    1    2    0    0  0.25887913760E+02  0.18560284689E+02  0.25268495800E+02  0.40659133372E+02  0.00000000000E+00 0. -1.
         11    1    3    3    0    0 -0.82425544038E+01 -0.39157265221E+01 -0.62531827708E+01  0.11062319482E+02  0.51100000000E-03 0. -1.
        -11    1    3    3    0    0 -0.13234705565E+02 -0.17894835787E+02 -0.28999804442E+01  0.22445321697E+02  0.51100000000E-03 0.  1.
        -12    1    3    3    0    0 -0.44106537915E+01  0.32502776202E+01 -0.16115332585E+02  0.17021225449E+02  0.00000000000E+00 0.  1.
</event>
<event>
 7    1  0.8986500E-014  0.5052886E+02  0.7816164E-02  0.1300439E+00
        -11   -1    0    0    0    0  0.00000000000E+00  0.00000000000E+00  0.45593999997E+02  0.45594000000E+02  0.51100000000E-03 0. -1.
         11   -1    0    0    0    0 -0.00000000000E+00 -0.00000000000E+00 -0.45593999997E+02  0.45594000000E+02  0.51100000000E-03 0.  1.
    9900012    2    1    2    0    0  0.33343508399E+02  0.90035696340E+01 -0.21454877436E+02  0.50528860999E+02  0.30000003493E+02 0.  0.
         12    1    1    2    0    0 -0.33343508399E+02 -0.90035696340E+01  0.21454877436E+02  0.40659139001E+02  0.00000000000E+00 0. -1.
         11    1    3    3    0    0  0.18215326528E+02  0.76214196726E+01 -0.40727761924E+00  0.19749684394E+02  0.51100000000E-03 0.  1.
        -11    1    3    3    0    0  0.11250055894E+02  0.86639197500E+01 -0.13712490451E+02  0.19739798826E+02  0.51100000000E-03 0. -1.
         12    1    3    3    0    0  0.38781259769E+01 -0.72817697886E+01 -0.73351093658E+01  0.11039377779E+02  0.00000000000E+00 0. -1.
</event>
<event>
 7    1  0.8986500E-014  0.5052884E+02  0.7816164E-02  0.1300439E+00
        -11   -1    0    0    0    0  0.00000000000E+00  0.00000000000E+00  0.45593999997E+02  0.45594000000E+02  0.51100000000E-03 0. -1.
         11   -1    0    0    0    0 -0.00000000000E+00 -0.00000000000E+00 -0.45593999997E+02  0.45594000000E+02  0.51100000000E-03 0.  1.
    9900012    2    1    2    0    0  0.19490002723E+02  0.79059232937E+01  0.34796603865E+02  0.50528837812E+02  0.29999933014E+02 0.  0.
        -12    1    1    2    0    0 -0.19490002723E+02 -0.79059232937E+01 -0.34796603865E+02  0.40659162188E+02  0.00000000000E+00 0.  1.
         11    1    3    3    0    0 -0.27779646967E+01  0.52111504386E+01  0.11287869654E+02  0.12739276994E+02  0.51100000000E-03 0. -1.
        -11    1    3    3    0    0 -0.11607801345E+01  0.55983601474E+01  0.27129164193E+01  0.63284249715E+01  0.51100000000E-03 0.  1.
         12    1    3    3    0    0  0.23428747554E+02 -0.29035872923E+01  0.20795817792E+02  0.31461135846E+02  0.00000000000E+00 0. -1.
</event>
<event>
 7    1  0.8986500E-014  0.5052884E+02  0.7816164E-02  0.1300439E+00
        -11   -1    0    0    0    0  0.00000000000E+00  0.00000000000E+00  0.45593999997E+02  0.45594000000E+02  0.51100000000E-03 0. -1.
         11   -1    0    0    0    0 -0.00000000000E+00 -0.00000000000E+00 -0.45593999997E+02  0.45594000000E+02  0.51100000000E-03 0.  1.
    9900012    2    1    2    0    0  0.17159868304E+02  0.27249314875E+02  0.24822995133E+02  0.50528839547E+02  0.29999938288E+02 0.  0.
        -12    1    1    2    0    0 -0.17159868304E+02 -0.27249314875E+02 -0.24822995133E+02  0.40659160453E+02  0.00000000000E+00 0.  1.
         11    1    3    3    0    0  0.15888997002E+02  0.41577333271E+01  0.92528523186E+01  0.18851054306E+02  0.51100000000E-03 0. -1.
        -11    1    3    3    0    0  0.37650945017E+01  0.10697054066E+02  0.15283873001E+02  0.19031544248E+02  0.51100000000E-03 0.  1.
        -12    1    3    3    0    0 -0.24942231999E+01  0.12394527482E+02  0.28626981352E+00  0.12646240994E+02  0.00000000000E+00 0.  1.
</event>
<event>
 7    1  0.8986500E-014  0.5052885E+02  0.7816164E-02  0.1300439E+00
        -11   -1    0    0    0    0  0.00000000000E+00  0.00000000000E+00  0.45593999997E+02  0.45594000000E+02  0.51100000000E-03 0. -1.
         11   -1    0    0    0    0 -0.00000000000E+00 -0.00000000000E+00 -0.45593999997E+02  0.45594000000E+02  0.51100000000E-03 0.  1.
    9900012    2    1    2    0    0 -0.15061280419E+02  0.12718373035E+02 -0.35560750450E+02  0.50528854004E+02  0.29999982232E+02 0.  0.
         12    1    1    2    0    0  0.15061280419E+02 -0.12718373035E+02  0.35560750450E+02  0.40659145996E+02  0.00000000000E+00 0. -1.
         11    1    3    3    0    0 -0.10763442137E+02 -0.39071876670E+01 -0.31679887497E+01  0.11880822997E+02  0.51100000000E-03 0. -1.
        -11    1    3    3    0    0 -0.31102386465E+00  0.13372554074E+01 -0.15338855027E+02  0.15400177326E+02  0.51100000000E-03 0.  1.
        -12    1    3    3    0    0 -0.39868144175E+01  0.15288305295E+02 -0.17053906673E+02  0.23247853681E+02  0.00000000000E+00 0.  1.
</event>
<event>
 7    1  0.8986500E-014  0.5052887E+02  0.7816164E-02  0.1300439E+00
        -11   -1    0    0    0    0  0.00000000000E+00  0.00000000000E+00  0.45593999997E+02  0.45594000000E+02  0.51100000000E-03 0. -1.
         11   -1    0    0    0    0 -0.00000000000E+00 -0.00000000000E+00 -0.45593999997E+02  0.45594000000E+02  0.51100000000E-03 0.  1.
    9900012    2    1    2    0    0 -0.11162068452E+02 -0.92046966737E+01  0.37997977079E+02  0.50528874639E+02  0.30000044953E+02 0.  0.
        -12    1    1    2    0    0  0.11162068452E+02  0.92046966737E+01 -0.37997977079E+02  0.40659125361E+02  0.00000000000E+00 0.  1.
         11    1    3    3    0    0  0.56955033656E+01  0.36956660259E+00  0.10979459690E+02  0.12374323149E+02  0.51100000000E-03 0. -1.
        -11    1    3    3    0    0 -0.15629930598E+02  0.15852323727E+01  0.16046068180E+02  0.22456268534E+02  0.51100000000E-03 0.  1.
         12    1    3    3    0    0 -0.12276412193E+01 -0.11159495649E+02  0.10972449210E+02  0.15698282956E+02  0.00000000000E+00 0. -1.
</event>
<event>
 7    1  0.8986500E-014  0.5052886E+02  0.7816164E-02  0.1300439E+00
        -11   -1    0    0    0    0  0.00000000000E+00  0.00000000000E+00  0.45593999997E+02  0.45594000000E+02  0.51100000000E-03 0. -1.
         11   -1    0    0    0    0 -0.00000000000E+00 -0.00000000000E+00 -0.45593999997E+02  0.45594000000E+02  0.51100000000E-03 0.  1.
    9900012    2    1    2    0    0 -0.10635984963E+02  0.75045830259E+01 -0.38519118431E+02  0.50528862931E+02  0.30000009364E+02 0.  0.
         12    1    1    2    0    0  0.10635984963E+02 -0.75045830259E+01  0.38519118431E+02  0.40659137069E+02  0.00000000000E+00 0. -1.
         11    1    3    3    0    0 -0.10569542021E+01  0.24420459624E+01  0.23221806355E+01  0.35317508169E+01  0.51100000000E-03 0. -1.
        -11    1    3    3    0    0  0.31718112780E+01 -0.55493995550E+01 -0.14793380853E+02  0.16115220741E+02  0.51100000000E-03 0.  1.
        -12    1    3    3    0    0 -0.12750842039E+02  0.10611936619E+02 -0.26047918214E+02  0.30881891373E+02  0.00000000000E+00 0.  1.
</event>
<event>
 7    1  0.8986500E-014  0.5052886E+02  0.7816164E-02  0.1300439E+00
        -11   -1    0    0    0    0  0.00000000000E+00  0.00000000000E+00  0.45593999997E+02  0.45594000000E+02  0.51100000000E-03 0. -1.
         11   -1    0    0    0    0 -0.00000000000E+00 -0.00000000000E+00 -0.45593999997E+02  0.45594000000E+02  0.51100000000E-03 0.  1.
    9900012    2    1    2    0    0  0.14530483935E+02  0.76780178384E+01 -0.37189771888E+02  0.50528855218E+02  0.29999985921E+02 0.  0.
         12    1    1    2    0    0 -0.14530483935E+02 -0.76780178384E+01  0.37189771888E+02  0.40659144782E+02  0.00000000000E+00 0. -1.
         11    1    3    3    0    0 -0.98066281551E+00  0.10063529343E+01 -0.22805928870E+01  0.26787217033E+01  0.51100000000E-03 0. -1.
        -11    1    3    3    0    0  0.12202292747E+02  0.76014101444E+01 -0.39546185471E+02  0.42078238676E+02  0.51100000000E-03 0.  1.
         12    1    3    3    0    0  0.33088540036E+01 -0.92974524026E+00  0.46370064702E+01  0.57718948391E+01  0.00000000000E+00 0. -1.
</event>
<event>
 7    1  0.8986500E-014  0.5052887E+02  0.7816164E-02  0.1300439E+00
        -11   -1    0    0    0    0  0.00000000000E+00  0.00000000000E+00  0.45593999997E+02  0.45594000000E+02  0.51100000000E-03 0. -1.
         11   -1    0    0    0    0 -0.00000000000E+00 -0.00000000000E+00 -0.45593999997E+02  0.45594000000E+02  0.51100000000E-03 0.  1.
    9900012    2    1    2    0    0 -0.28357554736E+02  0.17018512410E+02  0.23651309480E+02  0.50528866765E+02  0.30000021019E+02 0.  0.
        -12    1    1    2    0    0  0.28357554736E+02 -0.17018512410E+02 -0.23651309480E+02  0.40659133235E+02  0.00000000000E+00 0.  1.
         11    1    3    3    0    0 -0.76073403137E+01  0.13831345900E+02  0.15027936951E+02  0.21794876584E+02  0.51100000000E-03 0. -1.
        -11    1    3    3    0    0  0.17915231066E+01  0.25118192294E+01  0.50254387948E+01  0.58969336290E+01  0.51100000000E-03 0.  1.
        -12    1    3    3    0    0 -0.22541737529E+02  0.67534728085E+00  0.35979337348E+01  0.22837056552E+02  0.00000000000E+00 0.  1.
</event>
<event>
 7    1  0.8986500E-014  0.5052881E+02  0.7816164E-02  0.1300439E+00
        -11   -1    0    0    0    0  0.00000000000E+00  0.00000000000E+00  0.45593999997E+02  0.45594000000E+02  0.51100000000E-03 0. -1.
         11   -1    0    0    0    0 -0.00000000000E+00 -0.00000000000E+00 -0.45593999997E+02  0.45594000000E+02  0.51100000000E-03 0.  1.
    9900012    2    1    2    0    0  0.98588487082E+01 -0.78768166720E+01  0.38651374714E+02  0.50528807853E+02  0.29999841949E+02 0.  0.
        -12    1    1    2    0    0 -0.98588487082E+01  0.78768166720E+01 -0.38651374714E+02  0.40659192147E+02  0.00000000000E+00 0.  1.
         11    1    3    3    0    0  0.89179629801E+01 -0.14745644013E+01  0.26823055991E+02  0.28305136227E+02  0.51100000000E-03 0. -1.
        -11    1    3    3    0    0 -0.36681534925E+01  0.51761926968E+01  0.36820984745E+01  0.73352689328E+01  0.51100000000E-03 0.  1.
        -12    1    3    3    0    0  0.46090392206E+01 -0.11578444968E+02  0.81462202491E+01  0.14888402693E+02  0.00000000000E+00 0.  1.
</event>
<event>
 7    1  0.1523065E-013  0.5052886E+02  0.7816164E-02  0.1300439E+00
        -11   -1    0    0    0    0  0.00000000000E+00  0.00000000000E+00  0.45593999997E+02  0.45594000000E+02  0.51100000000E-03 0. -1.
         11   -1    0    0    0    0 -0.00000000000E+00 -0.00000000000E+00 -0.45593999997E+02  0.45594000000E+02  0.51100000000E-03 0.  1.
    9900012    2    1    2    0    0 -0.16932441183E+02 -0.45871354168E+01  0.36679919057E+02  0.50528857882E+02  0.29999994019E+02 0.  0.
        -12    1    1    2    0    0  0.16932441183E+02  0.45871354168E+01 -0.36679919057E+02  0.40659142118E+02  0.00000000000E+00 0.  1.
         11    1    3    3    0    0 -0.35526264738E+01  0.22060808815E+01  0.18345753803E+02  0.18816339457E+02  0.51100000000E-03 0. -1.
        -11    1    3    3    0    0 -0.86631337910E+01  0.68693233647E+01  0.10613474418E+02  0.15325903890E+02  0.51100000000E-03 0.  1.
         12    1    3    3    0    0 -0.47166809185E+01 -0.13662539663E+02  0.77206908362E+01  0.16386614535E+02  0.00000000000E+00 0. -1.
</event>
<event>
 7    1  0.8986500E-014  0.5052886E+02  0.7816164E-02  0.1300439E+00
        -11   -1    0    0    0    0  0.00000000000E+00  0.00000000000E+00  0.45593999997E+02  0.45594000000E+02  0.51100000000E-03 0. -1.
         11   -1    0    0    0    0 -0.00000000000E+00 -0.00000000000E+00 -0.45593999997E+02  0.45594000000E+02  0.51100000000E-03 0.  1.
    9900012    2    1    2    0    0 -0.64545704490E+01  0.34292459998E+02 -0.20869395377E+02  0.50528856431E+02  0.29999989607E+02 0.  0.
         12    1    1    2    0    0  0.64545704490E+01 -0.34292459998E+02  0.20869395377E+02  0.40659143569E+02  0.00000000000E+00 0. -1.
         11    1    3    3    0    0 -0.14521830718E+01 -0.11736710570E+01  0.19840795293E+01  0.27245020213E+01  0.51100000000E-03 0. -1.
        -11    1    3    3    0    0 -0.89399451185E+01  0.16444878229E+02 -0.21243376306E+02  0.28313206739E+02  0.51100000000E-03 0.  1.
        -12    1    3    3    0    0  0.39375577413E+01  0.19021252826E+02 -0.16100986007E+01  0.19491147671E+02  0.00000000000E+00 0.  1.
</event>
<event>
 7    1  0.8986500E-014  0.5052886E+02  0.7816164E-02  0.1300439E+00
        -11   -1    0    0    0    0  0.00000000000E+00  0.00000000000E+00  0.45593999997E+02  0.45594000000E+02  0.51100000000E-03 0. -1.
         11   -1    0    0    0    0 -0.00000000000E+00 -0.00000000000E+00 -0.45593999997E+02  0.45594000000E+02  0.51100000000E-03 0.  1.
    9900012    2    1    2    0    0  0.11016823558E+02 -0.15595859744E+01 -0.39107073139E+02  0.50528857373E+02  0.29999992470E+02 0.  0.
         12    1    1    2    0    0 -0.11016823558E+02  0.15595859744E+01  0.39107073139E+02  0.40659142627E+02  0.00000000000E+00 0. -1.
         11    1    3    3    0    0 -0.63029604255E+01  0.70828320256E+01 -0.12158377225E+02  0.15418169691E+02  0.51100000000E-03 0. -1.
        -11    1    3    3    0    0  0.37958430267E+01  0.79731762987E-01 -0.13850168557E+02  0.14361126375E+02  0.51100000000E-03 0.  1.
        -12    1    3    3    0    0  0.13523940957E+02 -0.87221497630E+01 -0.13098527357E+02  0.20749561307E+02  0.00000000000E+00 0.  1.
</event>
<event>
 7    1  0.8986500E-014  0.5052886E+02  0.7816164E-02  0.1300439E+00
        -11   -1    0    0    0    0  0.00000000000E+00  0.00000000000E+00  0.45593999997E+02  0.45594000000E+02  0.51100000000E-03 0. -1.
         11   -1    0    0    0    0 -0.00000000000E+00 -0.00000000000E+00 -0.45593999997E+02  0.45594000000E+02  0.51100000000E-03 0.  1.
    9900012    2    1    2    0    0  0.10153119316E+02 -0.30890579996E+02 -0.24410080960E+02  0.50528858140E+02  0.29999994802E+02 0.  0.
         12    1    1    2    0    0 -0.10153119316E+02  0.30890579996E+02  0.24410080960E+02  0.40659141860E+02  0.00000000000E+00 0. -1.
         11    1    3    3    0    0  0.48700238656E+01 -0.16171615667E+02  0.26017137404E+01  0.17088218175E+02  0.51100000000E-03 0. -1.
        -11    1    3    3    0    0  0.62300772352E+01 -0.16517284211E+02 -0.23645414576E+02  0.29508306810E+02  0.51100000000E-03 0.  1.
        -12    1    3    3    0    0 -0.94698178473E+00  0.17983198820E+01 -0.33663801251E+01  0.39323331554E+01  0.00000000000E+00 0.  1.
</event>
<event>
 7    1  0.8986500E-014  0.5052886E+02  0.7816164E-02  0.1300439E+00
        -11   -1    0    0    0    0  0.00000000000E+00  0.00000000000E+00  0.45593999997E+02  0.45594000000E+02  0.51100000000E-03 0. -1.
         11   -1    0    0    0    0 -0.00000000000E+00 -0.00000000000E+00 -0.45593999997E+02  0.45594000000E+02  0.51100000000E-03 0.  1.
    9900012    2    1    2    0    0 -0.11275752470E+02 -0.88697154848E+01 -0.38044064900E+02  0.50528864241E+02  0.30000013346E+02 0.  0.
         12    1    1    2    0    0  0.11275752470E+02  0.88697154848E+01  0.38044064900E+02  0.40659135759E+02  0.00000000000E+00 0. -1.
         11    1    3    3    0    0  0.14283488540E+01  0.22430117209E+01 -0.89133729690E+00  0.28045970239E+01  0.51100000000E-03 0. -1.
        -11    1    3    3    0    0 -0.91292118869E+01  0.63976977710E+01 -0.20301912625E+02  0.23161189584E+02  0.51100000000E-03 0.  1.
         12    1    3    3    0    0 -0.35748894375E+01 -0.17510424977E+02 -0.16850814979E+02  0.24563077633E+02  0.00000000000E+00 0. -1.
</event>
<event>
 7    1  0.8986500E-014  0.5052886E+02  0.7816164E-02  0.1300439E+00
        -11   -1    0    0    0    0  0.00000000000E+00  0.00000000000E+00  0.45593999997E+02  0.45594000000E+02  0.51100000000E-03 0. -1.
         11   -1    0    0    0    0 -0.00000000000E+00 -0.00000000000E+00 -0.45593999997E+02  0.45594000000E+02  0.51100000000E-03 0.  1.
    9900012    2    1    2    0    0  0.23767764079E+02 -0.44666754509E+01  0.32684985366E+02  0.50528855060E+02  0.29999985439E+02 0.  0.
        -12    1    1    2    0    0 -0.23767764079E+02  0.44666754509E+01 -0.32684985366E+02  0.40659144940E+02  0.00000000000E+00 0.  1.
         11    1    3    3    0    0  0.12435511512E+02 -0.10292097114E+02  0.22174296811E+02  0.27427516273E+02  0.51100000000E-03 0. -1.
        -11    1    3    3    0    0 -0.20324003841E+01  0.45858806853E+01  0.80060515109E+01  0.94476353675E+01  0.51100000000E-03 0.  1.
        -12    1    3    3    0    0  0.13364652951E+02  0.12395409780E+01  0.25046370443E+01  0.13653703419E+02  0.00000000000E+00 0.  1.
</event>
<event>
 7    1  0.8986500E-014  0.5052887E+02  0.7816164E-02  0.1300439E+00
        -11   -1    0    0    0    0  0.00000000000E+00  0.00000000000E+00  0.45593999997E+02  0.45594000000E+02  0.51100000000E-03 0.  1.
         11   -1    0    0    0    0 -0.00000000000E+00 -0.00000000000E+00 -0.45593999997E+02  0.45594000000E+02  0.51100000000E-03 0. -1.
    9900012    2    1    2    0    0  0.35124967206E+02 -0.20303359165E+02 -0.26786235062E+01  0.50528871400E+02  0.30000035109E+02 0.  0.
        -12    1    1    2    0    0 -0.35124967206E+02  0.20303359165E+02  0.26786235062E+01  0.40659128600E+02  0.00000000000E+00 0.  1.
         11    1    3    3    0    0  0.29367375540E+01 -0.12743062113E+02 -0.99618386523E+01  0.16439230185E+02  0.51100000000E-03 0. -1.
        -11    1    3    3    0    0  0.65749157899E+00 -0.65163395877E+00 -0.21742558837E+00  0.95089228636E+00  0.51100000000E-03 0.  1.
        -12    1    3    3    0    0  0.31530738073E+02 -0.69086630927E+01  0.75006407345E+01  0.33138748929E+02  0.00000000000E+00 0.  1.
</event>
<event>
 7    1  0.8986500E-014  0.5052886E+02  0.7816164E-02  0.1300439E+00
        -11   -1    0    0    0    0  0.00000000000E+00  0.00000000000E+00  0.45593999997E+02  0.45594000000E+02  0.51100000000E-03 0. -1.
         11   -1    0    0    0    0 -0.00000000000E+00 -0.00000000000E+00 -0.45593999997E+02  0.45594000000E+02  0.51100000000E-03 0.  1.
    9900012    2    1    2    0    0 -0.14496385043E+02  0.88168044896E+01  0.36949760976E+02  0.50528855187E+02  0.29999985828E+02 0.  0.
        -12    1    1    2    0    0  0.14496385043E+02 -0.88168044896E+01 -0.36949760976E+02  0.40659144813E+02  0.00000000000E+00 0.  1.
         11    1    3    3    0    0  0.63292314028E+01  0.44919113768E+01  0.20834983516E+02  0.22233600166E+02  0.51100000000E-03 0. -1.
        -11    1    3    3    0    0 -0.44601152192E+01  0.51419037219E+01  0.37821331745E+01  0.77869334955E+01  0.51100000000E-03 0.  1.
        -12    1    3    3    0    0 -0.16365501227E+02 -0.81701060904E+00  0.12332644285E+02  0.20508321526E+02  0.00000000000E+00 0.  1.
</event>
<event>
 7    1  0.8986500E-014  0.5052886E+02  0.7816164E-02  0.1300439E+00
        -11   -1    0    0    0    0  0.00000000000E+00  0.00000000000E+00  0.45593999997E+02  0.45594000000E+02  0.51100000000E-03 0. -1.
         11   -1    0    0    0    0 -0.00000000000E+00 -0.00000000000E+00 -0.45593999997E+02  0.45594000000E+02  0.51100000000E-03 0.  1.
    9900012    2    1    2    0    0 -0.94628648275E+01 -0.30065734437E+02  0.25684075101E+02  0.50528856973E+02  0.29999991254E+02 0.  0.
        -12    1    1    2    0    0  0.94628648275E+01  0.30065734437E+02 -0.25684075101E+02  0.40659143027E+02  0.00000000000E+00 0.  1.
         11    1    3    3    0    0 -0.55116135336E+01 -0.15025705808E+02  0.20835729438E+02  0.26273129624E+02  0.51100000000E-03 0. -1.
        -11    1    3    3    0    0 -0.38659710008E+01 -0.18304410770E+02  0.36824835032E+00  0.18711835627E+02  0.51100000000E-03 0.  1.
         12    1    3    3    0    0 -0.85280293102E-01  0.32643821413E+01  0.44800973119E+01  0.55438917212E+01  0.00000000000E+00 0. -1.
</event>
<event>
 7    1  0.8986500E-014  0.5052884E+02  0.7816164E-02  0.1300439E+00
        -11   -1    0    0    0    0  0.00000000000E+00  0.00000000000E+00  0.45593999997E+02  0.45594000000E+02  0.51100000000E-03 0. -1.
         11   -1    0    0    0    0 -0.00000000000E+00 -0.00000000000E+00 -0.45593999997E+02  0.45594000000E+02  0.51100000000E-03 0.  1.
    9900012    2    1    2    0    0  0.18815805261E+02  0.83837715574E+00 -0.36033727882E+02  0.50528844217E+02  0.29999952483E+02 0.  0.
         12    1    1    2    0    0 -0.18815805261E+02 -0.83837715574E+00  0.36033727882E+02  0.40659155783E+02  0.00000000000E+00 0. -1.
         11    1    3    3    0    0  0.47186249686E+01  0.27032382332E+01 -0.31538605917E+01  0.62864740064E+01  0.51100000000E-03 0. -1.
        -11    1    3    3    0    0  0.97243357905E+01 -0.42855895669E+01  0.35601309682E+00  0.10632766813E+02  0.51100000000E-03 0.  1.
         12    1    3    3    0    0  0.43728445015E+01  0.24207284894E+01 -0.33235880388E+02  0.33609603398E+02  0.00000000000E+00 0. -1.
</event>
<event>
 7    1  0.8986500E-014  0.5052884E+02  0.7816164E-02  0.1300439E+00
        -11   -1    0    0    0    0  0.00000000000E+00  0.00000000000E+00  0.45593999997E+02  0.45594000000E+02  0.51100000000E-03 0. -1.
         11   -1    0    0    0    0 -0.00000000000E+00 -0.00000000000E+00 -0.45593999997E+02  0.45594000000E+02  0.51100000000E-03 0.  1.
    9900012    2    1    2    0    0 -0.27733906720E+02  0.19123519914E+02 -0.22765962692E+02  0.50528835558E+02  0.29999926162E+02 0.  0.
         12    1    1    2    0    0  0.27733906720E+02 -0.19123519914E+02  0.22765962692E+02  0.40659164442E+02  0.00000000000E+00 0. -1.
         11    1    3    3    0    0 -0.43202367610E+01 -0.41124910771E+01 -0.92829790589E+01  0.11034071279E+02  0.51100000000E-03 0. -1.
        -11    1    3    3    0    0 -0.17422210226E+02  0.82565487211E+01 -0.13188267845E+02  0.23358818784E+02  0.51100000000E-03 0.  1.
        -12    1    3    3    0    0 -0.59914597322E+01  0.14979462270E+02 -0.29471578782E+00  0.16135945495E+02  0.00000000000E+00 0.  1.
</event>
<event>
 7    1  0.8986500E-014  0.5052887E+02  0.7816164E-02  0.1300439E+00
        -11   -1    0    0    0    0  0.00000000000E+00  0.00000000000E+00  0.45593999997E+02  0.45594000000E+02  0.51100000000E-03 0. -1.
         11   -1    0    0    0    0 -0.00000000000E+00 -0.00000000000E+00 -0.45593999997E+02  0.45594000000E+02  0.51100000000E-03 0.  1.
    9900012    2    1    2    0    0 -0.10283994735E+02 -0.38368767653E+02 -0.86742231006E+01  0.50528867873E+02  0.30000024387E+02 0.  0.
         12    1    1    2    0    0  0.10283994735E+02  0.38368767653E+02  0.86742231006E+01  0.40659132127E+02  0.00000000000E+00 0. -1.
         11    1    3    3    0    0 -0.82062532048E+01 -0.33014579011E+01 -0.37174310255E+01  0.95948689217E+01  0.51100000000E-03 0.  1.
        -11    1    3    3    0    0 -0.62640281775E+01 -0.16612683899E+01  0.15029266864E+01  0.66525672155E+01  0.51100000000E-03 0. -1.
        -12    1    3    3    0    0  0.41862866477E+01 -0.33406041362E+02 -0.64597187615E+01  0.34281431736E+02  0.00000000000E+00 0.  1.
</event>
<event>
 7    1  0.8986500E-014  0.5052887E+02  0.7816164E-02  0.1300439E+00
        -11   -1    0    0    0    0  0.00000000000E+00  0.00000000000E+00  0.45593999997E+02  0.45594000000E+02  0.51100000000E-03 0. -1.
         11   -1    0    0    0    0 -0.00000000000E+00 -0.00000000000E+00 -0.45593999997E+02  0.45594000000E+02  0.51100000000E-03 0.  1.
    9900012    2    1    2    0    0  0.87988542086E+01  0.10473332730E+02 -0.38289092323E+02  0.50528866650E+02  0.30000020670E+02 0.  0.
         12    1    1    2    0    0 -0.87988542086E+01 -0.10473332730E+02  0.38289092323E+02  0.40659133350E+02  0.00000000000E+00 0. -1.
         11    1    3    3    0    0 -0.16145787512E+00 -0.89599994122E+01 -0.69835204922E+01  0.11361215465E+02  0.51100000000E-03 0. -1.
        -11    1    3    3    0    0  0.18677353729E+01  0.59209687725E+01 -0.17574308189E+02  0.18638739636E+02  0.51100000000E-03 0.  1.
        -12    1    3    3    0    0  0.70925767108E+01  0.13512363369E+02 -0.13731263641E+02  0.20528911550E+02  0.00000000000E+00 0.  1.
</event>
<event>
 7    1  0.8986500E-014  0.5052884E+02  0.7816164E-02  0.1300439E+00
        -11   -1    0    0    0    0  0.00000000000E+00  0.00000000000E+00  0.45593999997E+02  0.45594000000E+02  0.51100000000E-03 0. -1.
         11   -1    0    0    0    0 -0.00000000000E+00 -0.00000000000E+00 -0.45593999997E+02  0.45594000000E+02  0.51100000000E-03 0.  1.
    9900012    2    1    2    0    0  0.38483626905E+02  0.91250317514E+01 -0.94292777343E+01  0.50528843309E+02  0.29999949722E+02 0.  0.
        -12    1    1    2    0    0 -0.38483626905E+02 -0.91250317514E+01  0.94292777343E+01  0.40659156691E+02  0.00000000000E+00 0.  1.
         11    1    3    3    0    0  0.35745799382E+01  0.97448429438E+00  0.79031200629E+01  0.87284906120E+01  0.51100000000E-03 0. -1.
        -11    1    3    3    0    0  0.23992750801E+01 -0.26666824209E+01 -0.29399689765E+01  0.46380096903E+01  0.51100000000E-03 0.  1.
         12    1    3    3    0    0  0.32509771887E+02  0.10817229878E+02 -0.14392428821E+02  0.37162343006E+02  0.00000000000E+00 0. -1.
</event>
<event>
 7    1  0.8986500E-014  0.5052885E+02  0.7816164E-02  0.1300439E+00
        -11   -1    0    0    0    0  0.00000000000E+00  0.00000000000E+00  0.45593999997E+02  0.45594000000E+02  0.51100000000E-03 0. -1.
         11   -1    0    0    0    0 -0.00000000000E+00 -0.00000000000E+00 -0.45593999997E+02  0.45594000000E+02  0.51100000000E-03 0.  1.
    9900012    2    1    2    0    0 -0.25853014556E+01  0.44059763405E+01 -0.40336951984E+02  0.50528854578E+02  0.29999983974E+02 0.  0.
         12    1    1    2    0    0  0.25853014556E+01 -0.44059763405E+01  0.40336951984E+02  0.40659145422E+02  0.00000000000E+00 0. -1.
         11    1    3    3    0    0 -0.39753771085E+01  0.35347985879E+01 -0.20996743098E+01  0.57190083651E+01  0.51100000000E-03 0. -1.
        -11    1    3    3    0    0 -0.81614901930E+01 -0.17916906325E+01 -0.41890083165E+01  0.93470780691E+01  0.51100000000E-03 0.  1.
        -12    1    3    3    0    0  0.95515658459E+01  0.26628683851E+01 -0.34048269358E+02  0.35462768143E+02  0.00000000000E+00 0.  1.
</event>
<event>
 7    1  0.8986500E-014  0.5052886E+02  0.7816164E-02  0.1300439E+00
        -11   -1    0    0    0    0  0.00000000000E+00  0.00000000000E+00  0.45593999997E+02  0.45594000000E+02  0.51100000000E-03 0. -1.
         11   -1    0    0    0    0 -0.00000000000E+00 -0.00000000000E+00 -0.45593999997E+02  0.45594000000E+02  0.51100000000E-03 0.  1.
    9900012    2    1    2    0    0 -0.18796511672E+02 -0.21443655393E+02 -0.28983207298E+02  0.50528861876E+02  0.30000006159E+02 0.  0.
         12    1    1    2    0    0  0.18796511672E+02  0.21443655393E+02  0.28983207298E+02  0.40659138124E+02  0.00000000000E+00 0. -1.
         11    1    3    3    0    0 -0.43956252608E+01 -0.48834707425E+01  0.23330077007E+01  0.69722832070E+01  0.51100000000E-03 0. -1.
        -11    1    3    3    0    0  0.46945552421E+01 -0.66843100399E+01 -0.12797674179E+02  0.15182203868E+02  0.51100000000E-03 0.  1.
        -12    1    3    3    0    0 -0.19095441653E+02 -0.98758746110E+01 -0.18518540820E+02  0.28374374801E+02  0.00000000000E+00 0.  1.
</event>
<event>
 7    1  0.8986500E-014  0.5052885E+02  0.7816164E-02  0.1300439E+00
        -11   -1    0    0    0    0  0.00000000000E+00  0.00000000000E+00  0.45593999997E+02  0.45594000000E+02  0.51100000000E-03 0.  1.
         11   -1    0    0    0    0 -0.00000000000E+00 -0.00000000000E+00 -0.45593999997E+02  0.45594000000E+02  0.51100000000E-03 0. -1.
    9900012    2    1    2    0    0 -0.11506503077E+02 -0.24908917608E+02 -0.30005205375E+02  0.50528854177E+02  0.29999982757E+02 0.  0.
         12    1    1    2    0    0  0.11506503077E+02  0.24908917608E+02  0.30005205375E+02  0.40659145823E+02  0.00000000000E+00 0. -1.
         11    1    3    3    0    0 -0.28294616276E+01 -0.48462892220E+01 -0.44837375597E+01  0.71830547186E+01  0.51100000000E-03 0. -1.
        -11    1    3    3    0    0 -0.33901055661E+01 -0.11698276087E+02  0.35092125926E+01  0.12675056309E+02  0.51100000000E-03 0.  1.
         12    1    3    3    0    0 -0.52869358830E+01 -0.83643522997E+01 -0.29030680408E+02  0.30670743150E+02  0.00000000000E+00 0. -1.
</event>
<event>
 7    1  0.8986500E-014  0.5052886E+02  0.7816164E-02  0.1300439E+00
        -11   -1    0    0    0    0  0.00000000000E+00  0.00000000000E+00  0.45593999997E+02  0.45594000000E+02  0.51100000000E-03 0.  1.
         11   -1    0    0    0    0 -0.00000000000E+00 -0.00000000000E+00 -0.45593999997E+02  0.45594000000E+02  0.51100000000E-03 0. -1.
    9900012    2    1    2    0    0  0.36775570156E+02 -0.14996663108E+02 -0.87076588817E+01  0.50528858496E+02  0.29999995883E+02 0.  0.
        -12    1    1    2    0    0 -0.36775570156E+02  0.14996663108E+02  0.87076588817E+01  0.40659141504E+02  0.00000000000E+00 0.  1.
         11    1    3    3    0    0  0.18071967763E+02  0.59277308271E+01 -0.14175320160E+01  0.19072058327E+02  0.51100000000E-03 0. -1.
        -11    1    3    3    0    0  0.17024430014E+02 -0.11621833462E+02 -0.76763605395E+01  0.21996016497E+02  0.51100000000E-03 0.  1.
        -12    1    3    3    0    0  0.16791723791E+01 -0.93025604726E+01  0.38623367371E+00  0.94607836713E+01  0.00000000000E+00 0.  1.
</event>
<event>
 7    1  0.8986500E-014  0.5052880E+02  0.7816164E-02  0.1300439E+00
        -11   -1    0    0    0    0  0.00000000000E+00  0.00000000000E+00  0.45593999997E+02  0.45594000000E+02  0.51100000000E-03 0. -1.
         11   -1    0    0    0    0 -0.00000000000E+00 -0.00000000000E+00 -0.45593999997E+02  0.45594000000E+02  0.51100000000E-03 0.  1.
    9900012    2    1    2    0    0 -0.14268286218E+02  0.11739916102E+02  0.36218238556E+02  0.50528801462E+02  0.29999822522E+02 0.  0.
        -12    1    1    2    0    0  0.14268286218E+02 -0.11739916102E+02 -0.36218238556E+02  0.40659198538E+02  0.00000000000E+00 0.  1.
         11    1    3    3    0    0 -0.78214243391E+01  0.94759526976E+01  0.21658592624E+02  0.24901064093E+02  0.51100000000E-03 0. -1.
        -11    1    3    3    0    0 -0.60489994907E+01  0.10888552505E+02  0.86862050462E+01  0.15185556587E+02  0.51100000000E-03 0.  1.
        -12    1    3    3    0    0 -0.39786238777E+00 -0.86245891008E+01  0.58734408860E+01  0.10442180782E+02  0.00000000000E+00 0.  1.
</event>
<event>
 7    1  0.8986500E-014  0.5052886E+02  0.7816164E-02  0.1300439E+00
        -11   -1    0    0    0    0  0.00000000000E+00  0.00000000000E+00  0.45593999997E+02  0.45594000000E+02  0.51100000000E-03 0. -1.
         11   -1    0    0    0    0 -0.00000000000E+00 -0.00000000000E+00 -0.45593999997E+02  0.45594000000E+02  0.51100000000E-03 0.  1.
    9900012    2    1    2    0    0  0.16027289669E+02 -0.12352719297E+02 -0.35266164000E+02  0.50528855746E+02  0.29999987527E+02 0.  0.
         12    1    1    2    0    0 -0.16027289669E+02  0.12352719297E+02  0.35266164000E+02  0.40659144254E+02  0.00000000000E+00 0. -1.
         11    1    3    3    0    0  0.53983347318E-02 -0.35003148268E+01  0.17034308382E+01  0.38928023210E+01  0.51100000000E-03 0. -1.
        -11    1    3    3    0    0  0.17261977088E+02 -0.65760101698E+01 -0.13147313955E+02  0.22673147714E+02  0.51100000000E-03 0.  1.
        -12    1    3    3    0    0 -0.12400857536E+01 -0.22763943003E+01 -0.23822280883E+02  0.23962905712E+02  0.00000000000E+00 0.  1.
</event>
<event>
 7    1  0.8986500E-014  0.5052886E+02  0.7816164E-02  0.1300439E+00
        -11   -1    0    0    0    0  0.00000000000E+00  0.00000000000E+00  0.45593999997E+02  0.45594000000E+02  0.51100000000E-03 0. -1.
         11   -1    0    0    0    0 -0.00000000000E+00 -0.00000000000E+00 -0.45593999997E+02  0.45594000000E+02  0.51100000000E-03 0.  1.
    9900012    2    1    2    0    0 -0.28353191829E+02 -0.28145569120E+02  0.75557535666E+01  0.50528856379E+02  0.29999989451E+02 0.  0.
         12    1    1    2    0    0  0.28353191829E+02  0.28145569120E+02 -0.75557535666E+01  0.40659143621E+02  0.00000000000E+00 0. -1.
         11    1    3    3    0    0 -0.19080372172E+01  0.15634499196E+01 -0.24300565619E+01  0.34626805842E+01  0.51100000000E-03 0. -1.
        -11    1    3    3    0    0 -0.11857798720E+02 -0.10862821336E+01 -0.32154874873E+01  0.12333967707E+02  0.51100000000E-03 0.  1.
        -12    1    3    3    0    0 -0.14587355891E+02 -0.28622736906E+02  0.13201297616E+02  0.34732208088E+02  0.00000000000E+00 0.  1.
</event>
<event>
 7    1  0.8986500E-014  0.5052885E+02  0.7816164E-02  0.1300439E+00
        -11   -1    0    0    0    0  0.00000000000E+00  0.00000000000E+00  0.45593999997E+02  0.45594000000E+02  0.51100000000E-03 0. -1.
         11   -1    0    0    0    0 -0.00000000000E+00 -0.00000000000E+00 -0.45593999997E+02  0.45594000000E+02  0.51100000000E-03 0.  1.
    9900012    2    1    2    0    0  0.18117240607E+02 -0.11247523968E+01  0.36382233241E+02  0.50528851328E+02  0.29999974096E+02 0.  0.
        -12    1    1    2    0    0 -0.18117240607E+02  0.11247523968E+01 -0.36382233241E+02  0.40659148672E+02  0.00000000000E+00 0.  1.
         11    1    3    3    0    0  0.45771732427E+01  0.23183026255E+01  0.94856990486E+01  0.10784411373E+02  0.51100000000E-03 0. -1.
        -11    1    3    3    0    0  0.26260636176E+01  0.29732111757E+01  0.26791589531E+02  0.27083675243E+02  0.51100000000E-03 0.  1.
        -12    1    3    3    0    0  0.10914003747E+02 -0.64162661980E+01  0.10494466146E+00  0.12660764712E+02  0.00000000000E+00 0.  1.
</event>
<event>
 7    1  0.9013914E-014  0.5052887E+02  0.7816164E-02  0.1300439E+00
        -11   -1    0    0    0    0  0.00000000000E+00  0.00000000000E+00  0.45593999997E+02  0.45594000000E+02  0.51100000000E-03 0. -1.
         11   -1    0    0    0    0 -0.00000000000E+00 -0.00000000000E+00 -0.45593999997E+02  0.45594000000E+02  0.51100000000E-03 0.  1.
    9900012    2    1    2    0    0 -0.63910489208E+01 -0.13450717277E+02  0.37833810862E+02  0.50528873769E+02  0.30000042307E+02 0.  0.
        -12    1    1    2    0    0  0.63910489208E+01  0.13450717277E+02 -0.37833810862E+02  0.40659126231E+02  0.00000000000E+00 0.  1.
         11    1    3    3    0    0  0.41067449714E+01 -0.87014227914E+01  0.95638677809E+01  0.13566417362E+02  0.51100000000E-03 0. -1.
        -11    1    3    3    0    0 -0.32140117681E+01 -0.96275862231E+01  0.35806148801E+01  0.10762949935E+02  0.51100000000E-03 0.  1.
         12    1    3    3    0    0 -0.72837821241E+01  0.48782917376E+01  0.24689328201E+02  0.26199506471E+02  0.00000000000E+00 0. -1.
</event>
<event>
 7    1  0.8986500E-014  0.5052885E+02  0.7816164E-02  0.1300439E+00
        -11   -1    0    0    0    0  0.00000000000E+00  0.00000000000E+00  0.45593999997E+02  0.45594000000E+02  0.51100000000E-03 0. -1.
         11   -1    0    0    0    0 -0.00000000000E+00 -0.00000000000E+00 -0.45593999997E+02  0.45594000000E+02  0.51100000000E-03 0.  1.
    9900012    2    1    2    0    0  0.21776604739E+02 -0.18436462717E+02  0.28966230032E+02  0.50528853996E+02  0.29999982205E+02 0.  0.
        -12    1    1    2    0    0 -0.21776604739E+02  0.18436462717E+02 -0.28966230032E+02  0.40659146004E+02  0.00000000000E+00 0.  1.
         11    1    3    3    0    0  0.16968092726E+02  0.15423071030E+00  0.12322255503E+02  0.20970883119E+02  0.51100000000E-03 0. -1.
        -11    1    3    3    0    0  0.30014527332E+01  0.12639241621E+01 -0.46094241933E+00  0.32891778566E+01  0.51100000000E-03 0.  1.
         12    1    3    3    0    0  0.18070592801E+01 -0.19854617590E+02  0.17104916949E+02  0.26268793020E+02  0.00000000000E+00 0. -1.
</event>
<event>
 7    1  0.8986500E-014  0.5052887E+02  0.7816164E-02  0.1300439E+00
        -11   -1    0    0    0    0  0.00000000000E+00  0.00000000000E+00  0.45593999997E+02  0.45594000000E+02  0.51100000000E-03 0. -1.
         11   -1    0    0    0    0 -0.00000000000E+00 -0.00000000000E+00 -0.45593999997E+02  0.45594000000E+02  0.51100000000E-03 0.  1.
    9900012    2    1    2    0    0 -0.22894938605E+02  0.29698631162E+02 -0.15715537652E+02  0.50528867811E+02  0.30000024199E+02 0.  0.
         12    1    1    2    0    0  0.22894938605E+02 -0.29698631162E+02  0.15715537652E+02  0.40659132189E+02  0.00000000000E+00 0. -1.
         11    1    3    3    0    0 -0.38837543063E+01 -0.12979894384E+01 -0.53560618978E+01  0.67420859835E+01  0.51100000000E-03 0. -1.
        -11    1    3    3    0    0 -0.14410791301E+01  0.68399196405E-01  0.48802812250E+01  0.50890600905E+01  0.51100000000E-03 0.  1.
        -12    1    3    3    0    0 -0.17570105169E+02  0.30928221404E+02 -0.15239756979E+02  0.38697721737E+02  0.00000000000E+00 0.  1.
</event>
<event>
 7    1  0.8986500E-014  0.5052889E+02  0.7816164E-02  0.1300439E+00
        -11   -1    0    0    0    0  0.00000000000E+00  0.00000000000E+00  0.45593999997E+02  0.45594000000E+02  0.51100000000E-03 0. -1.
         11   -1    0    0    0    0 -0.00000000000E+00 -0.00000000000E+00 -0.45593999997E+02  0.45594000000E+02  0.51100000000E-03 0.  1.
    9900012    2    1    2    0    0  0.23583453690E+02 -0.24899661113E+02 -0.21840124070E+02  0.50528887481E+02  0.30000083987E+02 0.  0.
         12    1    1    2    0    0 -0.23583453690E+02  0.24899661113E+02  0.21840124070E+02  0.40659112519E+02  0.00000000000E+00 0. -1.
         11    1    3    3    0    0 -0.51389448240E+00 -0.86951097209E+01 -0.11651094823E+02  0.14547062639E+02  0.51100000000E-03 0. -1.
        -11    1    3    3    0    0  0.11247941587E+02 -0.18131063666E+02 -0.45420739784E+01  0.21814721999E+02  0.51100000000E-03 0.  1.
         12    1    3    3    0    0  0.12849406586E+02  0.19265122746E+01 -0.56469552683E+01  0.14167102842E+02  0.00000000000E+00 0. -1.
</event>
<event>
 7    1  0.8986500E-014  0.5052886E+02  0.7816164E-02  0.1300439E+00
        -11   -1    0    0    0    0  0.00000000000E+00  0.00000000000E+00  0.45593999997E+02  0.45594000000E+02  0.51100000000E-03 0. -1.
         11   -1    0    0    0    0 -0.00000000000E+00 -0.00000000000E+00 -0.45593999997E+02  0.45594000000E+02  0.51100000000E-03 0.  1.
    9900012    2    1    2    0    0  0.22570000500E+02  0.23564535086E+02  0.24258470572E+02  0.50528860426E+02  0.30000001751E+02 0.  0.
        -12    1    1    2    0    0 -0.22570000500E+02 -0.23564535086E+02 -0.24258470572E+02  0.40659139574E+02  0.00000000000E+00 0.  1.
         11    1    3    3    0    0  0.19955381305E+02  0.10631010779E+02  0.83493080008E+01  0.24102833393E+02  0.51100000000E-03 0. -1.
        -11    1    3    3    0    0  0.74028445252E+01  0.10005006719E+02  0.36932720124E+01  0.12982392882E+02  0.51100000000E-03 0.  1.
         12    1    3    3    0    0 -0.47882253295E+01  0.29285175872E+01  0.12215890559E+02  0.13443634152E+02  0.00000000000E+00 0. -1.
</event>
<event>
 7    1  0.8986500E-014  0.5052887E+02  0.7816164E-02  0.1300439E+00
        -11   -1    0    0    0    0  0.00000000000E+00  0.00000000000E+00  0.45593999997E+02  0.45594000000E+02  0.51100000000E-03 0. -1.
         11   -1    0    0    0    0 -0.00000000000E+00 -0.00000000000E+00 -0.45593999997E+02  0.45594000000E+02  0.51100000000E-03 0.  1.
    9900012    2    1    2    0    0  0.16595784894E+02  0.44806410098E+01 -0.36846550948E+02  0.50528873880E+02  0.30000042645E+02 0.  0.
         12    1    1    2    0    0 -0.16595784894E+02 -0.44806410098E+01  0.36846550948E+02  0.40659126120E+02  0.00000000000E+00 0. -1.
         11    1    3    3    0    0  0.93520892913E+01  0.13303351040E+02 -0.18865396810E+02  0.24906704320E+02  0.51100000000E-03 0. -1.
        -11    1    3    3    0    0  0.11004140295E+02 -0.89505388392E+01 -0.12120767647E+02  0.18657873881E+02  0.51100000000E-03 0.  1.
        -12    1    3    3    0    0 -0.37604446924E+01  0.12782880919E+00 -0.58603864905E+01  0.69642956792E+01  0.00000000000E+00 0.  1.
</event>
<event>
 7    1  0.8986500E-014  0.5052886E+02  0.7816164E-02  0.1300439E+00
        -11   -1    0    0    0    0  0.00000000000E+00  0.00000000000E+00  0.45593999997E+02  0.45594000000E+02  0.51100000000E-03 0. -1.
         11   -1    0    0    0    0 -0.00000000000E+00 -0.00000000000E+00 -0.45593999997E+02  0.45594000000E+02  0.51100000000E-03 0.  1.
    9900012    2    1    2    0    0  0.21702097222E+02 -0.13518723688E+02  0.31613739291E+02  0.50528862946E+02  0.30000009411E+02 0.  0.
        -12    1    1    2    0    0 -0.21702097222E+02  0.13518723688E+02 -0.31613739291E+02  0.40659137054E+02  0.00000000000E+00 0.  1.
         11    1    3    3    0    0  0.97919927665E+01  0.36095168380E+01  0.18368286570E+02  0.21125948166E+02  0.51100000000E-03 0. -1.
        -11    1    3    3    0    0 -0.29274677004E+01 -0.52092679237E+01  0.73629458859E+01  0.94825899319E+01  0.51100000000E-03 0.  1.
         12    1    3    3    0    0  0.14837572156E+02 -0.11918972603E+02  0.58825068356E+01  0.19920324848E+02  0.00000000000E+00 0. -1.
</event>
<event>
 7    1  0.8986500E-014  0.5052886E+02  0.7816164E-02  0.1300439E+00
        -11   -1    0    0    0    0  0.00000000000E+00  0.00000000000E+00  0.45593999997E+02  0.45594000000E+02  0.51100000000E-03 0. -1.
         11   -1    0    0    0    0 -0.00000000000E+00 -0.00000000000E+00 -0.45593999997E+02  0.45594000000E+02  0.51100000000E-03 0.  1.
    9900012    2    1    2    0    0  0.32671529998E+02  0.22997691716E+02 -0.75394305497E+01  0.50528859457E+02  0.29999998805E+02 0.  0.
        -12    1    1    2    0    0 -0.32671529998E+02 -0.22997691716E+02  0.75394305497E+01  0.40659140543E+02  0.00000000000E+00 0.  1.
         11    1    3    3    0    0  0.76536085964E+01  0.31247743461E+01 -0.45483875340E+01  0.94355587371E+01  0.51100000000E-03 0. -1.
        -11    1    3    3    0    0  0.42553840191E+01 -0.35714636775E+00 -0.10340494307E+02  0.11187567629E+02  0.51100000000E-03 0.  1.
         12    1    3    3    0    0  0.20762537383E+02  0.20230063738E+02  0.73494512917E+01  0.29905733091E+02  0.00000000000E+00 0. -1.
</event>
<event>
 7    1  0.8986500E-014  0.5052885E+02  0.7816164E-02  0.1300439E+00
        -11   -1    0    0    0    0  0.00000000000E+00  0.00000000000E+00  0.45593999997E+02  0.45594000000E+02  0.51100000000E-03 0. -1.
         11   -1    0    0    0    0 -0.00000000000E+00 -0.00000000000E+00 -0.45593999997E+02  0.45594000000E+02  0.51100000000E-03 0.  1.
    9900012    2    1    2    0    0 -0.26291629994E+02  0.12274082545E+02 -0.28482688251E+02  0.50528850476E+02  0.29999971506E+02 0.  0.
         12    1    1    2    0    0  0.26291629994E+02 -0.12274082545E+02  0.28482688251E+02  0.40659149524E+02  0.00000000000E+00 0. -1.
         11    1    3    3    0    0 -0.10990987617E+02  0.78828207581E+01 -0.23286936469E+02  0.26929947685E+02  0.51100000000E-03 0.  1.
        -11    1    3    3    0    0 -0.96790546765E+01  0.10733083638E+02 -0.42892364680E+01  0.15075832765E+02  0.51100000000E-03 0. -1.
        -12    1    3    3    0    0 -0.56215877007E+01 -0.63418218510E+01 -0.90651531312E+00  0.85230700266E+01  0.00000000000E+00 0.  1.
</event>
<event>
 7    1  0.8986500E-014  0.5052887E+02  0.7816164E-02  0.1300439E+00
        -11   -1    0    0    0    0  0.00000000000E+00  0.00000000000E+00  0.45593999997E+02  0.45594000000E+02  0.51100000000E-03 0. -1.
         11   -1    0    0    0    0 -0.00000000000E+00 -0.00000000000E+00 -0.45593999997E+02  0.45594000000E+02  0.51100000000E-03 0.  1.
    9900012    2    1    2    0    0 -0.19478032269E+02  0.24645233135E+02 -0.25814401468E+02  0.50528873343E+02  0.30000041014E+02 0.  0.
         12    1    1    2    0    0  0.19478032269E+02 -0.24645233135E+02  0.25814401468E+02  0.40659126657E+02  0.00000000000E+00 0. -1.
         11    1    3    3    0    0  0.17959669956E+01  0.40727799059E+01 -0.11300370941E+02  0.12145427834E+02  0.51100000000E-03 0. -1.
        -11    1    3    3    0    0 -0.17260532321E+01 -0.10296899357E+01 -0.83712617812E+01  0.86091547317E+01  0.51100000000E-03 0.  1.
        -12    1    3    3    0    0 -0.19547946033E+02  0.21602143165E+02 -0.61427687454E+01  0.29774290777E+02  0.00000000000E+00 0.  1.
</event>
<event>
 7    1  0.8986500E-014  0.5052885E+02  0.7816164E-02  0.1300439E+00
        -11   -1    0    0    0    0  0.00000000000E+00  0.00000000000E+00  0.45593999997E+02  0.45594000000E+02  0.51100000000E-03 0. -1.
         11   -1    0    0    0    0 -0.00000000000E+00 -0.00000000000E+00 -0.45593999997E+02  0.45594000000E+02  0.51100000000E-03 0.  1.
    9900012    2    1    2    0    0  0.46495970599E+01 -0.45206383812E+01 -0.40138658650E+02  0.50528845528E+02  0.29999956467E+02 0.  0.
         12    1    1    2    0    0 -0.46495970599E+01  0.45206383812E+01  0.40138658650E+02  0.40659154472E+02  0.00000000000E+00 0. -1.
         11    1    3    3    0    0  0.68927697411E+01  0.71364447340E+01 -0.13312165369E+02  0.16602796909E+02  0.51100000000E-03 0. -1.
        -11    1    3    3    0    0 -0.50194114057E+01 -0.57797856746E-01 -0.52558292144E+00  0.50471842765E+01  0.51100000000E-03 0.  1.
         12    1    3    3    0    0  0.27762387245E+01 -0.11599285258E+02 -0.26300910360E+02  0.28878864342E+02  0.00000000000E+00 0. -1.
</event>
<event>
 7    1  0.8986500E-014  0.5052886E+02  0.7816164E-02  0.1300439E+00
        -11   -1    0    0    0    0  0.00000000000E+00  0.00000000000E+00  0.45593999997E+02  0.45594000000E+02  0.51100000000E-03 0. -1.
         11   -1    0    0    0    0 -0.00000000000E+00 -0.00000000000E+00 -0.45593999997E+02  0.45594000000E+02  0.51100000000E-03 0.  1.
    9900012    2    1    2    0    0  0.34483453914E+02 -0.56580819868E+01 -0.20785655850E+02  0.50528856198E+02  0.29999988899E+02 0.  0.
         12    1    1    2    0    0 -0.34483453914E+02  0.56580819868E+01  0.20785655850E+02  0.40659143802E+02  0.00000000000E+00 0. -1.
         11    1    3    3    0    0  0.16898380915E+02  0.66406870647E+01 -0.10858836449E+02  0.21155810821E+02  0.51100000000E-03 0.  1.
        -11    1    3    3    0    0 -0.30818216781E+01 -0.28895022771E+01 -0.41933152376E+01  0.59523727377E+01  0.51100000000E-03 0. -1.
         12    1    3    3    0    0  0.20666894678E+02 -0.94092667743E+01 -0.57335041632E+01  0.23420672639E+02  0.00000000000E+00 0. -1.
</event>
<event>
 7    1  0.8986500E-014  0.5052884E+02  0.7816164E-02  0.1300439E+00
        -11   -1    0    0    0    0  0.00000000000E+00  0.00000000000E+00  0.45593999997E+02  0.45594000000E+02  0.51100000000E-03 0. -1.
         11   -1    0    0    0    0 -0.00000000000E+00 -0.00000000000E+00 -0.45593999997E+02  0.45594000000E+02  0.51100000000E-03 0.  1.
    9900012    2    1    2    0    0 -0.39670011336E+02 -0.82216318523E+01  0.34441562501E+01  0.50528840613E+02  0.29999941528E+02 0.  0.
        -12    1    1    2    0    0  0.39670011336E+02  0.82216318523E+01 -0.34441562501E+01  0.40659159387E+02  0.00000000000E+00 0.  1.
         11    1    3    3    0    0 -0.89150984070E+01  0.39122706210E+01  0.58518835455E+01  0.11359110102E+02  0.51100000000E-03 0. -1.
        -11    1    3    3    0    0 -0.18546268371E+02  0.37339149892E+01 -0.29188426367E+01  0.19142252591E+02  0.51100000000E-03 0.  1.
        -12    1    3    3    0    0 -0.12208644558E+02 -0.15867817463E+02  0.51111534127E+00  0.20027477921E+02  0.00000000000E+00 0.  1.
</event>
<event>
 7    1  0.8986500E-014  0.5052886E+02  0.7816164E-02  0.1300439E+00
        -11   -1    0    0    0    0  0.00000000000E+00  0.00000000000E+00  0.45593999997E+02  0.45594000000E+02  0.51100000000E-03 0.  1.
         11   -1    0    0    0    0 -0.00000000000E+00 -0.00000000000E+00 -0.45593999997E+02  0.45594000000E+02  0.51100000000E-03 0. -1.
    9900012    2    1    2    0    0 -0.32380823213E+02  0.24389681014E+02 -0.31291334168E+01  0.50528859233E+02  0.29999998125E+02 0.  0.
         12    1    1    2    0    0  0.32380823213E+02 -0.24389681014E+02  0.31291334168E+01  0.40659140767E+02  0.00000000000E+00 0. -1.
         11    1    3    3    0    0 -0.21048227260E+01 -0.33665380783E+00 -0.77700461530E+01  0.80571230582E+01  0.51100000000E-03 0. -1.
        -11    1    3    3    0    0 -0.97866518349E+00  0.61668992485E+01 -0.30482005166E+01  0.69483781225E+01  0.51100000000E-03 0.  1.
        -12    1    3    3    0    0 -0.29297335304E+02  0.18559435574E+02  0.76891132529E+01  0.35523358053E+02  0.00000000000E+00 0.  1.
</event>
<event>
 7    1  0.8986500E-014  0.5052886E+02  0.7816164E-02  0.1300439E+00
        -11   -1    0    0    0    0  0.00000000000E+00  0.00000000000E+00  0.45593999997E+02  0.45594000000E+02  0.51100000000E-03 0. -1.
         11   -1    0    0    0    0 -0.00000000000E+00 -0.00000000000E+00 -0.45593999997E+02  0.45594000000E+02  0.51100000000E-03 0.  1.
    9900012    2    1    2    0    0  0.68642668129E+01  0.37988778681E+02 -0.12763249748E+02  0.50528855780E+02  0.29999987630E+02 0.  0.
         12    1    1    2    0    0 -0.68642668129E+01 -0.37988778681E+02  0.12763249748E+02  0.40659144220E+02  0.00000000000E+00 0. -1.
         11    1    3    3    0    0  0.28576800442E+00 -0.16201074956E+01 -0.60923582156E+01  0.63105657858E+01  0.51100000000E-03 0. -1.
        -11    1    3    3    0    0  0.63370658232E+01  0.29425798552E+01 -0.23663749810E+00  0.69909353465E+01  0.51100000000E-03 0.  1.
        -12    1    3    3    0    0  0.24143298528E+00  0.36666306321E+02 -0.64342540346E+01  0.37227354648E+02  0.00000000000E+00 0.  1.
</event>
<event>
 7    1  0.8986500E-014  0.5052886E+02  0.7816164E-02  0.1300439E+00
        -11   -1    0    0    0    0  0.00000000000E+00  0.00000000000E+00  0.45593999997E+02  0.45594000000E+02  0.51100000000E-03 0. -1.
         11   -1    0    0    0    0 -0.00000000000E+00 -0.00000000000E+00 -0.45593999997E+02  0.45594000000E+02  0.51100000000E-03 0.  1.
    9900012    2    1    2    0    0  0.50056532815E+01 -0.44237397590E+01  0.40106603768E+02  0.50528859527E+02  0.29999999017E+02 0.  0.
        -12    1    1    2    0    0 -0.50056532815E+01  0.44237397590E+01 -0.40106603768E+02  0.40659140473E+02  0.00000000000E+00 0.  1.
         11    1    3    3    0    0  0.11179245313E+01  0.40236826468E+01  0.52226629038E+01  0.66870012239E+01  0.51100000000E-03 0. -1.
        -11    1    3    3    0    0 -0.21267932318E+01  0.27128226964E+00  0.33017062969E+02  0.33086602891E+02  0.51100000000E-03 0.  1.
        -12    1    3    3    0    0  0.60145219820E+01 -0.87187046754E+01  0.18668778952E+01  0.10755255411E+02  0.00000000000E+00 0.  1.
</event>
<event>
 7    1  0.8986500E-014  0.5052886E+02  0.7816164E-02  0.1300439E+00
        -11   -1    0    0    0    0  0.00000000000E+00  0.00000000000E+00  0.45593999997E+02  0.45594000000E+02  0.51100000000E-03 0.  1.
         11   -1    0    0    0    0 -0.00000000000E+00 -0.00000000000E+00 -0.45593999997E+02  0.45594000000E+02  0.51100000000E-03 0. -1.
    9900012    2    1    2    0    0 -0.32375572414E+01  0.40300728704E+02  0.43052929747E+01  0.50528855167E+02  0.29999985766E+02 0.  0.
        -12    1    1    2    0    0  0.32375572414E+01 -0.40300728704E+02 -0.43052929747E+01  0.40659144833E+02  0.00000000000E+00 0.  1.
         11    1    3    3    0    0  0.28178178714E+01  0.14032977634E+02 -0.19217444233E+01  0.14441525567E+02  0.51100000000E-03 0. -1.
        -11    1    3    3    0    0  0.89235186912E+01  0.93817882054E+01  0.29351326963E+01  0.13276375257E+02  0.51100000000E-03 0.  1.
         12    1    3    3    0    0 -0.14978893804E+02  0.16885962865E+02  0.32919047018E+01  0.22810954343E+02  0.00000000000E+00 0. -1.
</event>
<event>
 7    1  0.8986500E-014  0.5052887E+02  0.7816164E-02  0.1300439E+00
        -11   -1    0    0    0    0  0.00000000000E+00  0.00000000000E+00  0.45593999997E+02  0.45594000000E+02  0.51100000000E-03 0. -1.
         11   -1    0    0    0    0 -0.00000000000E+00 -0.00000000000E+00 -0.45593999997E+02  0.45594000000E+02  0.51100000000E-03 0.  1.
    9900012    2    1    2    0    0  0.17920591972E+02  0.17346468228E+02 -0.32111020410E+02  0.50528865622E+02  0.30000017544E+02 0.  0.
         12    1    1    2    0    0 -0.17920591972E+02 -0.17346468228E+02  0.32111020410E+02  0.40659134378E+02  0.00000000000E+00 0. -1.
         11    1    3    3    0    0 -0.78082101531E+00  0.34931790153E+01  0.30422313499E+01  0.46975688328E+01  0.51100000000E-03 0. -1.
        -11    1    3    3    0    0 -0.60866482339E+00  0.83312561433E+01 -0.54458994410E+01  0.99718665643E+01  0.51100000000E-03 0.  1.
        -12    1    3    3    0    0  0.19310077810E+02  0.55220330697E+01 -0.29707352319E+02  0.35859430225E+02  0.00000000000E+00 0.  1.
</event>
<event>
 7    1  0.8986500E-014  0.5052887E+02  0.7816164E-02  0.1300439E+00
        -11   -1    0    0    0    0  0.00000000000E+00  0.00000000000E+00  0.45593999997E+02  0.45594000000E+02  0.51100000000E-03 0. -1.
         11   -1    0    0    0    0 -0.00000000000E+00 -0.00000000000E+00 -0.45593999997E+02  0.45594000000E+02  0.51100000000E-03 0.  1.
    9900012    2    1    2    0    0 -0.29008401426E+02 -0.28824298715E+01  0.28343773248E+02  0.50528865267E+02  0.30000016466E+02 0.  0.
        -12    1    1    2    0    0  0.29008401426E+02  0.28824298715E+01 -0.28343773248E+02  0.40659134733E+02  0.00000000000E+00 0.  1.
         11    1    3    3    0    0 -0.12938567580E+02 -0.42397491046E+01  0.12948563142E+02  0.18789552714E+02  0.51100000000E-03 0. -1.
        -11    1    3    3    0    0 -0.10457578530E+02  0.11810290625E+02  0.10215338362E+02  0.18793537492E+02  0.51100000000E-03 0.  1.
         12    1    3    3    0    0 -0.56122553170E+01 -0.10452971392E+02  0.51798717435E+01  0.12945775061E+02  0.00000000000E+00 0. -1.
</event>
<event>
 7    1  0.8986500E-014  0.5052886E+02  0.7816164E-02  0.1300439E+00
        -11   -1    0    0    0    0  0.00000000000E+00  0.00000000000E+00  0.45593999997E+02  0.45594000000E+02  0.51100000000E-03 0. -1.
         11   -1    0    0    0    0 -0.00000000000E+00 -0.00000000000E+00 -0.45593999997E+02  0.45594000000E+02  0.51100000000E-03 0.  1.
    9900012    2    1    2    0    0 -0.19110116098E+02 -0.25728018738E+02 -0.25020751590E+02  0.50528862090E+02  0.30000006809E+02 0.  0.
         12    1    1    2    0    0  0.19110116098E+02  0.25728018738E+02  0.25020751590E+02  0.40659137910E+02  0.00000000000E+00 0. -1.
         11    1    3    3    0    0 -0.51716302449E+01  0.37412680852E+01 -0.14742401311E+01  0.65510480460E+01  0.51100000000E-03 0. -1.
        -11    1    3    3    0    0 -0.13445682147E+01  0.13830415215E+01 -0.60294947673E+01  0.63305193266E+01  0.51100000000E-03 0.  1.
        -12    1    3    3    0    0 -0.12593917639E+02 -0.30852328345E+02 -0.17517016691E+02  0.37647294717E+02  0.00000000000E+00 0.  1.
</event>
<event>
 7    1  0.8986500E-014  0.5052886E+02  0.7816164E-02  0.1300439E+00
        -11   -1    0    0    0    0  0.00000000000E+00  0.00000000000E+00  0.45593999997E+02  0.45594000000E+02  0.51100000000E-03 0. -1.
         11   -1    0    0    0    0 -0.00000000000E+00 -0.00000000000E+00 -0.45593999997E+02  0.45594000000E+02  0.51100000000E-03 0.  1.
    9900012    2    1    2    0    0  0.40885967489E+01  0.32092784141E+02  0.24627274072E+02  0.50528855327E+02  0.29999986251E+02 0.  0.
        -12    1    1    2    0    0 -0.40885967489E+01 -0.32092784141E+02 -0.24627274072E+02  0.40659144673E+02  0.00000000000E+00 0.  1.
         11    1    3    3    0    0 -0.38313573713E+01  0.40536479202E+01 -0.19161879309E+01  0.58977230534E+01  0.51100000000E-03 0. -1.
        -11    1    3    3    0    0 -0.13215681045E+01  0.87137234401E+00 -0.30329586296E+01  0.34212088984E+01  0.51100000000E-03 0.  1.
         12    1    3    3    0    0  0.92415222247E+01  0.27167763877E+02  0.29576420633E+02  0.41209923375E+02  0.00000000000E+00 0. -1.
</event>
<event>
 7    1  0.8986500E-014  0.5052886E+02  0.7816164E-02  0.1300439E+00
        -11   -1    0    0    0    0  0.00000000000E+00  0.00000000000E+00  0.45593999997E+02  0.45594000000E+02  0.51100000000E-03 0. -1.
         11   -1    0    0    0    0 -0.00000000000E+00 -0.00000000000E+00 -0.45593999997E+02  0.45594000000E+02  0.51100000000E-03 0.  1.
    9900012    2    1    2    0    0  0.35966808983E+02  0.60095739434E+01 -0.17984415927E+02  0.50528861499E+02  0.30000005013E+02 0.  0.
         12    1    1    2    0    0 -0.35966808983E+02 -0.60095739434E+01  0.17984415927E+02  0.40659138501E+02  0.00000000000E+00 0. -1.
         11    1    3    3    0    0  0.60222855093E+01 -0.31179024163E+01 -0.93198061606E+01  0.11525971775E+02  0.51100000000E-03 0. -1.
        -11    1    3    3    0    0  0.84664998244E+00 -0.53413463565E+01 -0.23588632234E+01  0.59000875469E+01  0.51100000000E-03 0.  1.
         12    1    3    3    0    0  0.29097873491E+02  0.14468822716E+02 -0.63057465429E+01  0.33102802177E+02  0.00000000000E+00 0. -1.
</event>
<event>
 7    1  0.8986500E-014  0.5052887E+02  0.7816164E-02  0.1300439E+00
        -11   -1    0    0    0    0  0.00000000000E+00  0.00000000000E+00  0.45593999997E+02  0.45594000000E+02  0.51100000000E-03 0. -1.
         11   -1    0    0    0    0 -0.00000000000E+00 -0.00000000000E+00 -0.45593999997E+02  0.45594000000E+02  0.51100000000E-03 0.  1.
    9900012    2    1    2    0    0 -0.12596693176E+02 -0.29034136378E+02  0.25524630340E+02  0.50528874232E+02  0.30000043716E+02 0.  0.
        -12    1    1    2    0    0  0.12596693176E+02  0.29034136378E+02 -0.25524630340E+02  0.40659125768E+02  0.00000000000E+00 0.  1.
         11    1    3    3    0    0 -0.40656198962E+01 -0.21309741948E+02  0.24408186487E+02  0.32655687634E+02  0.51100000000E-03 0. -1.
        -11    1    3    3    0    0 -0.74148679405E+00 -0.97517256714E+01  0.32478776480E+00  0.97852666591E+01  0.51100000000E-03 0.  1.
         12    1    3    3    0    0 -0.77895864853E+01  0.20273312412E+01  0.79165608872E+00  0.80879199388E+01  0.00000000000E+00 0. -1.
</event>
<event>
 7    1  0.8986500E-014  0.5052885E+02  0.7816164E-02  0.1300439E+00
        -11   -1    0    0    0    0  0.00000000000E+00  0.00000000000E+00  0.45593999997E+02  0.45594000000E+02  0.51100000000E-03 0. -1.
         11   -1    0    0    0    0 -0.00000000000E+00 -0.00000000000E+00 -0.45593999997E+02  0.45594000000E+02  0.51100000000E-03 0.  1.
    9900012    2    1    2    0    0  0.27476976375E+02  0.58110701503E+01 -0.29400919646E+02  0.50528845520E+02  0.29999956442E+02 0.  0.
         12    1    1    2    0    0 -0.27476976375E+02 -0.58110701503E+01  0.29400919646E+02  0.40659154480E+02  0.00000000000E+00 0. -1.
         11    1    3    3    0    0  0.39569511932E+01 -0.73111463100E+01 -0.97196775762E+01  0.12789935714E+02  0.51100000000E-03 0. -1.
        -11    1    3    3    0    0  0.17752541545E+02 -0.10550543696E+00 -0.11470079538E+02  0.21135907541E+02  0.51100000000E-03 0.  1.
        -12    1    3    3    0    0  0.57674836361E+01  0.13227721897E+02 -0.82111625324E+01  0.16603002265E+02  0.00000000000E+00 0.  1.
</event>
<event>
 7    1  0.8986500E-014  0.5052886E+02  0.7816164E-02  0.1300439E+00
        -11   -1    0    0    0    0  0.00000000000E+00  0.00000000000E+00  0.45593999997E+02  0.45594000000E+02  0.51100000000E-03 0. -1.
         11   -1    0    0    0    0 -0.00000000000E+00 -0.00000000000E+00 -0.45593999997E+02  0.45594000000E+02  0.51100000000E-03 0.  1.
    9900012    2    1    2    0    0  0.28078243442E+02  0.25355686227E+02  0.14895195661E+02  0.50528862864E+02  0.30000009162E+02 0.  0.
        -12    1    1    2    0    0 -0.28078243442E+02 -0.25355686227E+02 -0.14895195661E+02  0.40659137136E+02  0.00000000000E+00 0.  1.
         11    1    3    3    0    0  0.58124679564E+01  0.35294932750E+00  0.39649191020E+01  0.70448520721E+01  0.51100000000E-03 0. -1.
        -11    1    3    3    0    0 -0.20102902022E+01 -0.38105947138E+01  0.20683198561E+01  0.47791051524E+01  0.51100000000E-03 0.  1.
        -12    1    3    3    0    0  0.24276065688E+02  0.28813331614E+02  0.88619567032E+01  0.38704905640E+02  0.00000000000E+00 0.  1.
</event>
<event>
 7    1  0.8986500E-014  0.5052887E+02  0.7816164E-02  0.1300439E+00
        -11   -1    0    0    0    0  0.00000000000E+00  0.00000000000E+00  0.45593999997E+02  0.45594000000E+02  0.51100000000E-03 0. -1.
         11   -1    0    0    0    0 -0.00000000000E+00 -0.00000000000E+00 -0.45593999997E+02  0.45594000000E+02  0.51100000000E-03 0.  1.
    9900012    2    1    2    0    0  0.70492673704E+01  0.39858281542E+02 -0.38457347919E+01  0.50528874898E+02  0.30000045741E+02 0.  0.
         12    1    1    2    0    0 -0.70492673704E+01 -0.39858281542E+02  0.38457347919E+01  0.40659125102E+02  0.00000000000E+00 0. -1.
         11    1    3    3    0    0 -0.24659459997E+01 -0.83506386476E+00 -0.40430652550E+01  0.48088042432E+01  0.51100000000E-03 0. -1.
        -11    1    3    3    0    0  0.11327135351E+02  0.10943510516E+02 -0.17758789296E+01  0.15849863214E+02  0.51100000000E-03 0.  1.
        -12    1    3    3    0    0 -0.18119219804E+01  0.29749834891E+02  0.19732093927E+01  0.29870207441E+02  0.00000000000E+00 0.  1.
</event>
<event>
 7    1  0.8986500E-014  0.5052886E+02  0.7816164E-02  0.1300439E+00
        -11   -1    0    0    0    0  0.00000000000E+00  0.00000000000E+00  0.45593999997E+02  0.45594000000E+02  0.51100000000E-03 0.  1.
         11   -1    0    0    0    0 -0.00000000000E+00 -0.00000000000E+00 -0.45593999997E+02  0.45594000000E+02  0.51100000000E-03 0. -1.
    9900012    2    1    2    0    0  0.17335741035E+02 -0.36509247929E+02  0.44399060922E+01  0.50528857514E+02  0.29999992900E+02 0.  0.
        -12    1    1    2    0    0 -0.17335741035E+02  0.36509247929E+02 -0.44399060922E+01  0.40659142486E+02  0.00000000000E+00 0.  1.
         11    1    3    3    0    0  0.21183064698E+01  0.13832411998E+01  0.55883103828E+01  0.61343126520E+01  0.51100000000E-03 0.  1.
        -11    1    3    3    0    0  0.15090814500E+02 -0.14987232198E+02  0.15794246576E+01  0.21327081229E+02  0.51100000000E-03 0. -1.
         12    1    3    3    0    0  0.12662006499E+00 -0.22905256931E+02 -0.27278289482E+01  0.23067463634E+02  0.00000000000E+00 0. -1.
</event>
<event>
 7    1  0.8986500E-014  0.5052887E+02  0.7816164E-02  0.1300439E+00
        -11   -1    0    0    0    0  0.00000000000E+00  0.00000000000E+00  0.45593999997E+02  0.45594000000E+02  0.51100000000E-03 0. -1.
         11   -1    0    0    0    0 -0.00000000000E+00 -0.00000000000E+00 -0.45593999997E+02  0.45594000000E+02  0.51100000000E-03 0.  1.
    9900012    2    1    2    0    0  0.29870374806E+02  0.22678973976E+02  0.15703181950E+02  0.50528867262E+02  0.30000022530E+02 0.  0.
        -12    1    1    2    0    0 -0.29870374806E+02 -0.22678973976E+02 -0.15703181950E+02  0.40659132738E+02  0.00000000000E+00 0.  1.
         11    1    3    3    0    0 -0.10626059910E+01  0.14089235023E+01 -0.90756337986E+00  0.19844063286E+01  0.51100000000E-03 0.  1.
        -11    1    3    3    0    0 -0.11819896796E+01  0.52418808350E+01 -0.44082504186E+01  0.69503299422E+01  0.51100000000E-03 0. -1.
         12    1    3    3    0    0  0.32114970476E+02  0.16028169639E+02  0.21018995748E+02  0.41594130991E+02  0.00000000000E+00 0. -1.
</event>
<event>
 7    1  0.8986500E-014  0.5052886E+02  0.7816164E-02  0.1300439E+00
        -11   -1    0    0    0    0  0.00000000000E+00  0.00000000000E+00  0.45593999997E+02  0.45594000000E+02  0.51100000000E-03 0. -1.
         11   -1    0    0    0    0 -0.00000000000E+00 -0.00000000000E+00 -0.45593999997E+02  0.45594000000E+02  0.51100000000E-03 0.  1.
    9900012    2    1    2    0    0  0.52144878475E+01 -0.18877818925E+02  0.35631481835E+02  0.50528862914E+02  0.30000009312E+02 0.  0.
        -12    1    1    2    0    0 -0.52144878475E+01  0.18877818925E+02 -0.35631481835E+02  0.40659137086E+02  0.00000000000E+00 0.  1.
         11    1    3    3    0    0  0.53894563614E+01 -0.11752915331E+02  0.17614535581E+02  0.21850609205E+02  0.51100000000E-03 0. -1.
        -11    1    3    3    0    0 -0.48046013534E+01 -0.38284447374E+01 -0.30495199234E+01  0.68586263418E+01  0.51100000000E-03 0.  1.
         12    1    3    3    0    0  0.46296328396E+01 -0.32964588567E+01  0.21066466177E+02  0.21819627366E+02  0.00000000000E+00 0. -1.
</event>
<event>
 7    1  0.8986500E-014  0.5052886E+02  0.7816164E-02  0.1300439E+00
        -11   -1    0    0    0    0  0.00000000000E+00  0.00000000000E+00  0.45593999997E+02  0.45594000000E+02  0.51100000000E-03 0. -1.
         11   -1    0    0    0    0 -0.00000000000E+00 -0.00000000000E+00 -0.45593999997E+02  0.45594000000E+02  0.51100000000E-03 0.  1.
    9900012    2    1    2    0    0  0.14855978828E+01 -0.36328195513E+02  0.18199464273E+02  0.50528864617E+02  0.30000014490E+02 0.  0.
        -12    1    1    2    0    0 -0.14855978828E+01  0.36328195513E+02 -0.18199464273E+02  0.40659135383E+02  0.00000000000E+00 0.  1.
         11    1    3    3    0    0  0.45758365125E+01 -0.98434967115E+01  0.17307185388E+02  0.20429668955E+02  0.51100000000E-03 0. -1.
        -11    1    3    3    0    0 -0.84035999128E+01 -0.14526997316E+02  0.22967782215E+01  0.16938988546E+02  0.51100000000E-03 0.  1.
         12    1    3    3    0    0  0.53133612830E+01 -0.11957701486E+02 -0.14044993372E+01  0.13160207116E+02  0.00000000000E+00 0. -1.
</event>
<event>
 7    1  0.8986500E-014  0.5052886E+02  0.7816164E-02  0.1300439E+00
        -11   -1    0    0    0    0  0.00000000000E+00  0.00000000000E+00  0.45593999997E+02  0.45594000000E+02  0.51100000000E-03 0. -1.
         11   -1    0    0    0    0 -0.00000000000E+00 -0.00000000000E+00 -0.45593999997E+02  0.45594000000E+02  0.51100000000E-03 0.  1.
    9900012    2    1    2    0    0 -0.88597166563E+01 -0.86199626259E+01  0.38734570693E+02  0.50528864475E+02  0.30000014058E+02 0.  0.
        -12    1    1    2    0    0  0.88597166563E+01  0.86199626259E+01 -0.38734570693E+02  0.40659135525E+02  0.00000000000E+00 0.  1.
         11    1    3    3    0    0  0.26919172301E+01  0.30106147347E+01  0.56821451797E+01  0.69711543922E+01  0.51100000000E-03 0. -1.
        -11    1    3    3    0    0  0.47175126494E+01 -0.38944342983E+01  0.21025041531E+02  0.21896892833E+02  0.51100000000E-03 0.  1.
        -12    1    3    3    0    0 -0.16269146536E+02 -0.77361430623E+01  0.12027383982E+02  0.21660817250E+02  0.00000000000E+00 0.  1.
</event>
<event>
 7    1  0.8986500E-014  0.5052886E+02  0.7816164E-02  0.1300439E+00
        -11   -1    0    0    0    0  0.00000000000E+00  0.00000000000E+00  0.45593999997E+02  0.45594000000E+02  0.51100000000E-03 0.  1.
         11   -1    0    0    0    0 -0.00000000000E+00 -0.00000000000E+00 -0.45593999997E+02  0.45594000000E+02  0.51100000000E-03 0. -1.
    9900012    2    1    2    0    0 -0.26847474645E+02 -0.30474219344E+02  0.19237330541E+01  0.50528859720E+02  0.29999999605E+02 0.  0.
         12    1    1    2    0    0  0.26847474645E+02  0.30474219344E+02 -0.19237330541E+01  0.40659140280E+02  0.00000000000E+00 0. -1.
         11    1    3    3    0    0  0.57701063984E+01 -0.32454959914E+01 -0.22650407712E+01  0.69969837813E+01  0.51100000000E-03 0. -1.
        -11    1    3    3    0    0 -0.19651503818E+02 -0.12920304724E+02 -0.99296046362E+00  0.23539368029E+02  0.51100000000E-03 0.  1.
        -12    1    3    3    0    0 -0.12966077225E+02 -0.14308418629E+02  0.51817342890E+01  0.19992507909E+02  0.00000000000E+00 0.  1.
</event>
<event>
 7    1  0.8986500E-014  0.5052884E+02  0.7816164E-02  0.1300439E+00
        -11   -1    0    0    0    0  0.00000000000E+00  0.00000000000E+00  0.45593999997E+02  0.45594000000E+02  0.51100000000E-03 0. -1.
         11   -1    0    0    0    0 -0.00000000000E+00 -0.00000000000E+00 -0.45593999997E+02  0.45594000000E+02  0.51100000000E-03 0.  1.
    9900012    2    1    2    0    0 -0.12999810490E+02 -0.35977366989E+02 -0.13776830617E+02  0.50528842728E+02  0.29999947955E+02 0.  0.
         12    1    1    2    0    0  0.12999810490E+02  0.35977366989E+02  0.13776830617E+02  0.40659157272E+02  0.00000000000E+00 0. -1.
         11    1    3    3    0    0  0.34766792332E+01 -0.79473582241E+01  0.38255205627E+01  0.94806333686E+01  0.51100000000E-03 0. -1.
        -11    1    3    3    0    0 -0.97182988710E+00 -0.37213231509E+01 -0.10743542642E+02  0.11411240427E+02  0.51100000000E-03 0.  1.
        -12    1    3    3    0    0 -0.15504659836E+02 -0.24308685614E+02 -0.68588085383E+01  0.29636968932E+02  0.00000000000E+00 0.  1.
</event>
<event>
 7    1  0.8986500E-014  0.5052885E+02  0.7816164E-02  0.1300439E+00
        -11   -1    0    0    0    0  0.00000000000E+00  0.00000000000E+00  0.45593999997E+02  0.45594000000E+02  0.51100000000E-03 0. -1.
         11   -1    0    0    0    0 -0.00000000000E+00 -0.00000000000E+00 -0.45593999997E+02  0.45594000000E+02  0.51100000000E-03 0.  1.
    9900012    2    1    2    0    0  0.94368691742E+01  0.11470318259E+02 -0.37848954847E+02  0.50528854857E+02  0.29999984822E+02 0.  0.
         12    1    1    2    0    0 -0.94368691742E+01 -0.11470318259E+02  0.37848954847E+02  0.40659145143E+02  0.00000000000E+00 0. -1.
         11    1    3    3    0    0 -0.57353154233E+01  0.32936228330E+01 -0.30201410738E+02  0.30917098913E+02  0.51100000000E-03 0. -1.
        -11    1    3    3    0    0  0.20356835480E+01  0.47557120263E+00 -0.30644077846E+01  0.37095512946E+01  0.51100000000E-03 0.  1.
        -12    1    3    3    0    0  0.13136501050E+02  0.77011242232E+01 -0.45831363246E+01  0.15902204649E+02  0.00000000000E+00 0.  1.
</event>
<event>
 7    1  0.8986500E-014  0.5052886E+02  0.7816164E-02  0.1300439E+00
        -11   -1    0    0    0    0  0.00000000000E+00  0.00000000000E+00  0.45593999997E+02  0.45594000000E+02  0.51100000000E-03 0. -1.
         11   -1    0    0    0    0 -0.00000000000E+00 -0.00000000000E+00 -0.45593999997E+02  0.45594000000E+02  0.51100000000E-03 0.  1.
    9900012    2    1    2    0    0 -0.10801387150E+02  0.22009354651E+02  0.32435845742E+02  0.50528859016E+02  0.29999997466E+02 0.  0.
        -12    1    1    2    0    0  0.10801387150E+02 -0.22009354651E+02 -0.32435845742E+02  0.40659140984E+02  0.00000000000E+00 0.  1.
         11    1    3    3    0    0  0.19797138308E+00  0.23850560555E-01  0.17155033192E+01  0.17270533914E+01  0.51100000000E-03 0. -1.
        -11    1    3    3    0    0  0.86113886925E+01  0.71719900005E+00  0.10005953411E+02  0.13220797765E+02  0.51100000000E-03 0.  1.
         12    1    3    3    0    0 -0.19610747225E+02  0.21268305091E+02  0.20714389012E+02  0.35581007860E+02  0.00000000000E+00 0. -1.
</event>
<event>
 7    1  0.8986500E-014  0.5052886E+02  0.7816164E-02  0.1300439E+00
        -11   -1    0    0    0    0  0.00000000000E+00  0.00000000000E+00  0.45593999997E+02  0.45594000000E+02  0.51100000000E-03 0. -1.
         11   -1    0    0    0    0 -0.00000000000E+00 -0.00000000000E+00 -0.45593999997E+02  0.45594000000E+02  0.51100000000E-03 0.  1.
    9900012    2    1    2    0    0  0.83495031224E+01 -0.44935062171E+01 -0.39538077709E+02  0.50528863395E+02  0.30000010776E+02 0.  0.
         12    1    1    2    0    0 -0.83495031224E+01  0.44935062171E+01  0.39538077709E+02  0.40659136605E+02  0.00000000000E+00 0. -1.
         11    1    3    3    0    0  0.15778354583E+00  0.98240031459E+01 -0.79992703573E+01  0.12669816888E+02  0.51100000000E-03 0. -1.
        -11    1    3    3    0    0 -0.13027160639E+01 -0.16599354233E+00 -0.11409548499E+02  0.11484877893E+02  0.51100000000E-03 0.  1.
        -12    1    3    3    0    0  0.94944356405E+01 -0.14151515821E+02 -0.20129258852E+02  0.26374168615E+02  0.00000000000E+00 0.  1.
</event>
<event>
 7    1  0.8986500E-014  0.5052892E+02  0.7816164E-02  0.1300439E+00
        -11   -1    0    0    0    0  0.00000000000E+00  0.00000000000E+00  0.45593999997E+02  0.45594000000E+02  0.51100000000E-03 0.  1.
         11   -1    0    0    0    0 -0.00000000000E+00 -0.00000000000E+00 -0.45593999997E+02  0.45594000000E+02  0.51100000000E-03 0. -1.
    9900012    2    1    2    0    0  0.35851358928E+02  0.69938293227E+01 -0.17858528905E+02  0.50528921798E+02  0.30000188297E+02 0.  0.
         12    1    1    2    0    0 -0.35851358928E+02 -0.69938293227E+01  0.17858528905E+02  0.40659078202E+02  0.00000000000E+00 0. -1.
         11    1    3    3    0    0  0.44178706855E+01  0.71563477273E+01 -0.11322028753E+02  0.14103872855E+02  0.51100000000E-03 0. -1.
        -11    1    3    3    0    0  0.16448626954E+02 -0.40224691349E+01 -0.11153955793E+02  0.20276792564E+02  0.51100000000E-03 0.  1.
        -12    1    3    3    0    0  0.14984861289E+02  0.38599507303E+01  0.46174556400E+01  0.16148256379E+02  0.00000000000E+00 0.  1.
</event>
<event>
 7    1  0.8986500E-014  0.5052886E+02  0.7816164E-02  0.1300439E+00
        -11   -1    0    0    0    0  0.00000000000E+00  0.00000000000E+00  0.45593999997E+02  0.45594000000E+02  0.51100000000E-03 0. -1.
         11   -1    0    0    0    0 -0.00000000000E+00 -0.00000000000E+00 -0.45593999997E+02  0.45594000000E+02  0.51100000000E-03 0.  1.
    9900012    2    1    2    0    0 -0.20197450026E+02  0.68234533840E+01  0.34621806254E+02  0.50528856232E+02  0.29999989004E+02 0.  0.
        -12    1    1    2    0    0  0.20197450026E+02 -0.68234533840E+01 -0.34621806254E+02  0.40659143768E+02  0.00000000000E+00 0.  1.
         11    1    3    3    0    0 -0.91110050713E+01  0.50342054001E+01  0.60806874618E+01  0.12055222839E+02  0.51100000000E-03 0. -1.
        -11    1    3    3    0    0 -0.14024809129E+02  0.94981653796E+01  0.15042797730E+02  0.22653833682E+02  0.51100000000E-03 0.  1.
         12    1    3    3    0    0  0.29383641740E+01 -0.77089173957E+01  0.13498321062E+02  0.15819799712E+02  0.00000000000E+00 0. -1.
</event>
<event>
 7    1  0.8986500E-014  0.5052886E+02  0.7816164E-02  0.1300439E+00
        -11   -1    0    0    0    0  0.00000000000E+00  0.00000000000E+00  0.45593999997E+02  0.45594000000E+02  0.51100000000E-03 0. -1.
         11   -1    0    0    0    0 -0.00000000000E+00 -0.00000000000E+00 -0.45593999997E+02  0.45594000000E+02  0.51100000000E-03 0.  1.
    9900012    2    1    2    0    0  0.11907159713E+02 -0.29209162082E+01  0.38766651673E+02  0.50528862209E+02  0.30000007171E+02 0.  0.
        -12    1    1    2    0    0 -0.11907159713E+02  0.29209162082E+01 -0.38766651673E+02  0.40659137791E+02  0.00000000000E+00 0.  1.
         11    1    3    3    0    0  0.10097941539E+02  0.46961680263E+01  0.18527105713E+02  0.21616569196E+02  0.51100000000E-03 0. -1.
        -11    1    3    3    0    0  0.81245109930E+01  0.26682601725E+01  0.76870651326E+01  0.11498619997E+02  0.51100000000E-03 0.  1.
         12    1    3    3    0    0 -0.63152928191E+01 -0.10285344407E+02  0.12552480828E+02  0.17413673016E+02  0.00000000000E+00 0. -1.
</event>
<event>
 7    1  0.8986500E-014  0.5052886E+02  0.7816164E-02  0.1300439E+00
        -11   -1    0    0    0    0  0.00000000000E+00  0.00000000000E+00  0.45593999997E+02  0.45594000000E+02  0.51100000000E-03 0.  1.
         11   -1    0    0    0    0 -0.00000000000E+00 -0.00000000000E+00 -0.45593999997E+02  0.45594000000E+02  0.51100000000E-03 0. -1.
    9900012    2    1    2    0    0  0.16726792999E+02  0.32805293079E+02  0.17239287386E+02  0.50528857269E+02  0.29999992155E+02 0.  0.
        -12    1    1    2    0    0 -0.16726792999E+02 -0.32805293079E+02 -0.17239287386E+02  0.40659142731E+02  0.00000000000E+00 0.  1.
         11    1    3    3    0    0  0.35495019091E+01  0.13673762789E+02  0.11911256622E+02  0.18478332911E+02  0.51100000000E-03 0. -1.
        -11    1    3    3    0    0  0.29805637203E+01  0.12526798781E+02  0.12497300669E+02  0.17943995432E+02  0.51100000000E-03 0.  1.
         12    1    3    3    0    0  0.10196727370E+02  0.66047315091E+01 -0.71692699050E+01  0.14106528926E+02  0.00000000000E+00 0. -1.
</event>
<event>
 7    1  0.8986500E-014  0.5052887E+02  0.7816164E-02  0.1300439E+00
        -11   -1    0    0    0    0  0.00000000000E+00  0.00000000000E+00  0.45593999997E+02  0.45594000000E+02  0.51100000000E-03 0. -1.
         11   -1    0    0    0    0 -0.00000000000E+00 -0.00000000000E+00 -0.45593999997E+02  0.45594000000E+02  0.51100000000E-03 0.  1.
    9900012    2    1    2    0    0  0.51861267713E+01  0.34660338551E+02  0.20613832714E+02  0.50528867219E+02  0.30000022398E+02 0.  0.
        -12    1    1    2    0    0 -0.51861267713E+01 -0.34660338551E+02 -0.20613832714E+02  0.40659132781E+02  0.00000000000E+00 0.  1.
         11    1    3    3    0    0  0.84064945652E+01  0.12281373522E+02  0.19912258483E+02  0.24859592206E+02  0.51100000000E-03 0. -1.
        -11    1    3    3    0    0 -0.53352081243E+00  0.35097269015E+00 -0.30909942467E+01  0.31562750167E+01  0.51100000000E-03 0.  1.
        -12    1    3    3    0    0 -0.26868469814E+01  0.22027992339E+02  0.37925684773E+01  0.22512999996E+02  0.00000000000E+00 0.  1.
</event>
<event>
 7    1  0.8986500E-014  0.5052887E+02  0.7816164E-02  0.1300439E+00
        -11   -1    0    0    0    0  0.00000000000E+00  0.00000000000E+00  0.45593999997E+02  0.45594000000E+02  0.51100000000E-03 0. -1.
         11   -1    0    0    0    0 -0.00000000000E+00 -0.00000000000E+00 -0.45593999997E+02  0.45594000000E+02  0.51100000000E-03 0.  1.
    9900012    2    1    2    0    0  0.41187651808E+00 -0.14924940079E+02  0.37818531099E+02  0.50528870975E+02  0.30000033815E+02 0.  0.
        -12    1    1    2    0    0 -0.41187651808E+00  0.14924940079E+02 -0.37818531099E+02  0.40659129025E+02  0.00000000000E+00 0.  1.
         11    1    3    3    0    0  0.69896136256E+01  0.21878941468E+00  0.33127112091E+01  0.77379986598E+01  0.51100000000E-03 0. -1.
        -11    1    3    3    0    0  0.73111661562E+00 -0.13682609525E+01 -0.23248129206E+01  0.27948926485E+01  0.51100000000E-03 0.  1.
        -12    1    3    3    0    0 -0.73088537231E+01 -0.13775468541E+02  0.36830632810E+02  0.39995979666E+02  0.00000000000E+00 0.  1.
</event>
<event>
 7    1  0.8986500E-014  0.5052886E+02  0.7816164E-02  0.1300439E+00
        -11   -1    0    0    0    0  0.00000000000E+00  0.00000000000E+00  0.45593999997E+02  0.45594000000E+02  0.51100000000E-03 0. -1.
         11   -1    0    0    0    0 -0.00000000000E+00 -0.00000000000E+00 -0.45593999997E+02  0.45594000000E+02  0.51100000000E-03 0.  1.
    9900012    2    1    2    0    0  0.13367179781E+02 -0.39743290144E+01  0.38192785171E+02  0.50528860492E+02  0.30000001952E+02 0.  0.
        -12    1    1    2    0    0 -0.13367179781E+02  0.39743290144E+01 -0.38192785171E+02  0.40659139508E+02  0.00000000000E+00 0.  1.
         11    1    3    3    0    0  0.46779875050E+00  0.17200256099E+01  0.21391853442E+01  0.27844995902E+01  0.51100000000E-03 0. -1.
        -11    1    3    3    0    0  0.10067663701E+02 -0.71851159777E+01  0.85240033240E+00  0.12397997040E+02  0.51100000000E-03 0.  1.
        -12    1    3    3    0    0  0.28317173291E+01  0.14907613535E+01  0.35201199494E+02  0.35346363862E+02  0.00000000000E+00 0.  1.
</event>
<event>
 7    1  0.8986500E-014  0.5052884E+02  0.7816164E-02  0.1300439E+00
        -11   -1    0    0    0    0  0.00000000000E+00  0.00000000000E+00  0.45593999997E+02  0.45594000000E+02  0.51100000000E-03 0. -1.
         11   -1    0    0    0    0 -0.00000000000E+00 -0.00000000000E+00 -0.45593999997E+02  0.45594000000E+02  0.51100000000E-03 0.  1.
    9900012    2    1    2    0    0 -0.38633791440E+02 -0.10922753183E+02  0.64257694598E+01  0.50528844927E+02  0.29999954640E+02 0.  0.
        -12    1    1    2    0    0  0.38633791440E+02  0.10922753183E+02 -0.64257694598E+01  0.40659155073E+02  0.00000000000E+00 0.  1.
         11    1    3    3    0    0  0.19145566487E+01 -0.43825660570E+01  0.33458918462E+01  0.58367289566E+01  0.51100000000E-03 0. -1.
        -11    1    3    3    0    0 -0.13085630478E+01 -0.19470045154E+01  0.45909013452E+01  0.51555348176E+01  0.51100000000E-03 0.  1.
        -12    1    3    3    0    0 -0.39239785041E+02 -0.45931826108E+01 -0.15110237316E+01  0.39536581153E+02  0.00000000000E+00 0.  1.
</event>
<event>
 7    1  0.8986500E-014  0.5052882E+02  0.7816164E-02  0.1300439E+00
        -11   -1    0    0    0    0  0.00000000000E+00  0.00000000000E+00  0.45593999997E+02  0.45594000000E+02  0.51100000000E-03 0. -1.
         11   -1    0    0    0    0 -0.00000000000E+00 -0.00000000000E+00 -0.45593999997E+02  0.45594000000E+02  0.51100000000E-03 0.  1.
    9900012    2    1    2    0    0 -0.29905539107E+02 -0.20584182012E+02 -0.18306247492E+02  0.50528824952E+02  0.29999893923E+02 0.  0.
         12    1    1    2    0    0  0.29905539107E+02  0.20584182012E+02  0.18306247492E+02  0.40659175048E+02  0.00000000000E+00 0. -1.
         11    1    3    3    0    0 -0.94362405347E+01 -0.12351651187E+02 -0.14631732574E+01  0.15612392472E+02  0.51100000000E-03 0. -1.
        -11    1    3    3    0    0 -0.19929368872E+02 -0.10451034257E+02 -0.52593657977E+01  0.23109841833E+02  0.51100000000E-03 0.  1.
         12    1    3    3    0    0 -0.53992970032E+00  0.22185034315E+01 -0.11583708437E+02  0.11806590647E+02  0.00000000000E+00 0. -1.
</event>
<event>
 7    1  0.8986500E-014  0.5052875E+02  0.7816164E-02  0.1300439E+00
        -11   -1    0    0    0    0  0.00000000000E+00  0.00000000000E+00  0.45593999997E+02  0.45594000000E+02  0.51100000000E-03 0. -1.
         11   -1    0    0    0    0 -0.00000000000E+00 -0.00000000000E+00 -0.45593999997E+02  0.45594000000E+02  0.51100000000E-03 0.  1.
    9900012    2    1    2    0    0 -0.19691148687E+02 -0.13136082318E+02  0.33058686091E+02  0.50528748638E+02  0.29999661958E+02 0.  0.
        -12    1    1    2    0    0  0.19691148687E+02  0.13136082318E+02 -0.33058686091E+02  0.40659251362E+02  0.00000000000E+00 0.  1.
         11    1    3    3    0    0 -0.13426410982E+02 -0.15361591141E+02  0.28334892105E+02  0.34915800222E+02  0.51100000000E-03 0. -1.
        -11    1    3    3    0    0 -0.17930025594E+01 -0.50946702713E+01  0.45034084244E+01  0.70321555052E+01  0.51100000000E-03 0.  1.
        -12    1    3    3    0    0 -0.44717351456E+01  0.73201790944E+01  0.22038556137E+00  0.85807929110E+01  0.00000000000E+00 0.  1.
</event>
<event>
 7    1  0.8986500E-014  0.5052881E+02  0.7816164E-02  0.1300439E+00
        -11   -1    0    0    0    0  0.00000000000E+00  0.00000000000E+00  0.45593999997E+02  0.45594000000E+02  0.51100000000E-03 0.  1.
         11   -1    0    0    0    0 -0.00000000000E+00 -0.00000000000E+00 -0.45593999997E+02  0.45594000000E+02  0.51100000000E-03 0. -1.
    9900012    2    1    2    0    0 -0.32710650423E+02  0.40970756308E+01  0.23799092968E+02  0.50528812773E+02  0.29999856905E+02 0.  0.
        -12    1    1    2    0    0  0.32710650423E+02 -0.40970756308E+01 -0.23799092968E+02  0.40659187227E+02  0.00000000000E+00 0.  1.
         11    1    3    3    0    0 -0.16867395368E+02  0.23076222927E+01 -0.20693984715E+00  0.17025773741E+02  0.51100000000E-03 0. -1.
        -11    1    3    3    0    0 -0.63459803278E+01  0.43238177065E+01  0.12704465421E+00  0.76800394846E+01  0.51100000000E-03 0.  1.
        -12    1    3    3    0    0 -0.94972747279E+01 -0.25343643683E+01  0.23878988161E+02  0.25822999547E+02  0.00000000000E+00 0.  1.
</event>
<event>
 7    1  0.8986500E-014  0.5052887E+02  0.7816164E-02  0.1300439E+00
        -11   -1    0    0    0    0  0.00000000000E+00  0.00000000000E+00  0.45593999997E+02  0.45594000000E+02  0.51100000000E-03 0. -1.
         11   -1    0    0    0    0 -0.00000000000E+00 -0.00000000000E+00 -0.45593999997E+02  0.45594000000E+02  0.51100000000E-03 0.  1.
    9900012    2    1    2    0    0 -0.37122696455E+02 -0.93882889006E+01 -0.13672251434E+02  0.50528867940E+02  0.30000024591E+02 0.  0.
         12    1    1    2    0    0  0.37122696455E+02  0.93882889006E+01  0.13672251434E+02  0.40659132060E+02  0.00000000000E+00 0. -1.
         11    1    3    3    0    0 -0.39239639514E+00 -0.63995122624E+01  0.12022704065E+01  0.65232803496E+01  0.51100000000E-03 0. -1.
        -11    1    3    3    0    0  0.14846945725E+01 -0.14083986057E+01  0.13578444903E+01  0.24559410675E+01  0.51100000000E-03 0.  1.
        -12    1    3    3    0    0 -0.38214994633E+02 -0.15803780325E+01 -0.16232366330E+02  0.41549646523E+02  0.00000000000E+00 0.  1.
</event>
<event>
 7    1  0.8986500E-014  0.5052886E+02  0.7816164E-02  0.1300439E+00
        -11   -1    0    0    0    0  0.00000000000E+00  0.00000000000E+00  0.45593999997E+02  0.45594000000E+02  0.51100000000E-03 0. -1.
         11   -1    0    0    0    0 -0.00000000000E+00 -0.00000000000E+00 -0.45593999997E+02  0.45594000000E+02  0.51100000000E-03 0.  1.
    9900012    2    1    2    0    0  0.16192789575E+02  0.72516379614E+01 -0.36583777683E+02  0.50528862320E+02  0.30000007506E+02 0.  0.
         12    1    1    2    0    0 -0.16192789575E+02 -0.72516379614E+01  0.36583777683E+02  0.40659137680E+02  0.00000000000E+00 0. -1.
         11    1    3    3    0    0  0.66592764060E+01  0.26308740345E+01 -0.21517605194E+01  0.74764653434E+01  0.51100000000E-03 0. -1.
        -11    1    3    3    0    0  0.13266445205E+02  0.40199065972E+01 -0.73163905109E+01  0.15674431020E+02  0.51100000000E-03 0.  1.
         12    1    3    3    0    0 -0.37329320360E+01  0.60085732967E+00 -0.27115626653E+02  0.27377965956E+02  0.00000000000E+00 0. -1.
</event>
<event>
 7    1  0.8986500E-014  0.5052888E+02  0.7816164E-02  0.1300439E+00
        -11   -1    0    0    0    0  0.00000000000E+00  0.00000000000E+00  0.45593999997E+02  0.45594000000E+02  0.51100000000E-03 0.  1.
         11   -1    0    0    0    0 -0.00000000000E+00 -0.00000000000E+00 -0.45593999997E+02  0.45594000000E+02  0.51100000000E-03 0. -1.
    9900012    2    1    2    0    0  0.28867422908E+01  0.35535584199E+02  0.19546172985E+02  0.50528881665E+02  0.30000066308E+02 0.  0.
        -12    1    1    2    0    0 -0.28867422908E+01 -0.35535584199E+02 -0.19546172985E+02  0.40659118335E+02  0.00000000000E+00 0.  1.
         11    1    3    3    0    0 -0.99861831047E+00  0.10611093474E+02  0.99865037811E+01  0.14605574322E+02  0.51100000000E-03 0. -1.
        -11    1    3    3    0    0  0.55054876006E+01  0.23858769925E+02  0.15965122060E+02  0.29230744410E+02  0.51100000000E-03 0.  1.
        -12    1    3    3    0    0 -0.16201269993E+01  0.10657208000E+01 -0.64054528564E+01  0.66925629330E+01  0.00000000000E+00 0.  1.
</event>
<event>
 7    1  0.8986500E-014  0.5052886E+02  0.7816164E-02  0.1300439E+00
        -11   -1    0    0    0    0  0.00000000000E+00  0.00000000000E+00  0.45593999997E+02  0.45594000000E+02  0.51100000000E-03 0. -1.
         11   -1    0    0    0    0 -0.00000000000E+00 -0.00000000000E+00 -0.45593999997E+02  0.45594000000E+02  0.51100000000E-03 0.  1.
    9900012    2    1    2    0    0  0.62408663538E+01  0.33905697401E+02 -0.21555068020E+02  0.50528859743E+02  0.29999999675E+02 0.  0.
         12    1    1    2    0    0 -0.62408663538E+01 -0.33905697401E+02  0.21555068020E+02  0.40659140257E+02  0.00000000000E+00 0. -1.
         11    1    3    3    0    0 -0.62430891205E+01  0.61551217640E+00 -0.69178393849E+01  0.93387107794E+01  0.51100000000E-03 0. -1.
        -11    1    3    3    0    0  0.20115852003E+01  0.25111745068E+02 -0.89180625322E+01  0.26724109994E+02  0.51100000000E-03 0.  1.
        -12    1    3    3    0    0  0.10472370274E+02  0.81784401562E+01 -0.57191661033E+01  0.14466038969E+02  0.00000000000E+00 0.  1.
</event>
<event>
 7    1  0.8986500E-014  0.5052887E+02  0.7816164E-02  0.1300439E+00
        -11   -1    0    0    0    0  0.00000000000E+00  0.00000000000E+00  0.45593999997E+02  0.45594000000E+02  0.51100000000E-03 0. -1.
         11   -1    0    0    0    0 -0.00000000000E+00 -0.00000000000E+00 -0.45593999997E+02  0.45594000000E+02  0.51100000000E-03 0.  1.
    9900012    2    1    2    0    0  0.48514056243E+01  0.18472880187E+02 -0.35894032058E+02  0.50528868476E+02  0.30000026220E+02 0.  0.
         12    1    1    2    0    0 -0.48514056243E+01 -0.18472880187E+02  0.35894032058E+02  0.40659131524E+02  0.00000000000E+00 0. -1.
         11    1    3    3    0    0 -0.34875778034E+01 -0.24499982101E+01 -0.23786822608E+01  0.48809650402E+01  0.51100000000E-03 0. -1.
        -11    1    3    3    0    0 -0.44009635367E+01  0.49725119262E+01 -0.20229562270E+02  0.21291536929E+02  0.51100000000E-03 0.  1.
        -12    1    3    3    0    0  0.12739946964E+02  0.15950366471E+02 -0.13285787527E+02  0.24356366507E+02  0.00000000000E+00 0.  1.
</event>
<event>
 7    1  0.8986500E-014  0.5052885E+02  0.7816164E-02  0.1300439E+00
        -11   -1    0    0    0    0  0.00000000000E+00  0.00000000000E+00  0.45593999997E+02  0.45594000000E+02  0.51100000000E-03 0. -1.
         11   -1    0    0    0    0 -0.00000000000E+00 -0.00000000000E+00 -0.45593999997E+02  0.45594000000E+02  0.51100000000E-03 0.  1.
    9900012    2    1    2    0    0  0.15586028604E+02 -0.27840730865E+02  0.25201897192E+02  0.50528853368E+02  0.29999980297E+02 0.  0.
        -12    1    1    2    0    0 -0.15586028604E+02  0.27840730865E+02 -0.25201897192E+02  0.40659146632E+02  0.00000000000E+00 0.  1.
         11    1    3    3    0    0  0.12756598221E+02 -0.52850277333E+00  0.11056540588E+02  0.16889559005E+02  0.51100000000E-03 0. -1.
        -11    1    3    3    0    0 -0.45424445691E+01 -0.70116491730E+01  0.11495884498E+01  0.84331833049E+01  0.51100000000E-03 0.  1.
        -12    1    3    3    0    0  0.73718749529E+01 -0.20300578919E+02  0.12995768155E+02  0.25206111058E+02  0.00000000000E+00 0.  1.
</event>
<event>
 7    1  0.8986500E-014  0.5052877E+02  0.7816164E-02  0.1300439E+00
        -11   -1    0    0    0    0  0.00000000000E+00  0.00000000000E+00  0.45593999997E+02  0.45594000000E+02  0.51100000000E-03 0. -1.
         11   -1    0    0    0    0 -0.00000000000E+00 -0.00000000000E+00 -0.45593999997E+02  0.45594000000E+02  0.51100000000E-03 0.  1.
    9900012    2    1    2    0    0 -0.16493036855E+01  0.10348505424E+02  0.39285636690E+02  0.50528769593E+02  0.29999725652E+02 0.  0.
        -12    1    1    2    0    0  0.16493036855E+01 -0.10348505424E+02 -0.39285636690E+02  0.40659230407E+02  0.00000000000E+00 0.  1.
         11    1    3    3    0    0  0.40617845429E+01 -0.29132610535E+01  0.73133220023E+00  0.50517354134E+01  0.51100000000E-03 0. -1.
        -11    1    3    3    0    0  0.69145490712E+00 -0.11663974806E+01 -0.17372566828E+01  0.22037817529E+01  0.51100000000E-03 0.  1.
         12    1    3    3    0    0 -0.64025431355E+01  0.14428163958E+02  0.40291561173E+02  0.43273252426E+02  0.00000000000E+00 0. -1.
</event>
<event>
 7    1  0.8986500E-014  0.5052885E+02  0.7816164E-02  0.1300439E+00
        -11   -1    0    0    0    0  0.00000000000E+00  0.00000000000E+00  0.45593999997E+02  0.45594000000E+02  0.51100000000E-03 0. -1.
         11   -1    0    0    0    0 -0.00000000000E+00 -0.00000000000E+00 -0.45593999997E+02  0.45594000000E+02  0.51100000000E-03 0.  1.
    9900012    2    1    2    0    0 -0.23541392618E+02 -0.30678358906E+02 -0.12562142623E+02  0.50528852212E+02  0.29999976785E+02 0.  0.
         12    1    1    2    0    0  0.23541392618E+02  0.30678358906E+02  0.12562142623E+02  0.40659147788E+02  0.00000000000E+00 0. -1.
         11    1    3    3    0    0 -0.44454879116E+01 -0.46858799055E+00  0.73192465476E+00  0.45296414249E+01  0.51100000000E-03 0. -1.
        -11    1    3    3    0    0 -0.59509105487E+01  0.98230109937E+00 -0.10405875243E+02  0.12027489000E+02  0.51100000000E-03 0.  1.
        -12    1    3    3    0    0 -0.13144994158E+02 -0.31192072014E+02 -0.28881920344E+01  0.33971721787E+02  0.00000000000E+00 0.  1.
</event>
<event>
 7    1  0.8986500E-014  0.5052887E+02  0.7816164E-02  0.1300439E+00
        -11   -1    0    0    0    0  0.00000000000E+00  0.00000000000E+00  0.45593999997E+02  0.45594000000E+02  0.51100000000E-03 0. -1.
         11   -1    0    0    0    0 -0.00000000000E+00 -0.00000000000E+00 -0.45593999997E+02  0.45594000000E+02  0.51100000000E-03 0.  1.
    9900012    2    1    2    0    0  0.28103124620E+01  0.33434520131E+02  0.22965194186E+02  0.50528866505E+02  0.30000020229E+02 0.  0.
        -12    1    1    2    0    0 -0.28103124620E+01 -0.33434520131E+02 -0.22965194186E+02  0.40659133495E+02  0.00000000000E+00 0.  1.
         11    1    3    3    0    0 -0.80045135264E+01  0.11447852756E+02  0.23584533768E+01  0.14166434700E+02  0.51100000000E-03 0. -1.
        -11    1    3    3    0    0  0.53402095247E+01  0.85538169082E+01 -0.12176164059E+01  0.10157175367E+02  0.51100000000E-03 0.  1.
        -12    1    3    3    0    0  0.54746164638E+01  0.13432850467E+02  0.21824357215E+02  0.26205256437E+02  0.00000000000E+00 0.  1.
</event>
<event>
 7    1  0.8986500E-014  0.5052883E+02  0.7816164E-02  0.1300439E+00
        -11   -1    0    0    0    0  0.00000000000E+00  0.00000000000E+00  0.45593999997E+02  0.45594000000E+02  0.51100000000E-03 0. -1.
         11   -1    0    0    0    0 -0.00000000000E+00 -0.00000000000E+00 -0.45593999997E+02  0.45594000000E+02  0.51100000000E-03 0.  1.
    9900012    2    1    2    0    0 -0.82537906092E+01 -0.28626738756E+02  0.27668620802E+02  0.50528833649E+02  0.29999920361E+02 0.  0.
        -12    1    1    2    0    0  0.82537906092E+01  0.28626738756E+02 -0.27668620802E+02  0.40659166351E+02  0.00000000000E+00 0.  1.
         11    1    3    3    0    0 -0.99771308132E+01 -0.77191308280E+01  0.15419639113E+02  0.19922183380E+02  0.51100000000E-03 0. -1.
        -11    1    3    3    0    0 -0.60069128105E+00 -0.39956270466E+01  0.12905380702E+02  0.13523117867E+02  0.51100000000E-03 0.  1.
        -12    1    3    3    0    0  0.23240314851E+01 -0.16911980881E+02 -0.65639901288E+00  0.17083532402E+02  0.00000000000E+00 0.  1.
</event>
<event>
 7    1  0.8986500E-014  0.5052879E+02  0.7816164E-02  0.1300439E+00
        -11   -1    0    0    0    0  0.00000000000E+00  0.00000000000E+00  0.45593999997E+02  0.45594000000E+02  0.51100000000E-03 0. -1.
         11   -1    0    0    0    0 -0.00000000000E+00 -0.00000000000E+00 -0.45593999997E+02  0.45594000000E+02  0.51100000000E-03 0.  1.
    9900012    2    1    2    0    0 -0.24284764961E+02  0.38247463236E+01 -0.32385069481E+02  0.50528791708E+02  0.29999792874E+02 0.  0.
         12    1    1    2    0    0  0.24284764961E+02 -0.38247463236E+01  0.32385069481E+02  0.40659208292E+02  0.00000000000E+00 0. -1.
         11    1    3    3    0    0 -0.72334787062E+01  0.12254815639E+02 -0.85757693884E+01  0.16614678493E+02  0.51100000000E-03 0. -1.
        -11    1    3    3    0    0  0.18031031159E+01 -0.16717612609E+00 -0.73144411694E+01  0.75352623435E+01  0.51100000000E-03 0.  1.
         12    1    3    3    0    0 -0.18854389371E+02 -0.82628931896E+01 -0.16494858923E+02  0.26378850872E+02  0.00000000000E+00 0. -1.
</event>
<event>
 7    1  0.8986500E-014  0.5052888E+02  0.7816164E-02  0.1300439E+00
        -11   -1    0    0    0    0  0.00000000000E+00  0.00000000000E+00  0.45593999997E+02  0.45594000000E+02  0.51100000000E-03 0. -1.
         11   -1    0    0    0    0 -0.00000000000E+00 -0.00000000000E+00 -0.45593999997E+02  0.45594000000E+02  0.51100000000E-03 0.  1.
    9900012    2    1    2    0    0  0.11376117705E+02 -0.36058969227E+01 -0.38868314596E+02  0.50528875240E+02  0.30000046780E+02 0.  0.
         12    1    1    2    0    0 -0.11376117705E+02  0.36058969227E+01  0.38868314596E+02  0.40659124760E+02  0.00000000000E+00 0. -1.
         11    1    3    3    0    0  0.57272309018E+01 -0.16091432182E+01 -0.25906308222E+01  0.64885964598E+01  0.51100000000E-03 0.  1.
        -11    1    3    3    0    0  0.92372558113E+01  0.60901364971E+01 -0.61884106042E+01  0.12677266407E+02  0.51100000000E-03 0. -1.
         12    1    3    3    0    0 -0.35883690079E+01 -0.80868902017E+01 -0.30089273170E+02  0.31363012374E+02  0.00000000000E+00 0. -1.
</event>
<event>
 7    1  0.8986500E-014  0.5052874E+02  0.7816164E-02  0.1300439E+00
        -11   -1    0    0    0    0  0.00000000000E+00  0.00000000000E+00  0.45593999997E+02  0.45594000000E+02  0.51100000000E-03 0.  1.
         11   -1    0    0    0    0 -0.00000000000E+00 -0.00000000000E+00 -0.45593999997E+02  0.45594000000E+02  0.51100000000E-03 0. -1.
    9900012    2    1    2    0    0 -0.31051465902E+02 -0.25356090683E+02 -0.67860615465E+01  0.50528739053E+02  0.29999632824E+02 0.  0.
         12    1    1    2    0    0  0.31051465902E+02  0.25356090683E+02  0.67860615465E+01  0.40659260947E+02  0.00000000000E+00 0. -1.
         11    1    3    3    0    0 -0.93841663883E+01 -0.11818600588E+02 -0.66431079941E+01  0.16488565212E+02  0.51100000000E-03 0. -1.
        -11    1    3    3    0    0 -0.25438463744E+02 -0.70338189669E+01  0.11206898187E+01  0.26416774838E+02  0.51100000000E-03 0.  1.
         12    1    3    3    0    0  0.37711642300E+01 -0.65036711280E+01 -0.12636433711E+01  0.76233990031E+01  0.00000000000E+00 0. -1.
</event>
<event>
 7    1  0.8986500E-014  0.5052882E+02  0.7816164E-02  0.1300439E+00
        -11   -1    0    0    0    0  0.00000000000E+00  0.00000000000E+00  0.45593999997E+02  0.45594000000E+02  0.51100000000E-03 0.  1.
         11   -1    0    0    0    0 -0.00000000000E+00 -0.00000000000E+00 -0.45593999997E+02  0.45594000000E+02  0.51100000000E-03 0. -1.
    9900012    2    1    2    0    0 -0.28347326446E+02  0.29138814833E+02  0.72646382141E+00  0.50528816582E+02  0.29999868483E+02 0.  0.
         12    1    1    2    0    0  0.28347326446E+02 -0.29138814833E+02 -0.72646382141E+00  0.40659183418E+02  0.00000000000E+00 0. -1.
         11    1    3    3    0    0 -0.78797296448E+01  0.69609279671E+00  0.13620244777E+01  0.80268172644E+01  0.51100000000E-03 0. -1.
        -11    1    3    3    0    0 -0.21793713745E+02  0.13117872697E+02  0.53548387564E+01  0.25994592539E+02  0.51100000000E-03 0.  1.
         12    1    3    3    0    0  0.13261169443E+01  0.15324849340E+02 -0.59903994127E+01  0.16507406779E+02  0.00000000000E+00 0. -1.
</event>
<event>
 7    1  0.8986500E-014  0.5052888E+02  0.7816164E-02  0.1300439E+00
        -11   -1    0    0    0    0  0.00000000000E+00  0.00000000000E+00  0.45593999997E+02  0.45594000000E+02  0.51100000000E-03 0. -1.
         11   -1    0    0    0    0 -0.00000000000E+00 -0.00000000000E+00 -0.45593999997E+02  0.45594000000E+02  0.51100000000E-03 0.  1.
    9900012    2    1    2    0    0 -0.25084051747E+02  0.89103353017E+01  0.30733703101E+02  0.50528877610E+02  0.30000053984E+02 0.  0.
        -12    1    1    2    0    0  0.25084051747E+02 -0.89103353017E+01 -0.30733703101E+02  0.40659122390E+02  0.00000000000E+00 0.  1.
         11    1    3    3    0    0 -0.92691034458E+01  0.41040552182E+01  0.77871754127E+00  0.10166904602E+02  0.51100000000E-03 0. -1.
        -11    1    3    3    0    0 -0.84027541575E+01 -0.41764428036E+01  0.13537666628E+01  0.94805926166E+01  0.51100000000E-03 0.  1.
         12    1    3    3    0    0 -0.74121941432E+01  0.89827228871E+01  0.28601218897E+02  0.30881380391E+02  0.00000000000E+00 0. -1.
</event>
<event>
 7    1  0.8986500E-014  0.5052880E+02  0.7816164E-02  0.1300439E+00
        -11   -1    0    0    0    0  0.00000000000E+00  0.00000000000E+00  0.45593999997E+02  0.45594000000E+02  0.51100000000E-03 0. -1.
         11   -1    0    0    0    0 -0.00000000000E+00 -0.00000000000E+00 -0.45593999997E+02  0.45594000000E+02  0.51100000000E-03 0.  1.
    9900012    2    1    2    0    0 -0.11376047088E+02  0.28661895829E+02  0.26500039917E+02  0.50528796423E+02  0.29999807207E+02 0.  0.
        -12    1    1    2    0    0  0.11376047088E+02 -0.28661895829E+02 -0.26500039917E+02  0.40659203577E+02  0.00000000000E+00 0.  1.
         11    1    3    3    0    0 -0.33665614692E+01  0.12546550781E+02 -0.26205966820E+01  0.13252063985E+02  0.51100000000E-03 0. -1.
        -11    1    3    3    0    0 -0.45982405871E+00  0.41090684242E+01 -0.75729657607E+00  0.42034961455E+01  0.51100000000E-03 0.  1.
         12    1    3    3    0    0 -0.75496615602E+01  0.12006276624E+02  0.29877933175E+02  0.33073236293E+02  0.00000000000E+00 0. -1.
</event>
<event>
 7    1  0.8986500E-014  0.5052885E+02  0.7816164E-02  0.1300439E+00
        -11   -1    0    0    0    0  0.00000000000E+00  0.00000000000E+00  0.45593999997E+02  0.45594000000E+02  0.51100000000E-03 0.  1.
         11   -1    0    0    0    0 -0.00000000000E+00 -0.00000000000E+00 -0.45593999997E+02  0.45594000000E+02  0.51100000000E-03 0. -1.
    9900012    2    1    2    0    0  0.47103678313E+01 -0.33652797689E+02 -0.22326397904E+02  0.50528850958E+02  0.29999972973E+02 0.  0.
         12    1    1    2    0    0 -0.47103678313E+01  0.33652797689E+02  0.22326397904E+02  0.40659149042E+02  0.00000000000E+00 0. -1.
         11    1    3    3    0    0 -0.24060784358E+01 -0.17815647013E+02 -0.12869719881E+02  0.22109187728E+02  0.51100000000E-03 0. -1.
        -11    1    3    3    0    0 -0.28108420005E+01 -0.16569528851E+02 -0.66823354939E+01  0.18086009151E+02  0.51100000000E-03 0.  1.
         12    1    3    3    0    0  0.99272882676E+01  0.73237817549E+00 -0.27743425298E+01  0.10333654078E+02  0.00000000000E+00 0. -1.
</event>
<event>
 7    1  0.8986500E-014  0.5052888E+02  0.7816164E-02  0.1300439E+00
        -11   -1    0    0    0    0  0.00000000000E+00  0.00000000000E+00  0.45593999997E+02  0.45594000000E+02  0.51100000000E-03 0. -1.
         11   -1    0    0    0    0 -0.00000000000E+00 -0.00000000000E+00 -0.45593999997E+02  0.45594000000E+02  0.51100000000E-03 0.  1.
    9900012    2    1    2    0    0  0.81481577123E+01  0.58135155263E+01 -0.39407798617E+02  0.50528880128E+02  0.30000061638E+02 0.  0.
         12    1    1    2    0    0 -0.81481577123E+01 -0.58135155263E+01  0.39407798617E+02  0.40659119872E+02  0.00000000000E+00 0. -1.
         11    1    3    3    0    0 -0.35024909491E+01  0.12721058599E+02 -0.16954498460E+02  0.21483663398E+02  0.51100000000E-03 0. -1.
        -11    1    3    3    0    0  0.41143266765E+01  0.30972713655E+01 -0.10671824717E+02  0.11849414203E+02  0.51100000000E-03 0.  1.
         12    1    3    3    0    0  0.75363219849E+01 -0.10004814438E+02 -0.11781475441E+02  0.17195802527E+02  0.00000000000E+00 0. -1.
</event>
<event>
 7    1  0.8986500E-014  0.5052886E+02  0.7816164E-02  0.1300439E+00
        -11   -1    0    0    0    0  0.00000000000E+00  0.00000000000E+00  0.45593999997E+02  0.45594000000E+02  0.51100000000E-03 0. -1.
         11   -1    0    0    0    0 -0.00000000000E+00 -0.00000000000E+00 -0.45593999997E+02  0.45594000000E+02  0.51100000000E-03 0.  1.
    9900012    2    1    2    0    0  0.87468350914E+01  0.15822704969E+02 -0.36418414663E+02  0.50528855355E+02  0.29999986338E+02 0.  0.
         12    1    1    2    0    0 -0.87468350914E+01 -0.15822704969E+02  0.36418414663E+02  0.40659144645E+02  0.00000000000E+00 0. -1.
         11    1    3    3    0    0  0.25642243334E+01  0.11376835783E+02 -0.46056188030E+01  0.12538714595E+02  0.51100000000E-03 0. -1.
        -11    1    3    3    0    0  0.61227718409E+01  0.92577258999E+01 -0.79644526911E+01  0.13661124799E+02  0.51100000000E-03 0.  1.
         12    1    3    3    0    0  0.59838917130E-01 -0.48118567142E+01 -0.23848343169E+02  0.24329015961E+02  0.00000000000E+00 0. -1.
</event>
<event>
 7    1  0.8986500E-014  0.5052885E+02  0.7816164E-02  0.1300439E+00
        -11   -1    0    0    0    0  0.00000000000E+00  0.00000000000E+00  0.45593999997E+02  0.45594000000E+02  0.51100000000E-03 0. -1.
         11   -1    0    0    0    0 -0.00000000000E+00 -0.00000000000E+00 -0.45593999997E+02  0.45594000000E+02  0.51100000000E-03 0.  1.
    9900012    2    1    2    0    0 -0.26994687013E+01 -0.29655699283E+01 -0.40460902339E+02  0.50528851530E+02  0.29999974709E+02 0.  0.
         12    1    1    2    0    0  0.26994687013E+01  0.29655699283E+01  0.40460902339E+02  0.40659148470E+02  0.00000000000E+00 0. -1.
         11    1    3    3    0    0 -0.20328914905E+01  0.15809979199E+01  0.36193061578E+01  0.44420242637E+01  0.51100000000E-03 0. -1.
        -11    1    3    3    0    0 -0.44893555182E+00 -0.35282955141E+01 -0.21757810690E+01  0.41694647002E+01  0.51100000000E-03 0.  1.
        -12    1    3    3    0    0 -0.21764165898E+00 -0.10182723341E+01 -0.41904427428E+02  0.41917362566E+02  0.00000000000E+00 0.  1.
</event>
<event>
 7    1  0.8986500E-014  0.5052886E+02  0.7816164E-02  0.1300439E+00
        -11   -1    0    0    0    0  0.00000000000E+00  0.00000000000E+00  0.45593999997E+02  0.45594000000E+02  0.51100000000E-03 0. -1.
         11   -1    0    0    0    0 -0.00000000000E+00 -0.00000000000E+00 -0.45593999997E+02  0.45594000000E+02  0.51100000000E-03 0.  1.
    9900012    2    1    2    0    0 -0.28750452562E+02 -0.20203400709E+02 -0.20454818548E+02  0.50528861733E+02  0.30000005724E+02 0.  0.
         12    1    1    2    0    0  0.28750452562E+02  0.20203400709E+02  0.20454818548E+02  0.40659138267E+02  0.00000000000E+00 0. -1.
         11    1    3    3    0    0 -0.39783977057E+01 -0.40567816894E+01  0.56695657691E+01  0.80267740875E+01  0.51100000000E-03 0. -1.
        -11    1    3    3    0    0 -0.16686731883E+02 -0.70984516999E+01 -0.61828989103E+01  0.19158895497E+02  0.51100000000E-03 0.  1.
        -12    1    3    3    0    0 -0.80853229738E+01 -0.90481673197E+01 -0.19941485407E+02  0.23343192149E+02  0.00000000000E+00 0.  1.
</event>
<event>
 7    1  0.8986500E-014  0.5052886E+02  0.7816164E-02  0.1300439E+00
        -11   -1    0    0    0    0  0.00000000000E+00  0.00000000000E+00  0.45593999997E+02  0.45594000000E+02  0.51100000000E-03 0. -1.
         11   -1    0    0    0    0 -0.00000000000E+00 -0.00000000000E+00 -0.45593999997E+02  0.45594000000E+02  0.51100000000E-03 0.  1.
    9900012    2    1    2    0    0  0.57392325307E+01  0.96277575786E+01  0.39083668496E+02  0.50528860201E+02  0.30000001068E+02 0.  0.
        -12    1    1    2    0    0 -0.57392325307E+01 -0.96277575786E+01 -0.39083668496E+02  0.40659139799E+02  0.00000000000E+00 0.  1.
         11    1    3    3    0    0  0.55452938673E+01  0.10302029277E+02  0.29335695735E+02  0.31582671448E+02  0.51100000000E-03 0. -1.
        -11    1    3    3    0    0  0.52961969482E+01  0.47350251053E+01  0.90097114312E+01  0.11473668341E+02  0.51100000000E-03 0.  1.
        -12    1    3    3    0    0 -0.51022582848E+01 -0.54092968038E+01  0.73826133013E+00  0.74725204120E+01  0.00000000000E+00 0.  1.
</event>
<event>
 7    1  0.8986500E-014  0.5052886E+02  0.7816164E-02  0.1300439E+00
        -11   -1    0    0    0    0  0.00000000000E+00  0.00000000000E+00  0.45593999997E+02  0.45594000000E+02  0.51100000000E-03 0. -1.
         11   -1    0    0    0    0 -0.00000000000E+00 -0.00000000000E+00 -0.45593999997E+02  0.45594000000E+02  0.51100000000E-03 0.  1.
    9900012    2    1    2    0    0 -0.71881249720E+01  0.20089222710E+02  0.34610975314E+02  0.50528860537E+02  0.30000002089E+02 0.  0.
        -12    1    1    2    0    0  0.71881249720E+01 -0.20089222710E+02 -0.34610975314E+02  0.40659139463E+02  0.00000000000E+00 0.  1.
         11    1    3    3    0    0 -0.21337471694E+01  0.38311363131E+00  0.32304977859E+01  0.38904715965E+01  0.51100000000E-03 0. -1.
        -11    1    3    3    0    0 -0.11713856685E+02  0.23204544755E+02  0.19174571806E+02  0.32300612067E+02  0.51100000000E-03 0.  1.
         12    1    3    3    0    0  0.66594788825E+01 -0.34984356765E+01  0.12205905722E+02  0.14337776873E+02  0.00000000000E+00 0. -1.
</event>
<event>
 7    1  0.8986500E-014  0.5052886E+02  0.7816164E-02  0.1300439E+00
        -11   -1    0    0    0    0  0.00000000000E+00  0.00000000000E+00  0.45593999997E+02  0.45594000000E+02  0.51100000000E-03 0. -1.
         11   -1    0    0    0    0 -0.00000000000E+00 -0.00000000000E+00 -0.45593999997E+02  0.45594000000E+02  0.51100000000E-03 0.  1.
    9900012    2    1    2    0    0 -0.11959201604E+02 -0.28743100312E+02  0.26152964798E+02  0.50528857285E+02  0.29999992205E+02 0.  0.
        -12    1    1    2    0    0  0.11959201604E+02  0.28743100312E+02 -0.26152964798E+02  0.40659142715E+02  0.00000000000E+00 0.  1.
         11    1    3    3    0    0 -0.31805469224E+00 -0.20431938676E+02  0.49891104924E+01  0.21034650000E+02  0.51100000000E-03 0. -1.
        -11    1    3    3    0    0 -0.18958136169E+00 -0.90582889631E+01  0.89712206438E+01  0.12750346667E+02  0.51100000000E-03 0.  1.
        -12    1    3    3    0    0 -0.11451565550E+02  0.74712732708E+00  0.12192633662E+02  0.16743860619E+02  0.00000000000E+00 0.  1.
</event>
<event>
 7    1  0.8986500E-014  0.5052887E+02  0.7816164E-02  0.1300439E+00
        -11   -1    0    0    0    0  0.00000000000E+00  0.00000000000E+00  0.45593999997E+02  0.45594000000E+02  0.51100000000E-03 0. -1.
         11   -1    0    0    0    0 -0.00000000000E+00 -0.00000000000E+00 -0.45593999997E+02  0.45594000000E+02  0.51100000000E-03 0.  1.
    9900012    2    1    2    0    0  0.23314563323E+02 -0.24322403851E+02 -0.22759981167E+02  0.50528868987E+02  0.30000027772E+02 0.  0.
         12    1    1    2    0    0 -0.23314563323E+02  0.24322403851E+02  0.22759981167E+02  0.40659131013E+02  0.00000000000E+00 0. -1.
         11    1    3    3    0    0 -0.45466949226E+01 -0.19351183577E+01  0.29394421298E+01  0.57495598156E+01  0.51100000000E-03 0. -1.
        -11    1    3    3    0    0  0.37952114854E+01 -0.13264631744E+01 -0.47474419111E+00  0.40482733456E+01  0.51100000000E-03 0.  1.
        -12    1    3    3    0    0  0.24066046761E+02 -0.21060822319E+02 -0.25224679106E+02  0.40731035825E+02  0.00000000000E+00 0.  1.
</event>
<event>
 7    1  0.8986500E-014  0.5052886E+02  0.7816164E-02  0.1300439E+00
        -11   -1    0    0    0    0  0.00000000000E+00  0.00000000000E+00  0.45593999997E+02  0.45594000000E+02  0.51100000000E-03 0. -1.
         11   -1    0    0    0    0 -0.00000000000E+00 -0.00000000000E+00 -0.45593999997E+02  0.45594000000E+02  0.51100000000E-03 0.  1.
    9900012    2    1    2    0    0 -0.82665763435E+01 -0.21816175329E+02 -0.33299913195E+02  0.50528855774E+02  0.29999987611E+02 0.  0.
         12    1    1    2    0    0  0.82665763435E+01  0.21816175329E+02  0.33299913195E+02  0.40659144226E+02  0.00000000000E+00 0. -1.
         11    1    3    3    0    0 -0.10080589347E+02  0.30359716363E+01 -0.45134096489E+01  0.11454530645E+02  0.51100000000E-03 0. -1.
        -11    1    3    3    0    0 -0.10277943591E+01 -0.18120778475E+01 -0.67571292302E+01  0.70709817610E+01  0.51100000000E-03 0.  1.
         12    1    3    3    0    0  0.28418073630E+01 -0.23040069117E+02 -0.22029374316E+02  0.32003343369E+02  0.00000000000E+00 0. -1.
</event>
<event>
 7    1  0.8986500E-014  0.5052886E+02  0.7816164E-02  0.1300439E+00
        -11   -1    0    0    0    0  0.00000000000E+00  0.00000000000E+00  0.45593999997E+02  0.45594000000E+02  0.51100000000E-03 0. -1.
         11   -1    0    0    0    0 -0.00000000000E+00 -0.00000000000E+00 -0.45593999997E+02  0.45594000000E+02  0.51100000000E-03 0.  1.
    9900012    2    1    2    0    0 -0.20311948880E+02 -0.14067819816E+02  0.32290660661E+02  0.50528860958E+02  0.30000003369E+02 0.  0.
        -12    1    1    2    0    0  0.20311948880E+02  0.14067819816E+02 -0.32290660661E+02  0.40659139042E+02  0.00000000000E+00 0.  1.
         11    1    3    3    0    0 -0.27325237703E+01  0.46367400796E+01  0.10845368849E+02  0.12107356047E+02  0.51100000000E-03 0. -1.
        -11    1    3    3    0    0 -0.32636759308E+00 -0.27538644147E+01  0.13249339630E+02  0.13536442883E+02  0.51100000000E-03 0.  1.
        -12    1    3    3    0    0 -0.17253057516E+02 -0.15950695481E+02  0.81959521820E+01  0.24885062029E+02  0.00000000000E+00 0.  1.
</event>
<event>
 7    1  0.8986500E-014  0.5052886E+02  0.7816164E-02  0.1300439E+00
        -11   -1    0    0    0    0  0.00000000000E+00  0.00000000000E+00  0.45593999997E+02  0.45594000000E+02  0.51100000000E-03 0. -1.
         11   -1    0    0    0    0 -0.00000000000E+00 -0.00000000000E+00 -0.45593999997E+02  0.45594000000E+02  0.51100000000E-03 0.  1.
    9900012    2    1    2    0    0  0.33685001490E+02  0.13805660120E+02 -0.18107726906E+02  0.50528863875E+02  0.30000012234E+02 0.  0.
         12    1    1    2    0    0 -0.33685001490E+02 -0.13805660120E+02  0.18107726906E+02  0.40659136125E+02  0.00000000000E+00 0. -1.
         11    1    3    3    0    0 -0.62164805006E-01 -0.32538633931E+00  0.20966654380E+01  0.21226744811E+01  0.51100000000E-03 0. -1.
        -11    1    3    3    0    0  0.88314911572E+01  0.14308887492E+02 -0.81515981346E+00  0.16834606710E+02  0.51100000000E-03 0.  1.
        -12    1    3    3    0    0  0.24915675138E+02 -0.17784103237E+00 -0.19389232530E+02  0.31571582683E+02  0.00000000000E+00 0.  1.
</event>
<event>
 7    1  0.8986500E-014  0.5052886E+02  0.7816164E-02  0.1300439E+00
        -11   -1    0    0    0    0  0.00000000000E+00  0.00000000000E+00  0.45593999997E+02  0.45594000000E+02  0.51100000000E-03 0.  1.
         11   -1    0    0    0    0 -0.00000000000E+00 -0.00000000000E+00 -0.45593999997E+02  0.45594000000E+02  0.51100000000E-03 0. -1.
    9900012    2    1    2    0    0  0.23948059377E+02  0.32710979211E+02 -0.31061437923E+01  0.50528857878E+02  0.29999994005E+02 0.  0.
         12    1    1    2    0    0 -0.23948059377E+02 -0.32710979211E+02  0.31061437923E+01  0.40659142122E+02  0.00000000000E+00 0. -1.
         11    1    3    3    0    0  0.12280386295E+02  0.13000288539E+02  0.92213111815E+01  0.20120834223E+02  0.51100000000E-03 0.  1.
        -11    1    3    3    0    0  0.14035733039E+02  0.19483356217E+02 -0.77206452719E+01  0.25223230068E+02  0.51100000000E-03 0. -1.
        -12    1    3    3    0    0 -0.23680599561E+01  0.22733445496E+00 -0.46068097019E+01  0.51847935870E+01  0.00000000000E+00 0.  1.
</event>
<event>
 7    1  0.8986500E-014  0.5052887E+02  0.7816164E-02  0.1300439E+00
        -11   -1    0    0    0    0  0.00000000000E+00  0.00000000000E+00  0.45593999997E+02  0.45594000000E+02  0.51100000000E-03 0. -1.
         11   -1    0    0    0    0 -0.00000000000E+00 -0.00000000000E+00 -0.45593999997E+02  0.45594000000E+02  0.51100000000E-03 0.  1.
    9900012    2    1    2    0    0  0.57678869088E+01 -0.19115455658E+02  0.35418858342E+02  0.50528871988E+02  0.30000036896E+02 0.  0.
        -12    1    1    2    0    0 -0.57678869088E+01  0.19115455658E+02 -0.35418858342E+02  0.40659128012E+02  0.00000000000E+00 0.  1.
         11    1    3    3    0    0  0.79709273010E+01  0.18347096753E+01  0.11857529804E+02  0.14404959387E+02  0.51100000000E-03 0.  1.
        -11    1    3    3    0    0  0.56193734649E+01 -0.10180421232E+02  0.36774619337E+01  0.12195985451E+02  0.51100000000E-03 0. -1.
        -12    1    3    3    0    0 -0.78224138571E+01 -0.10769744101E+02  0.19883866605E+02  0.23927927150E+02  0.00000000000E+00 0.  1.
</event>
<event>
 7    1  0.8986500E-014  0.5052884E+02  0.7816164E-02  0.1300439E+00
        -11   -1    0    0    0    0  0.00000000000E+00  0.00000000000E+00  0.45593999997E+02  0.45594000000E+02  0.51100000000E-03 0. -1.
         11   -1    0    0    0    0 -0.00000000000E+00 -0.00000000000E+00 -0.45593999997E+02  0.45594000000E+02  0.51100000000E-03 0.  1.
    9900012    2    1    2    0    0 -0.32777246077E+02  0.14020753003E+02  0.19550916126E+02  0.50528835024E+02  0.29999924540E+02 0.  0.
        -12    1    1    2    0    0  0.32777246077E+02 -0.14020753003E+02 -0.19550916126E+02  0.40659164976E+02  0.00000000000E+00 0.  1.
         11    1    3    3    0    0 -0.19494370181E+02 -0.17689743616E+01  0.16227986036E+02  0.25426507233E+02  0.51100000000E-03 0. -1.
        -11    1    3    3    0    0 -0.78331515626E+01  0.88492482524E+00 -0.23870879980E+01  0.82364764749E+01  0.51100000000E-03 0.  1.
        -12    1    3    3    0    0 -0.54497243331E+01  0.14904802540E+02  0.57100180879E+01  0.16865851316E+02  0.00000000000E+00 0.  1.
</event>
<event>
 7    1  0.8986500E-014  0.5052885E+02  0.7816164E-02  0.1300439E+00
        -11   -1    0    0    0    0  0.00000000000E+00  0.00000000000E+00  0.45593999997E+02  0.45594000000E+02  0.51100000000E-03 0. -1.
         11   -1    0    0    0    0 -0.00000000000E+00 -0.00000000000E+00 -0.45593999997E+02  0.45594000000E+02  0.51100000000E-03 0.  1.
    9900012    2    1    2    0    0 -0.14005656197E+02 -0.30739724840E+02  0.22629126438E+02  0.50528850327E+02  0.29999971053E+02 0.  0.
        -12    1    1    2    0    0  0.14005656197E+02  0.30739724840E+02 -0.22629126438E+02  0.40659149673E+02  0.00000000000E+00 0.  1.
         11    1    3    3    0    0  0.11032107124E+01 -0.65430139873E+01  0.45282299708E+01  0.80332417394E+01  0.51100000000E-03 0. -1.
        -11    1    3    3    0    0 -0.15584887674E+01 -0.15507231853E+02 -0.30853140342E+01  0.15887803182E+02  0.51100000000E-03 0.  1.
         12    1    3    3    0    0 -0.13550378142E+02 -0.86894789998E+01  0.21186210502E+02  0.26607805406E+02  0.00000000000E+00 0. -1.
</event>
<event>
 7    1  0.8986500E-014  0.5052887E+02  0.7816164E-02  0.1300439E+00
        -11   -1    0    0    0    0  0.00000000000E+00  0.00000000000E+00  0.45593999997E+02  0.45594000000E+02  0.51100000000E-03 0. -1.
         11   -1    0    0    0    0 -0.00000000000E+00 -0.00000000000E+00 -0.45593999997E+02  0.45594000000E+02  0.51100000000E-03 0.  1.
    9900012    2    1    2    0    0 -0.12459573858E+02  0.13461470161E+02 -0.36286541465E+02  0.50528865096E+02  0.30000015947E+02 0.  0.
         12    1    1    2    0    0  0.12459573858E+02 -0.13461470161E+02  0.36286541465E+02  0.40659134904E+02  0.00000000000E+00 0. -1.
         11    1    3    3    0    0 -0.92376493724E+01  0.29426714460E+01 -0.21035801804E+01  0.99206114228E+01  0.51100000000E-03 0. -1.
        -11    1    3    3    0    0 -0.15008906633E+01 -0.35157228283E+01 -0.23101434134E+00  0.38296667839E+01  0.51100000000E-03 0.  1.
         12    1    3    3    0    0 -0.17210338219E+01  0.14034521543E+02 -0.33951946943E+02  0.36778586890E+02  0.00000000000E+00 0. -1.
</event>
<event>
 7    1  0.8986500E-014  0.5052885E+02  0.7816164E-02  0.1300439E+00
        -11   -1    0    0    0    0  0.00000000000E+00  0.00000000000E+00  0.45593999997E+02  0.45594000000E+02  0.51100000000E-03 0. -1.
         11   -1    0    0    0    0 -0.00000000000E+00 -0.00000000000E+00 -0.45593999997E+02  0.45594000000E+02  0.51100000000E-03 0.  1.
    9900012    2    1    2    0    0 -0.12629434832E+02 -0.30941167758E+02 -0.23158322324E+02  0.50528851223E+02  0.29999973777E+02 0.  0.
         12    1    1    2    0    0  0.12629434832E+02  0.30941167758E+02  0.23158322324E+02  0.40659148777E+02  0.00000000000E+00 0. -1.
         11    1    3    3    0    0  0.25882537134E+01  0.30572445415E+01  0.24307200658E+01  0.46855311087E+01  0.51100000000E-03 0. -1.
        -11    1    3    3    0    0 -0.34021825316E+01 -0.15000653687E+02 -0.13203961383E+02  0.20271631742E+02  0.51100000000E-03 0.  1.
        -12    1    3    3    0    0 -0.11815506014E+02 -0.18997758613E+02 -0.12385081007E+02  0.25571688373E+02  0.00000000000E+00 0.  1.
</event>
<event>
 7    1  0.8986500E-014  0.5052885E+02  0.7816164E-02  0.1300439E+00
        -11   -1    0    0    0    0  0.00000000000E+00  0.00000000000E+00  0.45593999997E+02  0.45594000000E+02  0.51100000000E-03 0. -1.
         11   -1    0    0    0    0 -0.00000000000E+00 -0.00000000000E+00 -0.45593999997E+02  0.45594000000E+02  0.51100000000E-03 0.  1.
    9900012    2    1    2    0    0 -0.22197736217E+02  0.11355659076E+02 -0.32116595847E+02  0.50528853243E+02  0.29999979916E+02 0.  0.
         12    1    1    2    0    0  0.22197736217E+02 -0.11355659076E+02  0.32116595847E+02  0.40659146757E+02  0.00000000000E+00 0. -1.
         11    1    3    3    0    0 -0.13020598088E+02  0.20577802147E+02 -0.17308650318E+02  0.29875931648E+02  0.51100000000E-03 0. -1.
        -11    1    3    3    0    0  0.16575704838E+00  0.14833671192E+00  0.42229524348E+00  0.47729730041E+00  0.51100000000E-03 0.  1.
        -12    1    3    3    0    0 -0.93428951773E+01 -0.93704797824E+01 -0.15230240773E+02  0.20175624294E+02  0.00000000000E+00 0.  1.
</event>
<event>
 7    1  0.8986500E-014  0.5052885E+02  0.7816164E-02  0.1300439E+00
        -11   -1    0    0    0    0  0.00000000000E+00  0.00000000000E+00  0.45593999997E+02  0.45594000000E+02  0.51100000000E-03 0. -1.
         11   -1    0    0    0    0 -0.00000000000E+00 -0.00000000000E+00 -0.45593999997E+02  0.45594000000E+02  0.51100000000E-03 0.  1.
    9900012    2    1    2    0    0  0.35009232954E+02 -0.59274739855E+01 -0.19808722598E+02  0.50528845670E+02  0.29999956898E+02 0.  0.
         12    1    1    2    0    0 -0.35009232954E+02  0.59274739855E+01  0.19808722598E+02  0.40659154330E+02  0.00000000000E+00 0. -1.
         11    1    3    3    0    0  0.56601253442E+01  0.63298889831E+01 -0.10255006577E+02  0.13314265793E+02  0.51100000000E-03 0. -1.
        -11    1    3    3    0    0  0.13773168027E+02  0.23023057877E+01 -0.28847792648E+00  0.13967247016E+02  0.51100000000E-03 0.  1.
         12    1    3    3    0    0  0.15575939583E+02 -0.14559668756E+02 -0.92652380947E+01  0.23247332861E+02  0.00000000000E+00 0. -1.
</event>
<event>
 7    1  0.8986500E-014  0.5052887E+02  0.7816164E-02  0.1300439E+00
        -11   -1    0    0    0    0  0.00000000000E+00  0.00000000000E+00  0.45593999997E+02  0.45594000000E+02  0.51100000000E-03 0. -1.
         11   -1    0    0    0    0 -0.00000000000E+00 -0.00000000000E+00 -0.45593999997E+02  0.45594000000E+02  0.51100000000E-03 0.  1.
    9900012    2    1    2    0    0  0.31460080686E+02  0.11248030747E+02  0.23171324994E+02  0.50528866040E+02  0.30000018814E+02 0.  0.
        -12    1    1    2    0    0 -0.31460080686E+02 -0.11248030747E+02 -0.23171324994E+02  0.40659133960E+02  0.00000000000E+00 0.  1.
         11    1    3    3    0    0  0.13461318757E+02  0.43584255211E+01  0.11773512563E+02  0.18407025127E+02  0.51100000000E-03 0. -1.
        -11    1    3    3    0    0  0.14815195075E+02 -0.46186492536E+01  0.12777521808E+02  0.20101915079E+02  0.51100000000E-03 0.  1.
         12    1    3    3    0    0  0.31835668534E+01  0.11508254479E+02 -0.13797093768E+01  0.12019925833E+02  0.00000000000E+00 0. -1.
</event>
<event>
 7    1  0.8986500E-014  0.5052878E+02  0.7816164E-02  0.1300439E+00
        -11   -1    0    0    0    0  0.00000000000E+00  0.00000000000E+00  0.45593999997E+02  0.45594000000E+02  0.51100000000E-03 0. -1.
         11   -1    0    0    0    0 -0.00000000000E+00 -0.00000000000E+00 -0.45593999997E+02  0.45594000000E+02  0.51100000000E-03 0.  1.
    9900012    2    1    2    0    0  0.21522521862E+02  0.32699804791E+02 -0.10985271222E+02  0.50528777621E+02  0.29999750055E+02 0.  0.
         12    1    1    2    0    0 -0.21522521862E+02 -0.32699804791E+02  0.10985271222E+02  0.40659222379E+02  0.00000000000E+00 0. -1.
         11    1    3    3    0    0 -0.61627439193E+00 -0.51422400831E+00 -0.16927905178E+01  0.18734354686E+01  0.51100000000E-03 0. -1.
        -11    1    3    3    0    0 -0.50250028108E+01  0.10752103272E+02  0.10681876383E+01  0.11916350243E+02  0.51100000000E-03 0.  1.
        -12    1    3    3    0    0  0.27163799065E+02  0.22461925527E+02 -0.10360668342E+02  0.36738991909E+02  0.00000000000E+00 0.  1.
</event>
<event>
 7    1  0.8986500E-014  0.5052886E+02  0.7816164E-02  0.1300439E+00
        -11   -1    0    0    0    0  0.00000000000E+00  0.00000000000E+00  0.45593999997E+02  0.45594000000E+02  0.51100000000E-03 0. -1.
         11   -1    0    0    0    0 -0.00000000000E+00 -0.00000000000E+00 -0.45593999997E+02  0.45594000000E+02  0.51100000000E-03 0.  1.
    9900012    2    1    2    0    0 -0.14239323470E+02  0.38070978274E+02 -0.10037730132E+01  0.50528864742E+02  0.30000014871E+02 0.  0.
         12    1    1    2    0    0  0.14239323470E+02 -0.38070978274E+02  0.10037730132E+01  0.40659135258E+02  0.00000000000E+00 0. -1.
         11    1    3    3    0    0  0.52221600169E+01  0.93613629583E+01 -0.34590498214E+01  0.11263707099E+02  0.51100000000E-03 0. -1.
        -11    1    3    3    0    0 -0.23313622416E+01  0.12339923143E+02 -0.62436917160E+01  0.14024715312E+02  0.51100000000E-03 0.  1.
        -12    1    3    3    0    0 -0.17130121245E+02  0.16369692173E+02  0.86989685241E+01  0.25240442332E+02  0.00000000000E+00 0.  1.
</event>
<event>
 7    1  0.1033418E-013  0.5052885E+02  0.7816164E-02  0.1300439E+00
        -11   -1    0    0    0    0  0.00000000000E+00  0.00000000000E+00  0.45593999997E+02  0.45594000000E+02  0.51100000000E-03 0. -1.
         11   -1    0    0    0    0 -0.00000000000E+00 -0.00000000000E+00 -0.45593999997E+02  0.45594000000E+02  0.51100000000E-03 0.  1.
    9900012    2    1    2    0    0  0.26956669121E+02 -0.22012671322E+00  0.30437745787E+02  0.50528845626E+02  0.29999956764E+02 0.  0.
        -12    1    1    2    0    0 -0.26956669121E+02  0.22012671322E+00 -0.30437745787E+02  0.40659154374E+02  0.00000000000E+00 0.  1.
         11    1    3    3    0    0  0.14192241222E+02 -0.61870927494E+01  0.95155522779E+01  0.18172659767E+02  0.51100000000E-03 0. -1.
        -11    1    3    3    0    0 -0.37640608975E+01 -0.36678314062E+01  0.25896132047E+01  0.58589451675E+01  0.51100000000E-03 0.  1.
         12    1    3    3    0    0  0.16528488796E+02  0.96347974423E+01  0.18332580304E+02  0.26497240691E+02  0.00000000000E+00 0. -1.
</event>
<event>
 7    1  0.8986500E-014  0.5052886E+02  0.7816164E-02  0.1300439E+00
        -11   -1    0    0    0    0  0.00000000000E+00  0.00000000000E+00  0.45593999997E+02  0.45594000000E+02  0.51100000000E-03 0. -1.
         11   -1    0    0    0    0 -0.00000000000E+00 -0.00000000000E+00 -0.45593999997E+02  0.45594000000E+02  0.51100000000E-03 0.  1.
    9900012    2    1    2    0    0 -0.16265436046E+02 -0.15687300360E+02 -0.33801037980E+02  0.50528856245E+02  0.29999989043E+02 0.  0.
         12    1    1    2    0    0  0.16265436046E+02  0.15687300360E+02  0.33801037980E+02  0.40659143755E+02  0.00000000000E+00 0. -1.
         11    1    3    3    0    0 -0.79323333345E+01  0.29744376291E+01 -0.51840962908E+01  0.99319708997E+01  0.51100000000E-03 0. -1.
        -11    1    3    3    0    0 -0.10625180829E+02 -0.20128112248E+01 -0.58382146511E+01  0.12289451870E+02  0.51100000000E-03 0.  1.
        -12    1    3    3    0    0  0.22920781182E+01 -0.16648926765E+02 -0.22778727038E+02  0.28307433476E+02  0.00000000000E+00 0.  1.
</event>
<event>
 7    1  0.8986500E-014  0.5052884E+02  0.7816164E-02  0.1300439E+00
        -11   -1    0    0    0    0  0.00000000000E+00  0.00000000000E+00  0.45593999997E+02  0.45594000000E+02  0.51100000000E-03 0. -1.
         11   -1    0    0    0    0 -0.00000000000E+00 -0.00000000000E+00 -0.45593999997E+02  0.45594000000E+02  0.51100000000E-03 0.  1.
    9900012    2    1    2    0    0 -0.27986356327E+02 -0.22210962168E+02 -0.19406285374E+02  0.50528844907E+02  0.29999954579E+02 0.  0.
         12    1    1    2    0    0  0.27986356327E+02  0.22210962168E+02  0.19406285374E+02  0.40659155093E+02  0.00000000000E+00 0. -1.
         11    1    3    3    0    0 -0.23808006664E+01 -0.15303859170E+02 -0.77408956421E+01  0.17314669587E+02  0.51100000000E-03 0. -1.
        -11    1    3    3    0    0 -0.14199278023E+02 -0.68738513583E+01 -0.14536787398E+02  0.21451981656E+02  0.51100000000E-03 0.  1.
         12    1    3    3    0    0 -0.11406277638E+02 -0.33251639173E-01  0.28713976662E+01  0.11762193664E+02  0.00000000000E+00 0. -1.
</event>
<event>
 7    1  0.8986500E-014  0.5052887E+02  0.7816164E-02  0.1300439E+00
        -11   -1    0    0    0    0  0.00000000000E+00  0.00000000000E+00  0.45593999997E+02  0.45594000000E+02  0.51100000000E-03 0. -1.
         11   -1    0    0    0    0 -0.00000000000E+00 -0.00000000000E+00 -0.45593999997E+02  0.45594000000E+02  0.51100000000E-03 0.  1.
    9900012    2    1    2    0    0  0.51487969141E+01 -0.73742701982E+01 -0.39651924759E+02  0.50528866860E+02  0.30000021308E+02 0.  0.
         12    1    1    2    0    0 -0.51487969141E+01  0.73742701982E+01  0.39651924759E+02  0.40659133140E+02  0.00000000000E+00 0. -1.
         11    1    3    3    0    0  0.46268872856E+01  0.84265630472E+01 -0.91128499511E+01  0.13246096981E+02  0.51100000000E-03 0. -1.
        -11    1    3    3    0    0  0.53361188587E+01 -0.86348403840E+00 -0.10689120482E+02  0.11978191270E+02  0.51100000000E-03 0.  1.
        -12    1    3    3    0    0 -0.48142092301E+01 -0.14937349207E+02 -0.19849954326E+02  0.25304578609E+02  0.00000000000E+00 0.  1.
</event>
<event>
 7    1  0.8986500E-014  0.5052886E+02  0.7816164E-02  0.1300439E+00
        -11   -1    0    0    0    0  0.00000000000E+00  0.00000000000E+00  0.45593999997E+02  0.45594000000E+02  0.51100000000E-03 0. -1.
         11   -1    0    0    0    0 -0.00000000000E+00 -0.00000000000E+00 -0.45593999997E+02  0.45594000000E+02  0.51100000000E-03 0.  1.
    9900012    2    1    2    0    0 -0.19355868712E+02  0.11216161119E+02  0.33951643809E+02  0.50528855381E+02  0.29999986416E+02 0.  0.
        -12    1    1    2    0    0  0.19355868712E+02 -0.11216161119E+02 -0.33951643809E+02  0.40659144619E+02  0.00000000000E+00 0.  1.
         11    1    3    3    0    0 -0.20770702146E+01 -0.10224073058E+01  0.31258857808E+01  0.38898199895E+01  0.51100000000E-03 0. -1.
        -11    1    3    3    0    0 -0.49782718034E+01  0.49559546383E+01 -0.46279280522E+01  0.84120386853E+01  0.51100000000E-03 0.  1.
         12    1    3    3    0    0 -0.12300526694E+02  0.72826137864E+01  0.35453686080E+02  0.38226996706E+02  0.00000000000E+00 0. -1.
</event>
<event>
 7    1  0.8986500E-014  0.5052890E+02  0.7816164E-02  0.1300439E+00
        -11   -1    0    0    0    0  0.00000000000E+00  0.00000000000E+00  0.45593999997E+02  0.45594000000E+02  0.51100000000E-03 0. -1.
         11   -1    0    0    0    0 -0.00000000000E+00 -0.00000000000E+00 -0.45593999997E+02  0.45594000000E+02  0.51100000000E-03 0.  1.
    9900012    2    1    2    0    0 -0.25523193773E+01  0.96953944695E+00 -0.40567324821E+02  0.50528902813E+02  0.30000130591E+02 0.  0.
         12    1    1    2    0    0  0.25523193773E+01 -0.96953944695E+00  0.40567324821E+02  0.40659097187E+02  0.00000000000E+00 0. -1.
         11    1    3    3    0    0 -0.32958164419E+01  0.88103920386E+01 -0.15019648846E+02  0.17722168761E+02  0.51100000000E-03 0. -1.
        -11    1    3    3    0    0 -0.45131787781E+01  0.49104841117E+01 -0.10035983721E+02  0.12050004415E+02  0.51100000000E-03 0.  1.
        -12    1    3    3    0    0  0.52566758427E+01 -0.12751336703E+02 -0.15511692254E+02  0.20756729637E+02  0.00000000000E+00 0.  1.
</event>
<event>
 7    1  0.8986500E-014  0.5052886E+02  0.7816164E-02  0.1300439E+00
        -11   -1    0    0    0    0  0.00000000000E+00  0.00000000000E+00  0.45593999997E+02  0.45594000000E+02  0.51100000000E-03 0. -1.
         11   -1    0    0    0    0 -0.00000000000E+00 -0.00000000000E+00 -0.45593999997E+02  0.45594000000E+02  0.51100000000E-03 0.  1.
    9900012    2    1    2    0    0  0.32057512930E+02 -0.16339133474E+02 -0.18934478852E+02  0.50528857026E+02  0.29999991418E+02 0.  0.
         12    1    1    2    0    0 -0.32057512930E+02  0.16339133474E+02  0.18934478852E+02  0.40659142974E+02  0.00000000000E+00 0. -1.
         11    1    3    3    0    0  0.42119517227E+01 -0.94958539446E+00  0.80234280385E+00  0.43915833104E+01  0.51100000000E-03 0. -1.
        -11    1    3    3    0    0  0.29356471243E+02 -0.47019943211E+01 -0.93721454883E+01  0.31172877085E+02  0.51100000000E-03 0.  1.
        -12    1    3    3    0    0 -0.15109100355E+01 -0.10687553759E+02 -0.10364676167E+02  0.14964396631E+02  0.00000000000E+00 0.  1.
</event>
<event>
 7    1  0.8986500E-014  0.5052885E+02  0.7816164E-02  0.1300439E+00
        -11   -1    0    0    0    0  0.00000000000E+00  0.00000000000E+00  0.45593999997E+02  0.45594000000E+02  0.51100000000E-03 0. -1.
         11   -1    0    0    0    0 -0.00000000000E+00 -0.00000000000E+00 -0.45593999997E+02  0.45594000000E+02  0.51100000000E-03 0.  1.
    9900012    2    1    2    0    0  0.15423341177E+02 -0.19504024972E+01 -0.37569711228E+02  0.50528846975E+02  0.29999960867E+02 0.  0.
         12    1    1    2    0    0 -0.15423341177E+02  0.19504024972E+01  0.37569711228E+02  0.40659153025E+02  0.00000000000E+00 0. -1.
         11    1    3    3    0    0  0.13421888327E+02 -0.33944338880E+00 -0.13541915195E+02  0.19069498564E+02  0.51100000000E-03 0. -1.
        -11    1    3    3    0    0  0.81476617115E+01  0.22439827093E+01 -0.22514182095E+02  0.24048040366E+02  0.51100000000E-03 0.  1.
        -12    1    3    3    0    0 -0.61462088621E+01 -0.38549418177E+01 -0.15136139378E+01  0.74113080456E+01  0.00000000000E+00 0.  1.
</event>
<event>
 7    1  0.8986500E-014  0.5052886E+02  0.7816164E-02  0.1300439E+00
        -11   -1    0    0    0    0  0.00000000000E+00  0.00000000000E+00  0.45593999997E+02  0.45594000000E+02  0.51100000000E-03 0. -1.
         11   -1    0    0    0    0 -0.00000000000E+00 -0.00000000000E+00 -0.45593999997E+02  0.45594000000E+02  0.51100000000E-03 0.  1.
    9900012    2    1    2    0    0  0.25490795484E+02  0.16991688493E+02 -0.26733271305E+02  0.50528856786E+02  0.29999990686E+02 0.  0.
         12    1    1    2    0    0 -0.25490795484E+02 -0.16991688493E+02  0.26733271305E+02  0.40659143214E+02  0.00000000000E+00 0. -1.
         11    1    3    3    0    0  0.11536039517E+02 -0.17006347549E+01 -0.19226281249E+01  0.11818158295E+02  0.51100000000E-03 0. -1.
        -11    1    3    3    0    0  0.13348588914E+02  0.26536703031E+01 -0.12556922744E+02  0.18517642969E+02  0.51100000000E-03 0.  1.
        -12    1    3    3    0    0  0.60616705245E+00  0.16038652945E+02 -0.12253720436E+02  0.20193055522E+02  0.00000000000E+00 0.  1.
</event>
<event>
 7    1  0.8986500E-014  0.5052883E+02  0.7816164E-02  0.1300439E+00
        -11   -1    0    0    0    0  0.00000000000E+00  0.00000000000E+00  0.45593999997E+02  0.45594000000E+02  0.51100000000E-03 0.  1.
         11   -1    0    0    0    0 -0.00000000000E+00 -0.00000000000E+00 -0.45593999997E+02  0.45594000000E+02  0.51100000000E-03 0. -1.
    9900012    2    1    2    0    0  0.86982478684E+01  0.30100946415E+02 -0.25912190933E+02  0.50528829694E+02  0.29999908336E+02 0.  0.
         12    1    1    2    0    0 -0.86982478684E+01 -0.30100946415E+02  0.25912190933E+02  0.40659170306E+02  0.00000000000E+00 0. -1.
         11    1    3    3    0    0  0.84103958479E+01  0.81484896228E+01 -0.23511527758E+01  0.11944059657E+02  0.51100000000E-03 0. -1.
        -11    1    3    3    0    0  0.84763059715E+01  0.14424958472E+02 -0.59541649286E+01  0.17758920859E+02  0.51100000000E-03 0.  1.
         12    1    3    3    0    0 -0.81884539510E+01  0.75274983210E+01 -0.17606873228E+02  0.20825849177E+02  0.00000000000E+00 0. -1.
</event>
<event>
 7    1  0.8986500E-014  0.5052886E+02  0.7816164E-02  0.1300439E+00
        -11   -1    0    0    0    0  0.00000000000E+00  0.00000000000E+00  0.45593999997E+02  0.45594000000E+02  0.51100000000E-03 0. -1.
         11   -1    0    0    0    0 -0.00000000000E+00 -0.00000000000E+00 -0.45593999997E+02  0.45594000000E+02  0.51100000000E-03 0.  1.
    9900012    2    1    2    0    0 -0.19475918923E+02  0.34350727044E+02  0.96892710750E+01  0.50528857851E+02  0.29999993923E+02 0.  0.
        -12    1    1    2    0    0  0.19475918923E+02 -0.34350727044E+02 -0.96892710750E+01  0.40659142149E+02  0.00000000000E+00 0.  1.
         11    1    3    3    0    0 -0.12542834847E+02  0.41624045557E+01  0.87148333363E+01  0.15830244408E+02  0.51100000000E-03 0. -1.
        -11    1    3    3    0    0  0.20123626234E+01  0.12379590694E+01 -0.33409573397E+01  0.40919606783E+01  0.51100000000E-03 0.  1.
         12    1    3    3    0    0 -0.89454466990E+01  0.28950363419E+02  0.43153950784E+01  0.30606652764E+02  0.00000000000E+00 0. -1.
</event>
<event>
 7    1  0.8986500E-014  0.5052886E+02  0.7816164E-02  0.1300439E+00
        -11   -1    0    0    0    0  0.00000000000E+00  0.00000000000E+00  0.45593999997E+02  0.45594000000E+02  0.51100000000E-03 0. -1.
         11   -1    0    0    0    0 -0.00000000000E+00 -0.00000000000E+00 -0.45593999997E+02  0.45594000000E+02  0.51100000000E-03 0.  1.
    9900012    2    1    2    0    0 -0.16505610261E+02 -0.16552720404E+02  0.33267672592E+02  0.50528858807E+02  0.29999996831E+02 0.  0.
        -12    1    1    2    0    0  0.16505610261E+02  0.16552720404E+02 -0.33267672592E+02  0.40659141193E+02  0.00000000000E+00 0.  1.
         11    1    3    3    0    0 -0.13679370474E+01 -0.21455070480E+01  0.51063269404E+01  0.57051754874E+01  0.51100000000E-03 0. -1.
        -11    1    3    3    0    0 -0.71090688159E+01 -0.10150721692E+02 -0.26735200081E+01  0.12677685901E+02  0.51100000000E-03 0.  1.
        -12    1    3    3    0    0 -0.80286043981E+01 -0.42564916639E+01  0.30834865659E+02  0.32145997419E+02  0.00000000000E+00 0.  1.
</event>
<event>
 7    1  0.8986500E-014  0.5052886E+02  0.7816164E-02  0.1300439E+00
        -11   -1    0    0    0    0  0.00000000000E+00  0.00000000000E+00  0.45593999997E+02  0.45594000000E+02  0.51100000000E-03 0.  1.
         11   -1    0    0    0    0 -0.00000000000E+00 -0.00000000000E+00 -0.45593999997E+02  0.45594000000E+02  0.51100000000E-03 0. -1.
    9900012    2    1    2    0    0 -0.10361294444E+01  0.34923810578E+02  0.20794692530E+02  0.50528863918E+02  0.30000012365E+02 0.  0.
        -12    1    1    2    0    0  0.10361294444E+01 -0.34923810578E+02 -0.20794692530E+02  0.40659136082E+02  0.00000000000E+00 0.  1.
         11    1    3    3    0    0 -0.73307756179E+01  0.15933132719E+02  0.10542645827E+02  0.20463439854E+02  0.51100000000E-03 0. -1.
        -11    1    3    3    0    0 -0.52212883362E+01  0.65760490201E+01  0.10095794485E+02  0.13131311403E+02  0.51100000000E-03 0.  1.
        -12    1    3    3    0    0  0.11515934510E+02  0.12414628839E+02  0.15625221850E+00  0.16934112661E+02  0.00000000000E+00 0.  1.
</event>
<event>
 7    1  0.9079719E-014  0.5052877E+02  0.7816164E-02  0.1300439E+00
        -11   -1    0    0    0    0  0.00000000000E+00  0.00000000000E+00  0.45593999997E+02  0.45594000000E+02  0.51100000000E-03 0. -1.
         11   -1    0    0    0    0 -0.00000000000E+00 -0.00000000000E+00 -0.45593999997E+02  0.45594000000E+02  0.51100000000E-03 0.  1.
    9900012    2    1    2    0    0  0.75092065166E+01 -0.72753388127E+01  0.39291910641E+02  0.50528770061E+02  0.29999727077E+02 0.  0.
        -12    1    1    2    0    0 -0.75092065166E+01  0.72753388127E+01 -0.39291910641E+02  0.40659229939E+02  0.00000000000E+00 0.  1.
         11    1    3    3    0    0  0.66603158005E+01 -0.93855875553E+01  0.19812271071E+02  0.22912336100E+02  0.51100000000E-03 0. -1.
        -11    1    3    3    0    0 -0.54076040467E+01 -0.39332738023E+01  0.46070559097E+00  0.67026169689E+01  0.51100000000E-03 0.  1.
         12    1    3    3    0    0  0.62564947628E+01  0.60435225449E+01  0.19018933979E+02  0.20913816992E+02  0.00000000000E+00 0. -1.
</event>
<event>
 7    1  0.8986500E-014  0.5052885E+02  0.7816164E-02  0.1300439E+00
        -11   -1    0    0    0    0  0.00000000000E+00  0.00000000000E+00  0.45593999997E+02  0.45594000000E+02  0.51100000000E-03 0. -1.
         11   -1    0    0    0    0 -0.00000000000E+00 -0.00000000000E+00 -0.45593999997E+02  0.45594000000E+02  0.51100000000E-03 0.  1.
    9900012    2    1    2    0    0  0.43869302277E+01 -0.32664752946E+02  0.23810393551E+02  0.50528854867E+02  0.29999984855E+02 0.  0.
        -12    1    1    2    0    0 -0.43869302277E+01  0.32664752946E+02 -0.23810393551E+02  0.40659145133E+02  0.00000000000E+00 0.  1.
         11    1    3    3    0    0 -0.22389686435E+01 -0.52235795862E+01  0.49650597773E+01  0.75465610137E+01  0.51100000000E-03 0. -1.
        -11    1    3    3    0    0  0.30414914545E+01 -0.15780635745E+02  0.24686614840E+02  0.29456885228E+02  0.51100000000E-03 0.  1.
        -12    1    3    3    0    0  0.35844074167E+01 -0.11660537615E+02 -0.58412810665E+01  0.13525408626E+02  0.00000000000E+00 0.  1.
</event>
<event>
 7    1  0.8986500E-014  0.5052885E+02  0.7816164E-02  0.1300439E+00
        -11   -1    0    0    0    0  0.00000000000E+00  0.00000000000E+00  0.45593999997E+02  0.45594000000E+02  0.51100000000E-03 0. -1.
         11   -1    0    0    0    0 -0.00000000000E+00 -0.00000000000E+00 -0.45593999997E+02  0.45594000000E+02  0.51100000000E-03 0.  1.
    9900012    2    1    2    0    0 -0.32514178998E+02 -0.10613838476E+02 -0.21985011941E+02  0.50528854003E+02  0.29999982229E+02 0.  0.
         12    1    1    2    0    0  0.32514178998E+02  0.10613838476E+02  0.21985011941E+02  0.40659145997E+02  0.00000000000E+00 0. -1.
         11    1    3    3    0    0 -0.25016845740E+01  0.48851655506E+01 -0.30334786479E+01  0.62709856588E+01  0.51100000000E-03 0. -1.
        -11    1    3    3    0    0 -0.28453525037E+02 -0.18568577031E+02 -0.21290348361E+02  0.40095811173E+02  0.51100000000E-03 0.  1.
         12    1    3    3    0    0 -0.15589693869E+01  0.30695730048E+01  0.23388150675E+01  0.41620571717E+01  0.00000000000E+00 0. -1.
</event>
<event>
 7    1  0.8986500E-014  0.5052886E+02  0.7816164E-02  0.1300439E+00
        -11   -1    0    0    0    0  0.00000000000E+00  0.00000000000E+00  0.45593999997E+02  0.45594000000E+02  0.51100000000E-03 0. -1.
         11   -1    0    0    0    0 -0.00000000000E+00 -0.00000000000E+00 -0.45593999997E+02  0.45594000000E+02  0.51100000000E-03 0.  1.
    9900012    2    1    2    0    0  0.44757911364E+01  0.39100834670E+01  0.40222437501E+02  0.50528856655E+02  0.29999990288E+02 0.  0.
        -12    1    1    2    0    0 -0.44757911364E+01 -0.39100834670E+01 -0.40222437501E+02  0.40659143345E+02  0.00000000000E+00 0.  1.
         11    1    3    3    0    0 -0.14251550864E+01  0.34678494012E+01  0.21332942785E+02  0.21659905231E+02  0.51100000000E-03 0. -1.
        -11    1    3    3    0    0  0.12174223322E+02 -0.48617862495E+01  0.84984975531E+01  0.15622840330E+02  0.51100000000E-03 0.  1.
         12    1    3    3    0    0 -0.62732770996E+01  0.53040203153E+01  0.10390997163E+02  0.13246111094E+02  0.00000000000E+00 0. -1.
</event>
<event>
 7    1  0.8986500E-014  0.5052887E+02  0.7816164E-02  0.1300439E+00
        -11   -1    0    0    0    0  0.00000000000E+00  0.00000000000E+00  0.45593999997E+02  0.45594000000E+02  0.51100000000E-03 0. -1.
         11   -1    0    0    0    0 -0.00000000000E+00 -0.00000000000E+00 -0.45593999997E+02  0.45594000000E+02  0.51100000000E-03 0.  1.
    9900012    2    1    2    0    0 -0.75047499888E+01  0.10496101331E+02 -0.38557425430E+02  0.50528874685E+02  0.30000045093E+02 0.  0.
         12    1    1    2    0    0  0.75047499888E+01 -0.10496101331E+02  0.38557425430E+02  0.40659125315E+02  0.00000000000E+00 0. -1.
         11    1    3    3    0    0  0.24196408635E+01 -0.43714986006E+01 -0.28269398589E+01  0.57407535351E+01  0.51100000000E-03 0. -1.
        -11    1    3    3    0    0  0.46626262674E+01  0.64486573908E+00 -0.15004711473E+02  0.15725689243E+02  0.51100000000E-03 0.  1.
         12    1    3    3    0    0 -0.14587017120E+02  0.14222734193E+02 -0.20725774098E+02  0.29062431907E+02  0.00000000000E+00 0. -1.
</event>
<event>
 7    1  0.8986500E-014  0.5052878E+02  0.7816164E-02  0.1300439E+00
        -11   -1    0    0    0    0  0.00000000000E+00  0.00000000000E+00  0.45593999997E+02  0.45594000000E+02  0.51100000000E-03 0. -1.
         11   -1    0    0    0    0 -0.00000000000E+00 -0.00000000000E+00 -0.45593999997E+02  0.45594000000E+02  0.51100000000E-03 0.  1.
    9900012    2    1    2    0    0  0.50883450589E+01  0.39619152218E+02 -0.75897286830E+01  0.50528776454E+02  0.29999746508E+02 0.  0.
         12    1    1    2    0    0 -0.50883450589E+01 -0.39619152218E+02  0.75897286830E+01  0.40659223546E+02  0.00000000000E+00 0. -1.
         11    1    3    3    0    0  0.21599893260E+01  0.99082231737E+01  0.16463046165E+01  0.10273692593E+02  0.51100000000E-03 0. -1.
        -11    1    3    3    0    0  0.13357037564E+02  0.17482166011E+02 -0.59766358422E+00  0.22008947793E+02  0.51100000000E-03 0.  1.
        -12    1    3    3    0    0 -0.10428681831E+02  0.12228763033E+02 -0.86383697153E+01  0.18246136067E+02  0.00000000000E+00 0.  1.
</event>
<event>
 7    1  0.8986500E-014  0.5052886E+02  0.7816164E-02  0.1300439E+00
        -11   -1    0    0    0    0  0.00000000000E+00  0.00000000000E+00  0.45593999997E+02  0.45594000000E+02  0.51100000000E-03 0. -1.
         11   -1    0    0    0    0 -0.00000000000E+00 -0.00000000000E+00 -0.45593999997E+02  0.45594000000E+02  0.51100000000E-03 0.  1.
    9900012    2    1    2    0    0  0.95681311394E+01  0.17188404513E+02 -0.35583355660E+02  0.50528861012E+02  0.30000003533E+02 0.  0.
         12    1    1    2    0    0 -0.95681311394E+01 -0.17188404513E+02  0.35583355660E+02  0.40659138988E+02  0.00000000000E+00 0. -1.
         11    1    3    3    0    0  0.75051183256E+01  0.71439123008E+01 -0.88858501720E+01  0.13649931047E+02  0.51100000000E-03 0. -1.
        -11    1    3    3    0    0  0.64830033933E+01  0.13739475543E+02 -0.77098776894E+01  0.17036570531E+02  0.51100000000E-03 0.  1.
        -12    1    3    3    0    0 -0.44199905795E+01 -0.36949833305E+01 -0.18987627798E+02  0.19842359435E+02  0.00000000000E+00 0.  1.
</event>
<event>
 7    1  0.1069640E-013  0.5052886E+02  0.7816164E-02  0.1300439E+00
        -11   -1    0    0    0    0  0.00000000000E+00  0.00000000000E+00  0.45593999997E+02  0.45594000000E+02  0.51100000000E-03 0. -1.
         11   -1    0    0    0    0 -0.00000000000E+00 -0.00000000000E+00 -0.45593999997E+02  0.45594000000E+02  0.51100000000E-03 0.  1.
    9900012    2    1    2    0    0  0.21801616921E+02  0.13478145730E+02  0.31562556464E+02  0.50528857323E+02  0.29999992319E+02 0.  0.
        -12    1    1    2    0    0 -0.21801616921E+02 -0.13478145730E+02 -0.31562556464E+02  0.40659142677E+02  0.00000000000E+00 0.  1.
         11    1    3    3    0    0  0.52967473007E+01  0.34966836523E+01  0.62648273554E+00  0.63776805667E+01  0.51100000000E-03 0. -1.
        -11    1    3    3    0    0  0.10045419878E+00 -0.14161921349E+01 -0.38136367768E+01  0.40693386361E+01  0.51100000000E-03 0.  1.
         12    1    3    3    0    0  0.16404415421E+02  0.11397654213E+02  0.34749710505E+02  0.40081838120E+02  0.00000000000E+00 0. -1.
</event>
<event>
 7    1  0.8986500E-014  0.5052879E+02  0.7816164E-02  0.1300439E+00
        -11   -1    0    0    0    0  0.00000000000E+00  0.00000000000E+00  0.45593999997E+02  0.45594000000E+02  0.51100000000E-03 0. -1.
         11   -1    0    0    0    0 -0.00000000000E+00 -0.00000000000E+00 -0.45593999997E+02  0.45594000000E+02  0.51100000000E-03 0.  1.
    9900012    2    1    2    0    0 -0.17121356469E+02  0.39686355591E+01 -0.36664428227E+02  0.50528791784E+02  0.29999793105E+02 0.  0.
         12    1    1    2    0    0  0.17121356469E+02 -0.39686355591E+01  0.36664428227E+02  0.40659208216E+02  0.00000000000E+00 0. -1.
         11    1    3    3    0    0  0.12711990869E+01  0.54135571578E+01 -0.15953737187E+02  0.16895096292E+02  0.51100000000E-03 0. -1.
        -11    1    3    3    0    0 -0.12299632264E+02  0.13919785868E+01 -0.23337998067E+02  0.26417431977E+02  0.51100000000E-03 0.  1.
        -12    1    3    3    0    0 -0.60929232914E+01 -0.28369001854E+01  0.26273070271E+01  0.72162635146E+01  0.00000000000E+00 0.  1.
</event>
<event>
 7    1  0.8986500E-014  0.5052886E+02  0.7816164E-02  0.1300439E+00
        -11   -1    0    0    0    0  0.00000000000E+00  0.00000000000E+00  0.45593999997E+02  0.45594000000E+02  0.51100000000E-03 0.  1.
         11   -1    0    0    0    0 -0.00000000000E+00 -0.00000000000E+00 -0.45593999997E+02  0.45594000000E+02  0.51100000000E-03 0. -1.
    9900012    2    1    2    0    0 -0.63783015591E+01 -0.39482180659E+02  0.73239663435E+01  0.50528858305E+02  0.29999995305E+02 0.  0.
        -12    1    1    2    0    0  0.63783015591E+01  0.39482180659E+02 -0.73239663435E+01  0.40659141695E+02  0.00000000000E+00 0.  1.
         11    1    3    3    0    0  0.96666588933E+01 -0.16376328143E+02  0.91454189571E+01  0.21101353174E+02  0.51100000000E-03 0.  1.
        -11    1    3    3    0    0 -0.34940526007E+01 -0.10162755034E+02  0.21659287841E+01  0.10962720521E+02  0.51100000000E-03 0. -1.
        -12    1    3    3    0    0 -0.12550907852E+02 -0.12943097482E+02 -0.39873813976E+01  0.18464784611E+02  0.00000000000E+00 0.  1.
</event>
<event>
 7    1  0.8986500E-014  0.5052886E+02  0.7816164E-02  0.1300439E+00
        -11   -1    0    0    0    0  0.00000000000E+00  0.00000000000E+00  0.45593999997E+02  0.45594000000E+02  0.51100000000E-03 0. -1.
         11   -1    0    0    0    0 -0.00000000000E+00 -0.00000000000E+00 -0.45593999997E+02  0.45594000000E+02  0.51100000000E-03 0.  1.
    9900012    2    1    2    0    0  0.15378483436E+02  0.27320053941E+02  0.25889817274E+02  0.50528859101E+02  0.29999997725E+02 0.  0.
        -12    1    1    2    0    0 -0.15378483436E+02 -0.27320053941E+02 -0.25889817274E+02  0.40659140899E+02  0.00000000000E+00 0.  1.
         11    1    3    3    0    0  0.76417845610E+01  0.22968616242E+02  0.30942467045E+02  0.39286008584E+02  0.51100000000E-03 0. -1.
        -11    1    3    3    0    0  0.16631559761E+01  0.27552975101E+01 -0.57776389238E-01  0.32188647909E+01  0.51100000000E-03 0.  1.
         12    1    3    3    0    0  0.60735428991E+01  0.15961401881E+01 -0.49948733813E+01  0.80239857267E+01  0.00000000000E+00 0. -1.
</event>
<event>
 7    1  0.8986500E-014  0.5052885E+02  0.7816164E-02  0.1300439E+00
        -11   -1    0    0    0    0  0.00000000000E+00  0.00000000000E+00  0.45593999997E+02  0.45594000000E+02  0.51100000000E-03 0.  1.
         11   -1    0    0    0    0 -0.00000000000E+00 -0.00000000000E+00 -0.45593999997E+02  0.45594000000E+02  0.51100000000E-03 0. -1.
    9900012    2    1    2    0    0 -0.24606418715E+02 -0.28396027144E+02  0.15535640278E+02  0.50528851971E+02  0.29999976053E+02 0.  0.
        -12    1    1    2    0    0  0.24606418715E+02  0.28396027144E+02 -0.15535640278E+02  0.40659148029E+02  0.00000000000E+00 0.  1.
         11    1    3    3    0    0 -0.34358835158E+01 -0.10388888292E+02 -0.80858033901E+00  0.10972151015E+02  0.51100000000E-03 0. -1.
        -11    1    3    3    0    0 -0.15084526739E+02 -0.18461194896E+02  0.19473103120E+01  0.23919671437E+02  0.51100000000E-03 0.  1.
        -12    1    3    3    0    0 -0.60860084595E+01  0.45405604303E+00  0.14396910305E+02  0.15637029520E+02  0.00000000000E+00 0.  1.
</event>
<event>
 7    1  0.8986500E-014  0.5052887E+02  0.7816164E-02  0.1300439E+00
        -11   -1    0    0    0    0  0.00000000000E+00  0.00000000000E+00  0.45593999997E+02  0.45594000000E+02  0.51100000000E-03 0. -1.
         11   -1    0    0    0    0 -0.00000000000E+00 -0.00000000000E+00 -0.45593999997E+02  0.45594000000E+02  0.51100000000E-03 0.  1.
    9900012    2    1    2    0    0  0.92749844491E+01 -0.25540292424E+02  0.30246202522E+02  0.50528872604E+02  0.30000038766E+02 0.  0.
        -12    1    1    2    0    0 -0.92749844491E+01  0.25540292424E+02 -0.30246202522E+02  0.40659127396E+02  0.00000000000E+00 0.  1.
         11    1    3    3    0    0 -0.18617416729E+01 -0.16190586087E+01  0.40254491306E+01  0.47214059134E+01  0.51100000000E-03 0. -1.
        -11    1    3    3    0    0 -0.87725636831E+01 -0.51135563388E+01  0.77335056777E+01  0.12763755025E+02  0.51100000000E-03 0.  1.
         12    1    3    3    0    0  0.19909289805E+02 -0.18807677477E+02  0.18487247713E+02  0.33043711665E+02  0.00000000000E+00 0. -1.
</event>
<event>
 7    1  0.8986500E-014  0.5052888E+02  0.7816164E-02  0.1300439E+00
        -11   -1    0    0    0    0  0.00000000000E+00  0.00000000000E+00  0.45593999997E+02  0.45594000000E+02  0.51100000000E-03 0. -1.
         11   -1    0    0    0    0 -0.00000000000E+00 -0.00000000000E+00 -0.45593999997E+02  0.45594000000E+02  0.51100000000E-03 0.  1.
    9900012    2    1    2    0    0  0.17674983500E+02  0.21414097636E+02  0.29701771876E+02  0.50528882058E+02  0.30000067503E+02 0.  0.
        -12    1    1    2    0    0 -0.17674983500E+02 -0.21414097636E+02 -0.29701771876E+02  0.40659117942E+02  0.00000000000E+00 0.  1.
         11    1    3    3    0    0  0.12873418311E+02  0.26626669296E+02  0.24689163961E+02  0.38526085114E+02  0.51100000000E-03 0. -1.
        -11    1    3    3    0    0 -0.23366054121E+01 -0.96938677070E+00  0.17728952571E+01  0.30891088386E+01  0.51100000000E-03 0.  1.
        -12    1    3    3    0    0  0.71381706010E+01 -0.42431848899E+01  0.32397126576E+01  0.89136881056E+01  0.00000000000E+00 0.  1.
</event>
<event>
 7    1  0.8986500E-014  0.5052885E+02  0.7816164E-02  0.1300439E+00
        -11   -1    0    0    0    0  0.00000000000E+00  0.00000000000E+00  0.45593999997E+02  0.45594000000E+02  0.51100000000E-03 0. -1.
         11   -1    0    0    0    0 -0.00000000000E+00 -0.00000000000E+00 -0.45593999997E+02  0.45594000000E+02  0.51100000000E-03 0.  1.
    9900012    2    1    2    0    0 -0.30998658475E+02  0.23756477849E+02  0.11308392929E+02  0.50528845832E+02  0.29999957390E+02 0.  0.
        -12    1    1    2    0    0  0.30998658475E+02 -0.23756477849E+02 -0.11308392929E+02  0.40659154168E+02  0.00000000000E+00 0.  1.
         11    1    3    3    0    0  0.78976098058E+00  0.71210733296E+00 -0.33648413608E+01  0.35288775700E+01  0.51100000000E-03 0. -1.
        -11    1    3    3    0    0 -0.26109127922E-01  0.29619192396E+01 -0.40482121475E+01  0.50161408593E+01  0.51100000000E-03 0.  1.
         12    1    3    3    0    0 -0.31762310328E+02  0.20082451276E+02  0.18721446437E+02  0.41983827402E+02  0.00000000000E+00 0. -1.
</event>
<event>
 7    1  0.8986500E-014  0.5052887E+02  0.7816164E-02  0.1300439E+00
        -11   -1    0    0    0    0  0.00000000000E+00  0.00000000000E+00  0.45593999997E+02  0.45594000000E+02  0.51100000000E-03 0. -1.
         11   -1    0    0    0    0 -0.00000000000E+00 -0.00000000000E+00 -0.45593999997E+02  0.45594000000E+02  0.51100000000E-03 0.  1.
    9900012    2    1    2    0    0  0.89136525339E+01 -0.38322473313E+02  0.10251824846E+02  0.50528867263E+02  0.30000022531E+02 0.  0.
        -12    1    1    2    0    0 -0.89136525339E+01  0.38322473313E+02 -0.10251824846E+02  0.40659132737E+02  0.00000000000E+00 0.  1.
         11    1    3    3    0    0 -0.43226734021E+00 -0.10824992919E+01 -0.33769733799E+01  0.35724794248E+01  0.51100000000E-03 0. -1.
        -11    1    3    3    0    0  0.46839487955E+01  0.57083943130E-01 -0.33028053812E+01  0.57315930196E+01  0.51100000000E-03 0.  1.
         12    1    3    3    0    0  0.46619710786E+01 -0.37297057964E+02  0.16931603607E+02  0.41224794818E+02  0.00000000000E+00 0. -1.
</event>
<event>
 7    1  0.8986500E-014  0.5052886E+02  0.7816164E-02  0.1300439E+00
        -11   -1    0    0    0    0  0.00000000000E+00  0.00000000000E+00  0.45593999997E+02  0.45594000000E+02  0.51100000000E-03 0. -1.
         11   -1    0    0    0    0 -0.00000000000E+00 -0.00000000000E+00 -0.45593999997E+02  0.45594000000E+02  0.51100000000E-03 0.  1.
    9900012    2    1    2    0    0 -0.24255825674E+02 -0.14440645657E+02  0.29262406097E+02  0.50528859125E+02  0.29999997796E+02 0.  0.
        -12    1    1    2    0    0  0.24255825674E+02  0.14440645657E+02 -0.29262406097E+02  0.40659140875E+02  0.00000000000E+00 0.  1.
         11    1    3    3    0    0 -0.10294311912E+02  0.52406767920E+01  0.99254282108E+01  0.15229959829E+02  0.51100000000E-03 0. -1.
        -11    1    3    3    0    0  0.18443195450E+01  0.14920742618E+01  0.42643581651E+01  0.48798105504E+01  0.51100000000E-03 0.  1.
         12    1    3    3    0    0 -0.15805833307E+02 -0.21173396711E+02  0.15072619721E+02  0.30419088745E+02  0.00000000000E+00 0. -1.
</event>
<event>
 7    1  0.8986500E-014  0.5052886E+02  0.7816164E-02  0.1300439E+00
        -11   -1    0    0    0    0  0.00000000000E+00  0.00000000000E+00  0.45593999997E+02  0.45594000000E+02  0.51100000000E-03 0.  1.
         11   -1    0    0    0    0 -0.00000000000E+00 -0.00000000000E+00 -0.45593999997E+02  0.45594000000E+02  0.51100000000E-03 0. -1.
    9900012    2    1    2    0    0  0.12366647012E+02 -0.35496425167E+02 -0.15499529254E+02  0.50528861236E+02  0.30000004212E+02 0.  0.
        -12    1    1    2    0    0 -0.12366647012E+02  0.35496425167E+02  0.15499529254E+02  0.40659138764E+02  0.00000000000E+00 0.  1.
         11    1    3    3    0    0  0.11730980478E+02 -0.24471361025E+02 -0.34715624075E+01  0.27359005084E+02  0.51100000000E-03 0.  1.
        -11    1    3    3    0    0  0.79593626058E+01 -0.77997372852E+01 -0.98579734174E+01  0.14878407004E+02  0.51100000000E-03 0. -1.
        -12    1    3    3    0    0 -0.73236960718E+01 -0.32253268565E+01 -0.21699934295E+01  0.82914491476E+01  0.00000000000E+00 0.  1.
</event>
<event>
 7    1  0.8986500E-014  0.5052886E+02  0.7816164E-02  0.1300439E+00
        -11   -1    0    0    0    0  0.00000000000E+00  0.00000000000E+00  0.45593999997E+02  0.45594000000E+02  0.51100000000E-03 0. -1.
         11   -1    0    0    0    0 -0.00000000000E+00 -0.00000000000E+00 -0.45593999997E+02  0.45594000000E+02  0.51100000000E-03 0.  1.
    9900012    2    1    2    0    0  0.30368125545E+02  0.22069560888E+02  0.15616554663E+02  0.50528863923E+02  0.30000012382E+02 0.  0.
        -12    1    1    2    0    0 -0.30368125545E+02 -0.22069560888E+02 -0.15616554663E+02  0.40659136077E+02  0.00000000000E+00 0.  1.
         11    1    3    3    0    0  0.45686101947E+01  0.10630119246E+02  0.14502019355E+02  0.18552094219E+02  0.51100000000E-03 0. -1.
        -11    1    3    3    0    0  0.16330980154E+02  0.17351295488E+01 -0.49086946079E+01  0.17140795499E+02  0.51100000000E-03 0.  1.
         12    1    3    3    0    0  0.94685351969E+01  0.97043120931E+01  0.60232299164E+01  0.14835974205E+02  0.00000000000E+00 0. -1.
</event>
<event>
 7    1  0.8986500E-014  0.5052885E+02  0.7816164E-02  0.1300439E+00
        -11   -1    0    0    0    0  0.00000000000E+00  0.00000000000E+00  0.45593999997E+02  0.45594000000E+02  0.51100000000E-03 0. -1.
         11   -1    0    0    0    0 -0.00000000000E+00 -0.00000000000E+00 -0.45593999997E+02  0.45594000000E+02  0.51100000000E-03 0.  1.
    9900012    2    1    2    0    0  0.27691984261E+02  0.13673352041E+02 -0.26445412189E+02  0.50528851285E+02  0.29999973966E+02 0.  0.
         12    1    1    2    0    0 -0.27691984261E+02 -0.13673352041E+02  0.26445412189E+02  0.40659148715E+02  0.00000000000E+00 0. -1.
         11    1    3    3    0    0  0.72421233345E+01  0.16053254451E+02 -0.13833109186E+02  0.22394424281E+02  0.51100000000E-03 0. -1.
        -11    1    3    3    0    0  0.40208218003E+01  0.53847395651E+01 -0.16772275180E+01  0.69264363523E+01  0.51100000000E-03 0.  1.
         12    1    3    3    0    0  0.16429039126E+02 -0.77646419748E+01 -0.10935075485E+02  0.21207990652E+02  0.00000000000E+00 0. -1.
</event>
<event>
 7    1  0.8986500E-014  0.5052886E+02  0.7816164E-02  0.1300439E+00
        -11   -1    0    0    0    0  0.00000000000E+00  0.00000000000E+00  0.45593999997E+02  0.45594000000E+02  0.51100000000E-03 0. -1.
         11   -1    0    0    0    0 -0.00000000000E+00 -0.00000000000E+00 -0.45593999997E+02  0.45594000000E+02  0.51100000000E-03 0.  1.
    9900012    2    1    2    0    0  0.13863646348E+01  0.17307344625E+02 -0.36765461102E+02  0.50528864312E+02  0.30000013562E+02 0.  0.
         12    1    1    2    0    0 -0.13863646348E+01 -0.17307344625E+02  0.36765461102E+02  0.40659135688E+02  0.00000000000E+00 0. -1.
         11    1    3    3    0    0  0.36970256640E+00 -0.28462914859E+01 -0.73641443792E+01  0.79037129192E+01  0.51100000000E-03 0.  1.
        -11    1    3    3    0    0  0.40723482664E+01  0.32281017163E+01  0.29576773727E+01  0.59793408329E+01  0.51100000000E-03 0. -1.
        -12    1    3    3    0    0 -0.30556861980E+01  0.16925534395E+02 -0.32358994096E+02  0.36645810560E+02  0.00000000000E+00 0.  1.
</event>
<event>
 7    1  0.8986500E-014  0.5052886E+02  0.7816164E-02  0.1300439E+00
        -11   -1    0    0    0    0  0.00000000000E+00  0.00000000000E+00  0.45593999997E+02  0.45594000000E+02  0.51100000000E-03 0. -1.
         11   -1    0    0    0    0 -0.00000000000E+00 -0.00000000000E+00 -0.45593999997E+02  0.45594000000E+02  0.51100000000E-03 0.  1.
    9900012    2    1    2    0    0 -0.17302637266E+02 -0.12606430971E+02 -0.34566783197E+02  0.50528857624E+02  0.29999993232E+02 0.  0.
         12    1    1    2    0    0  0.17302637266E+02  0.12606430971E+02  0.34566783197E+02  0.40659142376E+02  0.00000000000E+00 0. -1.
         11    1    3    3    0    0 -0.93727321263E+01  0.10077168247E+01 -0.11881906624E+01  0.95013366439E+01  0.51100000000E-03 0. -1.
        -11    1    3    3    0    0 -0.90860615035E+01 -0.54955292932E+00 -0.67108379371E+01  0.11309017117E+02  0.51100000000E-03 0.  1.
        -12    1    3    3    0    0  0.11561563638E+01 -0.13064594866E+02 -0.26667754598E+02  0.29718503863E+02  0.00000000000E+00 0.  1.
</event>
<event>
 7    1  0.8986500E-014  0.5052885E+02  0.7816164E-02  0.1300439E+00
        -11   -1    0    0    0    0  0.00000000000E+00  0.00000000000E+00  0.45593999997E+02  0.45594000000E+02  0.51100000000E-03 0. -1.
         11   -1    0    0    0    0 -0.00000000000E+00 -0.00000000000E+00 -0.45593999997E+02  0.45594000000E+02  0.51100000000E-03 0.  1.
    9900012    2    1    2    0    0 -0.13020485377E+01 -0.34329825399E+02  0.21747060333E+02  0.50528845121E+02  0.29999955230E+02 0.  0.
        -12    1    1    2    0    0  0.13020485377E+01  0.34329825399E+02 -0.21747060333E+02  0.40659154879E+02  0.00000000000E+00 0.  1.
         11    1    3    3    0    0  0.16056624085E+01 -0.93049635685E+01 -0.90498606246E+00  0.94857524117E+01  0.51100000000E-03 0. -1.
        -11    1    3    3    0    0 -0.31689853465E+00 -0.34120065424E+01 -0.48691154402E+01  0.59540321428E+01  0.51100000000E-03 0.  1.
         12    1    3    3    0    0 -0.25908124116E+01 -0.21612855288E+02  0.27521161835E+02  0.35089060567E+02  0.00000000000E+00 0. -1.
</event>
<event>
 7    1  0.8986500E-014  0.5052887E+02  0.7816164E-02  0.1300439E+00
        -11   -1    0    0    0    0  0.00000000000E+00  0.00000000000E+00  0.45593999997E+02  0.45594000000E+02  0.51100000000E-03 0. -1.
         11   -1    0    0    0    0 -0.00000000000E+00 -0.00000000000E+00 -0.45593999997E+02  0.45594000000E+02  0.51100000000E-03 0.  1.
    9900012    2    1    2    0    0  0.37194281393E+01 -0.50176315906E+00 -0.40485543336E+02  0.50528866572E+02  0.30000020432E+02 0.  0.
         12    1    1    2    0    0 -0.37194281393E+01  0.50176315906E+00  0.40485543336E+02  0.40659133428E+02  0.00000000000E+00 0. -1.
         11    1    3    3    0    0 -0.68743251541E+00 -0.13879991554E+02 -0.22157937522E+02  0.26155323062E+02  0.51100000000E-03 0. -1.
        -11    1    3    3    0    0  0.44780096029E+01  0.96532717451E+01 -0.17615914308E+02  0.20580540871E+02  0.51100000000E-03 0.  1.
        -12    1    3    3    0    0 -0.71148948127E-01  0.37249566499E+01 -0.71169150580E+00  0.37930026385E+01  0.00000000000E+00 0.  1.
</event>
<event>
 7    1  0.8986500E-014  0.5052886E+02  0.7816164E-02  0.1300439E+00
        -11   -1    0    0    0    0  0.00000000000E+00  0.00000000000E+00  0.45593999997E+02  0.45594000000E+02  0.51100000000E-03 0. -1.
         11   -1    0    0    0    0 -0.00000000000E+00 -0.00000000000E+00 -0.45593999997E+02  0.45594000000E+02  0.51100000000E-03 0.  1.
    9900012    2    1    2    0    0  0.18911341922E+02  0.22108276016E+02 -0.28403359971E+02  0.50528861060E+02  0.30000003677E+02 0.  0.
         12    1    1    2    0    0 -0.18911341922E+02 -0.22108276016E+02  0.28403359971E+02  0.40659138940E+02  0.00000000000E+00 0. -1.
         11    1    3    3    0    0 -0.55345510352E+01  0.81918890930E+01 -0.12842548938E+02  0.16207077638E+02  0.51100000000E-03 0.  1.
        -11    1    3    3    0    0  0.14028760701E+01  0.60264709240E+01 -0.39370677863E+01  0.73339563729E+01  0.51100000000E-03 0. -1.
         12    1    3    3    0    0  0.23043016887E+02  0.78899159995E+01 -0.11623743247E+02  0.26987827049E+02  0.00000000000E+00 0. -1.
</event>
<event>
 7    1  0.8986500E-014  0.5052888E+02  0.7816164E-02  0.1300439E+00
        -11   -1    0    0    0    0  0.00000000000E+00  0.00000000000E+00  0.45593999997E+02  0.45594000000E+02  0.51100000000E-03 0. -1.
         11   -1    0    0    0    0 -0.00000000000E+00 -0.00000000000E+00 -0.45593999997E+02  0.45594000000E+02  0.51100000000E-03 0.  1.
    9900012    2    1    2    0    0  0.39913958400E-01 -0.30684826968E+02  0.26675900663E+02  0.50528882014E+02  0.30000067370E+02 0.  0.
        -12    1    1    2    0    0 -0.39913958400E-01  0.30684826968E+02 -0.26675900663E+02  0.40659117986E+02  0.00000000000E+00 0.  1.
         11    1    3    3    0    0 -0.54564574011E+01 -0.97252167582E+01  0.60855678123E+01  0.12703814554E+02  0.51100000000E-03 0. -1.
        -11    1    3    3    0    0 -0.68338300681E+01 -0.10367655277E+02  0.11293693131E+01  0.12468559846E+02  0.51100000000E-03 0.  1.
         12    1    3    3    0    0  0.12330201428E+02 -0.10591954934E+02  0.19460963537E+02  0.25356507614E+02  0.00000000000E+00 0. -1.
</event>
<event>
 7    1  0.8986500E-014  0.5052886E+02  0.7816164E-02  0.1300439E+00
        -11   -1    0    0    0    0  0.00000000000E+00  0.00000000000E+00  0.45593999997E+02  0.45594000000E+02  0.51100000000E-03 0. -1.
         11   -1    0    0    0    0 -0.00000000000E+00 -0.00000000000E+00 -0.45593999997E+02  0.45594000000E+02  0.51100000000E-03 0.  1.
    9900012    2    1    2    0    0  0.14569585869E+02  0.10053788621E+02 -0.36603468813E+02  0.50528862931E+02  0.30000009365E+02 0.  0.
         12    1    1    2    0    0 -0.14569585869E+02 -0.10053788621E+02  0.36603468813E+02  0.40659137069E+02  0.00000000000E+00 0. -1.
         11    1    3    3    0    0  0.17940328742E+01  0.18662138997E+01 -0.12523152526E+01  0.28756915735E+01  0.51100000000E-03 0.  1.
        -11    1    3    3    0    0  0.19731858112E+02  0.92178520773E+01 -0.15886858267E+02  0.26957508923E+02  0.51100000000E-03 0. -1.
         12    1    3    3    0    0 -0.69563051178E+01 -0.10302773559E+01 -0.19464295294E+02  0.20695662434E+02  0.00000000000E+00 0. -1.
</event>
<event>
 7    1  0.8986500E-014  0.5052884E+02  0.7816164E-02  0.1300439E+00
        -11   -1    0    0    0    0  0.00000000000E+00  0.00000000000E+00  0.45593999997E+02  0.45594000000E+02  0.51100000000E-03 0. -1.
         11   -1    0    0    0    0 -0.00000000000E+00 -0.00000000000E+00 -0.45593999997E+02  0.45594000000E+02  0.51100000000E-03 0.  1.
    9900012    2    1    2    0    0  0.67031138211E+01  0.28726071016E+02  0.27983001441E+02  0.50528840385E+02  0.29999940836E+02 0.  0.
        -12    1    1    2    0    0 -0.67031138211E+01 -0.28726071016E+02 -0.27983001441E+02  0.40659159615E+02  0.00000000000E+00 0.  1.
         11    1    3    3    0    0  0.33892495977E+01  0.76462073058E+01  0.60823851241E-01  0.83639224530E+01  0.51100000000E-03 0. -1.
        -11    1    3    3    0    0  0.78445339321E+01  0.11319741396E+02  0.17699097597E+01  0.13885454213E+02  0.51100000000E-03 0.  1.
         12    1    3    3    0    0 -0.45306697087E+01  0.97601223140E+01  0.26152267830E+02  0.28279463719E+02  0.00000000000E+00 0. -1.
</event>
<event>
 7    1  0.8986500E-014  0.5052885E+02  0.7816164E-02  0.1300439E+00
        -11   -1    0    0    0    0  0.00000000000E+00  0.00000000000E+00  0.45593999997E+02  0.45594000000E+02  0.51100000000E-03 0. -1.
         11   -1    0    0    0    0 -0.00000000000E+00 -0.00000000000E+00 -0.45593999997E+02  0.45594000000E+02  0.51100000000E-03 0.  1.
    9900012    2    1    2    0    0 -0.15439031898E+02  0.15046978059E+02 -0.34473053988E+02  0.50528847206E+02  0.29999961567E+02 0.  0.
         12    1    1    2    0    0  0.15439031898E+02 -0.15046978059E+02  0.34473053988E+02  0.40659152794E+02  0.00000000000E+00 0. -1.
         11    1    3    3    0    0 -0.61092682487E+01  0.14917507702E+02 -0.28247179969E+01  0.16365641649E+02  0.51100000000E-03 0. -1.
        -11    1    3    3    0    0 -0.40609816975E+01  0.41248115324E+00 -0.30847871434E+01  0.51164074340E+01  0.51100000000E-03 0.  1.
        -12    1    3    3    0    0 -0.52687819518E+01 -0.28301079630E+00 -0.28563548848E+02  0.29046798122E+02  0.00000000000E+00 0.  1.
</event>
<event>
 7    1  0.8986500E-014  0.5052886E+02  0.7816164E-02  0.1300439E+00
        -11   -1    0    0    0    0  0.00000000000E+00  0.00000000000E+00  0.45593999997E+02  0.45594000000E+02  0.51100000000E-03 0.  1.
         11   -1    0    0    0    0 -0.00000000000E+00 -0.00000000000E+00 -0.45593999997E+02  0.45594000000E+02  0.51100000000E-03 0. -1.
    9900012    2    1    2    0    0  0.30443859993E+02 -0.24544141109E+01 -0.26838645062E+02  0.50528860454E+02  0.30000001835E+02 0.  0.
         12    1    1    2    0    0 -0.30443859993E+02  0.24544141109E+01  0.26838645062E+02  0.40659139546E+02  0.00000000000E+00 0. -1.
         11    1    3    3    0    0  0.62160342904E+01 -0.12023478452E+02 -0.43932340405E+01  0.14230376734E+02  0.51100000000E-03 0. -1.
        -11    1    3    3    0    0  0.28913705721E+01  0.86421279009E+00  0.12310615249E+01  0.32592023980E+01  0.51100000000E-03 0.  1.
         12    1    3    3    0    0  0.21336455130E+02  0.87048515510E+01 -0.23676472546E+02  0.33039281322E+02  0.00000000000E+00 0. -1.
</event>
<event>
 7    1  0.8986500E-014  0.5052886E+02  0.7816164E-02  0.1300439E+00
        -11   -1    0    0    0    0  0.00000000000E+00  0.00000000000E+00  0.45593999997E+02  0.45594000000E+02  0.51100000000E-03 0. -1.
         11   -1    0    0    0    0 -0.00000000000E+00 -0.00000000000E+00 -0.45593999997E+02  0.45594000000E+02  0.51100000000E-03 0.  1.
    9900012    2    1    2    0    0 -0.26091705911E+02  0.28602683487E+02 -0.12420749091E+02  0.50528860461E+02  0.30000001859E+02 0.  0.
         12    1    1    2    0    0  0.26091705911E+02 -0.28602683487E+02  0.12420749091E+02  0.40659139539E+02  0.00000000000E+00 0. -1.
         11    1    3    3    0    0 -0.55357772955E+00 -0.19537283667E+01  0.23555939597E+01  0.31100363338E+01  0.51100000000E-03 0. -1.
        -11    1    3    3    0    0  0.15142740383E+00  0.21625511978E+01 -0.83075256882E+01  0.85857172830E+01  0.51100000000E-03 0.  1.
        -12    1    3    3    0    0 -0.25689555586E+02  0.28393860656E+02 -0.64688173627E+01  0.38833106845E+02  0.00000000000E+00 0.  1.
</event>
<event>
 7    1  0.8986500E-014  0.5052886E+02  0.7816164E-02  0.1300439E+00
        -11   -1    0    0    0    0  0.00000000000E+00  0.00000000000E+00  0.45593999997E+02  0.45594000000E+02  0.51100000000E-03 0. -1.
         11   -1    0    0    0    0 -0.00000000000E+00 -0.00000000000E+00 -0.45593999997E+02  0.45594000000E+02  0.51100000000E-03 0.  1.
    9900012    2    1    2    0    0 -0.23400548606E+02 -0.22585296827E+02  0.24402552312E+02  0.50528857521E+02  0.29999992920E+02 0.  0.
        -12    1    1    2    0    0  0.23400548606E+02  0.22585296827E+02 -0.24402552312E+02  0.40659142479E+02  0.00000000000E+00 0.  1.
         11    1    3    3    0    0 -0.25059727686E+01 -0.15372166010E+01  0.13052638817E+02  0.13379623117E+02  0.51100000000E-03 0. -1.
        -11    1    3    3    0    0 -0.39983836660E+01 -0.15558553394E+02 -0.64137508396E-02  0.16064112084E+02  0.51100000000E-03 0.  1.
         12    1    3    3    0    0 -0.16896192171E+02 -0.54895268313E+01  0.11356327246E+02  0.21085122320E+02  0.00000000000E+00 0. -1.
</event>
<event>
 7    1  0.8986500E-014  0.5052886E+02  0.7816164E-02  0.1300439E+00
        -11   -1    0    0    0    0  0.00000000000E+00  0.00000000000E+00  0.45593999997E+02  0.45594000000E+02  0.51100000000E-03 0.  1.
         11   -1    0    0    0    0 -0.00000000000E+00 -0.00000000000E+00 -0.45593999997E+02  0.45594000000E+02  0.51100000000E-03 0. -1.
    9900012    2    1    2    0    0  0.41999827447E+01  0.29815199417E+02 -0.27323613523E+02  0.50528858011E+02  0.29999994410E+02 0.  0.
         12    1    1    2    0    0 -0.41999827447E+01 -0.29815199417E+02  0.27323613523E+02  0.40659141989E+02  0.00000000000E+00 0. -1.
         11    1    3    3    0    0 -0.19600917217E+01 -0.48435806781E+01 -0.50104471430E+01  0.72392550843E+01  0.51100000000E-03 0. -1.
        -11    1    3    3    0    0 -0.31597424160E+01  0.48368117640E+01 -0.45077987380E+01  0.73279580990E+01  0.51100000000E-03 0.  1.
         12    1    3    3    0    0  0.93198168824E+01  0.29821968331E+02 -0.17805367642E+02  0.35961644828E+02  0.00000000000E+00 0. -1.
</event>
<event>
 7    1  0.8986500E-014  0.5052884E+02  0.7816164E-02  0.1300439E+00
        -11   -1    0    0    0    0  0.00000000000E+00  0.00000000000E+00  0.45593999997E+02  0.45594000000E+02  0.51100000000E-03 0. -1.
         11   -1    0    0    0    0 -0.00000000000E+00 -0.00000000000E+00 -0.45593999997E+02  0.45594000000E+02  0.51100000000E-03 0.  1.
    9900012    2    1    2    0    0  0.16692030809E+02  0.23448860515E+01  0.37000605493E+02  0.50528841253E+02  0.29999943473E+02 0.  0.
        -12    1    1    2    0    0 -0.16692030809E+02 -0.23448860515E+01 -0.37000605493E+02  0.40659158747E+02  0.00000000000E+00 0.  1.
         11    1    3    3    0    0  0.71353517198E+01  0.59888950005E+01  0.10514420970E+02  0.14047532029E+02  0.51100000000E-03 0. -1.
        -11    1    3    3    0    0 -0.76717688926E-01  0.15677630085E+01 -0.38878852030E+01  0.41927816623E+01  0.51100000000E-03 0.  1.
        -12    1    3    3    0    0  0.96333967779E+01 -0.52117719575E+01  0.30374069726E+02  0.32288527562E+02  0.00000000000E+00 0.  1.
</event>
<event>
 7    1  0.8986500E-014  0.5052885E+02  0.7816164E-02  0.1300439E+00
        -11   -1    0    0    0    0  0.00000000000E+00  0.00000000000E+00  0.45593999997E+02  0.45594000000E+02  0.51100000000E-03 0. -1.
         11   -1    0    0    0    0 -0.00000000000E+00 -0.00000000000E+00 -0.45593999997E+02  0.45594000000E+02  0.51100000000E-03 0.  1.
    9900012    2    1    2    0    0  0.81744646604E+01 -0.26499078238E+02  0.29734548585E+02  0.50528850974E+02  0.29999973020E+02 0.  0.
        -12    1    1    2    0    0 -0.81744646604E+01  0.26499078238E+02 -0.29734548585E+02  0.40659149026E+02  0.00000000000E+00 0.  1.
         11    1    3    3    0    0  0.10628289161E+02 -0.18242406944E+02  0.18064526456E+02  0.27786202654E+02  0.51100000000E-03 0. -1.
        -11    1    3    3    0    0  0.63963707833E+01 -0.77139944240E+01  0.33027312938E+01  0.10551175453E+02  0.51100000000E-03 0.  1.
         12    1    3    3    0    0 -0.88501952835E+01 -0.54267686977E+00  0.83672908352E+01  0.12191472867E+02  0.00000000000E+00 0. -1.
</event>
<event>
 7    1  0.8986500E-014  0.5052886E+02  0.7816164E-02  0.1300439E+00
        -11   -1    0    0    0    0  0.00000000000E+00  0.00000000000E+00  0.45593999997E+02  0.45594000000E+02  0.51100000000E-03 0. -1.
         11   -1    0    0    0    0 -0.00000000000E+00 -0.00000000000E+00 -0.45593999997E+02  0.45594000000E+02  0.51100000000E-03 0.  1.
    9900012    2    1    2    0    0  0.17820514887E+02 -0.10963082043E+02  0.34862670374E+02  0.50528859523E+02  0.29999999006E+02 0.  0.
        -12    1    1    2    0    0 -0.17820514887E+02  0.10963082043E+02 -0.34862670374E+02  0.40659140477E+02  0.00000000000E+00 0.  1.
         11    1    3    3    0    0  0.90258213809E+01 -0.11694140101E+02  0.22861665144E+02  0.27219002512E+02  0.51100000000E-03 0. -1.
        -11    1    3    3    0    0  0.53106998244E+01 -0.80645097329E+01  0.94515343842E+01  0.13511896696E+02  0.51100000000E-03 0.  1.
         12    1    3    3    0    0  0.34839936819E+01  0.87955677907E+01  0.25494708455E+01  0.97979603147E+01  0.00000000000E+00 0. -1.
</event>
<event>
 7    1  0.8986500E-014  0.5052886E+02  0.7816164E-02  0.1300439E+00
        -11   -1    0    0    0    0  0.00000000000E+00  0.00000000000E+00  0.45593999997E+02  0.45594000000E+02  0.51100000000E-03 0. -1.
         11   -1    0    0    0    0 -0.00000000000E+00 -0.00000000000E+00 -0.45593999997E+02  0.45594000000E+02  0.51100000000E-03 0.  1.
    9900012    2    1    2    0    0 -0.31776741618E+01  0.13891365945E+02  0.38080148654E+02  0.50528863482E+02  0.30000011040E+02 0.  0.
        -12    1    1    2    0    0  0.31776741618E+01 -0.13891365945E+02 -0.38080148654E+02  0.40659136518E+02  0.00000000000E+00 0.  1.
         11    1    3    3    0    0  0.14658590793E+01  0.50839479204E+01  0.19669758715E+01  0.56448439870E+01  0.51100000000E-03 0. -1.
        -11    1    3    3    0    0 -0.74797416484E+01 -0.69756453541E+01  0.10446254185E+02  0.14619520853E+02  0.51100000000E-03 0.  1.
         12    1    3    3    0    0  0.28362084073E+01  0.15783063378E+02  0.25666918598E+02  0.30264498642E+02  0.00000000000E+00 0. -1.
</event>
<event>
 7    1  0.8986500E-014  0.5052886E+02  0.7816164E-02  0.1300439E+00
        -11   -1    0    0    0    0  0.00000000000E+00  0.00000000000E+00  0.45593999997E+02  0.45594000000E+02  0.51100000000E-03 0. -1.
         11   -1    0    0    0    0 -0.00000000000E+00 -0.00000000000E+00 -0.45593999997E+02  0.45594000000E+02  0.51100000000E-03 0.  1.
    9900012    2    1    2    0    0  0.61308297418E+01  0.28788234592E+02  0.28050248970E+02  0.50528855991E+02  0.29999988271E+02 0.  0.
        -12    1    1    2    0    0 -0.61308297418E+01 -0.28788234592E+02 -0.28050248970E+02  0.40659144009E+02  0.00000000000E+00 0.  1.
         11    1    3    3    0    0  0.12085411779E+02  0.29638322855E+01  0.18344588915E+02  0.22166763914E+02  0.51100000000E-03 0. -1.
        -11    1    3    3    0    0 -0.16518356854E+01  0.64045155383E+01  0.11683286754E+01  0.67165000236E+01  0.51100000000E-03 0.  1.
        -12    1    3    3    0    0 -0.43027463522E+01  0.19419886768E+02  0.85373313796E+01  0.21645592054E+02  0.00000000000E+00 0.  1.
</event>
<event>
 7    1  0.8986500E-014  0.5052886E+02  0.7816164E-02  0.1300439E+00
        -11   -1    0    0    0    0  0.00000000000E+00  0.00000000000E+00  0.45593999997E+02  0.45594000000E+02  0.51100000000E-03 0. -1.
         11   -1    0    0    0    0 -0.00000000000E+00 -0.00000000000E+00 -0.45593999997E+02  0.45594000000E+02  0.51100000000E-03 0.  1.
    9900012    2    1    2    0    0 -0.69261702460E+01  0.37276719296E+02 -0.14684678363E+02  0.50528863089E+02  0.30000009844E+02 0.  0.
         12    1    1    2    0    0  0.69261702460E+01 -0.37276719296E+02  0.14684678363E+02  0.40659136911E+02  0.00000000000E+00 0. -1.
         11    1    3    3    0    0  0.22422635876E+01  0.21375025604E+02 -0.56615095700E+01  0.22225484392E+02  0.51100000000E-03 0. -1.
        -11    1    3    3    0    0  0.31200461293E+01  0.13283133341E+02 -0.16725857497E+01  0.13746776442E+02  0.51100000000E-03 0.  1.
         12    1    3    3    0    0 -0.12288479963E+02  0.26185603508E+01 -0.73505830431E+01  0.14556602254E+02  0.00000000000E+00 0. -1.
</event>
<event>
 7    1  0.8986500E-014  0.5052890E+02  0.7816164E-02  0.1300439E+00
        -11   -1    0    0    0    0  0.00000000000E+00  0.00000000000E+00  0.45593999997E+02  0.45594000000E+02  0.51100000000E-03 0. -1.
         11   -1    0    0    0    0 -0.00000000000E+00 -0.00000000000E+00 -0.45593999997E+02  0.45594000000E+02  0.51100000000E-03 0.  1.
    9900012    2    1    2    0    0  0.17326318102E+02  0.31414514322E+02  0.19133459215E+02  0.50528901749E+02  0.30000127357E+02 0.  0.
        -12    1    1    2    0    0 -0.17326318102E+02 -0.31414514322E+02 -0.19133459215E+02  0.40659098251E+02  0.00000000000E+00 0.  1.
         11    1    3    3    0    0  0.10268613549E+02  0.13775010386E+02 -0.21409841358E+01  0.17314131473E+02  0.51100000000E-03 0. -1.
        -11    1    3    3    0    0  0.10299418884E+02  0.63961863551E+01  0.48717870386E+01  0.13066121783E+02  0.51100000000E-03 0.  1.
         12    1    3    3    0    0 -0.32417143305E+01  0.11243317581E+02  0.16402656312E+02  0.20148648493E+02  0.00000000000E+00 0. -1.
</event>
<event>
 7    1  0.8986500E-014  0.5052886E+02  0.7816164E-02  0.1300439E+00
        -11   -1    0    0    0    0  0.00000000000E+00  0.00000000000E+00  0.45593999997E+02  0.45594000000E+02  0.51100000000E-03 0. -1.
         11   -1    0    0    0    0 -0.00000000000E+00 -0.00000000000E+00 -0.45593999997E+02  0.45594000000E+02  0.51100000000E-03 0.  1.
    9900012    2    1    2    0    0 -0.33447876611E+02  0.46650306250E+01  0.22641611993E+02  0.50528861370E+02  0.30000004619E+02 0.  0.
        -12    1    1    2    0    0  0.33447876611E+02 -0.46650306250E+01 -0.22641611993E+02  0.40659138630E+02  0.00000000000E+00 0.  1.
         11    1    3    3    0    0  0.58901032165E-01  0.34212668610E+01  0.92900142781E+00  0.35456424213E+01  0.51100000000E-03 0. -1.
        -11    1    3    3    0    0  0.32640722490E-01  0.51516937815E+01 -0.22054512550E+01  0.56040190698E+01  0.51100000000E-03 0.  1.
         12    1    3    3    0    0 -0.33539418366E+02 -0.39079300176E+01  0.23918061821E+02  0.41379199878E+02  0.00000000000E+00 0. -1.
</event>
<event>
 7    1  0.8986500E-014  0.5052886E+02  0.7816164E-02  0.1300439E+00
        -11   -1    0    0    0    0  0.00000000000E+00  0.00000000000E+00  0.45593999997E+02  0.45594000000E+02  0.51100000000E-03 0. -1.
         11   -1    0    0    0    0 -0.00000000000E+00 -0.00000000000E+00 -0.45593999997E+02  0.45594000000E+02  0.51100000000E-03 0.  1.
    9900012    2    1    2    0    0 -0.13655589684E+02 -0.13207932850E+01 -0.38274618142E+02  0.50528855660E+02  0.29999987265E+02 0.  0.
         12    1    1    2    0    0  0.13655589684E+02  0.13207932850E+01  0.38274618142E+02  0.40659144340E+02  0.00000000000E+00 0. -1.
         11    1    3    3    0    0 -0.57770704653E+01 -0.94287928372E+01 -0.68166000731E+01  0.12990100629E+02  0.51100000000E-03 0. -1.
        -11    1    3    3    0    0 -0.10858342457E+01 -0.50918592250E+01 -0.51017772233E+01  0.72893207827E+01  0.51100000000E-03 0.  1.
        -12    1    3    3    0    0 -0.67926849733E+01  0.13199858777E+02 -0.26356240845E+02  0.30249434249E+02  0.00000000000E+00 0.  1.
</event>
<event>
 7    1  0.8986500E-014  0.5052886E+02  0.7816164E-02  0.1300439E+00
        -11   -1    0    0    0    0  0.00000000000E+00  0.00000000000E+00  0.45593999997E+02  0.45594000000E+02  0.51100000000E-03 0. -1.
         11   -1    0    0    0    0 -0.00000000000E+00 -0.00000000000E+00 -0.45593999997E+02  0.45594000000E+02  0.51100000000E-03 0.  1.
    9900012    2    1    2    0    0  0.23957384002E+02 -0.62327445496E+00  0.32845409075E+02  0.50528860602E+02  0.30000002286E+02 0.  0.
        -12    1    1    2    0    0 -0.23957384002E+02  0.62327445496E+00 -0.32845409075E+02  0.40659139398E+02  0.00000000000E+00 0.  1.
         11    1    3    3    0    0  0.11641338220E+02 -0.63929509120E+01  0.79294031549E+01  0.15468225870E+02  0.51100000000E-03 0. -1.
        -11    1    3    3    0    0  0.16318477375E+02  0.12217578072E+01  0.10551931685E+02  0.19471226426E+02  0.51100000000E-03 0.  1.
         12    1    3    3    0    0 -0.40024315929E+01  0.45479186499E+01  0.14364074235E+02  0.15589408306E+02  0.00000000000E+00 0. -1.
</event>
<event>
 7    1  0.8986500E-014  0.5052886E+02  0.7816164E-02  0.1300439E+00
        -11   -1    0    0    0    0  0.00000000000E+00  0.00000000000E+00  0.45593999997E+02  0.45594000000E+02  0.51100000000E-03 0.  1.
         11   -1    0    0    0    0 -0.00000000000E+00 -0.00000000000E+00 -0.45593999997E+02  0.45594000000E+02  0.51100000000E-03 0. -1.
    9900012    2    1    2    0    0 -0.21830467882E+02 -0.32928271231E+02  0.96086035067E+01  0.50528860368E+02  0.30000001576E+02 0.  0.
        -12    1    1    2    0    0  0.21830467882E+02  0.32928271231E+02 -0.96086035067E+01  0.40659139632E+02  0.00000000000E+00 0.  1.
         11    1    3    3    0    0 -0.69862072836E+01 -0.10296669555E+02  0.12370992218E+02  0.17546223094E+02  0.51100000000E-03 0. -1.
        -11    1    3    3    0    0 -0.78094175716E+01 -0.13979592532E+02  0.76315973138E+01  0.17738581905E+02  0.51100000000E-03 0.  1.
        -12    1    3    3    0    0 -0.70348430272E+01 -0.86520091439E+01 -0.10393986025E+02  0.15244055370E+02  0.00000000000E+00 0.  1.
</event>
<event>
 7    1  0.8986500E-014  0.5052886E+02  0.7816164E-02  0.1300439E+00
        -11   -1    0    0    0    0  0.00000000000E+00  0.00000000000E+00  0.45593999997E+02  0.45594000000E+02  0.51100000000E-03 0.  1.
         11   -1    0    0    0    0 -0.00000000000E+00 -0.00000000000E+00 -0.45593999997E+02  0.45594000000E+02  0.51100000000E-03 0. -1.
    9900012    2    1    2    0    0  0.26701857054E+02 -0.30523902406E+02  0.29099031750E+01  0.50528864191E+02  0.30000013196E+02 0.  0.
        -12    1    1    2    0    0 -0.26701857054E+02  0.30523902406E+02 -0.29099031750E+01  0.40659135809E+02  0.00000000000E+00 0.  1.
         11    1    3    3    0    0  0.51636572131E+01 -0.10894483632E+02 -0.11381067900E+02  0.16579560797E+02  0.51100000000E-03 0. -1.
        -11    1    3    3    0    0  0.45727869440E+01 -0.36684758662E+01 -0.11884139763E+01  0.59816739844E+01  0.51100000000E-03 0.  1.
        -12    1    3    3    0    0  0.16965412896E+02 -0.15960942908E+02  0.15479385051E+02  0.27967629410E+02  0.00000000000E+00 0.  1.
</event>
<event>
 7    1  0.8986500E-014  0.5052886E+02  0.7816164E-02  0.1300439E+00
        -11   -1    0    0    0    0  0.00000000000E+00  0.00000000000E+00  0.45593999997E+02  0.45594000000E+02  0.51100000000E-03 0. -1.
         11   -1    0    0    0    0 -0.00000000000E+00 -0.00000000000E+00 -0.45593999997E+02  0.45594000000E+02  0.51100000000E-03 0.  1.
    9900012    2    1    2    0    0 -0.11594708151E+02 -0.21528808599E+02  0.32484439376E+02  0.50528860088E+02  0.30000000724E+02 0.  0.
        -12    1    1    2    0    0  0.11594708151E+02  0.21528808599E+02 -0.32484439376E+02  0.40659139912E+02  0.00000000000E+00 0.  1.
         11    1    3    3    0    0  0.14795746263E+01 -0.12093943194E+02  0.14984067025E+02  0.19312557260E+02  0.51100000000E-03 0. -1.
        -11    1    3    3    0    0  0.54864597263E+01 -0.24977720946E+01  0.43790329434E+01  0.74509083705E+01  0.51100000000E-03 0.  1.
        -12    1    3    3    0    0 -0.18560742503E+02 -0.69370933108E+01  0.13121339408E+02  0.23765394458E+02  0.00000000000E+00 0.  1.
</event>
<event>
 7    1  0.8986500E-014  0.5052885E+02  0.7816164E-02  0.1300439E+00
        -11   -1    0    0    0    0  0.00000000000E+00  0.00000000000E+00  0.45593999997E+02  0.45594000000E+02  0.51100000000E-03 0.  1.
         11   -1    0    0    0    0 -0.00000000000E+00 -0.00000000000E+00 -0.45593999997E+02  0.45594000000E+02  0.51100000000E-03 0. -1.
    9900012    2    1    2    0    0 -0.24361109822E+00 -0.38527194888E+02  0.12990851703E+02  0.50528851948E+02  0.29999975982E+02 0.  0.
        -12    1    1    2    0    0  0.24361109822E+00  0.38527194888E+02 -0.12990851703E+02  0.40659148052E+02  0.00000000000E+00 0.  1.
         11    1    3    3    0    0 -0.78695054564E+01 -0.10843854873E+02 -0.35324665961E+01  0.13856284681E+02  0.51100000000E-03 0. -1.
        -11    1    3    3    0    0 -0.37928202363E+01 -0.41576718696E+01 -0.20128420618E+00  0.56313618524E+01  0.51100000000E-03 0.  1.
        -12    1    3    3    0    0  0.11418714594E+02 -0.23525668145E+02  0.16724602505E+02  0.31041205415E+02  0.00000000000E+00 0.  1.
</event>
<event>
 7    1  0.8986500E-014  0.5052886E+02  0.7816164E-02  0.1300439E+00
        -11   -1    0    0    0    0  0.00000000000E+00  0.00000000000E+00  0.45593999997E+02  0.45594000000E+02  0.51100000000E-03 0. -1.
         11   -1    0    0    0    0 -0.00000000000E+00 -0.00000000000E+00 -0.45593999997E+02  0.45594000000E+02  0.51100000000E-03 0.  1.
    9900012    2    1    2    0    0  0.10446140656E+02 -0.25326908238E+02 -0.30043156280E+02  0.50528863576E+02  0.30000011325E+02 0.  0.
         12    1    1    2    0    0 -0.10446140656E+02  0.25326908238E+02  0.30043156280E+02  0.40659136424E+02  0.00000000000E+00 0. -1.
         11    1    3    3    0    0 -0.21194560352E+01 -0.47584363981E+00 -0.56378945290E+01  0.60418851393E+01  0.51100000000E-03 0. -1.
        -11    1    3    3    0    0 -0.48830666008E+01 -0.12067312963E+01  0.15673751001E+01  0.52685106828E+01  0.51100000000E-03 0.  1.
        -12    1    3    3    0    0  0.17448663292E+02 -0.23644333302E+02 -0.25972636851E+02  0.39218467754E+02  0.00000000000E+00 0.  1.
</event>
<event>
 7    1  0.8986500E-014  0.5052886E+02  0.7816164E-02  0.1300439E+00
        -11   -1    0    0    0    0  0.00000000000E+00  0.00000000000E+00  0.45593999997E+02  0.45594000000E+02  0.51100000000E-03 0. -1.
         11   -1    0    0    0    0 -0.00000000000E+00 -0.00000000000E+00 -0.45593999997E+02  0.45594000000E+02  0.51100000000E-03 0.  1.
    9900012    2    1    2    0    0  0.21301368904E+02 -0.24685805543E+02 -0.24290500906E+02  0.50528859001E+02  0.29999997419E+02 0.  0.
         12    1    1    2    0    0 -0.21301368904E+02  0.24685805543E+02  0.24290500906E+02  0.40659140999E+02  0.00000000000E+00 0. -1.
         11    1    3    3    0    0  0.19697498623E+01 -0.64694797391E+01  0.86766257713E+00  0.68181317986E+01  0.51100000000E-03 0. -1.
        -11    1    3    3    0    0  0.19018509224E+02 -0.20403859334E+02 -0.11994096597E+02  0.30362468975E+02  0.51100000000E-03 0.  1.
        -12    1    3    3    0    0  0.31310981772E+00  0.21875335298E+01 -0.13164066887E+02  0.13348258227E+02  0.00000000000E+00 0.  1.
</event>
<event>
 7    1  0.8986500E-014  0.5052887E+02  0.7816164E-02  0.1300439E+00
        -11   -1    0    0    0    0  0.00000000000E+00  0.00000000000E+00  0.45593999997E+02  0.45594000000E+02  0.51100000000E-03 0. -1.
         11   -1    0    0    0    0 -0.00000000000E+00 -0.00000000000E+00 -0.45593999997E+02  0.45594000000E+02  0.51100000000E-03 0.  1.
    9900012    2    1    2    0    0 -0.53150932740E+01  0.88873953772E+01  0.39318301254E+02  0.50528870317E+02  0.30000031815E+02 0.  0.
        -12    1    1    2    0    0  0.53150932740E+01 -0.88873953772E+01 -0.39318301254E+02  0.40659129683E+02  0.00000000000E+00 0.  1.
         11    1    3    3    0    0 -0.35249987235E+01  0.37214836824E+01  0.70135444375E+01  0.86870514351E+01  0.51100000000E-03 0. -1.
        -11    1    3    3    0    0 -0.97395965975E+01 -0.40983736483E+01  0.26079119083E+02  0.28138529827E+02  0.51100000000E-03 0.  1.
        -12    1    3    3    0    0  0.79495020470E+01  0.92642853430E+01  0.62256377336E+01  0.13703289054E+02  0.00000000000E+00 0.  1.
</event>
<event>
 7    1  0.8986500E-014  0.5052886E+02  0.7816164E-02  0.1300439E+00
        -11   -1    0    0    0    0  0.00000000000E+00  0.00000000000E+00  0.45593999997E+02  0.45594000000E+02  0.51100000000E-03 0.  1.
         11   -1    0    0    0    0 -0.00000000000E+00 -0.00000000000E+00 -0.45593999997E+02  0.45594000000E+02  0.51100000000E-03 0. -1.
    9900012    2    1    2    0    0 -0.30144137767E+02 -0.14500089987E+02 -0.23113727222E+02  0.50528855426E+02  0.29999986554E+02 0.  0.
         12    1    1    2    0    0  0.30144137767E+02  0.14500089987E+02  0.23113727222E+02  0.40659144574E+02  0.00000000000E+00 0. -1.
         11    1    3    3    0    0  0.28755446144E+01 -0.38574773721E+01 -0.82067119568E+01  0.95130967570E+01  0.51100000000E-03 0. -1.
        -11    1    3    3    0    0 -0.26666323620E+01 -0.57977220304E+01 -0.65892373210E+01  0.91729252493E+01  0.51100000000E-03 0.  1.
        -12    1    3    3    0    0 -0.30353050020E+02 -0.48448905848E+01 -0.83177779439E+01  0.31842833420E+02  0.00000000000E+00 0.  1.
</event>
<event>
 7    1  0.8986500E-014  0.5052885E+02  0.7816164E-02  0.1300439E+00
        -11   -1    0    0    0    0  0.00000000000E+00  0.00000000000E+00  0.45593999997E+02  0.45594000000E+02  0.51100000000E-03 0. -1.
         11   -1    0    0    0    0 -0.00000000000E+00 -0.00000000000E+00 -0.45593999997E+02  0.45594000000E+02  0.51100000000E-03 0.  1.
    9900012    2    1    2    0    0  0.17193634265E+02  0.30951519185E+02  0.19988709520E+02  0.50528854566E+02  0.29999983940E+02 0.  0.
        -12    1    1    2    0    0 -0.17193634265E+02 -0.30951519185E+02 -0.19988709520E+02  0.40659145434E+02  0.00000000000E+00 0.  1.
         11    1    3    3    0    0  0.29740717276E+01  0.12178756173E+02  0.18645426578E+02  0.22468180547E+02  0.51100000000E-03 0. -1.
        -11    1    3    3    0    0 -0.15513859830E+00 -0.69395521560E+00  0.36810918387E+01  0.37491437972E+01  0.51100000000E-03 0.  1.
        -12    1    3    3    0    0  0.14374701136E+02  0.19466718228E+02 -0.23378088964E+01  0.24311530222E+02  0.00000000000E+00 0.  1.
</event>
<event>
 7    1  0.8986500E-014  0.5052887E+02  0.7816164E-02  0.1300439E+00
        -11   -1    0    0    0    0  0.00000000000E+00  0.00000000000E+00  0.45593999997E+02  0.45594000000E+02  0.51100000000E-03 0. -1.
         11   -1    0    0    0    0 -0.00000000000E+00 -0.00000000000E+00 -0.45593999997E+02  0.45594000000E+02  0.51100000000E-03 0.  1.
    9900012    2    1    2    0    0 -0.46650928189E+01  0.29785911220E+02 -0.27280055780E+02  0.50528867673E+02  0.30000023779E+02 0.  0.
         12    1    1    2    0    0  0.46650928189E+01 -0.29785911220E+02  0.27280055780E+02  0.40659132327E+02  0.00000000000E+00 0. -1.
         11    1    3    3    0    0 -0.70738038773E+01  0.14614766201E+02 -0.30293783935E+01  0.16516877009E+02  0.51100000000E-03 0. -1.
        -11    1    3    3    0    0 -0.36749886504E+01 -0.23081769186E+01 -0.13034198688E+01  0.45312388906E+01  0.51100000000E-03 0.  1.
        -12    1    3    3    0    0  0.60836997089E+01  0.17479321937E+02 -0.22947257518E+02  0.29480751773E+02  0.00000000000E+00 0.  1.
</event>
<event>
 7    1  0.8986500E-014  0.5052887E+02  0.7816164E-02  0.1300439E+00
        -11   -1    0    0    0    0  0.00000000000E+00  0.00000000000E+00  0.45593999997E+02  0.45594000000E+02  0.51100000000E-03 0. -1.
         11   -1    0    0    0    0 -0.00000000000E+00 -0.00000000000E+00 -0.45593999997E+02  0.45594000000E+02  0.51100000000E-03 0.  1.
    9900012    2    1    2    0    0 -0.97699063174E+01  0.28986138670E+02 -0.26786513373E+02  0.50528873065E+02  0.30000040169E+02 0.  0.
         12    1    1    2    0    0  0.97699063174E+01 -0.28986138670E+02  0.26786513373E+02  0.40659126935E+02  0.00000000000E+00 0. -1.
         11    1    3    3    0    0 -0.91997088476E+01  0.71427675790E+01 -0.15274818659E+02  0.19208692223E+02  0.51100000000E-03 0. -1.
        -11    1    3    3    0    0  0.26647081849E+00  0.35472575605E+00 -0.97315964200E+01  0.97417044814E+01  0.51100000000E-03 0.  1.
         12    1    3    3    0    0 -0.83666828825E+00  0.21488645335E+02 -0.17800982936E+01  0.21578476361E+02  0.00000000000E+00 0. -1.
</event>
<event>
 7    1  0.8986500E-014  0.5052884E+02  0.7816164E-02  0.1300439E+00
        -11   -1    0    0    0    0  0.00000000000E+00  0.00000000000E+00  0.45593999997E+02  0.45594000000E+02  0.51100000000E-03 0. -1.
         11   -1    0    0    0    0 -0.00000000000E+00 -0.00000000000E+00 -0.45593999997E+02  0.45594000000E+02  0.51100000000E-03 0.  1.
    9900012    2    1    2    0    0 -0.85619435875E+01  0.37519059934E+02  0.13121750385E+02  0.50528842735E+02  0.29999947979E+02 0.  0.
        -12    1    1    2    0    0  0.85619435875E+01 -0.37519059934E+02 -0.13121750385E+02  0.40659157265E+02  0.00000000000E+00 0.  1.
         11    1    3    3    0    0  0.17172482324E+01  0.10747000730E+02  0.80537786343E+01  0.13539214037E+02  0.51100000000E-03 0. -1.
        -11    1    3    3    0    0 -0.74952077801E+01  0.10295477509E+02  0.13255378328E+02  0.18381513857E+02  0.51100000000E-03 0.  1.
         12    1    3    3    0    0 -0.27839840398E+01  0.16476581695E+02 -0.81874065777E+01  0.18608114842E+02  0.00000000000E+00 0. -1.
</event>
<event>
 7    1  0.8986500E-014  0.5052886E+02  0.7816164E-02  0.1300439E+00
        -11   -1    0    0    0    0  0.00000000000E+00  0.00000000000E+00  0.45593999997E+02  0.45594000000E+02  0.51100000000E-03 0. -1.
         11   -1    0    0    0    0 -0.00000000000E+00 -0.00000000000E+00 -0.45593999997E+02  0.45594000000E+02  0.51100000000E-03 0.  1.
    9900012    2    1    2    0    0 -0.26352358214E+02 -0.68477283334E+01 -0.30196475733E+02  0.50528864330E+02  0.30000013618E+02 0.  0.
         12    1    1    2    0    0  0.26352358214E+02  0.68477283334E+01  0.30196475733E+02  0.40659135670E+02  0.00000000000E+00 0. -1.
         11    1    3    3    0    0  0.28433886068E+01 -0.71764652854E+01 -0.62924920182E+01  0.99590144503E+01  0.51100000000E-03 0. -1.
        -11    1    3    3    0    0 -0.15972834461E+02  0.50587720500E+01 -0.59588534457E+01  0.17782872378E+02  0.51100000000E-03 0.  1.
        -12    1    3    3    0    0 -0.13222912360E+02 -0.47300350979E+01 -0.17945130269E+02  0.22786977502E+02  0.00000000000E+00 0.  1.
</event>
<event>
 7    1  0.8986500E-014  0.5052885E+02  0.7816164E-02  0.1300439E+00
        -11   -1    0    0    0    0  0.00000000000E+00  0.00000000000E+00  0.45593999997E+02  0.45594000000E+02  0.51100000000E-03 0. -1.
         11   -1    0    0    0    0 -0.00000000000E+00 -0.00000000000E+00 -0.45593999997E+02  0.45594000000E+02  0.51100000000E-03 0.  1.
    9900012    2    1    2    0    0  0.26619110250E+02  0.45021096727E+01 -0.30402635088E+02  0.50528852907E+02  0.29999978897E+02 0.  0.
         12    1    1    2    0    0 -0.26619110250E+02 -0.45021096727E+01  0.30402635088E+02  0.40659147093E+02  0.00000000000E+00 0. -1.
         11    1    3    3    0    0  0.59480480607E+01  0.11089055923E+02 -0.27686995272E+00  0.12586623623E+02  0.51100000000E-03 0. -1.
        -11    1    3    3    0    0  0.19895995462E+01 -0.70100800640E+00 -0.85308075732E+01  0.87877526531E+01  0.51100000000E-03 0.  1.
        -12    1    3    3    0    0  0.18681462643E+02 -0.58859382443E+01 -0.21594957562E+02  0.29154476631E+02  0.00000000000E+00 0.  1.
</event>
<event>
 7    1  0.8986500E-014  0.5052887E+02  0.7816164E-02  0.1300439E+00
        -11   -1    0    0    0    0  0.00000000000E+00  0.00000000000E+00  0.45593999997E+02  0.45594000000E+02  0.51100000000E-03 0.  1.
         11   -1    0    0    0    0 -0.00000000000E+00 -0.00000000000E+00 -0.45593999997E+02  0.45594000000E+02  0.51100000000E-03 0. -1.
    9900012    2    1    2    0    0 -0.38334893378E+02 -0.13223658007E+02 -0.29556155218E+01  0.50528870097E+02  0.30000031146E+02 0.  0.
         12    1    1    2    0    0  0.38334893378E+02  0.13223658007E+02  0.29556155218E+01  0.40659129903E+02  0.00000000000E+00 0. -1.
         11    1    3    3    0    0 -0.57457978636E+01  0.13744397807E+01  0.26928765295E+01  0.64926775727E+01  0.51100000000E-03 0. -1.
        -11    1    3    3    0    0 -0.30474710528E+02 -0.10841344186E+02  0.48311946503E+01  0.32704482377E+02  0.51100000000E-03 0.  1.
        -12    1    3    3    0    0 -0.21143849860E+01 -0.37567536010E+01 -0.10479686702E+02  0.11331710147E+02  0.00000000000E+00 0.  1.
</event>
<event>
 7    1  0.8986500E-014  0.5052888E+02  0.7816164E-02  0.1300439E+00
        -11   -1    0    0    0    0  0.00000000000E+00  0.00000000000E+00  0.45593999997E+02  0.45594000000E+02  0.51100000000E-03 0. -1.
         11   -1    0    0    0    0 -0.00000000000E+00 -0.00000000000E+00 -0.45593999997E+02  0.45594000000E+02  0.51100000000E-03 0.  1.
    9900012    2    1    2    0    0 -0.19938007253E+02 -0.28415785594E+02  0.21170327361E+02  0.50528883375E+02  0.30000071507E+02 0.  0.
        -12    1    1    2    0    0  0.19938007253E+02  0.28415785594E+02 -0.21170327361E+02  0.40659116625E+02  0.00000000000E+00 0.  1.
         11    1    3    3    0    0 -0.60780927858E-01 -0.17867682818E+02  0.64821539706E+01  0.19007264505E+02  0.51100000000E-03 0. -1.
        -11    1    3    3    0    0 -0.16163672256E+01 -0.47442766997E+01 -0.26597829986E+01  0.56740858534E+01  0.51100000000E-03 0.  1.
         12    1    3    3    0    0 -0.18260859100E+02 -0.58038260769E+01  0.17347956389E+02  0.25847533017E+02  0.00000000000E+00 0. -1.
</event>
<event>
 7    1  0.8986500E-014  0.5052884E+02  0.7816164E-02  0.1300439E+00
        -11   -1    0    0    0    0  0.00000000000E+00  0.00000000000E+00  0.45593999997E+02  0.45594000000E+02  0.51100000000E-03 0. -1.
         11   -1    0    0    0    0 -0.00000000000E+00 -0.00000000000E+00 -0.45593999997E+02  0.45594000000E+02  0.51100000000E-03 0.  1.
    9900012    2    1    2    0    0  0.26389311844E+01  0.36968792446E+01  0.40404660631E+02  0.50528837752E+02  0.29999932832E+02 0.  0.
        -12    1    1    2    0    0 -0.26389311844E+01 -0.36968792446E+01 -0.40404660631E+02  0.40659162248E+02  0.00000000000E+00 0.  1.
         11    1    3    3    0    0  0.48110953051E+01  0.20784146054E+01  0.16041292463E+02  0.16875707673E+02  0.51100000000E-03 0. -1.
        -11    1    3    3    0    0  0.66722854248E+01 -0.73367276673E+01  0.14931779233E+02  0.17924982482E+02  0.51100000000E-03 0.  1.
         12    1    3    3    0    0 -0.88444495454E+01  0.89551923065E+01  0.94315889355E+01  0.15728147598E+02  0.00000000000E+00 0. -1.
</event>
<event>
 7    1  0.8986500E-014  0.5052885E+02  0.7816164E-02  0.1300439E+00
        -11   -1    0    0    0    0  0.00000000000E+00  0.00000000000E+00  0.45593999997E+02  0.45594000000E+02  0.51100000000E-03 0. -1.
         11   -1    0    0    0    0 -0.00000000000E+00 -0.00000000000E+00 -0.45593999997E+02  0.45594000000E+02  0.51100000000E-03 0.  1.
    9900012    2    1    2    0    0  0.14584551936E+02  0.17005436388E+02  0.33930409603E+02  0.50528847061E+02  0.29999961126E+02 0.  0.
        -12    1    1    2    0    0 -0.14584551936E+02 -0.17005436388E+02 -0.33930409603E+02  0.40659152939E+02  0.00000000000E+00 0.  1.
         11    1    3    3    0    0  0.76257588307E+01 -0.45217025505E+01  0.18770355695E+01  0.90620778240E+01  0.51100000000E-03 0. -1.
        -11    1    3    3    0    0  0.11801714190E+01 -0.16724985530E+01  0.10065685902E+01  0.22810604060E+01  0.51100000000E-03 0.  1.
         12    1    3    3    0    0  0.57786216864E+01  0.23199637492E+02  0.31046805443E+02  0.39185708831E+02  0.00000000000E+00 0. -1.
</event>
<event>
 7    1  0.8986500E-014  0.5052886E+02  0.7816164E-02  0.1300439E+00
        -11   -1    0    0    0    0  0.00000000000E+00  0.00000000000E+00  0.45593999997E+02  0.45594000000E+02  0.51100000000E-03 0. -1.
         11   -1    0    0    0    0 -0.00000000000E+00 -0.00000000000E+00 -0.45593999997E+02  0.45594000000E+02  0.51100000000E-03 0.  1.
    9900012    2    1    2    0    0  0.17121831059E+02  0.18671006531E+02 -0.31802546862E+02  0.50528861168E+02  0.30000004005E+02 0.  0.
         12    1    1    2    0    0 -0.17121831059E+02 -0.18671006531E+02  0.31802546862E+02  0.40659138832E+02  0.00000000000E+00 0. -1.
         11    1    3    3    0    0  0.50184255488E+01 -0.33811038409E+01  0.53713940400E+00  0.60749466806E+01  0.51100000000E-03 0. -1.
        -11    1    3    3    0    0  0.16267956031E+02  0.18823291929E+02 -0.23866014086E+02  0.34475343958E+02  0.51100000000E-03 0.  1.
         12    1    3    3    0    0 -0.41645505205E+01  0.32288184429E+01 -0.84736721805E+01  0.99785705288E+01  0.00000000000E+00 0. -1.
</event>
<event>
 7    1  0.8986500E-014  0.5052886E+02  0.7816164E-02  0.1300439E+00
        -11   -1    0    0    0    0  0.00000000000E+00  0.00000000000E+00  0.45593999997E+02  0.45594000000E+02  0.51100000000E-03 0. -1.
         11   -1    0    0    0    0 -0.00000000000E+00 -0.00000000000E+00 -0.45593999997E+02  0.45594000000E+02  0.51100000000E-03 0.  1.
    9900012    2    1    2    0    0  0.34873521386E+02 -0.54284700064E+01 -0.20187487147E+02  0.50528863046E+02  0.30000009716E+02 0.  0.
         12    1    1    2    0    0 -0.34873521386E+02  0.54284700064E+01  0.20187487147E+02  0.40659136954E+02  0.00000000000E+00 0. -1.
         11    1    3    3    0    0  0.22287733146E+01 -0.33519541145E+01 -0.14393889291E+01  0.42749114171E+01  0.51100000000E-03 0. -1.
        -11    1    3    3    0    0  0.12167940828E+02 -0.22803246368E+01  0.63080324891E+01  0.13894241202E+02  0.51100000000E-03 0.  1.
        -12    1    3    3    0    0  0.20476807244E+02  0.20380874493E+00 -0.25056130707E+02  0.32359710427E+02  0.00000000000E+00 0.  1.
</event>
<event>
 7    1  0.8986500E-014  0.5052885E+02  0.7816164E-02  0.1300439E+00
        -11   -1    0    0    0    0  0.00000000000E+00  0.00000000000E+00  0.45593999997E+02  0.45594000000E+02  0.51100000000E-03 0. -1.
         11   -1    0    0    0    0 -0.00000000000E+00 -0.00000000000E+00 -0.45593999997E+02  0.45594000000E+02  0.51100000000E-03 0.  1.
    9900012    2    1    2    0    0 -0.98487598984E+01 -0.34181386628E+02 -0.19692659668E+02  0.50528854557E+02  0.29999983912E+02 0.  0.
         12    1    1    2    0    0  0.98487598984E+01  0.34181386628E+02  0.19692659668E+02  0.40659145443E+02  0.00000000000E+00 0. -1.
         11    1    3    3    0    0 -0.22264251148E+01 -0.21447237370E+02 -0.10715799552E+02  0.24078399447E+02  0.51100000000E-03 0. -1.
        -11    1    3    3    0    0 -0.56857803401E+01 -0.13318953068E+02  0.25869407290E+01  0.14711045901E+02  0.51100000000E-03 0.  1.
         12    1    3    3    0    0 -0.19365544435E+01  0.58480381011E+00 -0.11563800845E+02  0.11739409210E+02  0.00000000000E+00 0. -1.
</event>
<event>
 7    1  0.8986500E-014  0.5052883E+02  0.7816164E-02  0.1300439E+00
        -11   -1    0    0    0    0  0.00000000000E+00  0.00000000000E+00  0.45593999997E+02  0.45594000000E+02  0.51100000000E-03 0.  1.
         11   -1    0    0    0    0 -0.00000000000E+00 -0.00000000000E+00 -0.45593999997E+02  0.45594000000E+02  0.51100000000E-03 0. -1.
    9900012    2    1    2    0    0  0.34779382062E+02 -0.14086568560E+02  0.15656666814E+02  0.50528830725E+02  0.29999911472E+02 0.  0.
        -12    1    1    2    0    0 -0.34779382062E+02  0.14086568560E+02 -0.15656666814E+02  0.40659169275E+02  0.00000000000E+00 0.  1.
         11    1    3    3    0    0  0.63105798525E+01 -0.45376462010E+01  0.11112936646E+02  0.13561379438E+02  0.51100000000E-03 0.  1.
        -11    1    3    3    0    0  0.15896967385E+02 -0.73949144238E+01  0.12857657803E+02  0.21742072022E+02  0.51100000000E-03 0. -1.
        -12    1    3    3    0    0  0.12571834824E+02 -0.21540079356E+01 -0.83139276346E+01  0.15225379264E+02  0.00000000000E+00 0.  1.
</event>
<event>
 7    1  0.8986500E-014  0.5052886E+02  0.7816164E-02  0.1300439E+00
        -11   -1    0    0    0    0  0.00000000000E+00  0.00000000000E+00  0.45593999997E+02  0.45594000000E+02  0.51100000000E-03 0. -1.
         11   -1    0    0    0    0 -0.00000000000E+00 -0.00000000000E+00 -0.45593999997E+02  0.45594000000E+02  0.51100000000E-03 0.  1.
    9900012    2    1    2    0    0 -0.49369524475E+00  0.34000064130E+02 -0.22291639506E+02  0.50528864647E+02  0.30000014580E+02 0.  0.
         12    1    1    2    0    0  0.49369524475E+00 -0.34000064130E+02  0.22291639506E+02  0.40659135353E+02  0.00000000000E+00 0. -1.
         11    1    3    3    0    0  0.31620638443E+01  0.12795391135E+00 -0.17520245153E+01  0.36172655587E+01  0.51100000000E-03 0. -1.
        -11    1    3    3    0    0 -0.10969850498E+02  0.15224686658E+02 -0.19183302423E+02  0.26835196960E+02  0.51100000000E-03 0.  1.
         12    1    3    3    0    0  0.73140914092E+01  0.18647423561E+02 -0.13563125672E+01  0.20076402127E+02  0.00000000000E+00 0. -1.
</event>
<event>
 7    1  0.8986500E-014  0.5052885E+02  0.7816164E-02  0.1300439E+00
        -11   -1    0    0    0    0  0.00000000000E+00  0.00000000000E+00  0.45593999997E+02  0.45594000000E+02  0.51100000000E-03 0. -1.
         11   -1    0    0    0    0 -0.00000000000E+00 -0.00000000000E+00 -0.45593999997E+02  0.45594000000E+02  0.51100000000E-03 0.  1.
    9900012    2    1    2    0    0 -0.26618448438E+02  0.25746891000E+02 -0.16784575013E+02  0.50528854021E+02  0.29999982281E+02 0.  0.
         12    1    1    2    0    0  0.26618448438E+02 -0.25746891000E+02  0.16784575013E+02  0.40659145979E+02  0.00000000000E+00 0. -1.
         11    1    3    3    0    0 -0.14763324640E+02  0.11113804899E+02 -0.32094929578E+00  0.18481759182E+02  0.51100000000E-03 0. -1.
        -11    1    3    3    0    0 -0.11727029350E+02  0.66191695207E+01  0.29620708367E+00  0.13469386082E+02  0.51100000000E-03 0.  1.
         12    1    3    3    0    0 -0.12809444807E+00  0.80139165806E+01 -0.16759832801E+02  0.18577708757E+02  0.00000000000E+00 0. -1.
</event>
<event>
 7    1  0.8986500E-014  0.5052886E+02  0.7816164E-02  0.1300439E+00
        -11   -1    0    0    0    0  0.00000000000E+00  0.00000000000E+00  0.45593999997E+02  0.45594000000E+02  0.51100000000E-03 0. -1.
         11   -1    0    0    0    0 -0.00000000000E+00 -0.00000000000E+00 -0.45593999997E+02  0.45594000000E+02  0.51100000000E-03 0.  1.
    9900012    2    1    2    0    0 -0.30954982145E+01 -0.35433175034E+02  0.19699594797E+02  0.50528855428E+02  0.29999986559E+02 0.  0.
        -12    1    1    2    0    0  0.30954982145E+01  0.35433175034E+02 -0.19699594797E+02  0.40659144572E+02  0.00000000000E+00 0.  1.
         11    1    3    3    0    0 -0.60099141595E+01 -0.16323880317E+02  0.85922074983E+01  0.19401396000E+02  0.51100000000E-03 0. -1.
        -11    1    3    3    0    0 -0.94346310484E+01 -0.75606107716E+01  0.34966939866E+01  0.12585784336E+02  0.51100000000E-03 0.  1.
        -12    1    3    3    0    0  0.12349046993E+02 -0.11548683945E+02  0.76106933121E+01  0.18541675091E+02  0.00000000000E+00 0.  1.
</event>
<event>
 7    1  0.8986500E-014  0.5052892E+02  0.7816164E-02  0.1300439E+00
        -11   -1    0    0    0    0  0.00000000000E+00  0.00000000000E+00  0.45593999997E+02  0.45594000000E+02  0.51100000000E-03 0. -1.
         11   -1    0    0    0    0 -0.00000000000E+00 -0.00000000000E+00 -0.45593999997E+02  0.45594000000E+02  0.51100000000E-03 0.  1.
    9900012    2    1    2    0    0  0.23304652248E+02  0.23876206645E+02  0.23237487295E+02  0.50528918900E+02  0.30000179487E+02 0.  0.
        -12    1    1    2    0    0 -0.23304652248E+02 -0.23876206645E+02 -0.23237487295E+02  0.40659081100E+02  0.00000000000E+00 0.  1.
         11    1    3    3    0    0 -0.18472440353E+01  0.57702772052E-01  0.41752608884E-01  0.18486166930E+01  0.51100000000E-03 0. -1.
        -11    1    3    3    0    0  0.10745135996E+02  0.11748960625E+02 -0.32367367344E+01  0.16247230173E+02  0.51100000000E-03 0.  1.
         12    1    3    3    0    0  0.14406760288E+02  0.12069543247E+02  0.26432471420E+02  0.32433072034E+02  0.00000000000E+00 0. -1.
</event>
<event>
 7    1  0.8986500E-014  0.5052887E+02  0.7816164E-02  0.1300439E+00
        -11   -1    0    0    0    0  0.00000000000E+00  0.00000000000E+00  0.45593999997E+02  0.45594000000E+02  0.51100000000E-03 0. -1.
         11   -1    0    0    0    0 -0.00000000000E+00 -0.00000000000E+00 -0.45593999997E+02  0.45594000000E+02  0.51100000000E-03 0.  1.
    9900012    2    1    2    0    0  0.12881747766E+02 -0.15323585591E+02  0.35389444621E+02  0.50528874438E+02  0.30000044341E+02 0.  0.
        -12    1    1    2    0    0 -0.12881747766E+02  0.15323585591E+02 -0.35389444621E+02  0.40659125562E+02  0.00000000000E+00 0.  1.
         11    1    3    3    0    0 -0.48435502243E+01 -0.12500557013E+02  0.14286009574E+02  0.19591170824E+02  0.51100000000E-03 0. -1.
        -11    1    3    3    0    0  0.46910775792E+00 -0.43542915035E+01  0.83390014801E+01  0.94190690905E+01  0.51100000000E-03 0.  1.
        -12    1    3    3    0    0  0.17256190232E+02  0.15312629260E+01  0.12764433567E+02  0.21518634524E+02  0.00000000000E+00 0.  1.
</event>
<event>
 7    1  0.8986500E-014  0.5052885E+02  0.7816164E-02  0.1300439E+00
        -11   -1    0    0    0    0  0.00000000000E+00  0.00000000000E+00  0.45593999997E+02  0.45594000000E+02  0.51100000000E-03 0. -1.
         11   -1    0    0    0    0 -0.00000000000E+00 -0.00000000000E+00 -0.45593999997E+02  0.45594000000E+02  0.51100000000E-03 0.  1.
    9900012    2    1    2    0    0 -0.86121919377E+01 -0.31615095015E+02  0.24072440224E+02  0.50528850217E+02  0.29999970719E+02 0.  0.
        -12    1    1    2    0    0  0.86121919377E+01  0.31615095015E+02 -0.24072440224E+02  0.40659149783E+02  0.00000000000E+00 0.  1.
         11    1    3    3    0    0 -0.45333747304E+01 -0.10017123939E+02  0.15357280935E+02  0.18887570951E+02  0.51100000000E-03 0. -1.
        -11    1    3    3    0    0 -0.33549739934E+01 -0.22807379221E+02  0.13457863653E+02  0.26693566487E+02  0.51100000000E-03 0.  1.
        -12    1    3    3    0    0 -0.72384321390E+00  0.12094081449E+01 -0.47427043640E+01  0.49477127790E+01  0.00000000000E+00 0.  1.
</event>
<event>
 7    1  0.8986500E-014  0.5052886E+02  0.7816164E-02  0.1300439E+00
        -11   -1    0    0    0    0  0.00000000000E+00  0.00000000000E+00  0.45593999997E+02  0.45594000000E+02  0.51100000000E-03 0. -1.
         11   -1    0    0    0    0 -0.00000000000E+00 -0.00000000000E+00 -0.45593999997E+02  0.45594000000E+02  0.51100000000E-03 0.  1.
    9900012    2    1    2    0    0  0.35521034985E+01  0.13817915219E+02  0.38073786649E+02  0.50528862649E+02  0.30000008509E+02 0.  0.
        -12    1    1    2    0    0 -0.35521034985E+01 -0.13817915219E+02 -0.38073786649E+02  0.40659137351E+02  0.00000000000E+00 0.  1.
         11    1    3    3    0    0 -0.25200240427E+01  0.52301293753E+01  0.15454924278E+02  0.16509374887E+02  0.51100000000E-03 0. -1.
        -11    1    3    3    0    0 -0.26910828546E+01 -0.45155935341E+01  0.16143345153E+02  0.16977635433E+02  0.51100000000E-03 0.  1.
        -12    1    3    3    0    0  0.87632103958E+01  0.13103379378E+02  0.64755172175E+01  0.17041852329E+02  0.00000000000E+00 0.  1.
</event>
<event>
 7    1  0.8986500E-014  0.5052887E+02  0.7816164E-02  0.1300439E+00
        -11   -1    0    0    0    0  0.00000000000E+00  0.00000000000E+00  0.45593999997E+02  0.45594000000E+02  0.51100000000E-03 0. -1.
         11   -1    0    0    0    0 -0.00000000000E+00 -0.00000000000E+00 -0.45593999997E+02  0.45594000000E+02  0.51100000000E-03 0.  1.
    9900012    2    1    2    0    0  0.23602282790E+02  0.51042563894E+01 -0.32711524408E+02  0.50528867997E+02  0.30000024763E+02 0.  0.
         12    1    1    2    0    0 -0.23602282790E+02 -0.51042563894E+01  0.32711524408E+02  0.40659132003E+02  0.00000000000E+00 0. -1.
         11    1    3    3    0    0  0.16889404361E+02  0.12293783636E+02 -0.10893533365E+02  0.23559672434E+02  0.51100000000E-03 0. -1.
        -11    1    3    3    0    0  0.66713358282E+01  0.17370710111E+01 -0.86586422964E+01  0.11067801232E+02  0.51100000000E-03 0.  1.
         12    1    3    3    0    0  0.41542600511E-01 -0.89265982574E+01 -0.13159348747E+02  0.15901394331E+02  0.00000000000E+00 0. -1.
</event>
<event>
 7    1  0.8986500E-014  0.5052892E+02  0.7816164E-02  0.1300439E+00
        -11   -1    0    0    0    0  0.00000000000E+00  0.00000000000E+00  0.45593999997E+02  0.45594000000E+02  0.51100000000E-03 0. -1.
         11   -1    0    0    0    0 -0.00000000000E+00 -0.00000000000E+00 -0.45593999997E+02  0.45594000000E+02  0.51100000000E-03 0.  1.
    9900012    2    1    2    0    0  0.15334529388E+02  0.16732278850E+02  0.33734907514E+02  0.50528918210E+02  0.30000177390E+02 0.  0.
        -12    1    1    2    0    0 -0.15334529388E+02 -0.16732278850E+02 -0.33734907514E+02  0.40659081790E+02  0.00000000000E+00 0.  1.
         11    1    3    3    0    0  0.46720631492E+01 -0.24114617657E+01  0.10522829606E+02  0.11763216614E+02  0.51100000000E-03 0. -1.
        -11    1    3    3    0    0  0.85981881881E+01  0.13183517711E+02  0.27112211119E+02  0.31349736385E+02  0.51100000000E-03 0.  1.
        -12    1    3    3    0    0  0.20642780504E+01  0.59602229046E+01 -0.39001332120E+01  0.74159652112E+01  0.00000000000E+00 0.  1.
</event>
<event>
 7    1  0.8986500E-014  0.5052886E+02  0.7816164E-02  0.1300439E+00
        -11   -1    0    0    0    0  0.00000000000E+00  0.00000000000E+00  0.45593999997E+02  0.45594000000E+02  0.51100000000E-03 0. -1.
         11   -1    0    0    0    0 -0.00000000000E+00 -0.00000000000E+00 -0.45593999997E+02  0.45594000000E+02  0.51100000000E-03 0.  1.
    9900012    2    1    2    0    0  0.21826625927E+02 -0.28213067997E+02 -0.19513753636E+02  0.50528863436E+02  0.30000010899E+02 0.  0.
         12    1    1    2    0    0 -0.21826625927E+02  0.28213067997E+02  0.19513753636E+02  0.40659136564E+02  0.00000000000E+00 0. -1.
         11    1    3    3    0    0 -0.72493957220E-01 -0.11070180495E+01  0.64196360200E+00  0.12817417303E+01  0.51100000000E-03 0. -1.
        -11    1    3    3    0    0  0.18626811706E+02 -0.33107506393E+02 -0.15805165893E+02  0.41144481563E+02  0.51100000000E-03 0.  1.
         12    1    3    3    0    0  0.32723081788E+01  0.60014564453E+01 -0.43505513450E+01  0.81026401431E+01  0.00000000000E+00 0. -1.
</event>
<event>
 7    1  0.8986500E-014  0.5052885E+02  0.7816164E-02  0.1300439E+00
        -11   -1    0    0    0    0  0.00000000000E+00  0.00000000000E+00  0.45593999997E+02  0.45594000000E+02  0.51100000000E-03 0. -1.
         11   -1    0    0    0    0 -0.00000000000E+00 -0.00000000000E+00 -0.45593999997E+02  0.45594000000E+02  0.51100000000E-03 0.  1.
    9900012    2    1    2    0    0 -0.14024664948E+02 -0.15719123345E+02  0.34776204804E+02  0.50528849908E+02  0.29999969779E+02 0.  0.
        -12    1    1    2    0    0  0.14024664948E+02  0.15719123345E+02 -0.34776204804E+02  0.40659150092E+02  0.00000000000E+00 0.  1.
         11    1    3    3    0    0 -0.16154795988E+02 -0.37144113449E+01  0.23980312452E+02  0.29151838203E+02  0.51100000000E-03 0. -1.
        -11    1    3    3    0    0  0.17505852099E+01  0.29515290411E+01  0.26962362704E+01  0.43641451104E+01  0.51100000000E-03 0.  1.
        -12    1    3    3    0    0  0.37954582969E+00 -0.14956241041E+02  0.80996560820E+01  0.17012866595E+02  0.00000000000E+00 0.  1.
</event>
<event>
 7    1  0.8986500E-014  0.5052886E+02  0.7816164E-02  0.1300439E+00
        -11   -1    0    0    0    0  0.00000000000E+00  0.00000000000E+00  0.45593999997E+02  0.45594000000E+02  0.51100000000E-03 0. -1.
         11   -1    0    0    0    0 -0.00000000000E+00 -0.00000000000E+00 -0.45593999997E+02  0.45594000000E+02  0.51100000000E-03 0.  1.
    9900012    2    1    2    0    0 -0.19114988799E+02  0.20050749047E+02  0.29761557144E+02  0.50528860587E+02  0.30000002241E+02 0.  0.
        -12    1    1    2    0    0  0.19114988799E+02 -0.20050749047E+02 -0.29761557144E+02  0.40659139413E+02  0.00000000000E+00 0.  1.
         11    1    3    3    0    0 -0.13372943117E+02  0.13235305698E+02  0.27371232080E+02  0.33214353379E+02  0.51100000000E-03 0. -1.
        -11    1    3    3    0    0  0.68337988776E+00  0.81578546747E+01  0.56880690748E+01  0.99685370554E+01  0.51100000000E-03 0.  1.
        -12    1    3    3    0    0 -0.64254255702E+01 -0.13424113259E+01 -0.32977440111E+01  0.73459701530E+01  0.00000000000E+00 0.  1.
</event>
<event>
 7    1  0.8986500E-014  0.5052888E+02  0.7816164E-02  0.1300439E+00
        -11   -1    0    0    0    0  0.00000000000E+00  0.00000000000E+00  0.45593999997E+02  0.45594000000E+02  0.51100000000E-03 0. -1.
         11   -1    0    0    0    0 -0.00000000000E+00 -0.00000000000E+00 -0.45593999997E+02  0.45594000000E+02  0.51100000000E-03 0.  1.
    9900012    2    1    2    0    0  0.15286380779E+01 -0.89812952884E+01  0.39625294799E+02  0.50528875719E+02  0.30000048234E+02 0.  0.
        -12    1    1    2    0    0 -0.15286380779E+01  0.89812952884E+01 -0.39625294799E+02  0.40659124281E+02  0.00000000000E+00 0.  1.
         11    1    3    3    0    0  0.10271510336E+02 -0.41931087981E+01  0.49810605362E+01  0.12161293118E+02  0.51100000000E-03 0. -1.
        -11    1    3    3    0    0  0.32293159307E+01  0.68071737858E+00  0.61242443158E+01  0.69568833705E+01  0.51100000000E-03 0.  1.
        -12    1    3    3    0    0 -0.11972188189E+02 -0.54689038689E+01  0.28519989947E+02  0.31410699230E+02  0.00000000000E+00 0.  1.
</event>
<event>
 7    1  0.8986500E-014  0.5052887E+02  0.7816164E-02  0.1300439E+00
        -11   -1    0    0    0    0  0.00000000000E+00  0.00000000000E+00  0.45593999997E+02  0.45594000000E+02  0.51100000000E-03 0.  1.
         11   -1    0    0    0    0 -0.00000000000E+00 -0.00000000000E+00 -0.45593999997E+02  0.45594000000E+02  0.51100000000E-03 0. -1.
    9900012    2    1    2    0    0  0.28332515763E+02 -0.29093210685E+02 -0.20047149034E+01  0.50528865241E+02  0.30000016388E+02 0.  0.
        -12    1    1    2    0    0 -0.28332515763E+02  0.29093210685E+02  0.20047149034E+01  0.40659134759E+02  0.00000000000E+00 0.  1.
         11    1    3    3    0    0  0.77780578001E+01 -0.10330761251E+02 -0.38784542014E+01  0.13500563633E+02  0.51100000000E-03 0. -1.
        -11    1    3    3    0    0  0.11399574698E+02 -0.18225358323E+02 -0.85588721320E+01  0.23138026747E+02  0.51100000000E-03 0.  1.
         12    1    3    3    0    0  0.91548832658E+01 -0.53709111134E+00  0.10432611430E+02  0.13890274861E+02  0.00000000000E+00 0. -1.
</event>
<event>
 7    1  0.8986500E-014  0.5052886E+02  0.7816164E-02  0.1300439E+00
        -11   -1    0    0    0    0  0.00000000000E+00  0.00000000000E+00  0.45593999997E+02  0.45594000000E+02  0.51100000000E-03 0. -1.
         11   -1    0    0    0    0 -0.00000000000E+00 -0.00000000000E+00 -0.45593999997E+02  0.45594000000E+02  0.51100000000E-03 0.  1.
    9900012    2    1    2    0    0 -0.18216722818E+01  0.23312369838E+00  0.40617640359E+02  0.50528861483E+02  0.30000004965E+02 0.  0.
        -12    1    1    2    0    0  0.18216722818E+01 -0.23312369838E+00 -0.40617640359E+02  0.40659138517E+02  0.00000000000E+00 0.  1.
         11    1    3    3    0    0  0.29204279364E+01  0.24713522173E+01  0.64091338320E+01  0.74641461569E+01  0.51100000000E-03 0. -1.
        -11    1    3    3    0    0  0.40155223858E+01 -0.69967070289E+01  0.31804962907E+02  0.32812101350E+02  0.51100000000E-03 0.  1.
        -12    1    3    3    0    0 -0.87576226040E+01  0.47584785100E+01  0.24035436207E+01  0.10252613976E+02  0.00000000000E+00 0.  1.
</event>
<event>
 7    1  0.8986500E-014  0.5052888E+02  0.7816164E-02  0.1300439E+00
        -11   -1    0    0    0    0  0.00000000000E+00  0.00000000000E+00  0.45593999997E+02  0.45594000000E+02  0.51100000000E-03 0. -1.
         11   -1    0    0    0    0 -0.00000000000E+00 -0.00000000000E+00 -0.45593999997E+02  0.45594000000E+02  0.51100000000E-03 0.  1.
    9900012    2    1    2    0    0 -0.22562351013E+02  0.46834946583E+01 -0.33498793231E+02  0.50528881055E+02  0.30000064454E+02 0.  0.
         12    1    1    2    0    0  0.22562351013E+02 -0.46834946583E+01  0.33498793231E+02  0.40659118945E+02  0.00000000000E+00 0. -1.
         11    1    3    3    0    0  0.13127944111E+01 -0.57257168225E+01 -0.11821320574E+02  0.13200412216E+02  0.51100000000E-03 0. -1.
        -11    1    3    3    0    0 -0.54712934729E+01  0.80366956617E+01 -0.14446190123E+02  0.17413096759E+02  0.51100000000E-03 0.  1.
         12    1    3    3    0    0 -0.18403851951E+02  0.23725158191E+01 -0.72312825342E+01  0.19915372079E+02  0.00000000000E+00 0. -1.
</event>
<event>
 7    1  0.8986500E-014  0.5052886E+02  0.7816164E-02  0.1300439E+00
        -11   -1    0    0    0    0  0.00000000000E+00  0.00000000000E+00  0.45593999997E+02  0.45594000000E+02  0.51100000000E-03 0. -1.
         11   -1    0    0    0    0 -0.00000000000E+00 -0.00000000000E+00 -0.45593999997E+02  0.45594000000E+02  0.51100000000E-03 0.  1.
    9900012    2    1    2    0    0  0.14196464385E+02 -0.18320926815E+02  0.33406134835E+02  0.50528858285E+02  0.29999995242E+02 0.  0.
        -12    1    1    2    0    0 -0.14196464385E+02  0.18320926815E+02 -0.33406134835E+02  0.40659141715E+02  0.00000000000E+00 0.  1.
         11    1    3    3    0    0 -0.12624029128E+01 -0.34810482415E+01  0.25165424327E+02  0.25436390070E+02  0.51100000000E-03 0. -1.
        -11    1    3    3    0    0 -0.19508945828E+00 -0.11579905705E+01  0.36051124728E+01  0.37915482670E+01  0.51100000000E-03 0.  1.
        -12    1    3    3    0    0  0.15653956756E+02 -0.13681888003E+02  0.46355980349E+01  0.21300919947E+02  0.00000000000E+00 0.  1.
</event>
<event>
 7    1  0.8986500E-014  0.5052885E+02  0.7816164E-02  0.1300439E+00
        -11   -1    0    0    0    0  0.00000000000E+00  0.00000000000E+00  0.45593999997E+02  0.45594000000E+02  0.51100000000E-03 0. -1.
         11   -1    0    0    0    0 -0.00000000000E+00 -0.00000000000E+00 -0.45593999997E+02  0.45594000000E+02  0.51100000000E-03 0.  1.
    9900012    2    1    2    0    0  0.98063100461E+01  0.22818598502E+02  0.32191830934E+02  0.50528854249E+02  0.29999982975E+02 0.  0.
        -12    1    1    2    0    0 -0.98063100461E+01 -0.22818598502E+02 -0.32191830934E+02  0.40659145751E+02  0.00000000000E+00 0.  1.
         11    1    3    3    0    0  0.82758010554E+01  0.52644130339E+01  0.90287691680E+01  0.13331226525E+02  0.51100000000E-03 0. -1.
        -11    1    3    3    0    0  0.76167116074E+01  0.13706465227E+02  0.25230502854E+02  0.29706224252E+02  0.51100000000E-03 0.  1.
        -12    1    3    3    0    0 -0.60862026167E+01  0.38477202407E+01 -0.20674410883E+01  0.74914034730E+01  0.00000000000E+00 0.  1.
</event>
<event>
 7    1  0.8986500E-014  0.5052886E+02  0.7816164E-02  0.1300439E+00
        -11   -1    0    0    0    0  0.00000000000E+00  0.00000000000E+00  0.45593999997E+02  0.45594000000E+02  0.51100000000E-03 0. -1.
         11   -1    0    0    0    0 -0.00000000000E+00 -0.00000000000E+00 -0.45593999997E+02  0.45594000000E+02  0.51100000000E-03 0.  1.
    9900012    2    1    2    0    0  0.25869383106E+02 -0.31304923913E+02 -0.19854766071E+01  0.50528863747E+02  0.30000011845E+02 0.  0.
        -12    1    1    2    0    0 -0.25869383106E+02  0.31304923913E+02  0.19854766071E+01  0.40659136253E+02  0.00000000000E+00 0.  1.
         11    1    3    3    0    0  0.99256521832E+01  0.75935348731E+00  0.18319900849E+01  0.10121826758E+02  0.51100000000E-03 0. -1.
        -11    1    3    3    0    0  0.16682420267E+01 -0.50586256881E+01 -0.79631281827E+01  0.95804037508E+01  0.51100000000E-03 0.  1.
         12    1    3    3    0    0  0.14275488896E+02 -0.27005651712E+02  0.41456614907E+01  0.30826633239E+02  0.00000000000E+00 0. -1.
</event>
<event>
 7    1  0.8986500E-014  0.5052888E+02  0.7816164E-02  0.1300439E+00
        -11   -1    0    0    0    0  0.00000000000E+00  0.00000000000E+00  0.45593999997E+02  0.45594000000E+02  0.51100000000E-03 0. -1.
         11   -1    0    0    0    0 -0.00000000000E+00 -0.00000000000E+00 -0.45593999997E+02  0.45594000000E+02  0.51100000000E-03 0.  1.
    9900012    2    1    2    0    0 -0.28612112692E+02  0.14837722497E+02 -0.24786140208E+02  0.50528883580E+02  0.30000072130E+02 0.  0.
         12    1    1    2    0    0  0.28612112692E+02 -0.14837722497E+02  0.24786140208E+02  0.40659116420E+02  0.00000000000E+00 0. -1.
         11    1    3    3    0    0 -0.90871644809E+01 -0.44724114066E+01 -0.18147922606E+02  0.20782832273E+02  0.51100000000E-03 0.  1.
        -11    1    3    3    0    0 -0.15856691789E+02  0.10617746621E+02 -0.69413098363E+01  0.20306476807E+02  0.51100000000E-03 0. -1.
        -12    1    3    3    0    0 -0.36682564228E+01  0.86923872823E+01  0.30309223452E+00  0.94395745006E+01  0.00000000000E+00 0.  1.
</event>
<event>
 7    1  0.8986500E-014  0.5052887E+02  0.7816164E-02  0.1300439E+00
        -11   -1    0    0    0    0  0.00000000000E+00  0.00000000000E+00  0.45593999997E+02  0.45594000000E+02  0.51100000000E-03 0. -1.
         11   -1    0    0    0    0 -0.00000000000E+00 -0.00000000000E+00 -0.45593999997E+02  0.45594000000E+02  0.51100000000E-03 0.  1.
    9900012    2    1    2    0    0  0.84082294549E+01  0.22544264536E+02  0.32775338555E+02  0.50528868142E+02  0.30000025204E+02 0.  0.
        -12    1    1    2    0    0 -0.84082294549E+01 -0.22544264536E+02 -0.32775338555E+02  0.40659131858E+02  0.00000000000E+00 0.  1.
         11    1    3    3    0    0  0.39428337989E+01  0.28018586098E+01  0.20435898251E+02  0.21000530651E+02  0.51100000000E-03 0. -1.
        -11    1    3    3    0    0  0.79427697993E+01  0.96702872838E+01  0.13962693329E+02  0.18749902760E+02  0.51100000000E-03 0.  1.
        -12    1    3    3    0    0 -0.34773741434E+01  0.10072118642E+02 -0.16232530243E+01  0.10778434731E+02  0.00000000000E+00 0.  1.
</event>
<event>
 7    1  0.8986500E-014  0.5052886E+02  0.7816164E-02  0.1300439E+00
        -11   -1    0    0    0    0  0.00000000000E+00  0.00000000000E+00  0.45593999997E+02  0.45594000000E+02  0.51100000000E-03 0. -1.
         11   -1    0    0    0    0 -0.00000000000E+00 -0.00000000000E+00 -0.45593999997E+02  0.45594000000E+02  0.51100000000E-03 0.  1.
    9900012    2    1    2    0    0 -0.30648284564E+01 -0.10534321011E+02  0.39151001906E+02  0.50528855360E+02  0.29999986351E+02 0.  0.
        -12    1    1    2    0    0  0.30648284564E+01  0.10534321011E+02 -0.39151001906E+02  0.40659144640E+02  0.00000000000E+00 0.  1.
         11    1    3    3    0    0 -0.89016641509E+01  0.12252371581E+01  0.29819337456E+02  0.31143758882E+02  0.51100000000E-03 0. -1.
        -11    1    3    3    0    0  0.82775725097E+01 -0.47079141990E+01  0.49675915888E+01  0.10740560005E+02  0.51100000000E-03 0.  1.
        -12    1    3    3    0    0 -0.24407368152E+01 -0.70516439705E+01  0.43640728615E+01  0.86445364727E+01  0.00000000000E+00 0.  1.
</event>
<event>
 7    1  0.8986500E-014  0.5052884E+02  0.7816164E-02  0.1300439E+00
        -11   -1    0    0    0    0  0.00000000000E+00  0.00000000000E+00  0.45593999997E+02  0.45594000000E+02  0.51100000000E-03 0. -1.
         11   -1    0    0    0    0 -0.00000000000E+00 -0.00000000000E+00 -0.45593999997E+02  0.45594000000E+02  0.51100000000E-03 0.  1.
    9900012    2    1    2    0    0  0.33161926743E+02  0.12816852156E+02 -0.19727704597E+02  0.50528838509E+02  0.29999935131E+02 0.  0.
         12    1    1    2    0    0 -0.33161926743E+02 -0.12816852156E+02  0.19727704597E+02  0.40659161491E+02  0.00000000000E+00 0. -1.
         11    1    3    3    0    0 -0.24790617381E+01  0.14932170595E+01 -0.37188408734E+01  0.47122417161E+01  0.51100000000E-03 0. -1.
        -11    1    3    3    0    0  0.32830551053E+02  0.11555971898E+02 -0.20588388518E+02  0.40438438533E+02  0.51100000000E-03 0.  1.
         12    1    3    3    0    0  0.28104374283E+01 -0.23233680080E+00  0.45795247943E+01  0.53781582599E+01  0.00000000000E+00 0. -1.
</event>
<event>
 7    1  0.8986500E-014  0.5052881E+02  0.7816164E-02  0.1300439E+00
        -11   -1    0    0    0    0  0.00000000000E+00  0.00000000000E+00  0.45593999997E+02  0.45594000000E+02  0.51100000000E-03 0. -1.
         11   -1    0    0    0    0 -0.00000000000E+00 -0.00000000000E+00 -0.45593999997E+02  0.45594000000E+02  0.51100000000E-03 0.  1.
    9900012    2    1    2    0    0  0.21164939059E+02 -0.17258993750E+02  0.30122123213E+02  0.50528808942E+02  0.29999845259E+02 0.  0.
        -12    1    1    2    0    0 -0.21164939059E+02  0.17258993750E+02 -0.30122123213E+02  0.40659191058E+02  0.00000000000E+00 0.  1.
         11    1    3    3    0    0 -0.49757718197E+01  0.11184335223E+01  0.13430102303E+01  0.52737913768E+01  0.51100000000E-03 0. -1.
        -11    1    3    3    0    0 -0.10339095493E+01 -0.39846981693E+01  0.25917146837E+01  0.48645424985E+01  0.51100000000E-03 0.  1.
         12    1    3    3    0    0  0.27174620428E+02 -0.14392729103E+02  0.26187398299E+02  0.40390475067E+02  0.00000000000E+00 0. -1.
</event>
<event>
 7    1  0.8986500E-014  0.5052889E+02  0.7816164E-02  0.1300439E+00
        -11   -1    0    0    0    0  0.00000000000E+00  0.00000000000E+00  0.45593999997E+02  0.45594000000E+02  0.51100000000E-03 0. -1.
         11   -1    0    0    0    0 -0.00000000000E+00 -0.00000000000E+00 -0.45593999997E+02  0.45594000000E+02  0.51100000000E-03 0.  1.
    9900012    2    1    2    0    0  0.27445413792E+02  0.73439918270E+01 -0.29085702670E+02  0.50528892116E+02  0.30000098074E+02 0.  0.
         12    1    1    2    0    0 -0.27445413792E+02 -0.73439918270E+01  0.29085702670E+02  0.40659107884E+02  0.00000000000E+00 0. -1.
         11    1    3    3    0    0  0.52346204602E+00 -0.55654041785E+01 -0.27900153491E+01  0.62475532885E+01  0.51100000000E-03 0. -1.
        -11    1    3    3    0    0 -0.10379582943E+01  0.16430853178E+01  0.21052497678E+01  0.28651638048E+01  0.51100000000E-03 0.  1.
        -12    1    3    3    0    0  0.27959910040E+02  0.11266310688E+02 -0.28400937088E+02  0.41416175022E+02  0.00000000000E+00 0.  1.
</event>
<event>
 7    1  0.8986500E-014  0.5052886E+02  0.7816164E-02  0.1300439E+00
        -11   -1    0    0    0    0  0.00000000000E+00  0.00000000000E+00  0.45593999997E+02  0.45594000000E+02  0.51100000000E-03 0. -1.
         11   -1    0    0    0    0 -0.00000000000E+00 -0.00000000000E+00 -0.45593999997E+02  0.45594000000E+02  0.51100000000E-03 0.  1.
    9900012    2    1    2    0    0 -0.14374455551E+02 -0.13231599926E+02 -0.35657612392E+02  0.50528861661E+02  0.30000005504E+02 0.  0.
         12    1    1    2    0    0  0.14374455551E+02  0.13231599926E+02  0.35657612392E+02  0.40659138339E+02  0.00000000000E+00 0. -1.
         11    1    3    3    0    0 -0.12881296809E+02 -0.20642121218E+01 -0.30178011163E+02  0.32877060957E+02  0.51100000000E-03 0. -1.
        -11    1    3    3    0    0 -0.35182074682E+01 -0.41993793896E+01 -0.82342973080E+01  0.98902084642E+01  0.51100000000E-03 0.  1.
         12    1    3    3    0    0  0.20250487269E+01 -0.69680084145E+01  0.27546960785E+01  0.77615922397E+01  0.00000000000E+00 0. -1.
</event>
<event>
 7    1  0.8986500E-014  0.5052887E+02  0.7816164E-02  0.1300439E+00
        -11   -1    0    0    0    0  0.00000000000E+00  0.00000000000E+00  0.45593999997E+02  0.45594000000E+02  0.51100000000E-03 0. -1.
         11   -1    0    0    0    0 -0.00000000000E+00 -0.00000000000E+00 -0.45593999997E+02  0.45594000000E+02  0.51100000000E-03 0.  1.
    9900012    2    1    2    0    0 -0.32512478953E+01 -0.28607073945E+02 -0.28709404280E+02  0.50528865889E+02  0.30000018355E+02 0.  0.
         12    1    1    2    0    0  0.32512478953E+01  0.28607073945E+02  0.28709404280E+02  0.40659134111E+02  0.00000000000E+00 0. -1.
         11    1    3    3    0    0 -0.44955535023E+01 -0.96026151472E+00 -0.16740863975E+02  0.17360548101E+02  0.51100000000E-03 0. -1.
        -11    1    3    3    0    0 -0.61539197143E+01 -0.94295538765E+01 -0.47941004067E+01  0.12238080451E+02  0.51100000000E-03 0.  1.
         12    1    3    3    0    0  0.73982253213E+01 -0.18217258553E+02 -0.71744398984E+01  0.20930237336E+02  0.00000000000E+00 0. -1.
</event>
<event>
 7    1  0.8986500E-014  0.5052887E+02  0.7816164E-02  0.1300439E+00
        -11   -1    0    0    0    0  0.00000000000E+00  0.00000000000E+00  0.45593999997E+02  0.45594000000E+02  0.51100000000E-03 0. -1.
         11   -1    0    0    0    0 -0.00000000000E+00 -0.00000000000E+00 -0.45593999997E+02  0.45594000000E+02  0.51100000000E-03 0.  1.
    9900012    2    1    2    0    0  0.20653187181E+02 -0.29833468423E+02  0.18345973383E+02  0.50528871649E+02  0.30000035865E+02 0.  0.
        -12    1    1    2    0    0 -0.20653187181E+02  0.29833468423E+02 -0.18345973383E+02  0.40659128351E+02  0.00000000000E+00 0.  1.
         11    1    3    3    0    0  0.12815282775E+02 -0.81697543442E+01  0.39188159775E+01  0.15695014417E+02  0.51100000000E-03 0. -1.
        -11    1    3    3    0    0  0.37861487341E+01 -0.19555301494E+02  0.22970443233E+00  0.19919776684E+02  0.51100000000E-03 0.  1.
         12    1    3    3    0    0  0.40517556720E+01 -0.21084125848E+01  0.14197452973E+02  0.14914080548E+02  0.00000000000E+00 0. -1.
</event>
<event>
 7    1  0.8986500E-014  0.5052880E+02  0.7816164E-02  0.1300439E+00
        -11   -1    0    0    0    0  0.00000000000E+00  0.00000000000E+00  0.45593999997E+02  0.45594000000E+02  0.51100000000E-03 0. -1.
         11   -1    0    0    0    0 -0.00000000000E+00 -0.00000000000E+00 -0.45593999997E+02  0.45594000000E+02  0.51100000000E-03 0.  1.
    9900012    2    1    2    0    0 -0.21180550705E+02 -0.13091603442E+02  0.32142884955E+02  0.50528796096E+02  0.29999806214E+02 0.  0.
        -12    1    1    2    0    0  0.21180550705E+02  0.13091603442E+02 -0.32142884955E+02  0.40659203904E+02  0.00000000000E+00 0.  1.
         11    1    3    3    0    0 -0.81826109627E+01 -0.65267657228E+01  0.11778779019E+02  0.15757329355E+02  0.51100000000E-03 0. -1.
        -11    1    3    3    0    0 -0.11657110070E+02 -0.12731115524E+01 -0.18721520175E+01  0.11874930806E+02  0.51100000000E-03 0.  1.
         12    1    3    3    0    0 -0.13408296717E+01 -0.52917261664E+01  0.22236257954E+02  0.22896535935E+02  0.00000000000E+00 0. -1.
</event>
<event>
 7    1  0.8986500E-014  0.5052883E+02  0.7816164E-02  0.1300439E+00
        -11   -1    0    0    0    0  0.00000000000E+00  0.00000000000E+00  0.45593999997E+02  0.45594000000E+02  0.51100000000E-03 0. -1.
         11   -1    0    0    0    0 -0.00000000000E+00 -0.00000000000E+00 -0.45593999997E+02  0.45594000000E+02  0.51100000000E-03 0.  1.
    9900012    2    1    2    0    0 -0.38709848133E+02 -0.52173396095E+01  0.11291377896E+02  0.50528828957E+02  0.29999906098E+02 0.  0.
        -12    1    1    2    0    0  0.38709848133E+02  0.52173396095E+01 -0.11291377896E+02  0.40659171043E+02  0.00000000000E+00 0.  1.
         11    1    3    3    0    0 -0.19738556246E+02  0.99763473238E+01  0.68200057680E+00  0.22126979768E+02  0.51100000000E-03 0. -1.
        -11    1    3    3    0    0 -0.58549703380E+00  0.13614268782E+01  0.12873956671E+01  0.19630786500E+01  0.51100000000E-03 0.  1.
        -12    1    3    3    0    0 -0.18385794854E+02 -0.16555113812E+02  0.93219816522E+01  0.26438770539E+02  0.00000000000E+00 0.  1.
</event>
<event>
 7    1  0.8986500E-014  0.5052885E+02  0.7816164E-02  0.1300439E+00
        -11   -1    0    0    0    0  0.00000000000E+00  0.00000000000E+00  0.45593999997E+02  0.45594000000E+02  0.51100000000E-03 0. -1.
         11   -1    0    0    0    0 -0.00000000000E+00 -0.00000000000E+00 -0.45593999997E+02  0.45594000000E+02  0.51100000000E-03 0.  1.
    9900012    2    1    2    0    0 -0.11640661725E+02 -0.32439254289E+02  0.21572116932E+02  0.50528850314E+02  0.29999971015E+02 0.  0.
        -12    1    1    2    0    0  0.11640661725E+02  0.32439254289E+02 -0.21572116932E+02  0.40659149686E+02  0.00000000000E+00 0.  1.
         11    1    3    3    0    0 -0.93279804893E+01 -0.17283035824E+02  0.12853483960E+02  0.23471825611E+02  0.51100000000E-03 0. -1.
        -11    1    3    3    0    0 -0.21270030598E+01 -0.19769828356E+02  0.10011511275E+02  0.22262089154E+02  0.51100000000E-03 0.  1.
         12    1    3    3    0    0 -0.18567817632E+00  0.46136098910E+01 -0.12928783037E+01  0.47949355491E+01  0.00000000000E+00 0. -1.
</event>
<event>
 7    1  0.8986500E-014  0.5052886E+02  0.7816164E-02  0.1300439E+00
        -11   -1    0    0    0    0  0.00000000000E+00  0.00000000000E+00  0.45593999997E+02  0.45594000000E+02  0.51100000000E-03 0. -1.
         11   -1    0    0    0    0 -0.00000000000E+00 -0.00000000000E+00 -0.45593999997E+02  0.45594000000E+02  0.51100000000E-03 0.  1.
    9900012    2    1    2    0    0 -0.40255178011E+01  0.19452255740E+02 -0.35476336527E+02  0.50528862032E+02  0.30000006632E+02 0.  0.
         12    1    1    2    0    0  0.40255178011E+01 -0.19452255740E+02  0.35476336527E+02  0.40659137968E+02  0.00000000000E+00 0. -1.
         11    1    3    3    0    0  0.54046388186E+01  0.94576211037E+01 -0.74679336325E+01  0.13207071996E+02  0.51100000000E-03 0. -1.
        -11    1    3    3    0    0  0.56688550155E+01  0.42823668275E+01 -0.14971176179E+02  0.16571381937E+02  0.51100000000E-03 0.  1.
         12    1    3    3    0    0 -0.15099011635E+02  0.57122678092E+01 -0.13037226715E+02  0.20750408100E+02  0.00000000000E+00 0. -1.
</event>
<event>
 7    1  0.8986500E-014  0.5052887E+02  0.7816164E-02  0.1300439E+00
        -11   -1    0    0    0    0  0.00000000000E+00  0.00000000000E+00  0.45593999997E+02  0.45594000000E+02  0.51100000000E-03 0. -1.
         11   -1    0    0    0    0 -0.00000000000E+00 -0.00000000000E+00 -0.45593999997E+02  0.45594000000E+02  0.51100000000E-03 0.  1.
    9900012    2    1    2    0    0 -0.25166467919E+02 -0.18457989709E+01 -0.31881134772E+02  0.50528870204E+02  0.30000031473E+02 0.  0.
         12    1    1    2    0    0  0.25166467919E+02  0.18457989709E+01  0.31881134772E+02  0.40659129796E+02  0.00000000000E+00 0. -1.
         11    1    3    3    0    0 -0.18612637588E+02 -0.35656289851E+01 -0.29310944265E+02  0.34903802687E+02  0.51100000000E-03 0. -1.
        -11    1    3    3    0    0 -0.63483266045E+01  0.34480300619E+01 -0.74901447481E+01  0.10406364908E+02  0.51100000000E-03 0.  1.
         12    1    3    3    0    0 -0.20550372685E+00 -0.17282000477E+01  0.49199542412E+01  0.52187026091E+01  0.00000000000E+00 0. -1.
</event>
<event>
 7    1  0.8986500E-014  0.5052885E+02  0.7816164E-02  0.1300439E+00
        -11   -1    0    0    0    0  0.00000000000E+00  0.00000000000E+00  0.45593999997E+02  0.45594000000E+02  0.51100000000E-03 0. -1.
         11   -1    0    0    0    0 -0.00000000000E+00 -0.00000000000E+00 -0.45593999997E+02  0.45594000000E+02  0.51100000000E-03 0.  1.
    9900012    2    1    2    0    0  0.10677617598E+02  0.23669092788E+01  0.39160604312E+02  0.50528847191E+02  0.29999961521E+02 0.  0.
        -12    1    1    2    0    0 -0.10677617598E+02 -0.23669092788E+01 -0.39160604312E+02  0.40659152809E+02  0.00000000000E+00 0.  1.
         11    1    3    3    0    0 -0.79006407959E+00 -0.92788377992E+01  0.24907641666E+02  0.26591570954E+02  0.51100000000E-03 0. -1.
        -11    1    3    3    0    0  0.41571626885E+01  0.39357795058E+01  0.11676742835E+02  0.13004564023E+02  0.51100000000E-03 0.  1.
        -12    1    3    3    0    0  0.73105189887E+01  0.77099675722E+01  0.25762198108E+01  0.10932712214E+02  0.00000000000E+00 0.  1.
</event>
<event>
 7    1  0.8986500E-014  0.5052885E+02  0.7816164E-02  0.1300439E+00
        -11   -1    0    0    0    0  0.00000000000E+00  0.00000000000E+00  0.45593999997E+02  0.45594000000E+02  0.51100000000E-03 0. -1.
         11   -1    0    0    0    0 -0.00000000000E+00 -0.00000000000E+00 -0.45593999997E+02  0.45594000000E+02  0.51100000000E-03 0.  1.
    9900012    2    1    2    0    0 -0.38293115863E+02 -0.73275029028E+01  0.11537392522E+02  0.50528850384E+02  0.29999971229E+02 0.  0.
        -12    1    1    2    0    0  0.38293115863E+02  0.73275029028E+01 -0.11537392522E+02  0.40659149616E+02  0.00000000000E+00 0.  1.
         11    1    3    3    0    0 -0.69702602518E+01 -0.11229929880E+02  0.57990507980E+01  0.14433462630E+02  0.51100000000E-03 0. -1.
        -11    1    3    3    0    0 -0.52661482931E+01 -0.51736977850E+00 -0.52675965281E+01  0.74664290512E+01  0.51100000000E-03 0.  1.
         12    1    3    3    0    0 -0.26056707318E+02  0.44197967557E+01  0.11005938252E+02  0.28628958703E+02  0.00000000000E+00 0. -1.
</event>
<event>
 7    1  0.8986500E-014  0.5052887E+02  0.7816164E-02  0.1300439E+00
        -11   -1    0    0    0    0  0.00000000000E+00  0.00000000000E+00  0.45593999997E+02  0.45594000000E+02  0.51100000000E-03 0.  1.
         11   -1    0    0    0    0 -0.00000000000E+00 -0.00000000000E+00 -0.45593999997E+02  0.45594000000E+02  0.51100000000E-03 0. -1.
    9900012    2    1    2    0    0 -0.34596007376E+02  0.20833681423E+02  0.47158051168E+01  0.50528870326E+02  0.30000031842E+02 0.  0.
         12    1    1    2    0    0  0.34596007376E+02 -0.20833681423E+02 -0.47158051168E+01  0.40659129674E+02  0.00000000000E+00 0. -1.
         11    1    3    3    0    0 -0.89091416753E+01  0.11457384624E+02  0.11749509117E+02  0.18673388353E+02  0.51100000000E-03 0. -1.
        -11    1    3    3    0    0 -0.39685681410E+01  0.70325686359E+01  0.18324496478E+01  0.82803639220E+01  0.51100000000E-03 0.  1.
         12    1    3    3    0    0 -0.21718297559E+02  0.23437281630E+01 -0.88661536484E+01  0.23575118051E+02  0.00000000000E+00 0. -1.
</event>
<event>
 7    1  0.8986500E-014  0.5052886E+02  0.7816164E-02  0.1300439E+00
        -11   -1    0    0    0    0  0.00000000000E+00  0.00000000000E+00  0.45593999997E+02  0.45594000000E+02  0.51100000000E-03 0.  1.
         11   -1    0    0    0    0 -0.00000000000E+00 -0.00000000000E+00 -0.45593999997E+02  0.45594000000E+02  0.51100000000E-03 0. -1.
    9900012    2    1    2    0    0 -0.35096288606E+02 -0.16417074599E+02  0.12324597217E+02  0.50528861927E+02  0.30000006314E+02 0.  0.
        -12    1    1    2    0    0  0.35096288606E+02  0.16417074599E+02 -0.12324597217E+02  0.40659138073E+02  0.00000000000E+00 0.  1.
         11    1    3    3    0    0 -0.15109037524E+02 -0.95268513059E+01  0.36467143424E+01  0.18230261558E+02  0.51100000000E-03 0. -1.
        -11    1    3    3    0    0 -0.18883888514E+02 -0.12626804454E+02  0.11170339218E+01  0.22743904704E+02  0.51100000000E-03 0.  1.
         12    1    3    3    0    0 -0.11033625677E+01  0.57365811615E+01  0.75608489525E+01  0.95546956655E+01  0.00000000000E+00 0. -1.
</event>
<event>
 7    1  0.8986500E-014  0.5052886E+02  0.7816164E-02  0.1300439E+00
        -11   -1    0    0    0    0  0.00000000000E+00  0.00000000000E+00  0.45593999997E+02  0.45594000000E+02  0.51100000000E-03 0. -1.
         11   -1    0    0    0    0 -0.00000000000E+00 -0.00000000000E+00 -0.45593999997E+02  0.45594000000E+02  0.51100000000E-03 0.  1.
    9900012    2    1    2    0    0  0.14385344501E+02 -0.53506149302E+01 -0.37651011592E+02  0.50528857234E+02  0.29999992049E+02 0.  0.
         12    1    1    2    0    0 -0.14385344501E+02  0.53506149302E+01  0.37651011592E+02  0.40659142766E+02  0.00000000000E+00 0. -1.
         11    1    3    3    0    0  0.21568906019E+00  0.42550660826E+00  0.46059937058E+00  0.66312116966E+00  0.51100000000E-03 0. -1.
        -11    1    3    3    0    0  0.19687689120E+02  0.17261882655E+01 -0.14583317103E+02  0.24561310364E+02  0.51100000000E-03 0.  1.
         12    1    3    3    0    0 -0.55180336795E+01 -0.75023098040E+01 -0.23528293860E+02  0.25304425701E+02  0.00000000000E+00 0. -1.
</event>
<event>
 7    1  0.8986500E-014  0.5052886E+02  0.7816164E-02  0.1300439E+00
        -11   -1    0    0    0    0  0.00000000000E+00  0.00000000000E+00  0.45593999997E+02  0.45594000000E+02  0.51100000000E-03 0. -1.
         11   -1    0    0    0    0 -0.00000000000E+00 -0.00000000000E+00 -0.45593999997E+02  0.45594000000E+02  0.51100000000E-03 0.  1.
    9900012    2    1    2    0    0  0.16957142832E+02 -0.66507183218E+01 -0.36350916344E+02  0.50528857531E+02  0.29999992952E+02 0.  0.
         12    1    1    2    0    0 -0.16957142832E+02  0.66507183218E+01  0.36350916344E+02  0.40659142469E+02  0.00000000000E+00 0. -1.
         11    1    3    3    0    0 -0.23805591724E+01 -0.11831064703E+00 -0.76796011647E+01  0.80409784039E+01  0.51100000000E-03 0. -1.
        -11    1    3    3    0    0  0.54266766487E+00 -0.68397346090E+01 -0.21160974207E+02  0.22245522861E+02  0.51100000000E-03 0.  1.
        -12    1    3    3    0    0  0.18795034340E+02  0.30732693420E+00 -0.75103409721E+01  0.20242356266E+02  0.00000000000E+00 0.  1.
</event>
<event>
 7    1  0.8986500E-014  0.5052886E+02  0.7816164E-02  0.1300439E+00
        -11   -1    0    0    0    0  0.00000000000E+00  0.00000000000E+00  0.45593999997E+02  0.45594000000E+02  0.51100000000E-03 0. -1.
         11   -1    0    0    0    0 -0.00000000000E+00 -0.00000000000E+00 -0.45593999997E+02  0.45594000000E+02  0.51100000000E-03 0.  1.
    9900012    2    1    2    0    0 -0.16025389308E+01  0.10690006109E+02  0.39195935527E+02  0.50528859288E+02  0.29999998291E+02 0.  0.
        -12    1    1    2    0    0  0.16025389308E+01 -0.10690006109E+02 -0.39195935527E+02  0.40659140712E+02  0.00000000000E+00 0.  1.
         11    1    3    3    0    0 -0.28940721540E+01  0.52514690396E-01  0.26559997826E+01  0.39284534529E+01  0.51100000000E-03 0. -1.
        -11    1    3    3    0    0 -0.26535693589E+01 -0.62916083992E+01  0.82245666116E+00  0.68776596174E+01  0.51100000000E-03 0.  1.
         12    1    3    3    0    0  0.39451025821E+01  0.16929099818E+02  0.35717479083E+02  0.39722746218E+02  0.00000000000E+00 0. -1.
</event>
<event>
 7    1  0.8986500E-014  0.5052885E+02  0.7816164E-02  0.1300439E+00
        -11   -1    0    0    0    0  0.00000000000E+00  0.00000000000E+00  0.45593999997E+02  0.45594000000E+02  0.51100000000E-03 0. -1.
         11   -1    0    0    0    0 -0.00000000000E+00 -0.00000000000E+00 -0.45593999997E+02  0.45594000000E+02  0.51100000000E-03 0.  1.
    9900012    2    1    2    0    0  0.21286824283E+02  0.31275948758E+01  0.34500088101E+02  0.50528845843E+02  0.29999957425E+02 0.  0.
        -12    1    1    2    0    0 -0.21286824283E+02 -0.31275948758E+01 -0.34500088101E+02  0.40659154157E+02  0.00000000000E+00 0.  1.
         11    1    3    3    0    0 -0.28435057378E+01  0.44968244887E+01 -0.12203343865E+01  0.54585869636E+01  0.51100000000E-03 0. -1.
        -11    1    3    3    0    0  0.42512477561E+00 -0.36345870762E+01  0.43238651606E+01  0.56645180269E+01  0.51100000000E-03 0.  1.
        -12    1    3    3    0    0  0.23705205245E+02  0.22653574632E+01  0.31396557327E+02  0.39405740853E+02  0.00000000000E+00 0.  1.
</event>
<event>
 7    1  0.8986500E-014  0.5052888E+02  0.7816164E-02  0.1300439E+00
        -11   -1    0    0    0    0  0.00000000000E+00  0.00000000000E+00  0.45593999997E+02  0.45594000000E+02  0.51100000000E-03 0. -1.
         11   -1    0    0    0    0 -0.00000000000E+00 -0.00000000000E+00 -0.45593999997E+02  0.45594000000E+02  0.51100000000E-03 0.  1.
    9900012    2    1    2    0    0  0.31657255011E+02  0.97221875091E+01 -0.23589436032E+02  0.50528877812E+02  0.30000054596E+02 0.  0.
         12    1    1    2    0    0 -0.31657255011E+02 -0.97221875091E+01  0.23589436032E+02  0.40659122188E+02  0.00000000000E+00 0. -1.
         11    1    3    3    0    0  0.27605347119E+02 -0.42391648895E+00 -0.10907206174E+02  0.29685047440E+02  0.51100000000E-03 0. -1.
        -11    1    3    3    0    0  0.72777117857E+01  0.52696581657E+01 -0.11950249731E+02  0.14951349602E+02  0.51100000000E-03 0.  1.
         12    1    3    3    0    0 -0.32258038933E+01  0.48764458324E+01 -0.73198012774E+00  0.58924807698E+01  0.00000000000E+00 0. -1.
</event>
<event>
 7    1  0.8986500E-014  0.5052888E+02  0.7816164E-02  0.1300439E+00
        -11   -1    0    0    0    0  0.00000000000E+00  0.00000000000E+00  0.45593999997E+02  0.45594000000E+02  0.51100000000E-03 0. -1.
         11   -1    0    0    0    0 -0.00000000000E+00 -0.00000000000E+00 -0.45593999997E+02  0.45594000000E+02  0.51100000000E-03 0.  1.
    9900012    2    1    2    0    0  0.17041648200E+02 -0.31260684904E+02 -0.19634549150E+02  0.50528883994E+02  0.30000073388E+02 0.  0.
         12    1    1    2    0    0 -0.17041648200E+02  0.31260684904E+02  0.19634549150E+02  0.40659116006E+02  0.00000000000E+00 0. -1.
         11    1    3    3    0    0 -0.10225469473E+01 -0.97260640172E+01 -0.28661475828E+01  0.10191012008E+02  0.51100000000E-03 0. -1.
        -11    1    3    3    0    0  0.11968305333E+02 -0.20089248041E+02 -0.10395315412E+01  0.23407239169E+02  0.51100000000E-03 0.  1.
        -12    1    3    3    0    0  0.60958898141E+01 -0.14453728458E+01 -0.15728870026E+02  0.16930632817E+02  0.00000000000E+00 0.  1.
</event>
<event>
 7    1  0.8986500E-014  0.5052887E+02  0.7816164E-02  0.1300439E+00
        -11   -1    0    0    0    0  0.00000000000E+00  0.00000000000E+00  0.45593999997E+02  0.45594000000E+02  0.51100000000E-03 0. -1.
         11   -1    0    0    0    0 -0.00000000000E+00 -0.00000000000E+00 -0.45593999997E+02  0.45594000000E+02  0.51100000000E-03 0.  1.
    9900012    2    1    2    0    0  0.23250590909E+02  0.11259872811E+02  0.31397298475E+02  0.50528867387E+02  0.30000022909E+02 0.  0.
        -12    1    1    2    0    0 -0.23250590909E+02 -0.11259872811E+02 -0.31397298475E+02  0.40659132613E+02  0.00000000000E+00 0.  1.
         11    1    3    3    0    0  0.18187612460E+02  0.10494850990E+02  0.16044946741E+02  0.26426718685E+02  0.51100000000E-03 0. -1.
        -11    1    3    3    0    0  0.32767084187E+01  0.91692673274E+01  0.10113030778E+02  0.14038720496E+02  0.51100000000E-03 0.  1.
        -12    1    3    3    0    0  0.17862700303E+01 -0.84042455070E+01  0.52393209563E+01  0.10063428205E+02  0.00000000000E+00 0.  1.
</event>
<event>
 7    1  0.8986500E-014  0.5052886E+02  0.7816164E-02  0.1300439E+00
        -11   -1    0    0    0    0  0.00000000000E+00  0.00000000000E+00  0.45593999997E+02  0.45594000000E+02  0.51100000000E-03 0. -1.
         11   -1    0    0    0    0 -0.00000000000E+00 -0.00000000000E+00 -0.45593999997E+02  0.45594000000E+02  0.51100000000E-03 0.  1.
    9900012    2    1    2    0    0  0.56698812853E+01  0.23428266728E+02 -0.32743465078E+02  0.50528859073E+02  0.29999997638E+02 0.  0.
         12    1    1    2    0    0 -0.56698812853E+01 -0.23428266728E+02  0.32743465078E+02  0.40659140927E+02  0.00000000000E+00 0. -1.
         11    1    3    3    0    0 -0.43775144079E+00 -0.15939352863E+01 -0.14294761666E+00  0.16591233538E+01  0.51100000000E-03 0. -1.
        -11    1    3    3    0    0 -0.37357200222E+01  0.14297527666E+02 -0.19081926434E+01  0.14900204726E+02  0.51100000000E-03 0.  1.
        -12    1    3    3    0    0  0.98433527483E+01  0.10724674348E+02 -0.30692324817E+02  0.33969530993E+02  0.00000000000E+00 0.  1.
</event>
<event>
 7    1  0.8986500E-014  0.5052886E+02  0.7816164E-02  0.1300439E+00
        -11   -1    0    0    0    0  0.00000000000E+00  0.00000000000E+00  0.45593999997E+02  0.45594000000E+02  0.51100000000E-03 0. -1.
         11   -1    0    0    0    0 -0.00000000000E+00 -0.00000000000E+00 -0.45593999997E+02  0.45594000000E+02  0.51100000000E-03 0.  1.
    9900012    2    1    2    0    0 -0.94524478224E+01  0.72175270772E+01 -0.38880895896E+02  0.50528861634E+02  0.30000005424E+02 0.  0.
         12    1    1    2    0    0  0.94524478224E+01 -0.72175270772E+01  0.38880895896E+02  0.40659138366E+02  0.00000000000E+00 0. -1.
         11    1    3    3    0    0  0.58707891953E+01  0.22008119066E+01  0.72720492456E+00  0.63117799460E+01  0.51100000000E-03 0. -1.
        -11    1    3    3    0    0  0.94723372206E+00  0.31232855212E+01 -0.60279991901E+01  0.68548478224E+01  0.51100000000E-03 0.  1.
        -12    1    3    3    0    0 -0.16270470740E+02  0.18934296494E+01 -0.33580101631E+02  0.37362233866E+02  0.00000000000E+00 0.  1.
</event>
<event>
 7    1  0.8986500E-014  0.5052886E+02  0.7816164E-02  0.1300439E+00
        -11   -1    0    0    0    0  0.00000000000E+00  0.00000000000E+00  0.45593999997E+02  0.45594000000E+02  0.51100000000E-03 0. -1.
         11   -1    0    0    0    0 -0.00000000000E+00 -0.00000000000E+00 -0.45593999997E+02  0.45594000000E+02  0.51100000000E-03 0.  1.
    9900012    2    1    2    0    0 -0.26869416704E+02  0.33934394546E+01  0.30326307831E+02  0.50528856724E+02  0.29999990497E+02 0.  0.
        -12    1    1    2    0    0  0.26869416704E+02 -0.33934394546E+01 -0.30326307831E+02  0.40659143276E+02  0.00000000000E+00 0.  1.
         11    1    3    3    0    0 -0.15686066830E+01  0.24248528140E+01  0.13823946201E+01  0.32017890689E+01  0.51100000000E-03 0. -1.
        -11    1    3    3    0    0 -0.52745298635E+01  0.12860875432E+02  0.82085953220E+01  0.16143228289E+02  0.51100000000E-03 0.  1.
         12    1    3    3    0    0 -0.20026280157E+02 -0.11892288792E+02  0.20735317889E+02  0.31183839366E+02  0.00000000000E+00 0. -1.
</event>
<event>
 7    1  0.8986500E-014  0.5052886E+02  0.7816164E-02  0.1300439E+00
        -11   -1    0    0    0    0  0.00000000000E+00  0.00000000000E+00  0.45593999997E+02  0.45594000000E+02  0.51100000000E-03 0. -1.
         11   -1    0    0    0    0 -0.00000000000E+00 -0.00000000000E+00 -0.45593999997E+02  0.45594000000E+02  0.51100000000E-03 0.  1.
    9900012    2    1    2    0    0  0.82015120852E+01  0.11802179732E+02 -0.38034318388E+02  0.50528860533E+02  0.30000002077E+02 0.  0.
         12    1    1    2    0    0 -0.82015120852E+01 -0.11802179732E+02  0.38034318388E+02  0.40659139467E+02  0.00000000000E+00 0. -1.
         11    1    3    3    0    0 -0.36057587333E+01  0.10823339433E+02 -0.18279381898E+02  0.21547203423E+02  0.51100000000E-03 0. -1.
        -11    1    3    3    0    0  0.58345834290E+01  0.73902831564E+01 -0.17596486054E+02  0.19957328745E+02  0.51100000000E-03 0.  1.
         12    1    3    3    0    0  0.59726873895E+01 -0.64114428575E+01 -0.21584504370E+01  0.90243283660E+01  0.00000000000E+00 0. -1.
</event>
<event>
 7    1  0.8986500E-014  0.5052891E+02  0.7816164E-02  0.1300439E+00
        -11   -1    0    0    0    0  0.00000000000E+00  0.00000000000E+00  0.45593999997E+02  0.45594000000E+02  0.51100000000E-03 0. -1.
         11   -1    0    0    0    0 -0.00000000000E+00 -0.00000000000E+00 -0.45593999997E+02  0.45594000000E+02  0.51100000000E-03 0.  1.
    9900012    2    1    2    0    0 -0.19851838399E+01 -0.12142544339E+02 -0.38752792277E+02  0.50528914334E+02  0.30000165610E+02 0.  0.
         12    1    1    2    0    0  0.19851838399E+01  0.12142544339E+02  0.38752792277E+02  0.40659085666E+02  0.00000000000E+00 0. -1.
         11    1    3    3    0    0 -0.10806673316E+01  0.47010238793E+01 -0.11154941811E+02  0.12153196883E+02  0.51100000000E-03 0. -1.
        -11    1    3    3    0    0 -0.39951341046E+01  0.94943259725E+00 -0.16886619484E+02  0.17378735185E+02  0.51100000000E-03 0.  1.
        -12    1    3    3    0    0  0.30906175963E+01 -0.17793000816E+02 -0.10711230981E+02  0.20996982266E+02  0.00000000000E+00 0.  1.
</event>
<event>
 7    1  0.8986500E-014  0.5052886E+02  0.7816164E-02  0.1300439E+00
        -11   -1    0    0    0    0  0.00000000000E+00  0.00000000000E+00  0.45593999997E+02  0.45594000000E+02  0.51100000000E-03 0. -1.
         11   -1    0    0    0    0 -0.00000000000E+00 -0.00000000000E+00 -0.45593999997E+02  0.45594000000E+02  0.51100000000E-03 0.  1.
    9900012    2    1    2    0    0  0.95600780329E+01  0.13005643128E+02 -0.37317874906E+02  0.50528860405E+02  0.30000001686E+02 0.  0.
         12    1    1    2    0    0 -0.95600780329E+01 -0.13005643128E+02  0.37317874906E+02  0.40659139595E+02  0.00000000000E+00 0. -1.
         11    1    3    3    0    0 -0.35760069342E+01 -0.37030518160E+01 -0.30876685771E+01  0.60028423142E+01  0.51100000000E-03 0. -1.
        -11    1    3    3    0    0  0.35148810536E+01  0.96468139123E+01 -0.24170504576E+01  0.10547869010E+02  0.51100000000E-03 0.  1.
        -12    1    3    3    0    0  0.96212039136E+01  0.70618810315E+01 -0.31813155871E+02  0.33978149080E+02  0.00000000000E+00 0.  1.
</event>
<event>
 7    1  0.8986500E-014  0.5052886E+02  0.7816164E-02  0.1300439E+00
        -11   -1    0    0    0    0  0.00000000000E+00  0.00000000000E+00  0.45593999997E+02  0.45594000000E+02  0.51100000000E-03 0.  1.
         11   -1    0    0    0    0 -0.00000000000E+00 -0.00000000000E+00 -0.45593999997E+02  0.45594000000E+02  0.51100000000E-03 0. -1.
    9900012    2    1    2    0    0  0.13769452654E+02  0.38252148136E+02  0.58386372036E+00  0.50528861295E+02  0.30000004391E+02 0.  0.
         12    1    1    2    0    0 -0.13769452654E+02 -0.38252148136E+02 -0.58386372036E+00  0.40659138705E+02  0.00000000000E+00 0. -1.
         11    1    3    3    0    0 -0.30760562880E+01  0.10323691423E+02  0.63604583471E+01  0.12509842426E+02  0.51100000000E-03 0. -1.
        -11    1    3    3    0    0  0.63939093420E+01 -0.99098632714E+00 -0.30356489759E+01  0.71469780705E+01  0.51100000000E-03 0.  1.
         12    1    3    3    0    0  0.10451599600E+02  0.28919443040E+02 -0.27409456509E+01  0.30872040798E+02  0.00000000000E+00 0. -1.
</event>
<event>
 7    1  0.8986500E-014  0.5052884E+02  0.7816164E-02  0.1300439E+00
        -11   -1    0    0    0    0  0.00000000000E+00  0.00000000000E+00  0.45593999997E+02  0.45594000000E+02  0.51100000000E-03 0. -1.
         11   -1    0    0    0    0 -0.00000000000E+00 -0.00000000000E+00 -0.45593999997E+02  0.45594000000E+02  0.51100000000E-03 0.  1.
    9900012    2    1    2    0    0  0.35390654378E+02  0.26578002286E+01  0.19839473940E+02  0.50528843029E+02  0.29999948871E+02 0.  0.
        -12    1    1    2    0    0 -0.35390654378E+02 -0.26578002286E+01 -0.19839473940E+02  0.40659156971E+02  0.00000000000E+00 0.  1.
         11    1    3    3    0    0  0.12988158486E+02  0.11214978713E+02  0.91735884851E+01  0.19458230504E+02  0.51100000000E-03 0. -1.
        -11    1    3    3    0    0  0.16700566633E+02 -0.20808479142E+01  0.13928302903E+02  0.21845742741E+02  0.51100000000E-03 0.  1.
        -12    1    3    3    0    0  0.57019292590E+01 -0.64763305701E+01 -0.32624174477E+01  0.92248697840E+01  0.00000000000E+00 0.  1.
</event>
<event>
 7    1  0.8986500E-014  0.5052886E+02  0.7816164E-02  0.1300439E+00
        -11   -1    0    0    0    0  0.00000000000E+00  0.00000000000E+00  0.45593999997E+02  0.45594000000E+02  0.51100000000E-03 0. -1.
         11   -1    0    0    0    0 -0.00000000000E+00 -0.00000000000E+00 -0.45593999997E+02  0.45594000000E+02  0.51100000000E-03 0.  1.
    9900012    2    1    2    0    0  0.36658902627E+02 -0.17243167844E+02  0.34588536463E+01  0.50528860219E+02  0.30000001123E+02 0.  0.
        -12    1    1    2    0    0 -0.36658902627E+02  0.17243167844E+02 -0.34588536463E+01  0.40659139781E+02  0.00000000000E+00 0.  1.
         11    1    3    3    0    0  0.12054506523E+02 -0.70598355671E+01  0.40448933861E+01  0.14543506060E+02  0.51100000000E-03 0.  1.
        -11    1    3    3    0    0  0.23967778917E+02 -0.15468999940E+02 -0.51326337345E+01  0.28984277025E+02  0.51100000000E-03 0. -1.
        -12    1    3    3    0    0  0.63661718784E+00  0.52856676631E+01  0.45465939947E+01  0.70010771344E+01  0.00000000000E+00 0.  1.
</event>
<event>
 7    1  0.8986500E-014  0.5052886E+02  0.7816164E-02  0.1300439E+00
        -11   -1    0    0    0    0  0.00000000000E+00  0.00000000000E+00  0.45593999997E+02  0.45594000000E+02  0.51100000000E-03 0. -1.
         11   -1    0    0    0    0 -0.00000000000E+00 -0.00000000000E+00 -0.45593999997E+02  0.45594000000E+02  0.51100000000E-03 0.  1.
    9900012    2    1    2    0    0  0.92716179773E+01 -0.37383246936E+02 -0.13026736089E+02  0.50528857061E+02  0.29999991522E+02 0.  0.
         12    1    1    2    0    0 -0.92716179773E+01  0.37383246936E+02  0.13026736089E+02  0.40659142939E+02  0.00000000000E+00 0. -1.
         11    1    3    3    0    0  0.37187770082E+00 -0.54475026120E+01 -0.10109976286E+02  0.11490221864E+02  0.51100000000E-03 0.  1.
        -11    1    3    3    0    0  0.98180804079E+01 -0.83739771790E+01 -0.76319422488E+01  0.14992155930E+02  0.51100000000E-03 0. -1.
        -12    1    3    3    0    0 -0.91834013141E+00 -0.23561767145E+02  0.47151824457E+01  0.24046479266E+02  0.00000000000E+00 0.  1.
</event>
<event>
 7    1  0.8986500E-014  0.5052886E+02  0.7816164E-02  0.1300439E+00
        -11   -1    0    0    0    0  0.00000000000E+00  0.00000000000E+00  0.45593999997E+02  0.45594000000E+02  0.51100000000E-03 0. -1.
         11   -1    0    0    0    0 -0.00000000000E+00 -0.00000000000E+00 -0.45593999997E+02  0.45594000000E+02  0.51100000000E-03 0.  1.
    9900012    2    1    2    0    0  0.24233956480E+02 -0.25776046164E+01  0.32545921635E+02  0.50528859486E+02  0.29999998894E+02 0.  0.
        -12    1    1    2    0    0 -0.24233956480E+02  0.25776046164E+01 -0.32545921635E+02  0.40659140514E+02  0.00000000000E+00 0.  1.
         11    1    3    3    0    0  0.18119285657E+02 -0.12967025908E+02  0.11065229864E+02  0.24877531747E+02  0.51100000000E-03 0. -1.
        -11    1    3    3    0    0  0.66684132977E+01  0.43644252811E+01  0.12130036106E+02  0.14513914708E+02  0.51100000000E-03 0.  1.
        -12    1    3    3    0    0 -0.55374247513E+00  0.60249960108E+01  0.93506556652E+01  0.11137413031E+02  0.00000000000E+00 0.  1.
</event>
<event>
 7    1  0.8986500E-014  0.5052886E+02  0.7816164E-02  0.1300439E+00
        -11   -1    0    0    0    0  0.00000000000E+00  0.00000000000E+00  0.45593999997E+02  0.45594000000E+02  0.51100000000E-03 0. -1.
         11   -1    0    0    0    0 -0.00000000000E+00 -0.00000000000E+00 -0.45593999997E+02  0.45594000000E+02  0.51100000000E-03 0.  1.
    9900012    2    1    2    0    0 -0.29602112863E+02 -0.46424760620E+01 -0.27483232001E+02  0.50528859439E+02  0.29999998749E+02 0.  0.
         12    1    1    2    0    0  0.29602112863E+02  0.46424760620E+01  0.27483232001E+02  0.40659140561E+02  0.00000000000E+00 0. -1.
         11    1    3    3    0    0 -0.60991282543E+01 -0.11389302374E+02 -0.38116665592E+01  0.13470129036E+02  0.51100000000E-03 0.  1.
        -11    1    3    3    0    0 -0.71787352830E+01 -0.46925844157E+01 -0.73865224372E+01  0.11318803061E+02  0.51100000000E-03 0. -1.
         12    1    3    3    0    0 -0.16324249326E+02  0.11439410728E+02 -0.16285043005E+02  0.25739927341E+02  0.00000000000E+00 0. -1.
</event>
<event>
 7    1  0.8986500E-014  0.5052886E+02  0.7816164E-02  0.1300439E+00
        -11   -1    0    0    0    0  0.00000000000E+00  0.00000000000E+00  0.45593999997E+02  0.45594000000E+02  0.51100000000E-03 0.  1.
         11   -1    0    0    0    0 -0.00000000000E+00 -0.00000000000E+00 -0.45593999997E+02  0.45594000000E+02  0.51100000000E-03 0. -1.
    9900012    2    1    2    0    0 -0.22356283459E+02 -0.29276711792E+02  0.17211526082E+02  0.50528857197E+02  0.29999991935E+02 0.  0.
        -12    1    1    2    0    0  0.22356283459E+02  0.29276711792E+02 -0.17211526082E+02  0.40659142803E+02  0.00000000000E+00 0.  1.
         11    1    3    3    0    0 -0.12248126248E+01 -0.27101268886E+01 -0.78111416525E+00  0.30749135466E+01  0.51100000000E-03 0. -1.
        -11    1    3    3    0    0  0.44640546545E+01 -0.14395836820E+02  0.97007294914E+01  0.17924063564E+02  0.51100000000E-03 0.  1.
         12    1    3    3    0    0 -0.25595525488E+02 -0.12170748082E+02  0.82919107563E+01  0.29529880086E+02  0.00000000000E+00 0. -1.
</event>
<event>
 7    1  0.8986500E-014  0.5052887E+02  0.7816164E-02  0.1300439E+00
        -11   -1    0    0    0    0  0.00000000000E+00  0.00000000000E+00  0.45593999997E+02  0.45594000000E+02  0.51100000000E-03 0. -1.
         11   -1    0    0    0    0 -0.00000000000E+00 -0.00000000000E+00 -0.45593999997E+02  0.45594000000E+02  0.51100000000E-03 0.  1.
    9900012    2    1    2    0    0  0.75825871080E+01  0.23614687625E+02 -0.32218245560E+02  0.50528874999E+02  0.30000046046E+02 0.  0.
         12    1    1    2    0    0 -0.75825871080E+01 -0.23614687625E+02  0.32218245560E+02  0.40659125001E+02  0.00000000000E+00 0. -1.
         11    1    3    3    0    0 -0.19218031293E+01  0.19451620601E+01 -0.92889662968E+00  0.28878767144E+01  0.51100000000E-03 0. -1.
        -11    1    3    3    0    0 -0.17041255365E+01 -0.33691316834E+01 -0.15574872481E+02  0.16025970959E+02  0.51100000000E-03 0.  1.
         12    1    3    3    0    0  0.11208515774E+02  0.25038657249E+02 -0.15714476450E+02  0.31615027325E+02  0.00000000000E+00 0. -1.
</event>
<event>
 7    1  0.8986500E-014  0.5052887E+02  0.7816164E-02  0.1300439E+00
        -11   -1    0    0    0    0  0.00000000000E+00  0.00000000000E+00  0.45593999997E+02  0.45594000000E+02  0.51100000000E-03 0.  1.
         11   -1    0    0    0    0 -0.00000000000E+00 -0.00000000000E+00 -0.45593999997E+02  0.45594000000E+02  0.51100000000E-03 0. -1.
    9900012    2    1    2    0    0  0.10537038464E+02  0.38785211480E+02  0.61516560795E+01  0.50528872099E+02  0.30000037233E+02 0.  0.
         12    1    1    2    0    0 -0.10537038464E+02 -0.38785211480E+02 -0.61516560795E+01  0.40659127901E+02  0.00000000000E+00 0. -1.
         11    1    3    3    0    0  0.89578639853E+01  0.56815648296E+01  0.64271254968E-01  0.10607904465E+02  0.51100000000E-03 0. -1.
        -11    1    3    3    0    0  0.30217538216E+01  0.21990157692E+01  0.80966254902E+01  0.89175114860E+01  0.51100000000E-03 0.  1.
        -12    1    3    3    0    0 -0.14425793431E+01  0.30904630881E+02 -0.20092406657E+01  0.31003456148E+02  0.00000000000E+00 0.  1.
</event>
<event>
 7    1  0.8986500E-014  0.5052887E+02  0.7816164E-02  0.1300439E+00
        -11   -1    0    0    0    0  0.00000000000E+00  0.00000000000E+00  0.45593999997E+02  0.45594000000E+02  0.51100000000E-03 0. -1.
         11   -1    0    0    0    0 -0.00000000000E+00 -0.00000000000E+00 -0.45593999997E+02  0.45594000000E+02  0.51100000000E-03 0.  1.
    9900012    2    1    2    0    0  0.22018056436E+02 -0.91206703129E+01  0.32942127771E+02  0.50528865501E+02  0.30000017176E+02 0.  0.
        -12    1    1    2    0    0 -0.22018056436E+02  0.91206703129E+01 -0.32942127771E+02  0.40659134499E+02  0.00000000000E+00 0.  1.
         11    1    3    3    0    0  0.14944026292E+02 -0.61353400534E+01  0.29638048875E+02  0.33754707239E+02  0.51100000000E-03 0. -1.
        -11    1    3    3    0    0 -0.41207971604E+01 -0.31494545131E+01  0.36809520102E+00  0.51995699154E+01  0.51100000000E-03 0.  1.
        -12    1    3    3    0    0  0.11194827304E+02  0.16412425361E+00  0.29359836946E+01  0.11574588346E+02  0.00000000000E+00 0.  1.
</event>
<event>
 7    1  0.8986500E-014  0.5052886E+02  0.7816164E-02  0.1300439E+00
        -11   -1    0    0    0    0  0.00000000000E+00  0.00000000000E+00  0.45593999997E+02  0.45594000000E+02  0.51100000000E-03 0.  1.
         11   -1    0    0    0    0 -0.00000000000E+00 -0.00000000000E+00 -0.45593999997E+02  0.45594000000E+02  0.51100000000E-03 0. -1.
    9900012    2    1    2    0    0  0.28901505526E+02 -0.15529926042E+01 -0.28556208798E+02  0.50528857503E+02  0.29999992865E+02 0.  0.
         12    1    1    2    0    0 -0.28901505526E+02  0.15529926042E+01  0.28556208798E+02  0.40659142497E+02  0.00000000000E+00 0. -1.
         11    1    3    3    0    0  0.19296189657E+01  0.14792082073E+01 -0.39753962467E+01  0.46599637179E+01  0.51100000000E-03 0. -1.
        -11    1    3    3    0    0 -0.16354784972E+01 -0.31516978162E+01  0.40562152302E+01  0.53908136023E+01  0.51100000000E-03 0.  1.
        -12    1    3    3    0    0  0.28607365058E+02  0.11949700483E+00 -0.28637027781E+02  0.40478080182E+02  0.00000000000E+00 0.  1.
</event>
<event>
 7    1  0.8986500E-014  0.5052886E+02  0.7816164E-02  0.1300439E+00
        -11   -1    0    0    0    0  0.00000000000E+00  0.00000000000E+00  0.45593999997E+02  0.45594000000E+02  0.51100000000E-03 0. -1.
         11   -1    0    0    0    0 -0.00000000000E+00 -0.00000000000E+00 -0.45593999997E+02  0.45594000000E+02  0.51100000000E-03 0.  1.
    9900012    2    1    2    0    0  0.16983163393E+02 -0.45250094686E+01 -0.36664179664E+02  0.50528860561E+02  0.30000002162E+02 0.  0.
         12    1    1    2    0    0 -0.16983163393E+02  0.45250094686E+01  0.36664179664E+02  0.40659139439E+02  0.00000000000E+00 0. -1.
         11    1    3    3    0    0  0.16440079512E+02 -0.14836844233E+01 -0.18392242897E+02  0.24713399865E+02  0.51100000000E-03 0. -1.
        -11    1    3    3    0    0  0.83531813046E+01 -0.30568013398E+01 -0.44651230015E+01  0.99527381166E+01  0.51100000000E-03 0.  1.
         12    1    3    3    0    0 -0.78100974244E+01  0.15476294570E-01 -0.13806813765E+02  0.15862722579E+02  0.00000000000E+00 0. -1.
</event>
<event>
 7    1  0.8986500E-014  0.5052893E+02  0.7816164E-02  0.1300439E+00
        -11   -1    0    0    0    0  0.00000000000E+00  0.00000000000E+00  0.45593999997E+02  0.45594000000E+02  0.51100000000E-03 0. -1.
         11   -1    0    0    0    0 -0.00000000000E+00 -0.00000000000E+00 -0.45593999997E+02  0.45594000000E+02  0.51100000000E-03 0.  1.
    9900012    2    1    2    0    0  0.12929437483E+02  0.34562156417E+02 -0.17071810865E+02  0.50528932917E+02  0.30000222094E+02 0.  0.
         12    1    1    2    0    0 -0.12929437483E+02 -0.34562156417E+02  0.17071810865E+02  0.40659067083E+02  0.00000000000E+00 0. -1.
         11    1    3    3    0    0 -0.51607596572E+01  0.37074161632E+01 -0.82353125547E+01  0.10401862717E+02  0.51100000000E-03 0. -1.
        -11    1    3    3    0    0  0.29532357088E+01  0.53233791139E+01 -0.84859566567E+01  0.10443726681E+02  0.51100000000E-03 0.  1.
         12    1    3    3    0    0  0.15136961432E+02  0.25531361140E+02 -0.35054165406E+00  0.29683343519E+02  0.00000000000E+00 0. -1.
</event>
<event>
 7    1  0.8986500E-014  0.5052886E+02  0.7816164E-02  0.1300439E+00
        -11   -1    0    0    0    0  0.00000000000E+00  0.00000000000E+00  0.45593999997E+02  0.45594000000E+02  0.51100000000E-03 0. -1.
         11   -1    0    0    0    0 -0.00000000000E+00 -0.00000000000E+00 -0.45593999997E+02  0.45594000000E+02  0.51100000000E-03 0.  1.
    9900012    2    1    2    0    0 -0.27338362242E+00  0.31390843658E+02 -0.25840007978E+02  0.50528858144E+02  0.29999994813E+02 0.  0.
         12    1    1    2    0    0  0.27338362242E+00 -0.31390843658E+02  0.25840007978E+02  0.40659141856E+02  0.00000000000E+00 0. -1.
         11    1    3    3    0    0 -0.90662303838E+01  0.25239788790E+02 -0.18371293693E+02  0.32507659156E+02  0.51100000000E-03 0. -1.
        -11    1    3    3    0    0 -0.56716181822E+00  0.69738952122E+01 -0.29162597489E+01  0.75803336432E+01  0.51100000000E-03 0.  1.
        -12    1    3    3    0    0  0.93600085796E+01 -0.82284034409E+00 -0.45524545362E+01  0.10440865345E+02  0.00000000000E+00 0.  1.
</event>
<event>
 7    1  0.8986500E-014  0.5052886E+02  0.7816164E-02  0.1300439E+00
        -11   -1    0    0    0    0  0.00000000000E+00  0.00000000000E+00  0.45593999997E+02  0.45594000000E+02  0.51100000000E-03 0. -1.
         11   -1    0    0    0    0 -0.00000000000E+00 -0.00000000000E+00 -0.45593999997E+02  0.45594000000E+02  0.51100000000E-03 0.  1.
    9900012    2    1    2    0    0 -0.47013677742E+00 -0.23070782522E+02 -0.33476616638E+02  0.50528857162E+02  0.29999991831E+02 0.  0.
         12    1    1    2    0    0  0.47013677742E+00  0.23070782522E+02  0.33476616638E+02  0.40659142838E+02  0.00000000000E+00 0. -1.
         11    1    3    3    0    0 -0.37325904707E+01 -0.47393995067E+00 -0.40873071977E+01  0.55554415746E+01  0.51100000000E-03 0. -1.
        -11    1    3    3    0    0 -0.10821974075E+02 -0.93845706141E+01 -0.15994668547E+02  0.21471253124E+02  0.51100000000E-03 0.  1.
        -12    1    3    3    0    0  0.14084427769E+02 -0.13212271957E+02 -0.13394640893E+02  0.23502162464E+02  0.00000000000E+00 0.  1.
</event>
<event>
 7    1  0.8986500E-014  0.5052886E+02  0.7816164E-02  0.1300439E+00
        -11   -1    0    0    0    0  0.00000000000E+00  0.00000000000E+00  0.45593999997E+02  0.45594000000E+02  0.51100000000E-03 0. -1.
         11   -1    0    0    0    0 -0.00000000000E+00 -0.00000000000E+00 -0.45593999997E+02  0.45594000000E+02  0.51100000000E-03 0.  1.
    9900012    2    1    2    0    0 -0.25974578094E+01 -0.68063545304E+01  0.40001158262E+02  0.50528856977E+02  0.29999991267E+02 0.  0.
        -12    1    1    2    0    0  0.25974578094E+01  0.68063545304E+01 -0.40001158262E+02  0.40659143023E+02  0.00000000000E+00 0.  1.
         11    1    3    3    0    0 -0.39783735034E-02 -0.27128586494E+00  0.13858584782E+02  0.13861240359E+02  0.51100000000E-03 0. -1.
        -11    1    3    3    0    0  0.14161484717E+01  0.43830466500E+01  0.24490361487E+02  0.24919758836E+02  0.51100000000E-03 0.  1.
        -12    1    3    3    0    0 -0.40096279076E+01 -0.10918115315E+02  0.16522119926E+01  0.11747857782E+02  0.00000000000E+00 0.  1.
</event>
<event>
 7    1  0.8986500E-014  0.5052886E+02  0.7816164E-02  0.1300439E+00
        -11   -1    0    0    0    0  0.00000000000E+00  0.00000000000E+00  0.45593999997E+02  0.45594000000E+02  0.51100000000E-03 0. -1.
         11   -1    0    0    0    0 -0.00000000000E+00 -0.00000000000E+00 -0.45593999997E+02  0.45594000000E+02  0.51100000000E-03 0.  1.
    9900012    2    1    2    0    0 -0.25392274093E+02 -0.23642843006E+02  0.21199386630E+02  0.50528860775E+02  0.30000002812E+02 0.  0.
        -12    1    1    2    0    0  0.25392274093E+02  0.23642843006E+02 -0.21199386630E+02  0.40659139225E+02  0.00000000000E+00 0.  1.
         11    1    3    3    0    0 -0.21715190838E+01 -0.86947327025E+01  0.56434950075E+01  0.10590699130E+02  0.51100000000E-03 0. -1.
        -11    1    3    3    0    0 -0.14363486334E+01 -0.14890686261E+02  0.54235310329E+01  0.15912583821E+02  0.51100000000E-03 0.  1.
         12    1    3    3    0    0 -0.21784406376E+02 -0.57424042555E-01  0.10132360589E+02  0.24025577824E+02  0.00000000000E+00 0. -1.
</event>
<event>
 7    1  0.8986500E-014  0.5052886E+02  0.7816164E-02  0.1300439E+00
        -11   -1    0    0    0    0  0.00000000000E+00  0.00000000000E+00  0.45593999997E+02  0.45594000000E+02  0.51100000000E-03 0. -1.
         11   -1    0    0    0    0 -0.00000000000E+00 -0.00000000000E+00 -0.45593999997E+02  0.45594000000E+02  0.51100000000E-03 0.  1.
    9900012    2    1    2    0    0 -0.30953781193E+02 -0.73603547780E+01 -0.25315091707E+02  0.50528864978E+02  0.30000015586E+02 0.  0.
         12    1    1    2    0    0  0.30953781193E+02  0.73603547780E+01  0.25315091707E+02  0.40659135022E+02  0.00000000000E+00 0. -1.
         11    1    3    3    0    0 -0.25966311005E+02  0.14294496516E+00 -0.21780493997E+02  0.33891881912E+02  0.51100000000E-03 0. -1.
        -11    1    3    3    0    0 -0.88522196245E+01 -0.15719004101E+01 -0.32223202006E+01  0.95507073516E+01  0.51100000000E-03 0.  1.
         12    1    3    3    0    0  0.38647494366E+01 -0.59313993330E+01 -0.31227750907E+00  0.70862757142E+01  0.00000000000E+00 0. -1.
</event>
<event>
 7    1  0.8986500E-014  0.5052887E+02  0.7816164E-02  0.1300439E+00
        -11   -1    0    0    0    0  0.00000000000E+00  0.00000000000E+00  0.45593999997E+02  0.45594000000E+02  0.51100000000E-03 0. -1.
         11   -1    0    0    0    0 -0.00000000000E+00 -0.00000000000E+00 -0.45593999997E+02  0.45594000000E+02  0.51100000000E-03 0.  1.
    9900012    2    1    2    0    0  0.13247415718E+02 -0.20065863150E+02 -0.32787685167E+02  0.50528865900E+02  0.30000018391E+02 0.  0.
         12    1    1    2    0    0 -0.13247415718E+02  0.20065863150E+02  0.32787685167E+02  0.40659134100E+02  0.00000000000E+00 0. -1.
         11    1    3    3    0    0  0.70556646570E+01  0.54239599461E+01 -0.80136610574E+01  0.11975830203E+02  0.51100000000E-03 0. -1.
        -11    1    3    3    0    0 -0.36902526162E+01 -0.31529535802E+01 -0.61659727913E+01  0.78471842960E+01  0.51100000000E-03 0.  1.
         12    1    3    3    0    0  0.98820036772E+01 -0.22336869515E+02 -0.18608051318E+02  0.30705851401E+02  0.00000000000E+00 0. -1.
</event>
<event>
 7    1  0.8986500E-014  0.5052886E+02  0.7816164E-02  0.1300439E+00
        -11   -1    0    0    0    0  0.00000000000E+00  0.00000000000E+00  0.45593999997E+02  0.45594000000E+02  0.51100000000E-03 0. -1.
         11   -1    0    0    0    0 -0.00000000000E+00 -0.00000000000E+00 -0.45593999997E+02  0.45594000000E+02  0.51100000000E-03 0.  1.
    9900012    2    1    2    0    0 -0.32675770238E+00  0.31835991648E+02 -0.25288899109E+02  0.50528861384E+02  0.30000004662E+02 0.  0.
         12    1    1    2    0    0  0.32675770238E+00 -0.31835991648E+02  0.25288899109E+02  0.40659138616E+02  0.00000000000E+00 0. -1.
         11    1    3    3    0    0 -0.54429061124E+01  0.13564784384E+02  0.17573417555E+01  0.14721306078E+02  0.51100000000E-03 0. -1.
        -11    1    3    3    0    0 -0.97746955748E+00  0.17215364937E+02 -0.20796541648E+02  0.27015187977E+02  0.51100000000E-03 0.  1.
        -12    1    3    3    0    0  0.60936179675E+01  0.10558423282E+01 -0.62496992171E+01  0.87923673297E+01  0.00000000000E+00 0.  1.
</event>
<event>
 7    1  0.8986500E-014  0.5052885E+02  0.7816164E-02  0.1300439E+00
        -11   -1    0    0    0    0  0.00000000000E+00  0.00000000000E+00  0.45593999997E+02  0.45594000000E+02  0.51100000000E-03 0.  1.
         11   -1    0    0    0    0 -0.00000000000E+00 -0.00000000000E+00 -0.45593999997E+02  0.45594000000E+02  0.51100000000E-03 0. -1.
    9900012    2    1    2    0    0  0.37744818062E+02  0.62143359434E+01 -0.13779584011E+02  0.50528853461E+02  0.29999980580E+02 0.  0.
        -12    1    1    2    0    0 -0.37744818062E+02 -0.62143359434E+01  0.13779584011E+02  0.40659146539E+02  0.00000000000E+00 0.  1.
         11    1    3    3    0    0  0.21534606867E+02  0.40160226473E+01 -0.48154522823E+01  0.22428916866E+02  0.51100000000E-03 0.  1.
        -11    1    3    3    0    0  0.17851240040E+02  0.61613680051E+01 -0.12410493117E+02  0.22597556645E+02  0.51100000000E-03 0. -1.
        -12    1    3    3    0    0 -0.16410288452E+01 -0.39630547090E+01  0.34463613880E+01  0.55023799500E+01  0.00000000000E+00 0.  1.
</event>
<event>
 7    1  0.8986500E-014  0.5052885E+02  0.7816164E-02  0.1300439E+00
        -11   -1    0    0    0    0  0.00000000000E+00  0.00000000000E+00  0.45593999997E+02  0.45594000000E+02  0.51100000000E-03 0. -1.
         11   -1    0    0    0    0 -0.00000000000E+00 -0.00000000000E+00 -0.45593999997E+02  0.45594000000E+02  0.51100000000E-03 0.  1.
    9900012    2    1    2    0    0 -0.21805838445E+02 -0.15607493840E+02 -0.30562684938E+02  0.50528853859E+02  0.29999981791E+02 0.  0.
         12    1    1    2    0    0  0.21805838445E+02  0.15607493840E+02  0.30562684938E+02  0.40659146141E+02  0.00000000000E+00 0. -1.
         11    1    3    3    0    0  0.11695864062E+01  0.40993242297E+01 -0.65107024355E+01  0.77821358229E+01  0.51100000000E-03 0. -1.
        -11    1    3    3    0    0 -0.61858233583E+01 -0.13377119332E+02 -0.19114584690E+02  0.24136675007E+02  0.51100000000E-03 0.  1.
        -12    1    3    3    0    0 -0.16789601493E+02 -0.63296987373E+01 -0.49373978128E+01  0.18610043030E+02  0.00000000000E+00 0.  1.
</event>
<event>
 7    1  0.8986500E-014  0.5052885E+02  0.7816164E-02  0.1300439E+00
        -11   -1    0    0    0    0  0.00000000000E+00  0.00000000000E+00  0.45593999997E+02  0.45594000000E+02  0.51100000000E-03 0.  1.
         11   -1    0    0    0    0 -0.00000000000E+00 -0.00000000000E+00 -0.45593999997E+02  0.45594000000E+02  0.51100000000E-03 0. -1.
    9900012    2    1    2    0    0 -0.47504710530E+01 -0.37497893391E+02 -0.14983568821E+02  0.50528851969E+02  0.29999976045E+02 0.  0.
         12    1    1    2    0    0  0.47504710530E+01  0.37497893391E+02  0.14983568821E+02  0.40659148031E+02  0.00000000000E+00 0. -1.
         11    1    3    3    0    0 -0.14153518139E+01 -0.72594000220E+01 -0.88878026230E+01  0.11562661682E+02  0.51100000000E-03 0. -1.
        -11    1    3    3    0    0  0.65548982509E+01 -0.27830153650E+01 -0.66998005290E+01  0.97774839806E+01  0.51100000000E-03 0.  1.
        -12    1    3    3    0    0 -0.98900174900E+01 -0.27455478004E+02  0.60403433124E+00  0.29188706307E+02  0.00000000000E+00 0.  1.
</event>
<event>
 7    1  0.8986500E-014  0.5052884E+02  0.7816164E-02  0.1300439E+00
        -11   -1    0    0    0    0  0.00000000000E+00  0.00000000000E+00  0.45593999997E+02  0.45594000000E+02  0.51100000000E-03 0. -1.
         11   -1    0    0    0    0 -0.00000000000E+00 -0.00000000000E+00 -0.45593999997E+02  0.45594000000E+02  0.51100000000E-03 0.  1.
    9900012    2    1    2    0    0 -0.80028692628E+01 -0.38291025859E+02 -0.11086854589E+02  0.50528844544E+02  0.29999953475E+02 0.  0.
         12    1    1    2    0    0  0.80028692628E+01  0.38291025859E+02  0.11086854589E+02  0.40659155456E+02  0.00000000000E+00 0. -1.
         11    1    3    3    0    0 -0.10708708210E+01 -0.24939629473E+02 -0.51668305221E+01  0.25491724548E+02  0.51100000000E-03 0.  1.
        -11    1    3    3    0    0 -0.93465325913E+00 -0.16934994739E+02 -0.61647981590E+01  0.18046394657E+02  0.51100000000E-03 0. -1.
        -12    1    3    3    0    0 -0.59973451827E+01  0.35835983528E+01  0.24477409179E+00  0.69907253380E+01  0.00000000000E+00 0.  1.
</event>
<event>
 7    1  0.8986500E-014  0.5052887E+02  0.7816164E-02  0.1300439E+00
        -11   -1    0    0    0    0  0.00000000000E+00  0.00000000000E+00  0.45593999997E+02  0.45594000000E+02  0.51100000000E-03 0. -1.
         11   -1    0    0    0    0 -0.00000000000E+00 -0.00000000000E+00 -0.45593999997E+02  0.45594000000E+02  0.51100000000E-03 0.  1.
    9900012    2    1    2    0    0 -0.52230011458E+01 -0.16056025141E+01  0.40290283975E+02  0.50528872081E+02  0.30000037176E+02 0.  0.
        -12    1    1    2    0    0  0.52230011458E+01  0.16056025141E+01 -0.40290283975E+02  0.40659127919E+02  0.00000000000E+00 0.  1.
         11    1    3    3    0    0  0.47659635305E+01  0.62643080219E+01  0.27230857002E+02  0.28345644052E+02  0.51100000000E-03 0. -1.
        -11    1    3    3    0    0 -0.64821029190E+01  0.21435875472E+01  0.26615465311E+01  0.73277865705E+01  0.51100000000E-03 0.  1.
        -12    1    3    3    0    0 -0.35068617573E+01 -0.10013498083E+02  0.10397880441E+02  0.14855441458E+02  0.00000000000E+00 0.  1.
</event>
<event>
 7    1  0.8986500E-014  0.5052886E+02  0.7816164E-02  0.1300439E+00
        -11   -1    0    0    0    0  0.00000000000E+00  0.00000000000E+00  0.45593999997E+02  0.45594000000E+02  0.51100000000E-03 0.  1.
         11   -1    0    0    0    0 -0.00000000000E+00 -0.00000000000E+00 -0.45593999997E+02  0.45594000000E+02  0.51100000000E-03 0. -1.
    9900012    2    1    2    0    0  0.34513947858E+02 -0.11587054295E+02 -0.18102306980E+02  0.50528856600E+02  0.29999990121E+02 0.  0.
         12    1    1    2    0    0 -0.34513947858E+02  0.11587054295E+02  0.18102306980E+02  0.40659143400E+02  0.00000000000E+00 0. -1.
         11    1    3    3    0    0  0.16033018275E+02 -0.16907085996E+00 -0.87647298656E+01  0.18273115494E+02  0.51100000000E-03 0. -1.
        -11    1    3    3    0    0  0.17728516335E+02 -0.86621106178E+00 -0.11902064727E+02  0.21370768776E+02  0.51100000000E-03 0.  1.
         12    1    3    3    0    0  0.75241324770E+00 -0.10551772373E+02  0.25644876120E+01  0.10884972330E+02  0.00000000000E+00 0. -1.
</event>
<event>
 7    1  0.8986500E-014  0.5052885E+02  0.7816164E-02  0.1300439E+00
        -11   -1    0    0    0    0  0.00000000000E+00  0.00000000000E+00  0.45593999997E+02  0.45594000000E+02  0.51100000000E-03 0. -1.
         11   -1    0    0    0    0 -0.00000000000E+00 -0.00000000000E+00 -0.45593999997E+02  0.45594000000E+02  0.51100000000E-03 0.  1.
    9900012    2    1    2    0    0 -0.37220459445E+01 -0.78915257387E+01  0.39711920196E+02  0.50528850843E+02  0.29999972624E+02 0.  0.
        -12    1    1    2    0    0  0.37220459445E+01  0.78915257387E+01 -0.39711920196E+02  0.40659149157E+02  0.00000000000E+00 0.  1.
         11    1    3    3    0    0  0.10240276078E+01 -0.49103342394E+01  0.95541616603E+01  0.10790830375E+02  0.51100000000E-03 0. -1.
        -11    1    3    3    0    0  0.42586132371E+01 -0.74005278847E+01  0.63978366533E+00  0.85622966005E+01  0.51100000000E-03 0.  1.
        -12    1    3    3    0    0 -0.90046867894E+01  0.44193363854E+01  0.29517974870E+02  0.31175723868E+02  0.00000000000E+00 0.  1.
</event>
<event>
 7    1  0.8986500E-014  0.5052885E+02  0.7816164E-02  0.1300439E+00
        -11   -1    0    0    0    0  0.00000000000E+00  0.00000000000E+00  0.45593999997E+02  0.45594000000E+02  0.51100000000E-03 0. -1.
         11   -1    0    0    0    0 -0.00000000000E+00 -0.00000000000E+00 -0.45593999997E+02  0.45594000000E+02  0.51100000000E-03 0.  1.
    9900012    2    1    2    0    0  0.26913763093E+01  0.14542131669E+02  0.37874120589E+02  0.50528854530E+02  0.29999983830E+02 0.  0.
        -12    1    1    2    0    0 -0.26913763093E+01 -0.14542131669E+02 -0.37874120589E+02  0.40659145470E+02  0.00000000000E+00 0.  1.
         11    1    3    3    0    0 -0.24821888634E+01 -0.40834627105E+01  0.21209002366E+01  0.52282068949E+01  0.51100000000E-03 0. -1.
        -11    1    3    3    0    0 -0.11073980426E+01  0.16843266337E+02  0.12114832530E+02  0.20777177835E+02  0.51100000000E-03 0.  1.
        -12    1    3    3    0    0  0.62809632154E+01  0.17823280433E+01  0.23638387823E+02  0.24523469800E+02  0.00000000000E+00 0.  1.
</event>
<event>
 7    1  0.8986500E-014  0.5052887E+02  0.7816164E-02  0.1300439E+00
        -11   -1    0    0    0    0  0.00000000000E+00  0.00000000000E+00  0.45593999997E+02  0.45594000000E+02  0.51100000000E-03 0. -1.
         11   -1    0    0    0    0 -0.00000000000E+00 -0.00000000000E+00 -0.45593999997E+02  0.45594000000E+02  0.51100000000E-03 0.  1.
    9900012    2    1    2    0    0 -0.61998663535E+00  0.20925088408E+02  0.34855714139E+02  0.50528874131E+02  0.30000043408E+02 0.  0.
        -12    1    1    2    0    0  0.61998663535E+00 -0.20925088408E+02 -0.34855714139E+02  0.40659125869E+02  0.00000000000E+00 0.  1.
         11    1    3    3    0    0 -0.32559328553E+01  0.10928868537E+02  0.11693126781E+01  0.11463357216E+02  0.51100000000E-03 0.  1.
        -11    1    3    3    0    0  0.97484049806E+01  0.72124719487E+01  0.19848932814E+02  0.23260079221E+02  0.51100000000E-03 0. -1.
         12    1    3    3    0    0 -0.71124587606E+01  0.27837479216E+01  0.13837468647E+02  0.15805437693E+02  0.00000000000E+00 0. -1.
</event>
<event>
 7    1  0.8986500E-014  0.5052886E+02  0.7816164E-02  0.1300439E+00
        -11   -1    0    0    0    0  0.00000000000E+00  0.00000000000E+00  0.45593999997E+02  0.45594000000E+02  0.51100000000E-03 0.  1.
         11   -1    0    0    0    0 -0.00000000000E+00 -0.00000000000E+00 -0.45593999997E+02  0.45594000000E+02  0.51100000000E-03 0. -1.
    9900012    2    1    2    0    0  0.16036727020E+01 -0.40613034665E+02 -0.10840829898E+01  0.50528860969E+02  0.30000003402E+02 0.  0.
        -12    1    1    2    0    0 -0.16036727020E+01  0.40613034665E+02  0.10840829898E+01  0.40659139031E+02  0.00000000000E+00 0.  1.
         11    1    3    3    0    0  0.42430604496E+01 -0.20989240330E+02 -0.80814817598E+01  0.22888034413E+02  0.51100000000E-03 0. -1.
        -11    1    3    3    0    0  0.76143360625E+01 -0.78421941584E+01  0.45135013773E+01  0.11825811509E+02  0.51100000000E-03 0.  1.
         12    1    3    3    0    0 -0.10253723810E+02 -0.11781600177E+02  0.24838973927E+01  0.15815015047E+02  0.00000000000E+00 0. -1.
</event>
<event>
 7    1  0.8986500E-014  0.5052886E+02  0.7816164E-02  0.1300439E+00
        -11   -1    0    0    0    0  0.00000000000E+00  0.00000000000E+00  0.45593999997E+02  0.45594000000E+02  0.51100000000E-03 0. -1.
         11   -1    0    0    0    0 -0.00000000000E+00 -0.00000000000E+00 -0.45593999997E+02  0.45594000000E+02  0.51100000000E-03 0.  1.
    9900012    2    1    2    0    0 -0.26018697992E+02  0.12984509879E+02  0.28418221398E+02  0.50528862657E+02  0.30000008533E+02 0.  0.
        -12    1    1    2    0    0  0.26018697992E+02 -0.12984509879E+02 -0.28418221398E+02  0.40659137343E+02  0.00000000000E+00 0.  1.
         11    1    3    3    0    0 -0.30812358291E+01  0.35040248180E+01  0.12602151340E+02  0.13438244782E+02  0.51100000000E-03 0. -1.
        -11    1    3    3    0    0 -0.18368809977E+02  0.16709485951E+02  0.10115661062E+02  0.26813181455E+02  0.51100000000E-03 0.  1.
         12    1    3    3    0    0 -0.45686521859E+01 -0.72290008896E+01  0.57004089958E+01  0.10277436420E+02  0.00000000000E+00 0. -1.
</event>
<event>
 7    1  0.8986500E-014  0.5052886E+02  0.7816164E-02  0.1300439E+00
        -11   -1    0    0    0    0  0.00000000000E+00  0.00000000000E+00  0.45593999997E+02  0.45594000000E+02  0.51100000000E-03 0. -1.
         11   -1    0    0    0    0 -0.00000000000E+00 -0.00000000000E+00 -0.45593999997E+02  0.45594000000E+02  0.51100000000E-03 0.  1.
    9900012    2    1    2    0    0  0.69792116791E+01  0.16916450345E+02  0.36308263156E+02  0.50528860052E+02  0.30000000613E+02 0.  0.
        -12    1    1    2    0    0 -0.69792116791E+01 -0.16916450345E+02 -0.36308263156E+02  0.40659139948E+02  0.00000000000E+00 0.  1.
         11    1    3    3    0    0  0.48079840201E+01 -0.12480370475E+01  0.10390767593E+02  0.11517046420E+02  0.51100000000E-03 0. -1.
        -11    1    3    3    0    0 -0.25839104039E+01 -0.43956018456E+01  0.92503168904E+01  0.10562493616E+02  0.51100000000E-03 0.  1.
         12    1    3    3    0    0  0.47551380629E+01  0.22560089238E+02  0.16667178673E+02  0.28449320015E+02  0.00000000000E+00 0. -1.
</event>
<event>
 7    1  0.8986500E-014  0.5052886E+02  0.7816164E-02  0.1300439E+00
        -11   -1    0    0    0    0  0.00000000000E+00  0.00000000000E+00  0.45593999997E+02  0.45594000000E+02  0.51100000000E-03 0. -1.
         11   -1    0    0    0    0 -0.00000000000E+00 -0.00000000000E+00 -0.45593999997E+02  0.45594000000E+02  0.51100000000E-03 0.  1.
    9900012    2    1    2    0    0 -0.25932806381E+02  0.13065249289E+02 -0.28459703046E+02  0.50528857323E+02  0.29999992319E+02 0.  0.
         12    1    1    2    0    0  0.25932806381E+02 -0.13065249289E+02  0.28459703046E+02  0.40659142677E+02  0.00000000000E+00 0. -1.
         11    1    3    3    0    0 -0.62332016055E+01  0.27249580306E+01 -0.55003945636E+01  0.87482877833E+01  0.51100000000E-03 0. -1.
        -11    1    3    3    0    0 -0.21229352811E+02  0.17391572195E+02 -0.16059418229E+02  0.31797124372E+02  0.51100000000E-03 0.  1.
        -12    1    3    3    0    0  0.15297480361E+01 -0.70512809372E+01 -0.68998902536E+01  0.99834451679E+01  0.00000000000E+00 0.  1.
</event>
<event>
 7    1  0.8986500E-014  0.5052885E+02  0.7816164E-02  0.1300439E+00
        -11   -1    0    0    0    0  0.00000000000E+00  0.00000000000E+00  0.45593999997E+02  0.45594000000E+02  0.51100000000E-03 0.  1.
         11   -1    0    0    0    0 -0.00000000000E+00 -0.00000000000E+00 -0.45593999997E+02  0.45594000000E+02  0.51100000000E-03 0. -1.
    9900012    2    1    2    0    0  0.86903933479E+01 -0.31497389742E+02  0.24198308102E+02  0.50528848359E+02  0.29999965073E+02 0.  0.
        -12    1    1    2    0    0 -0.86903933479E+01  0.31497389742E+02 -0.24198308102E+02  0.40659151641E+02  0.00000000000E+00 0.  1.
         11    1    3    3    0    0 -0.80005132255E+01 -0.69714554472E+01  0.41482549132E+01  0.11393744863E+02  0.51100000000E-03 0. -1.
        -11    1    3    3    0    0 -0.19112906061E+01 -0.62370997073E+01  0.82125794279E+01  0.10488131657E+02  0.51100000000E-03 0.  1.
         12    1    3    3    0    0  0.18602197180E+02 -0.18288834588E+02  0.11837473761E+02  0.28646971839E+02  0.00000000000E+00 0. -1.
</event>
<event>
 7    1  0.8986500E-014  0.5052886E+02  0.7816164E-02  0.1300439E+00
        -11   -1    0    0    0    0  0.00000000000E+00  0.00000000000E+00  0.45593999997E+02  0.45594000000E+02  0.51100000000E-03 0. -1.
         11   -1    0    0    0    0 -0.00000000000E+00 -0.00000000000E+00 -0.45593999997E+02  0.45594000000E+02  0.51100000000E-03 0.  1.
    9900012    2    1    2    0    0  0.34823357933E+02  0.76173384604E+01 -0.19556988811E+02  0.50528856941E+02  0.29999991156E+02 0.  0.
         12    1    1    2    0    0 -0.34823357933E+02 -0.76173384604E+01  0.19556988811E+02  0.40659143059E+02  0.00000000000E+00 0. -1.
         11    1    3    3    0    0  0.90288877842E+01  0.41587473190E+01 -0.10259324953E+02  0.14285298129E+02  0.51100000000E-03 0. -1.
        -11    1    3    3    0    0  0.87060948789E+01  0.10960931025E+02 -0.10565791456E+02  0.17537789095E+02  0.51100000000E-03 0.  1.
         12    1    3    3    0    0  0.17088375270E+02 -0.75023398835E+01  0.12681275978E+01  0.18705769717E+02  0.00000000000E+00 0. -1.
</event>
<event>
 7    1  0.8986500E-014  0.5052886E+02  0.7816164E-02  0.1300439E+00
        -11   -1    0    0    0    0  0.00000000000E+00  0.00000000000E+00  0.45593999997E+02  0.45594000000E+02  0.51100000000E-03 0. -1.
         11   -1    0    0    0    0 -0.00000000000E+00 -0.00000000000E+00 -0.45593999997E+02  0.45594000000E+02  0.51100000000E-03 0.  1.
    9900012    2    1    2    0    0 -0.78294023527E+00 -0.27916252484E+02 -0.29550557184E+02  0.50528861076E+02  0.30000003726E+02 0.  0.
         12    1    1    2    0    0  0.78294023527E+00  0.27916252484E+02  0.29550557184E+02  0.40659138924E+02  0.00000000000E+00 0. -1.
         11    1    3    3    0    0  0.11737281925E+02 -0.15782708231E+02 -0.74642316081E+01  0.21037405254E+02  0.51100000000E-03 0. -1.
        -11    1    3    3    0    0 -0.60494091268E+01 -0.11490822110E+02 -0.13656238689E+02  0.18844818888E+02  0.51100000000E-03 0.  1.
        -12    1    3    3    0    0 -0.64708130332E+01 -0.64272214408E+00 -0.84300868870E+01  0.10646636933E+02  0.00000000000E+00 0.  1.
</event>
<event>
 7    1  0.8986500E-014  0.5052885E+02  0.7816164E-02  0.1300439E+00
        -11   -1    0    0    0    0  0.00000000000E+00  0.00000000000E+00  0.45593999997E+02  0.45594000000E+02  0.51100000000E-03 0. -1.
         11   -1    0    0    0    0 -0.00000000000E+00 -0.00000000000E+00 -0.45593999997E+02  0.45594000000E+02  0.51100000000E-03 0.  1.
    9900012    2    1    2    0    0 -0.26743990787E+02 -0.20592933464E+02 -0.22668403846E+02  0.50528849925E+02  0.29999969833E+02 0.  0.
         12    1    1    2    0    0  0.26743990787E+02  0.20592933464E+02  0.22668403846E+02  0.40659150075E+02  0.00000000000E+00 0. -1.
         11    1    3    3    0    0 -0.18346879256E+01 -0.79990436508E-01 -0.38031887354E+01  0.42233544810E+01  0.51100000000E-03 0. -1.
        -11    1    3    3    0    0 -0.38848854581E+01 -0.20719703339E+02 -0.11591403544E+02  0.24057412119E+02  0.51100000000E-03 0.  1.
         12    1    3    3    0    0 -0.21024417403E+02  0.20676031109E+00 -0.72738115665E+01  0.22248083326E+02  0.00000000000E+00 0. -1.
</event>
<event>
 7    1  0.8986500E-014  0.5052887E+02  0.7816164E-02  0.1300439E+00
        -11   -1    0    0    0    0  0.00000000000E+00  0.00000000000E+00  0.45593999997E+02  0.45594000000E+02  0.51100000000E-03 0. -1.
         11   -1    0    0    0    0 -0.00000000000E+00 -0.00000000000E+00 -0.45593999997E+02  0.45594000000E+02  0.51100000000E-03 0.  1.
    9900012    2    1    2    0    0 -0.29392357254E+02 -0.26853639230E+02 -0.82544521217E+01  0.50528873292E+02  0.30000040858E+02 0.  0.
         12    1    1    2    0    0  0.29392357254E+02  0.26853639230E+02  0.82544521217E+01  0.40659126708E+02  0.00000000000E+00 0. -1.
         11    1    3    3    0    0 -0.17109988682E+02 -0.14447174186E+02  0.85206257254E+01  0.23959833423E+02  0.51100000000E-03 0. -1.
        -11    1    3    3    0    0 -0.37622015106E+01  0.49769878449E+00 -0.78394466958E+01  0.87096951177E+01  0.51100000000E-03 0.  1.
        -12    1    3    3    0    0 -0.85201670614E+01 -0.12904163829E+02 -0.89356311513E+01  0.17859344751E+02  0.00000000000E+00 0.  1.
</event>
<event>
 7    1  0.8986500E-014  0.5052885E+02  0.7816164E-02  0.1300439E+00
        -11   -1    0    0    0    0  0.00000000000E+00  0.00000000000E+00  0.45593999997E+02  0.45594000000E+02  0.51100000000E-03 0. -1.
         11   -1    0    0    0    0 -0.00000000000E+00 -0.00000000000E+00 -0.45593999997E+02  0.45594000000E+02  0.51100000000E-03 0.  1.
    9900012    2    1    2    0    0  0.21176517150E+02  0.29253039343E+02 -0.18681034516E+02  0.50528852936E+02  0.29999978984E+02 0.  0.
         12    1    1    2    0    0 -0.21176517150E+02 -0.29253039343E+02  0.18681034516E+02  0.40659147064E+02  0.00000000000E+00 0. -1.
         11    1    3    3    0    0  0.24710080726E+01  0.80004142801E+01  0.51496305433E+01  0.98301172191E+01  0.51100000000E-03 0. -1.
        -11    1    3    3    0    0  0.11310227287E+02  0.80694260537E+01 -0.18415909266E+01  0.14015289348E+02  0.51100000000E-03 0.  1.
        -12    1    3    3    0    0  0.73952817902E+01  0.13183199009E+02 -0.21989074133E+02  0.26683446368E+02  0.00000000000E+00 0.  1.
</event>
<event>
 7    1  0.8986500E-014  0.5052886E+02  0.7816164E-02  0.1300439E+00
        -11   -1    0    0    0    0  0.00000000000E+00  0.00000000000E+00  0.45593999997E+02  0.45594000000E+02  0.51100000000E-03 0. -1.
         11   -1    0    0    0    0 -0.00000000000E+00 -0.00000000000E+00 -0.45593999997E+02  0.45594000000E+02  0.51100000000E-03 0.  1.
    9900012    2    1    2    0    0 -0.20103928368E+02 -0.15786142605E+02 -0.31619540238E+02  0.50528861310E+02  0.30000004437E+02 0.  0.
         12    1    1    2    0    0  0.20103928368E+02  0.15786142605E+02  0.31619540238E+02  0.40659138690E+02  0.00000000000E+00 0. -1.
         11    1    3    3    0    0 -0.77174716665E+01 -0.76465940328E+01 -0.31290165533E+01  0.11305773484E+02  0.51100000000E-03 0. -1.
        -11    1    3    3    0    0 -0.14677439200E+02 -0.12850337196E+02 -0.14566413445E+02  0.24346227397E+02  0.51100000000E-03 0.  1.
         12    1    3    3    0    0  0.22909824988E+01  0.47107886235E+01 -0.13924110239E+02  0.14876860429E+02  0.00000000000E+00 0. -1.
</event>
<event>
 7    1  0.8986500E-014  0.5052885E+02  0.7816164E-02  0.1300439E+00
        -11   -1    0    0    0    0  0.00000000000E+00  0.00000000000E+00  0.45593999997E+02  0.45594000000E+02  0.51100000000E-03 0. -1.
         11   -1    0    0    0    0 -0.00000000000E+00 -0.00000000000E+00 -0.45593999997E+02  0.45594000000E+02  0.51100000000E-03 0.  1.
    9900012    2    1    2    0    0 -0.10009731446E+02  0.25827744248E+02 -0.29764056753E+02  0.50528853785E+02  0.29999981565E+02 0.  0.
         12    1    1    2    0    0  0.10009731446E+02 -0.25827744248E+02  0.29764056753E+02  0.40659146215E+02  0.00000000000E+00 0. -1.
         11    1    3    3    0    0  0.22912219272E+00  0.11974039347E+02 -0.49826294669E+01  0.12971380494E+02  0.51100000000E-03 0. -1.
        -11    1    3    3    0    0 -0.39714567222E+01  0.16966251075E+02 -0.76085447603E+01  0.19013576667E+02  0.51100000000E-03 0.  1.
        -12    1    3    3    0    0 -0.62673969162E+01 -0.31125461735E+01 -0.17172882525E+02  0.18543896624E+02  0.00000000000E+00 0.  1.
</event>
<event>
 7    1  0.8986500E-014  0.5052886E+02  0.7816164E-02  0.1300439E+00
        -11   -1    0    0    0    0  0.00000000000E+00  0.00000000000E+00  0.45593999997E+02  0.45594000000E+02  0.51100000000E-03 0. -1.
         11   -1    0    0    0    0 -0.00000000000E+00 -0.00000000000E+00 -0.45593999997E+02  0.45594000000E+02  0.51100000000E-03 0.  1.
    9900012    2    1    2    0    0 -0.54111076704E+01 -0.23289807680E+02  0.32885718100E+02  0.50528859786E+02  0.29999999806E+02 0.  0.
        -12    1    1    2    0    0  0.54111076704E+01  0.23289807680E+02 -0.32885718100E+02  0.40659140214E+02  0.00000000000E+00 0.  1.
         11    1    3    3    0    0 -0.19246821710E+01 -0.21219012191E+02  0.25269454606E+02  0.33052930524E+02  0.51100000000E-03 0. -1.
        -11    1    3    3    0    0 -0.45954649567E+01 -0.51184958952E+01 -0.21325946065E+01  0.72017538429E+01  0.51100000000E-03 0.  1.
         12    1    3    3    0    0  0.11090394573E+01  0.30477004071E+01  0.97488581003E+01  0.10274175419E+02  0.00000000000E+00 0. -1.
</event>
<event>
 7    1  0.8986500E-014  0.5052887E+02  0.7816164E-02  0.1300439E+00
        -11   -1    0    0    0    0  0.00000000000E+00  0.00000000000E+00  0.45593999997E+02  0.45594000000E+02  0.51100000000E-03 0. -1.
         11   -1    0    0    0    0 -0.00000000000E+00 -0.00000000000E+00 -0.45593999997E+02  0.45594000000E+02  0.51100000000E-03 0.  1.
    9900012    2    1    2    0    0 -0.92586393196E+01 -0.22076285307E+01 -0.39529343074E+02  0.50528868311E+02  0.30000025719E+02 0.  0.
         12    1    1    2    0    0  0.92586393196E+01  0.22076285307E+01  0.39529343074E+02  0.40659131689E+02  0.00000000000E+00 0. -1.
         11    1    3    3    0    0 -0.11490311949E+02  0.23312497375E+01 -0.21180780654E+02  0.24209243346E+02  0.51100000000E-03 0. -1.
        -11    1    3    3    0    0 -0.37429062366E+01  0.57870309762E+01 -0.58307067263E+01  0.90275254530E+01  0.51100000000E-03 0.  1.
         12    1    3    3    0    0  0.59745788662E+01 -0.10325909244E+02 -0.12517855694E+02  0.17292099512E+02  0.00000000000E+00 0. -1.
</event>
<event>
 7    1  0.8986500E-014  0.5052886E+02  0.7816164E-02  0.1300439E+00
        -11   -1    0    0    0    0  0.00000000000E+00  0.00000000000E+00  0.45593999997E+02  0.45594000000E+02  0.51100000000E-03 0. -1.
         11   -1    0    0    0    0 -0.00000000000E+00 -0.00000000000E+00 -0.45593999997E+02  0.45594000000E+02  0.51100000000E-03 0.  1.
    9900012    2    1    2    0    0 -0.18212283312E+02 -0.18514475621E+02 -0.31284060234E+02  0.50528862089E+02  0.30000006806E+02 0.  0.
         12    1    1    2    0    0  0.18212283312E+02  0.18514475621E+02  0.31284060234E+02  0.40659137911E+02  0.00000000000E+00 0. -1.
         11    1    3    3    0    0 -0.57409425526E+01  0.48584793626E+00 -0.20876115310E+01  0.61280169529E+01  0.51100000000E-03 0. -1.
        -11    1    3    3    0    0 -0.19564002999E+02 -0.13912013797E+02 -0.25187566893E+02  0.34795227654E+02  0.51100000000E-03 0.  1.
        -12    1    3    3    0    0  0.70926622396E+01 -0.50883097596E+01 -0.40088818103E+01  0.96056174827E+01  0.00000000000E+00 0.  1.
</event>
<event>
 7    1  0.8986500E-014  0.5052886E+02  0.7816164E-02  0.1300439E+00
        -11   -1    0    0    0    0  0.00000000000E+00  0.00000000000E+00  0.45593999997E+02  0.45594000000E+02  0.51100000000E-03 0. -1.
         11   -1    0    0    0    0 -0.00000000000E+00 -0.00000000000E+00 -0.45593999997E+02  0.45594000000E+02  0.51100000000E-03 0.  1.
    9900012    2    1    2    0    0 -0.19615308932E+02 -0.38062527884E+01 -0.35410698868E+02  0.50528862047E+02  0.30000006678E+02 0.  0.
         12    1    1    2    0    0  0.19615308932E+02  0.38062527884E+01  0.35410698868E+02  0.40659137953E+02  0.00000000000E+00 0. -1.
         11    1    3    3    0    0 -0.56345502832E+01  0.17586739976E+00 -0.12683550360E+02  0.13879896838E+02  0.51100000000E-03 0. -1.
        -11    1    3    3    0    0 -0.85593647220E+01 -0.59240231676E+00 -0.27411415655E+02  0.28722802325E+02  0.51100000000E-03 0.  1.
         12    1    3    3    0    0 -0.54213939267E+01 -0.33897178714E+01  0.46842671470E+01  0.79261628838E+01  0.00000000000E+00 0. -1.
</event>
<event>
 7    1  0.8986500E-014  0.5052885E+02  0.7816164E-02  0.1300439E+00
        -11   -1    0    0    0    0  0.00000000000E+00  0.00000000000E+00  0.45593999997E+02  0.45594000000E+02  0.51100000000E-03 0. -1.
         11   -1    0    0    0    0 -0.00000000000E+00 -0.00000000000E+00 -0.45593999997E+02  0.45594000000E+02  0.51100000000E-03 0.  1.
    9900012    2    1    2    0    0  0.18800074505E+02 -0.33626848372E+01 -0.35894507587E+02  0.50528854342E+02  0.29999983258E+02 0.  0.
         12    1    1    2    0    0 -0.18800074505E+02  0.33626848372E+01  0.35894507587E+02  0.40659145658E+02  0.00000000000E+00 0. -1.
         11    1    3    3    0    0  0.57661809936E+01 -0.10028906133E+02 -0.22920783314E+02  0.25674697846E+02  0.51100000000E-03 0. -1.
        -11    1    3    3    0    0 -0.15462231004E+01  0.97391676614E+00  0.23318292718E+01  0.29625576379E+01  0.51100000000E-03 0.  1.
         12    1    3    3    0    0  0.14580116611E+02  0.56923045293E+01 -0.15305553545E+02  0.21891598859E+02  0.00000000000E+00 0. -1.
</event>
<event>
 7    1  0.8986500E-014  0.5052888E+02  0.7816164E-02  0.1300439E+00
        -11   -1    0    0    0    0  0.00000000000E+00  0.00000000000E+00  0.45593999997E+02  0.45594000000E+02  0.51100000000E-03 0. -1.
         11   -1    0    0    0    0 -0.00000000000E+00 -0.00000000000E+00 -0.45593999997E+02  0.45594000000E+02  0.51100000000E-03 0.  1.
    9900012    2    1    2    0    0 -0.14093044686E+02  0.37009103773E+02  0.92128450462E+01  0.50528878214E+02  0.30000055818E+02 0.  0.
        -12    1    1    2    0    0  0.14093044686E+02 -0.37009103773E+02 -0.92128450462E+01  0.40659121786E+02  0.00000000000E+00 0.  1.
         11    1    3    3    0    0 -0.17749318290E+02  0.35445280536E+02  0.24602126603E+01  0.39717236292E+02  0.51100000000E-03 0. -1.
        -11    1    3    3    0    0 -0.19793947545E+01 -0.10385618965E+01  0.17253047557E+01  0.28237016783E+01  0.51100000000E-03 0.  1.
        -12    1    3    3    0    0  0.56356683589E+01  0.26023851331E+01  0.50273276302E+01  0.79879402435E+01  0.00000000000E+00 0.  1.
</event>
<event>
 7    1  0.1117202E-013  0.5052887E+02  0.7816164E-02  0.1300439E+00
        -11   -1    0    0    0    0  0.00000000000E+00  0.00000000000E+00  0.45593999997E+02  0.45594000000E+02  0.51100000000E-03 0. -1.
         11   -1    0    0    0    0 -0.00000000000E+00 -0.00000000000E+00 -0.45593999997E+02  0.45594000000E+02  0.51100000000E-03 0.  1.
    9900012    2    1    2    0    0 -0.28473736469E+02 -0.25098219849E+01  0.28915606404E+02  0.50528866111E+02  0.30000019031E+02 0.  0.
        -12    1    1    2    0    0  0.28473736469E+02  0.25098219849E+01 -0.28915606404E+02  0.40659133889E+02  0.00000000000E+00 0.  1.
         11    1    3    3    0    0 -0.10249510396E+02  0.90387712828E+01  0.59312933860E+01  0.14897385380E+02  0.51100000000E-03 0. -1.
        -11    1    3    3    0    0 -0.17841719351E+01  0.33246469970E+01  0.80803303748E+01  0.89178633302E+01  0.51100000000E-03 0.  1.
         12    1    3    3    0    0 -0.16440054138E+02 -0.14873240265E+02  0.14903982643E+02  0.26713617401E+02  0.00000000000E+00 0. -1.
</event>
<event>
 7    1  0.8986500E-014  0.5052886E+02  0.7816164E-02  0.1300439E+00
        -11   -1    0    0    0    0  0.00000000000E+00  0.00000000000E+00  0.45593999997E+02  0.45594000000E+02  0.51100000000E-03 0.  1.
         11   -1    0    0    0    0 -0.00000000000E+00 -0.00000000000E+00 -0.45593999997E+02  0.45594000000E+02  0.51100000000E-03 0. -1.
    9900012    2    1    2    0    0 -0.19734696115E+02 -0.31561405606E+02  0.16358017013E+02  0.50528864800E+02  0.30000015047E+02 0.  0.
        -12    1    1    2    0    0  0.19734696115E+02  0.31561405606E+02 -0.16358017013E+02  0.40659135200E+02  0.00000000000E+00 0.  1.
         11    1    3    3    0    0 -0.62651072673E+01 -0.11259136557E+02  0.60052398820E+01  0.14215577068E+02  0.51100000000E-03 0. -1.
        -11    1    3    3    0    0 -0.49052521882E+01 -0.11368762548E+02  0.17939271045E+02  0.21797424316E+02  0.51100000000E-03 0.  1.
         12    1    3    3    0    0 -0.85643366591E+01 -0.89335065012E+01 -0.75864939138E+01  0.14515863416E+02  0.00000000000E+00 0. -1.
</event>
<event>
 7    1  0.8986500E-014  0.5052888E+02  0.7816164E-02  0.1300439E+00
        -11   -1    0    0    0    0  0.00000000000E+00  0.00000000000E+00  0.45593999997E+02  0.45594000000E+02  0.51100000000E-03 0.  1.
         11   -1    0    0    0    0 -0.00000000000E+00 -0.00000000000E+00 -0.45593999997E+02  0.45594000000E+02  0.51100000000E-03 0. -1.
    9900012    2    1    2    0    0  0.11312291366E+02  0.39027558672E+02  0.14304281353E+01  0.50528875606E+02  0.30000047893E+02 0.  0.
        -12    1    1    2    0    0 -0.11312291366E+02 -0.39027558672E+02 -0.14304281353E+01  0.40659124394E+02  0.00000000000E+00 0.  1.
         11    1    3    3    0    0 -0.54093518831E+01  0.53472222524E+01 -0.48444628650E+01  0.90179096426E+01  0.51100000000E-03 0. -1.
        -11    1    3    3    0    0 -0.47759157292E+00 -0.80877872639E+00  0.26377218284E+01  0.27999631148E+01  0.51100000000E-03 0.  1.
         12    1    3    3    0    0  0.17199234822E+02  0.34489115146E+02  0.36371691718E+01  0.38711002849E+02  0.00000000000E+00 0. -1.
</event>
<event>
 7    1  0.8986500E-014  0.5052885E+02  0.7816164E-02  0.1300439E+00
        -11   -1    0    0    0    0  0.00000000000E+00  0.00000000000E+00  0.45593999997E+02  0.45594000000E+02  0.51100000000E-03 0. -1.
         11   -1    0    0    0    0 -0.00000000000E+00 -0.00000000000E+00 -0.45593999997E+02  0.45594000000E+02  0.51100000000E-03 0.  1.
    9900012    2    1    2    0    0 -0.31412390840E+02 -0.21815625528E+02 -0.13802414605E+02  0.50528850176E+02  0.29999970596E+02 0.  0.
         12    1    1    2    0    0  0.31412390840E+02  0.21815625528E+02  0.13802414605E+02  0.40659149824E+02  0.00000000000E+00 0. -1.
         11    1    3    3    0    0  0.29137467191E+01 -0.25045750191E+01  0.78755610854E+00  0.39221245333E+01  0.51100000000E-03 0. -1.
        -11    1    3    3    0    0 -0.18619888751E+02 -0.20607957125E+02 -0.13300549308E+02  0.30794362570E+02  0.51100000000E-03 0.  1.
         12    1    3    3    0    0 -0.15706248808E+02  0.12969066157E+01 -0.12894214058E+01  0.15812363073E+02  0.00000000000E+00 0. -1.
</event>
<event>
 7    1  0.8986500E-014  0.5052887E+02  0.7816164E-02  0.1300439E+00
        -11   -1    0    0    0    0  0.00000000000E+00  0.00000000000E+00  0.45593999997E+02  0.45594000000E+02  0.51100000000E-03 0. -1.
         11   -1    0    0    0    0 -0.00000000000E+00 -0.00000000000E+00 -0.45593999997E+02  0.45594000000E+02  0.51100000000E-03 0.  1.
    9900012    2    1    2    0    0  0.34454238951E+02  0.15491806066E+02 -0.15035754571E+02  0.50528873688E+02  0.30000042063E+02 0.  0.
         12    1    1    2    0    0 -0.34454238951E+02 -0.15491806066E+02  0.15035754571E+02  0.40659126312E+02  0.00000000000E+00 0. -1.
         11    1    3    3    0    0  0.87467374254E+01  0.88175589578E+01 -0.65217846605E+01  0.14028130203E+02  0.51100000000E-03 0. -1.
        -11    1    3    3    0    0  0.25487950184E+01  0.41611030739E+01 -0.11993003448E+02  0.12947712802E+02  0.51100000000E-03 0.  1.
         12    1    3    3    0    0  0.23158706508E+02  0.25131440343E+01  0.34790335376E+01  0.23553030684E+02  0.00000000000E+00 0. -1.
</event>
<event>
 7    1  0.8986500E-014  0.5052894E+02  0.7816164E-02  0.1300439E+00
        -11   -1    0    0    0    0  0.00000000000E+00  0.00000000000E+00  0.45593999997E+02  0.45594000000E+02  0.51100000000E-03 0. -1.
         11   -1    0    0    0    0 -0.00000000000E+00 -0.00000000000E+00 -0.45593999997E+02  0.45594000000E+02  0.51100000000E-03 0.  1.
    9900012    2    1    2    0    0  0.20471157530E+02 -0.55960124724E+01 -0.34681054844E+02  0.50528939371E+02  0.30000241710E+02 0.  0.
         12    1    1    2    0    0 -0.20471157530E+02  0.55960124724E+01  0.34681054844E+02  0.40659060629E+02  0.00000000000E+00 0. -1.
         11    1    3    3    0    0  0.12514188891E+01 -0.12544528096E+01 -0.11682652932E+02  0.11816263406E+02  0.51100000000E-03 0. -1.
        -11    1    3    3    0    0  0.13132414713E+02  0.76571518234E+01 -0.19657156909E+02  0.24849468973E+02  0.51100000000E-03 0.  1.
         12    1    3    3    0    0  0.60873239274E+01 -0.11998711486E+02 -0.33412450029E+01  0.13863206992E+02  0.00000000000E+00 0. -1.
</event>
<event>
 7    1  0.8986500E-014  0.5052884E+02  0.7816164E-02  0.1300439E+00
        -11   -1    0    0    0    0  0.00000000000E+00  0.00000000000E+00  0.45593999997E+02  0.45594000000E+02  0.51100000000E-03 0. -1.
         11   -1    0    0    0    0 -0.00000000000E+00 -0.00000000000E+00 -0.45593999997E+02  0.45594000000E+02  0.51100000000E-03 0.  1.
    9900012    2    1    2    0    0 -0.35751915815E+01  0.15632187830E+02  0.37363354900E+02  0.50528836450E+02  0.29999928873E+02 0.  0.
        -12    1    1    2    0    0  0.35751915815E+01 -0.15632187830E+02 -0.37363354900E+02  0.40659163550E+02  0.00000000000E+00 0.  1.
         11    1    3    3    0    0 -0.38117045924E+01  0.16755003606E+02  0.13633868620E+02  0.21934940427E+02  0.51100000000E-03 0. -1.
        -11    1    3    3    0    0 -0.75051260995E+00  0.71461424310E+01  0.14367181309E+02  0.16063826439E+02  0.51100000000E-03 0.  1.
        -12    1    3    3    0    0  0.98702562090E+00 -0.82689582070E+01  0.93623049710E+01  0.12530069584E+02  0.00000000000E+00 0.  1.
</event>
<event>
 7    1  0.1158343E-013  0.5052886E+02  0.7816164E-02  0.1300439E+00
        -11   -1    0    0    0    0  0.00000000000E+00  0.00000000000E+00  0.45593999997E+02  0.45594000000E+02  0.51100000000E-03 0. -1.
         11   -1    0    0    0    0 -0.00000000000E+00 -0.00000000000E+00 -0.45593999997E+02  0.45594000000E+02  0.51100000000E-03 0.  1.
    9900012    2    1    2    0    0 -0.23682817761E+01  0.38303724974E+02  0.13430629300E+02  0.50528857008E+02  0.29999991362E+02 0.  0.
        -12    1    1    2    0    0  0.23682817761E+01 -0.38303724974E+02 -0.13430629300E+02  0.40659142992E+02  0.00000000000E+00 0.  1.
         11    1    3    3    0    0  0.67744744380E+01  0.13638291862E+02  0.12005557606E+02  0.19391490982E+02  0.51100000000E-03 0. -1.
        -11    1    3    3    0    0  0.27637671636E+01 -0.89639247197E+00  0.84932097766E-01  0.29067408073E+01  0.51100000000E-03 0.  1.
         12    1    3    3    0    0 -0.11906523378E+02  0.25561825583E+02  0.13401395967E+01  0.28230625219E+02  0.00000000000E+00 0. -1.
</event>
<event>
 7    1  0.8986500E-014  0.5052885E+02  0.7816164E-02  0.1300439E+00
        -11   -1    0    0    0    0  0.00000000000E+00  0.00000000000E+00  0.45593999997E+02  0.45594000000E+02  0.51100000000E-03 0. -1.
         11   -1    0    0    0    0 -0.00000000000E+00 -0.00000000000E+00 -0.45593999997E+02  0.45594000000E+02  0.51100000000E-03 0.  1.
    9900012    2    1    2    0    0 -0.18233571134E+01 -0.25402351461E+02  0.31694825808E+02  0.50528854978E+02  0.29999985191E+02 0.  0.
        -12    1    1    2    0    0  0.18233571134E+01  0.25402351461E+02 -0.31694825808E+02  0.40659145022E+02  0.00000000000E+00 0.  1.
         11    1    3    3    0    0 -0.55101753040E+01 -0.70637753377E+01  0.19748769173E+02  0.21685775016E+02  0.51100000000E-03 0.  1.
        -11    1    3    3    0    0  0.17497585262E+01 -0.16830080949E+02  0.16522502936E+02  0.23649659261E+02  0.51100000000E-03 0. -1.
        -12    1    3    3    0    0  0.19370596645E+01 -0.15084951741E+01 -0.45764463007E+01  0.51934207010E+01  0.00000000000E+00 0.  1.
</event>
<event>
 7    1  0.9050127E-014  0.5052884E+02  0.7816164E-02  0.1300439E+00
        -11   -1    0    0    0    0  0.00000000000E+00  0.00000000000E+00  0.45593999997E+02  0.45594000000E+02  0.51100000000E-03 0. -1.
         11   -1    0    0    0    0 -0.00000000000E+00 -0.00000000000E+00 -0.45593999997E+02  0.45594000000E+02  0.51100000000E-03 0.  1.
    9900012    2    1    2    0    0 -0.11989284525E+02  0.11451827402E+02  0.37125189527E+02  0.50528843692E+02  0.29999950887E+02 0.  0.
        -12    1    1    2    0    0  0.11989284525E+02 -0.11451827402E+02 -0.37125189527E+02  0.40659156308E+02  0.00000000000E+00 0.  1.
         11    1    3    3    0    0 -0.48015968395E+01  0.13176210940E+02  0.18034400497E+02  0.22845294231E+02  0.51100000000E-03 0. -1.
        -11    1    3    3    0    0 -0.87257495207E+01  0.40584110793E+01  0.19437888986E+02  0.21689650382E+02  0.51100000000E-03 0.  1.
        -12    1    3    3    0    0  0.15380618354E+01 -0.57827946178E+01 -0.34709995577E+00  0.59938990799E+01  0.00000000000E+00 0.  1.
</event>
<event>
 7    1  0.8986500E-014  0.5052887E+02  0.7816164E-02  0.1300439E+00
        -11   -1    0    0    0    0  0.00000000000E+00  0.00000000000E+00  0.45593999997E+02  0.45594000000E+02  0.51100000000E-03 0. -1.
         11   -1    0    0    0    0 -0.00000000000E+00 -0.00000000000E+00 -0.45593999997E+02  0.45594000000E+02  0.51100000000E-03 0.  1.
    9900012    2    1    2    0    0  0.12725432337E+02 -0.12956696380E+01 -0.38594686390E+02  0.50528865657E+02  0.30000017650E+02 0.  0.
         12    1    1    2    0    0 -0.12725432337E+02  0.12956696380E+01  0.38594686390E+02  0.40659134343E+02  0.00000000000E+00 0. -1.
         11    1    3    3    0    0 -0.15387264093E+01  0.40527706031E+01 -0.89751480638E+01  0.99672419230E+01  0.51100000000E-03 0. -1.
        -11    1    3    3    0    0  0.15594457291E+02  0.48234052738E+01 -0.12326221017E+02  0.20454536452E+02  0.51100000000E-03 0.  1.
         12    1    3    3    0    0 -0.13302985448E+01 -0.10171845515E+02 -0.17293317310E+02  0.20107087282E+02  0.00000000000E+00 0. -1.
</event>
<event>
 7    1  0.8986500E-014  0.5052886E+02  0.7816164E-02  0.1300439E+00
        -11   -1    0    0    0    0  0.00000000000E+00  0.00000000000E+00  0.45593999997E+02  0.45594000000E+02  0.51100000000E-03 0. -1.
         11   -1    0    0    0    0 -0.00000000000E+00 -0.00000000000E+00 -0.45593999997E+02  0.45594000000E+02  0.51100000000E-03 0.  1.
    9900012    2    1    2    0    0  0.24306533627E+02 -0.16628851373E+02 -0.28032830218E+02  0.50528857794E+02  0.29999993749E+02 0.  0.
         12    1    1    2    0    0 -0.24306533627E+02  0.16628851373E+02  0.28032830218E+02  0.40659142206E+02  0.00000000000E+00 0. -1.
         11    1    3    3    0    0 -0.21272327553E+01  0.15541848716E+01 -0.20683773136E+00  0.26426108148E+01  0.51100000000E-03 0. -1.
        -11    1    3    3    0    0  0.14864571837E+02 -0.13256446525E+02 -0.31140171770E+01  0.20159017179E+02  0.51100000000E-03 0.  1.
         12    1    3    3    0    0  0.11569194545E+02 -0.49265897202E+01 -0.24711975309E+02  0.27727229800E+02  0.00000000000E+00 0. -1.
</event>
<event>
 7    1  0.8986500E-014  0.5052885E+02  0.7816164E-02  0.1300439E+00
        -11   -1    0    0    0    0  0.00000000000E+00  0.00000000000E+00  0.45593999997E+02  0.45594000000E+02  0.51100000000E-03 0.  1.
         11   -1    0    0    0    0 -0.00000000000E+00 -0.00000000000E+00 -0.45593999997E+02  0.45594000000E+02  0.51100000000E-03 0. -1.
    9900012    2    1    2    0    0  0.39252845573E+02  0.10485116976E+02  0.15631072636E+01  0.50528845215E+02  0.29999955514E+02 0.  0.
        -12    1    1    2    0    0 -0.39252845573E+02 -0.10485116976E+02 -0.15631072636E+01  0.40659154785E+02  0.00000000000E+00 0.  1.
         11    1    3    3    0    0 -0.17363229193E+01 -0.17772468624E+01 -0.89249605367E+00  0.26400706727E+01  0.51100000000E-03 0. -1.
        -11    1    3    3    0    0  0.68462541750E+01 -0.23595093699E+01  0.74768916722E+01  0.10408765058E+02  0.51100000000E-03 0.  1.
         12    1    3    3    0    0  0.34142914317E+02  0.14621873208E+02 -0.50212883549E+01  0.37480009484E+02  0.00000000000E+00 0. -1.
</event>
<event>
 7    1  0.8986500E-014  0.5052886E+02  0.7816164E-02  0.1300439E+00
        -11   -1    0    0    0    0  0.00000000000E+00  0.00000000000E+00  0.45593999997E+02  0.45594000000E+02  0.51100000000E-03 0. -1.
         11   -1    0    0    0    0 -0.00000000000E+00 -0.00000000000E+00 -0.45593999997E+02  0.45594000000E+02  0.51100000000E-03 0.  1.
    9900012    2    1    2    0    0 -0.25421268902E+02 -0.31195824051E+02 -0.58090547025E+01  0.50528862437E+02  0.30000007864E+02 0.  0.
         12    1    1    2    0    0  0.25421268902E+02  0.31195824051E+02  0.58090547025E+01  0.40659137563E+02  0.00000000000E+00 0. -1.
         11    1    3    3    0    0  0.13100793493E+00 -0.16139284214E+01 -0.59653427979E+01  0.61812007722E+01  0.51100000000E-03 0. -1.
        -11    1    3    3    0    0 -0.24874645114E+02 -0.16218769962E+02 -0.47968746582E+01  0.30080001253E+02  0.51100000000E-03 0.  1.
         12    1    3    3    0    0 -0.67763172289E+00 -0.13363125668E+02  0.49531627535E+01  0.14267660412E+02  0.00000000000E+00 0. -1.
</event>
<event>
 7    1  0.8986500E-014  0.5052885E+02  0.7816164E-02  0.1300439E+00
        -11   -1    0    0    0    0  0.00000000000E+00  0.00000000000E+00  0.45593999997E+02  0.45594000000E+02  0.51100000000E-03 0. -1.
         11   -1    0    0    0    0 -0.00000000000E+00 -0.00000000000E+00 -0.45593999997E+02  0.45594000000E+02  0.51100000000E-03 0.  1.
    9900012    2    1    2    0    0 -0.30446664323E+02  0.24554086335E+02  0.11102427733E+02  0.50528850652E+02  0.29999972042E+02 0.  0.
        -12    1    1    2    0    0  0.30446664323E+02 -0.24554086335E+02 -0.11102427733E+02  0.40659149348E+02  0.00000000000E+00 0.  1.
         11    1    3    3    0    0  0.20984910287E+01  0.57505943001E+01 -0.21749130884E+01  0.64964025895E+01  0.51100000000E-03 0.  1.
        -11    1    3    3    0    0 -0.42875548049E+01  0.10393543951E+02 -0.97566987417E+00  0.11285424850E+02  0.51100000000E-03 0. -1.
         12    1    3    3    0    0 -0.28257600547E+02  0.84099480833E+01  0.14253010696E+02  0.32747023213E+02  0.00000000000E+00 0. -1.
</event>
<event>
 7    1  0.8986500E-014  0.5052886E+02  0.7816164E-02  0.1300439E+00
        -11   -1    0    0    0    0  0.00000000000E+00  0.00000000000E+00  0.45593999997E+02  0.45594000000E+02  0.51100000000E-03 0. -1.
         11   -1    0    0    0    0 -0.00000000000E+00 -0.00000000000E+00 -0.45593999997E+02  0.45594000000E+02  0.51100000000E-03 0.  1.
    9900012    2    1    2    0    0 -0.16404033757E+02  0.56938648898E+01  0.36764839822E+02  0.50528857510E+02  0.29999992888E+02 0.  0.
        -12    1    1    2    0    0  0.16404033757E+02 -0.56938648898E+01 -0.36764839822E+02  0.40659142490E+02  0.00000000000E+00 0.  1.
         11    1    3    3    0    0 -0.12873565714E+02  0.32663725379E+01  0.13960853055E+02  0.19269232005E+02  0.51100000000E-03 0. -1.
        -11    1    3    3    0    0 -0.11467386729E+02  0.14657980418E+01  0.69107694949E+01  0.13468788274E+02  0.51100000000E-03 0.  1.
        -12    1    3    3    0    0  0.79369186858E+01  0.96169431012E+00  0.15893217272E+02  0.17790837232E+02  0.00000000000E+00 0.  1.
</event>
<event>
 7    1  0.8986500E-014  0.5052892E+02  0.7816164E-02  0.1300439E+00
        -11   -1    0    0    0    0  0.00000000000E+00  0.00000000000E+00  0.45593999997E+02  0.45594000000E+02  0.51100000000E-03 0. -1.
         11   -1    0    0    0    0 -0.00000000000E+00 -0.00000000000E+00 -0.45593999997E+02  0.45594000000E+02  0.51100000000E-03 0.  1.
    9900012    2    1    2    0    0  0.21877441518E+02  0.30949228307E+02  0.14720176719E+02  0.50528920045E+02  0.30000182967E+02 0.  0.
        -12    1    1    2    0    0 -0.21877441518E+02 -0.30949228307E+02 -0.14720176719E+02  0.40659079955E+02  0.00000000000E+00 0.  1.
         11    1    3    3    0    0 -0.25324609577E+01  0.35420652396E+01 -0.22057418177E+01  0.48810738461E+01  0.51100000000E-03 0. -1.
        -11    1    3    3    0    0 -0.12594576319E+01  0.80822914638E+01 -0.19146380741E+01  0.84009230474E+01  0.51100000000E-03 0.  1.
         12    1    3    3    0    0  0.25669360108E+02  0.19324871604E+02  0.18840556611E+02  0.37246923151E+02  0.00000000000E+00 0. -1.
</event>
<event>
 7    1  0.8986500E-014  0.5052884E+02  0.7816164E-02  0.1300439E+00
        -11   -1    0    0    0    0  0.00000000000E+00  0.00000000000E+00  0.45593999997E+02  0.45594000000E+02  0.51100000000E-03 0. -1.
         11   -1    0    0    0    0 -0.00000000000E+00 -0.00000000000E+00 -0.45593999997E+02  0.45594000000E+02  0.51100000000E-03 0.  1.
    9900012    2    1    2    0    0 -0.85033159225E+01 -0.88877107958E+01 -0.38753962847E+02  0.50528838410E+02  0.29999934830E+02 0.  0.
         12    1    1    2    0    0  0.85033159225E+01  0.88877107958E+01  0.38753962847E+02  0.40659161590E+02  0.00000000000E+00 0. -1.
         11    1    3    3    0    0 -0.75133968807E+01  0.29515895732E+01 -0.84373209644E+01  0.11676960179E+02  0.51100000000E-03 0. -1.
        -11    1    3    3    0    0 -0.10890036295E+02 -0.70918309425E+01 -0.19542134593E+02  0.23468744775E+02  0.51100000000E-03 0.  1.
         12    1    3    3    0    0  0.99001172533E+01 -0.47474694265E+01 -0.10774507290E+02  0.15383133456E+02  0.00000000000E+00 0. -1.
</event>
<event>
 7    1  0.8986500E-014  0.5052886E+02  0.7816164E-02  0.1300439E+00
        -11   -1    0    0    0    0  0.00000000000E+00  0.00000000000E+00  0.45593999997E+02  0.45594000000E+02  0.51100000000E-03 0. -1.
         11   -1    0    0    0    0 -0.00000000000E+00 -0.00000000000E+00 -0.45593999997E+02  0.45594000000E+02  0.51100000000E-03 0.  1.
    9900012    2    1    2    0    0 -0.77359987071E+01  0.25498302340E+02 -0.30710855110E+02  0.50528859333E+02  0.29999998427E+02 0.  0.
         12    1    1    2    0    0  0.77359987071E+01 -0.25498302340E+02  0.30710855110E+02  0.40659140667E+02  0.00000000000E+00 0. -1.
         11    1    3    3    0    0 -0.35001020154E+01  0.17392396470E+02 -0.56138234866E+01  0.18608094569E+02  0.51100000000E-03 0. -1.
        -11    1    3    3    0    0 -0.72398241884E+01  0.86111650344E+01 -0.63312743134E+01  0.12909386206E+02  0.51100000000E-03 0.  1.
        -12    1    3    3    0    0  0.30039274968E+01 -0.50525916449E+00 -0.18765757311E+02  0.19011378558E+02  0.00000000000E+00 0.  1.
</event>
<event>
 7    1  0.8986500E-014  0.5052886E+02  0.7816164E-02  0.1300439E+00
        -11   -1    0    0    0    0  0.00000000000E+00  0.00000000000E+00  0.45593999997E+02  0.45594000000E+02  0.51100000000E-03 0.  1.
         11   -1    0    0    0    0 -0.00000000000E+00 -0.00000000000E+00 -0.45593999997E+02  0.45594000000E+02  0.51100000000E-03 0. -1.
    9900012    2    1    2    0    0  0.14489357851E+02 -0.33482926050E+02 -0.17947636481E+02  0.50528862244E+02  0.30000007278E+02 0.  0.
         12    1    1    2    0    0 -0.14489357851E+02  0.33482926050E+02  0.17947636481E+02  0.40659137756E+02  0.00000000000E+00 0. -1.
         11    1    3    3    0    0  0.31004902664E+01 -0.21715972312E+02 -0.15350446978E+02  0.26773731829E+02  0.51100000000E-03 0. -1.
        -11    1    3    3    0    0  0.13533796286E+02 -0.66888524084E+01 -0.70569507411E+01  0.16664481465E+02  0.51100000000E-03 0.  1.
        -12    1    3    3    0    0 -0.21449287021E+01 -0.50781013294E+01  0.44597612378E+01  0.70906489511E+01  0.00000000000E+00 0.  1.
</event>
<event>
 7    1  0.8986500E-014  0.5052886E+02  0.7816164E-02  0.1300439E+00
        -11   -1    0    0    0    0  0.00000000000E+00  0.00000000000E+00  0.45593999997E+02  0.45594000000E+02  0.51100000000E-03 0. -1.
         11   -1    0    0    0    0 -0.00000000000E+00 -0.00000000000E+00 -0.45593999997E+02  0.45594000000E+02  0.51100000000E-03 0.  1.
    9900012    2    1    2    0    0 -0.12638883639E+02  0.23646276207E+02 -0.30565959021E+02  0.50528860696E+02  0.30000002570E+02 0.  0.
         12    1    1    2    0    0  0.12638883639E+02 -0.23646276207E+02  0.30565959021E+02  0.40659139304E+02  0.00000000000E+00 0. -1.
         11    1    3    3    0    0 -0.90415264410E+01  0.12065824636E+02 -0.26708528282E+02  0.30670487570E+02  0.51100000000E-03 0. -1.
        -11    1    3    3    0    0 -0.40982809505E+01  0.26842573207E+01 -0.85002902206E+01  0.98110182045E+01  0.51100000000E-03 0.  1.
         12    1    3    3    0    0  0.50092375208E+00  0.88961942500E+01  0.46428594817E+01  0.10047354921E+02  0.00000000000E+00 0. -1.
</event>
<event>
 7    1  0.8986500E-014  0.5052885E+02  0.7816164E-02  0.1300439E+00
        -11   -1    0    0    0    0  0.00000000000E+00  0.00000000000E+00  0.45593999997E+02  0.45594000000E+02  0.51100000000E-03 0.  1.
         11   -1    0    0    0    0 -0.00000000000E+00 -0.00000000000E+00 -0.45593999997E+02  0.45594000000E+02  0.51100000000E-03 0. -1.
    9900012    2    1    2    0    0  0.30686864306E+01 -0.26107222781E+02  0.31018741082E+02  0.50528853231E+02  0.29999979880E+02 0.  0.
        -12    1    1    2    0    0 -0.30686864306E+01  0.26107222781E+02 -0.31018741082E+02  0.40659146769E+02  0.00000000000E+00 0.  1.
         11    1    3    3    0    0  0.20707849852E+01  0.10335840603E+00  0.59857619561E+01  0.63346807237E+01  0.51100000000E-03 0. -1.
        -11    1    3    3    0    0  0.14490108426E+01 -0.42452594202E+01  0.21474374148E+02  0.21937880602E+02  0.51100000000E-03 0.  1.
         12    1    3    3    0    0 -0.45110939712E+00 -0.21965321766E+02  0.35586049771E+01  0.22256291905E+02  0.00000000000E+00 0. -1.
</event>
<event>
 7    1  0.8986500E-014  0.5052885E+02  0.7816164E-02  0.1300439E+00
        -11   -1    0    0    0    0  0.00000000000E+00  0.00000000000E+00  0.45593999997E+02  0.45594000000E+02  0.51100000000E-03 0. -1.
         11   -1    0    0    0    0 -0.00000000000E+00 -0.00000000000E+00 -0.45593999997E+02  0.45594000000E+02  0.51100000000E-03 0.  1.
    9900012    2    1    2    0    0 -0.23283542103E+02 -0.24294941473E+02 -0.22821012494E+02  0.50528854346E+02  0.29999983270E+02 0.  0.
         12    1    1    2    0    0  0.23283542103E+02  0.24294941473E+02  0.22821012494E+02  0.40659145654E+02  0.00000000000E+00 0. -1.
         11    1    3    3    0    0 -0.71597520463E+01 -0.12592739279E+01  0.50404185748E+01  0.88461087412E+01  0.51100000000E-03 0. -1.
        -11    1    3    3    0    0 -0.58704053188E+01 -0.11073213299E+00 -0.47296919021E+01  0.75394897680E+01  0.51100000000E-03 0.  1.
        -12    1    3    3    0    0 -0.10253384738E+02 -0.22924935412E+02 -0.23131739167E+02  0.34143255837E+02  0.00000000000E+00 0.  1.
</event>
<event>
 7    1  0.8986500E-014  0.5052886E+02  0.7816164E-02  0.1300439E+00
        -11   -1    0    0    0    0  0.00000000000E+00  0.00000000000E+00  0.45593999997E+02  0.45594000000E+02  0.51100000000E-03 0. -1.
         11   -1    0    0    0    0 -0.00000000000E+00 -0.00000000000E+00 -0.45593999997E+02  0.45594000000E+02  0.51100000000E-03 0.  1.
    9900012    2    1    2    0    0  0.99617260250E+01  0.26102623789E+02 -0.29539514872E+02  0.50528857203E+02  0.29999991955E+02 0.  0.
         12    1    1    2    0    0 -0.99617260250E+01 -0.26102623789E+02  0.29539514872E+02  0.40659142797E+02  0.00000000000E+00 0. -1.
         11    1    3    3    0    0  0.29936999807E+01  0.19604821636E+02 -0.74082815029E+01  0.21170590592E+02  0.51100000000E-03 0. -1.
        -11    1    3    3    0    0  0.44281178969E+01  0.95572338557E+01 -0.47975461213E+01  0.11574342147E+02  0.51100000000E-03 0.  1.
        -12    1    3    3    0    0  0.25399081475E+01 -0.30594317020E+01 -0.17333687248E+02  0.17783924464E+02  0.00000000000E+00 0.  1.
</event>
<event>
 7    1  0.8986500E-014  0.5052888E+02  0.7816164E-02  0.1300439E+00
        -11   -1    0    0    0    0  0.00000000000E+00  0.00000000000E+00  0.45593999997E+02  0.45594000000E+02  0.51100000000E-03 0. -1.
         11   -1    0    0    0    0 -0.00000000000E+00 -0.00000000000E+00 -0.45593999997E+02  0.45594000000E+02  0.51100000000E-03 0.  1.
    9900012    2    1    2    0    0 -0.78495786890E+01  0.26129662264E+02 -0.30146131987E+02  0.50528875447E+02  0.30000047408E+02 0.  0.
         12    1    1    2    0    0  0.78495786890E+01 -0.26129662264E+02  0.30146131987E+02  0.40659124553E+02  0.00000000000E+00 0. -1.
         11    1    3    3    0    0  0.26382015497E+01  0.66539088117E+01 -0.14863366825E+01  0.73105271278E+01  0.51100000000E-03 0. -1.
        -11    1    3    3    0    0 -0.52149457249E+01  0.82128637489E+01  0.21761934432E+01  0.99690826075E+01  0.51100000000E-03 0.  1.
        -12    1    3    3    0    0 -0.52728345138E+01  0.11262889703E+02 -0.30835988748E+02  0.33249265712E+02  0.00000000000E+00 0.  1.
</event>
<event>
 7    1  0.8986500E-014  0.5052887E+02  0.7816164E-02  0.1300439E+00
        -11   -1    0    0    0    0  0.00000000000E+00  0.00000000000E+00  0.45593999997E+02  0.45594000000E+02  0.51100000000E-03 0. -1.
         11   -1    0    0    0    0 -0.00000000000E+00 -0.00000000000E+00 -0.45593999997E+02  0.45594000000E+02  0.51100000000E-03 0.  1.
    9900012    2    1    2    0    0 -0.33011752043E+02 -0.17015864482E+02  0.16548408032E+02  0.50528865413E+02  0.30000016909E+02 0.  0.
        -12    1    1    2    0    0  0.33011752043E+02  0.17015864482E+02 -0.16548408032E+02  0.40659134587E+02  0.00000000000E+00 0.  1.
         11    1    3    3    0    0 -0.82957317582E+00 -0.80265693493E+01  0.47565658268E+01  0.93669058872E+01  0.51100000000E-03 0. -1.
        -11    1    3    3    0    0 -0.29804916273E+01 -0.62216480575E+01  0.94991651398E+01  0.11739947764E+02  0.51100000000E-03 0.  1.
        -12    1    3    3    0    0 -0.29201687239E+02 -0.27676470749E+01  0.22926770656E+01  0.29422011761E+02  0.00000000000E+00 0.  1.
</event>
<event>
 7    1  0.8986500E-014  0.5052884E+02  0.7816164E-02  0.1300439E+00
        -11   -1    0    0    0    0  0.00000000000E+00  0.00000000000E+00  0.45593999997E+02  0.45594000000E+02  0.51100000000E-03 0. -1.
         11   -1    0    0    0    0 -0.00000000000E+00 -0.00000000000E+00 -0.45593999997E+02  0.45594000000E+02  0.51100000000E-03 0.  1.
    9900012    2    1    2    0    0  0.34414041542E+01 -0.10540175738E+00  0.40513120066E+02  0.50528840274E+02  0.29999940498E+02 0.  0.
        -12    1    1    2    0    0 -0.34414041542E+01  0.10540175738E+00 -0.40513120066E+02  0.40659159726E+02  0.00000000000E+00 0.  1.
         11    1    3    3    0    0 -0.88957960029E+00 -0.49166845338E+01  0.41322039761E+01  0.64838452042E+01  0.51100000000E-03 0.  1.
        -11    1    3    3    0    0 -0.52484239240E+01  0.93401557172E+01  0.29564313929E+02  0.31445717051E+02  0.51100000000E-03 0. -1.
         12    1    3    3    0    0  0.95794076785E+01 -0.45288729407E+01  0.68166021616E+01  0.12599278020E+02  0.00000000000E+00 0. -1.
</event>
<event>
 7    1  0.8986500E-014  0.5052885E+02  0.7816164E-02  0.1300439E+00
        -11   -1    0    0    0    0  0.00000000000E+00  0.00000000000E+00  0.45593999997E+02  0.45594000000E+02  0.51100000000E-03 0. -1.
         11   -1    0    0    0    0 -0.00000000000E+00 -0.00000000000E+00 -0.45593999997E+02  0.45594000000E+02  0.51100000000E-03 0.  1.
    9900012    2    1    2    0    0  0.25410158243E+02 -0.27168160911E+02 -0.16412839828E+02  0.50528850717E+02  0.29999972239E+02 0.  0.
         12    1    1    2    0    0 -0.25410158243E+02  0.27168160911E+02  0.16412839828E+02  0.40659149283E+02  0.00000000000E+00 0. -1.
         11    1    3    3    0    0 -0.93882080413E+00 -0.13275303448E+02 -0.10252872118E+02  0.16799894436E+02  0.51100000000E-03 0.  1.
        -11    1    3    3    0    0  0.54101980188E+01 -0.18052360082E+01  0.45399671612E+01  0.72897477140E+01  0.51100000000E-03 0. -1.
        -12    1    3    3    0    0  0.20938781029E+02 -0.12087621455E+02 -0.10699934871E+02  0.26439208567E+02  0.00000000000E+00 0.  1.
</event>
<event>
 7    1  0.8986500E-014  0.5052887E+02  0.7816164E-02  0.1300439E+00
        -11   -1    0    0    0    0  0.00000000000E+00  0.00000000000E+00  0.45593999997E+02  0.45594000000E+02  0.51100000000E-03 0. -1.
         11   -1    0    0    0    0 -0.00000000000E+00 -0.00000000000E+00 -0.45593999997E+02  0.45594000000E+02  0.51100000000E-03 0.  1.
    9900012    2    1    2    0    0  0.65481312291E+01 -0.21315911906E+02 -0.33998808768E+02  0.50528866701E+02  0.30000020825E+02 0.  0.
         12    1    1    2    0    0 -0.65481312291E+01  0.21315911906E+02  0.33998808768E+02  0.40659133299E+02  0.00000000000E+00 0. -1.
         11    1    3    3    0    0 -0.69229836659E+01 -0.10408940567E+02 -0.68768571606E+01  0.14267617574E+02  0.51100000000E-03 0. -1.
        -11    1    3    3    0    0 -0.34570579313E+01 -0.11352107190E+01 -0.85795267843E+01  0.93192399379E+01  0.51100000000E-03 0.  1.
         12    1    3    3    0    0  0.16928172826E+02 -0.97717606194E+01 -0.18542424823E+02  0.26942009189E+02  0.00000000000E+00 0. -1.
</event>
<event>
 7    1  0.8986500E-014  0.5052895E+02  0.7816164E-02  0.1300438E+00
        -11   -1    0    0    0    0  0.00000000000E+00  0.00000000000E+00  0.45593999997E+02  0.45594000000E+02  0.51100000000E-03 0. -1.
         11   -1    0    0    0    0 -0.00000000000E+00 -0.00000000000E+00 -0.45593999997E+02  0.45594000000E+02  0.51100000000E-03 0.  1.
    9900012    2    1    2    0    0 -0.78542678000E+01  0.99729658507E+01 -0.38626534543E+02  0.50528945149E+02  0.30000259275E+02 0.  0.
         12    1    1    2    0    0  0.78542678000E+01 -0.99729658507E+01  0.38626534543E+02  0.40659054851E+02  0.00000000000E+00 0. -1.
         11    1    3    3    0    0 -0.12513900796E+02  0.21604173352E+01 -0.10925514618E+02  0.16752074084E+02  0.51100000000E-03 0. -1.
        -11    1    3    3    0    0  0.23449712680E+01 -0.43134279375E+01 -0.16116243344E+02  0.16847487961E+02  0.51100000000E-03 0.  1.
         12    1    3    3    0    0  0.23146617276E+01  0.12125976453E+02 -0.11584776582E+02  0.16929383105E+02  0.00000000000E+00 0. -1.
</event>
<event>
 7    1  0.8986500E-014  0.5052887E+02  0.7816164E-02  0.1300439E+00
        -11   -1    0    0    0    0  0.00000000000E+00  0.00000000000E+00  0.45593999997E+02  0.45594000000E+02  0.51100000000E-03 0. -1.
         11   -1    0    0    0    0 -0.00000000000E+00 -0.00000000000E+00 -0.45593999997E+02  0.45594000000E+02  0.51100000000E-03 0.  1.
    9900012    2    1    2    0    0  0.31302863260E+02 -0.94755888784E+01  0.24155926136E+02  0.50528870639E+02  0.30000032796E+02 0.  0.
        -12    1    1    2    0    0 -0.31302863260E+02  0.94755888784E+01 -0.24155926136E+02  0.40659129361E+02  0.00000000000E+00 0.  1.
         11    1    3    3    0    0 -0.14929855493E+01 -0.46928641277E+01  0.52374637596E+01  0.71890894045E+01  0.51100000000E-03 0.  1.
        -11    1    3    3    0    0  0.22359467023E+02 -0.12834676336E+02  0.11710738237E+02  0.28316356978E+02  0.51100000000E-03 0. -1.
        -12    1    3    3    0    0  0.10436381787E+02  0.80519515855E+01  0.72077241392E+01  0.15023424257E+02  0.00000000000E+00 0.  1.
</event>
<event>
 7    1  0.8986500E-014  0.5052886E+02  0.7816164E-02  0.1300439E+00
        -11   -1    0    0    0    0  0.00000000000E+00  0.00000000000E+00  0.45593999997E+02  0.45594000000E+02  0.51100000000E-03 0. -1.
         11   -1    0    0    0    0 -0.00000000000E+00 -0.00000000000E+00 -0.45593999997E+02  0.45594000000E+02  0.51100000000E-03 0.  1.
    9900012    2    1    2    0    0 -0.21121742550E+02 -0.44274855650E+01  0.34459183040E+02  0.50528856717E+02  0.29999990476E+02 0.  0.
        -12    1    1    2    0    0  0.21121742550E+02  0.44274855650E+01 -0.34459183040E+02  0.40659143283E+02  0.00000000000E+00 0.  1.
         11    1    3    3    0    0 -0.73293203470E+01  0.10057383021E+01  0.25140948661E+02  0.26206826327E+02  0.51100000000E-03 0. -1.
        -11    1    3    3    0    0 -0.69702049427E+01  0.46301916652E+01  0.88141461064E+01  0.12153666264E+02  0.51100000000E-03 0.  1.
         12    1    3    3    0    0 -0.68222172603E+01 -0.10063415532E+02  0.50408827213E+00  0.12168364126E+02  0.00000000000E+00 0. -1.
</event>
<event>
 7    1  0.1288370E-013  0.5052886E+02  0.7816164E-02  0.1300439E+00
        -11   -1    0    0    0    0  0.00000000000E+00  0.00000000000E+00  0.45593999997E+02  0.45594000000E+02  0.51100000000E-03 0. -1.
         11   -1    0    0    0    0 -0.00000000000E+00 -0.00000000000E+00 -0.45593999997E+02  0.45594000000E+02  0.51100000000E-03 0.  1.
    9900012    2    1    2    0    0  0.43071154159E+01 -0.58319458429E+01  0.40007537818E+02  0.50528856898E+02  0.29999991026E+02 0.  0.
        -12    1    1    2    0    0 -0.43071154159E+01  0.58319458429E+01 -0.40007537818E+02  0.40659143102E+02  0.00000000000E+00 0.  1.
         11    1    3    3    0    0 -0.30724895705E+01  0.12515455858E+01 -0.12864503960E+01  0.35583020384E+01  0.51100000000E-03 0. -1.
        -11    1    3    3    0    0 -0.27714510533E+01 -0.30929608538E+01 -0.10953440621E+00  0.41544368850E+01  0.51100000000E-03 0.  1.
         12    1    3    3    0    0  0.10151056040E+02 -0.39905305748E+01  0.41403522621E+02  0.42816117974E+02  0.00000000000E+00 0. -1.
</event>
<event>
 7    1  0.8986500E-014  0.5052886E+02  0.7816164E-02  0.1300439E+00
        -11   -1    0    0    0    0  0.00000000000E+00  0.00000000000E+00  0.45593999997E+02  0.45594000000E+02  0.51100000000E-03 0. -1.
         11   -1    0    0    0    0 -0.00000000000E+00 -0.00000000000E+00 -0.45593999997E+02  0.45594000000E+02  0.51100000000E-03 0.  1.
    9900012    2    1    2    0    0 -0.87698520578E+01 -0.24469786342E+02 -0.31264757622E+02  0.50528858127E+02  0.29999994762E+02 0.  0.
         12    1    1    2    0    0  0.87698520578E+01  0.24469786342E+02  0.31264757622E+02  0.40659141873E+02  0.00000000000E+00 0. -1.
         11    1    3    3    0    0  0.42347581058E+01  0.40874004956E+01  0.37992618734E+00  0.58978269893E+01  0.51100000000E-03 0. -1.
        -11    1    3    3    0    0 -0.41820664063E+01 -0.12046503409E+02 -0.12641400767E+02  0.17955860810E+02  0.51100000000E-03 0.  1.
        -12    1    3    3    0    0 -0.88225437573E+01 -0.16510683428E+02 -0.19003283042E+02  0.26675170327E+02  0.00000000000E+00 0.  1.
</event>
<event>
 7    1  0.8986500E-014  0.5052886E+02  0.7816164E-02  0.1300439E+00
        -11   -1    0    0    0    0  0.00000000000E+00  0.00000000000E+00  0.45593999997E+02  0.45594000000E+02  0.51100000000E-03 0. -1.
         11   -1    0    0    0    0 -0.00000000000E+00 -0.00000000000E+00 -0.45593999997E+02  0.45594000000E+02  0.51100000000E-03 0.  1.
    9900012    2    1    2    0    0  0.14242967701E+01  0.13100963926E+02  0.38464293343E+02  0.50528859091E+02  0.29999997693E+02 0.  0.
        -12    1    1    2    0    0 -0.14242967701E+01 -0.13100963926E+02 -0.38464293343E+02  0.40659140909E+02  0.00000000000E+00 0.  1.
         11    1    3    3    0    0 -0.46457619333E+01 -0.53785724972E+01  0.30221995967E+01  0.77230717148E+01  0.51100000000E-03 0. -1.
        -11    1    3    3    0    0 -0.15328080628E+01 -0.76447128436E+00 -0.60102847460E-01  0.17139222606E+01  0.51100000000E-03 0.  1.
         12    1    3    3    0    0  0.76028667662E+01  0.19244007707E+02  0.35502196594E+02  0.41091865116E+02  0.00000000000E+00 0. -1.
</event>
<event>
 7    1  0.8986500E-014  0.5052886E+02  0.7816164E-02  0.1300439E+00
        -11   -1    0    0    0    0  0.00000000000E+00  0.00000000000E+00  0.45593999997E+02  0.45594000000E+02  0.51100000000E-03 0. -1.
         11   -1    0    0    0    0 -0.00000000000E+00 -0.00000000000E+00 -0.45593999997E+02  0.45594000000E+02  0.51100000000E-03 0.  1.
    9900012    2    1    2    0    0  0.30936578480E+02  0.19358516443E+01  0.26312474012E+02  0.50528859597E+02  0.29999999232E+02 0.  0.
        -12    1    1    2    0    0 -0.30936578480E+02 -0.19358516443E+01 -0.26312474012E+02  0.40659140403E+02  0.00000000000E+00 0.  1.
         11    1    3    3    0    0  0.14453896293E+02 -0.52148374023E+01 -0.14397624805E+01  0.15433164401E+02  0.51100000000E-03 0. -1.
        -11    1    3    3    0    0  0.33445040295E+01  0.35950614081E+01  0.90151768173E+00  0.49922848600E+01  0.51100000000E-03 0.  1.
        -12    1    3    3    0    0  0.13138178158E+02  0.35556276385E+01  0.26850718811E+02  0.30103410336E+02  0.00000000000E+00 0.  1.
</event>
<event>
 7    1  0.8986500E-014  0.5052887E+02  0.7816164E-02  0.1300439E+00
        -11   -1    0    0    0    0  0.00000000000E+00  0.00000000000E+00  0.45593999997E+02  0.45594000000E+02  0.51100000000E-03 0. -1.
         11   -1    0    0    0    0 -0.00000000000E+00 -0.00000000000E+00 -0.45593999997E+02  0.45594000000E+02  0.51100000000E-03 0.  1.
    9900012    2    1    2    0    0 -0.31939646741E+02 -0.17631796418E+02  0.17948361531E+02  0.50528868670E+02  0.30000026809E+02 0.  0.
        -12    1    1    2    0    0  0.31939646741E+02  0.17631796418E+02 -0.17948361531E+02  0.40659131330E+02  0.00000000000E+00 0.  1.
         11    1    3    3    0    0 -0.15824748413E+02 -0.75644353504E+01  0.58793152439E+01  0.18498910576E+02  0.51100000000E-03 0. -1.
        -11    1    3    3    0    0 -0.16042122582E+02  0.29988033421E+01  0.44975813471E+01  0.16928400889E+02  0.51100000000E-03 0.  1.
        -12    1    3    3    0    0 -0.72775746797E-01 -0.13066164410E+02  0.75714649396E+01  0.15101557205E+02  0.00000000000E+00 0.  1.
</event>
<event>
 7    1  0.8986500E-014  0.5052886E+02  0.7816164E-02  0.1300439E+00
        -11   -1    0    0    0    0  0.00000000000E+00  0.00000000000E+00  0.45593999997E+02  0.45594000000E+02  0.51100000000E-03 0. -1.
         11   -1    0    0    0    0 -0.00000000000E+00 -0.00000000000E+00 -0.45593999997E+02  0.45594000000E+02  0.51100000000E-03 0.  1.
    9900012    2    1    2    0    0  0.26043164062E+02 -0.76190564369E+01 -0.30279847703E+02  0.50528860901E+02  0.30000003194E+02 0.  0.
         12    1    1    2    0    0 -0.26043164062E+02  0.76190564369E+01  0.30279847703E+02  0.40659139099E+02  0.00000000000E+00 0. -1.
         11    1    3    3    0    0  0.10810303335E+02 -0.10864833065E+02 -0.13070993617E+02  0.20143438885E+02  0.51100000000E-03 0. -1.
        -11    1    3    3    0    0  0.53059520859E+01  0.86745682530E+01 -0.16065796131E+02  0.19013444388E+02  0.51100000000E-03 0.  1.
         12    1    3    3    0    0  0.99269086416E+01 -0.54287916252E+01 -0.11430579558E+01  0.11371977628E+02  0.00000000000E+00 0. -1.
</event>
<event>
 7    1  0.8986500E-014  0.5052888E+02  0.7816164E-02  0.1300439E+00
        -11   -1    0    0    0    0  0.00000000000E+00  0.00000000000E+00  0.45593999997E+02  0.45594000000E+02  0.51100000000E-03 0. -1.
         11   -1    0    0    0    0 -0.00000000000E+00 -0.00000000000E+00 -0.45593999997E+02  0.45594000000E+02  0.51100000000E-03 0.  1.
    9900012    2    1    2    0    0  0.33903364666E+02  0.12876574830E+02 -0.18382593565E+02  0.50528879729E+02  0.30000060426E+02 0.  0.
         12    1    1    2    0    0 -0.33903364666E+02 -0.12876574830E+02  0.18382593565E+02  0.40659120271E+02  0.00000000000E+00 0. -1.
         11    1    3    3    0    0  0.11117617613E+02  0.80224886527E+01 -0.25812182045E+01  0.13950786116E+02  0.51100000000E-03 0. -1.
        -11    1    3    3    0    0  0.24243829173E+02  0.53116956308E+01 -0.45612380068E+01  0.25234544891E+02  0.51100000000E-03 0.  1.
         12    1    3    3    0    0 -0.14580821206E+01 -0.45760945395E+00 -0.11240137354E+02  0.11343548722E+02  0.00000000000E+00 0. -1.
</event>
<event>
 7    1  0.8986500E-014  0.5052886E+02  0.7816164E-02  0.1300439E+00
        -11   -1    0    0    0    0  0.00000000000E+00  0.00000000000E+00  0.45593999997E+02  0.45594000000E+02  0.51100000000E-03 0. -1.
         11   -1    0    0    0    0 -0.00000000000E+00 -0.00000000000E+00 -0.45593999997E+02  0.45594000000E+02  0.51100000000E-03 0.  1.
    9900012    2    1    2    0    0  0.18642349708E+02  0.10562124479E+02 -0.34555315796E+02  0.50528861717E+02  0.30000005676E+02 0.  0.
         12    1    1    2    0    0 -0.18642349708E+02 -0.10562124479E+02  0.34555315796E+02  0.40659138283E+02  0.00000000000E+00 0. -1.
         11    1    3    3    0    0  0.94257824568E+01  0.10017793550E+02 -0.30281763293E+01  0.14084438742E+02  0.51100000000E-03 0. -1.
        -11    1    3    3    0    0  0.26100290613E+01  0.34441966128E+01 -0.23122748030E+00  0.43276100122E+01  0.51100000000E-03 0.  1.
        -12    1    3    3    0    0  0.66065381898E+01 -0.28998656839E+01 -0.31295911986E+02  0.32116812963E+02  0.00000000000E+00 0.  1.
</event>
<event>
 7    1  0.8986500E-014  0.5052886E+02  0.7816164E-02  0.1300439E+00
        -11   -1    0    0    0    0  0.00000000000E+00  0.00000000000E+00  0.45593999997E+02  0.45594000000E+02  0.51100000000E-03 0. -1.
         11   -1    0    0    0    0 -0.00000000000E+00 -0.00000000000E+00 -0.45593999997E+02  0.45594000000E+02  0.51100000000E-03 0.  1.
    9900012    2    1    2    0    0  0.31021606183E+02  0.14359003923E+02  0.22014654398E+02  0.50528855246E+02  0.29999986007E+02 0.  0.
        -12    1    1    2    0    0 -0.31021606183E+02 -0.14359003923E+02 -0.22014654398E+02  0.40659144754E+02  0.00000000000E+00 0.  1.
         11    1    3    3    0    0  0.13849087012E+02  0.15018053591E+02  0.48901944931E+01  0.21006026448E+02  0.51100000000E-03 0. -1.
        -11    1    3    3    0    0  0.13917703134E+01  0.65519835611E+01  0.48548275408E+01  0.82725367272E+01  0.51100000000E-03 0.  1.
         12    1    3    3    0    0  0.15780748858E+02 -0.72110332291E+01  0.12269632364E+02  0.21250292071E+02  0.00000000000E+00 0. -1.
</event>
<event>
 7    1  0.8986500E-014  0.5052885E+02  0.7816164E-02  0.1300439E+00
        -11   -1    0    0    0    0  0.00000000000E+00  0.00000000000E+00  0.45593999997E+02  0.45594000000E+02  0.51100000000E-03 0. -1.
         11   -1    0    0    0    0 -0.00000000000E+00 -0.00000000000E+00 -0.45593999997E+02  0.45594000000E+02  0.51100000000E-03 0.  1.
    9900012    2    1    2    0    0  0.32456531142E+02  0.20291316543E+02 -0.13711393712E+02  0.50528852710E+02  0.29999978299E+02 0.  0.
         12    1    1    2    0    0 -0.32456531142E+02 -0.20291316543E+02  0.13711393712E+02  0.40659147290E+02  0.00000000000E+00 0. -1.
         11    1    3    3    0    0  0.41498505010E+01 -0.19878226114E+00 -0.41887829275E+01  0.58997183190E+01  0.51100000000E-03 0. -1.
        -11    1    3    3    0    0  0.58429304254E+01  0.58456869940E+00 -0.13145195365E+02  0.14397142702E+02  0.51100000000E-03 0.  1.
        -12    1    3    3    0    0  0.22463750215E+02  0.19905530105E+02  0.36225845812E+01  0.30231991690E+02  0.00000000000E+00 0.  1.
</event>
<event>
 7    1  0.8986500E-014  0.5052886E+02  0.7816164E-02  0.1300439E+00
        -11   -1    0    0    0    0  0.00000000000E+00  0.00000000000E+00  0.45593999997E+02  0.45594000000E+02  0.51100000000E-03 0.  1.
         11   -1    0    0    0    0 -0.00000000000E+00 -0.00000000000E+00 -0.45593999997E+02  0.45594000000E+02  0.51100000000E-03 0. -1.
    9900012    2    1    2    0    0  0.65142384233E+01  0.38689634329E+02 -0.10669698993E+02  0.50528861011E+02  0.30000003529E+02 0.  0.
         12    1    1    2    0    0 -0.65142384233E+01 -0.38689634329E+02  0.10669698993E+02  0.40659138989E+02  0.00000000000E+00 0. -1.
         11    1    3    3    0    0  0.12281890819E+01  0.18899969302E+02  0.54873202145E+01  0.19718721344E+02  0.51100000000E-03 0. -1.
        -11    1    3    3    0    0  0.27481082837E+00  0.10911302604E+02  0.88590455103E+00  0.10950656265E+02  0.51100000000E-03 0.  1.
        -12    1    3    3    0    0  0.50112385131E+01  0.88783624230E+01 -0.17042923759E+02  0.19859483402E+02  0.00000000000E+00 0.  1.
</event>
<event>
 7    1  0.8986500E-014  0.5052878E+02  0.7816164E-02  0.1300439E+00
        -11   -1    0    0    0    0  0.00000000000E+00  0.00000000000E+00  0.45593999997E+02  0.45594000000E+02  0.51100000000E-03 0.  1.
         11   -1    0    0    0    0 -0.00000000000E+00 -0.00000000000E+00 -0.45593999997E+02  0.45594000000E+02  0.51100000000E-03 0. -1.
    9900012    2    1    2    0    0  0.36681878189E+02 -0.62895815313E+01 -0.16372329833E+02  0.50528779552E+02  0.29999755925E+02 0.  0.
         12    1    1    2    0    0 -0.36681878189E+02  0.62895815313E+01  0.16372329833E+02  0.40659220448E+02  0.00000000000E+00 0. -1.
         11    1    3    3    0    0  0.22285343249E+02 -0.69697023615E+01 -0.90900580274E+01  0.25056784110E+02  0.51100000000E-03 0. -1.
        -11    1    3    3    0    0  0.91861728904E+01 -0.73126536857E+01 -0.10138145411E+02  0.15512661568E+02  0.51100000000E-03 0.  1.
        -12    1    3    3    0    0  0.52103620491E+01  0.79927745160E+01  0.28558736057E+01  0.99593338732E+01  0.00000000000E+00 0.  1.
</event>
<event>
 7    1  0.8986500E-014  0.5052886E+02  0.7816164E-02  0.1300439E+00
        -11   -1    0    0    0    0  0.00000000000E+00  0.00000000000E+00  0.45593999997E+02  0.45594000000E+02  0.51100000000E-03 0. -1.
         11   -1    0    0    0    0 -0.00000000000E+00 -0.00000000000E+00 -0.45593999997E+02  0.45594000000E+02  0.51100000000E-03 0.  1.
    9900012    2    1    2    0    0 -0.39296055510E+02  0.60308711865E+01  0.85214035413E+01  0.50528859524E+02  0.29999999010E+02 0.  0.
        -12    1    1    2    0    0  0.39296055510E+02 -0.60308711865E+01 -0.85214035413E+01  0.40659140476E+02  0.00000000000E+00 0.  1.
         11    1    3    3    0    0 -0.15914120788E+02 -0.73487313122E+01 -0.53623208624E+01  0.18330782243E+02  0.51100000000E-03 0.  1.
        -11    1    3    3    0    0 -0.13973291010E+02  0.70602598648E+01  0.20113219825E+01  0.15784345010E+02  0.51100000000E-03 0. -1.
        -12    1    3    3    0    0 -0.94086437122E+01  0.63193426339E+01  0.11872402421E+02  0.16413732271E+02  0.00000000000E+00 0.  1.
</event>
<event>
 7    1  0.8986500E-014  0.5052886E+02  0.7816164E-02  0.1300439E+00
        -11   -1    0    0    0    0  0.00000000000E+00  0.00000000000E+00  0.45593999997E+02  0.45594000000E+02  0.51100000000E-03 0. -1.
         11   -1    0    0    0    0 -0.00000000000E+00 -0.00000000000E+00 -0.45593999997E+02  0.45594000000E+02  0.51100000000E-03 0.  1.
    9900012    2    1    2    0    0 -0.22675473691E+02 -0.82010586009E+01 -0.32737305955E+02  0.50528859940E+02  0.30000000273E+02 0.  0.
         12    1    1    2    0    0  0.22675473691E+02  0.82010586009E+01  0.32737305955E+02  0.40659140060E+02  0.00000000000E+00 0. -1.
         11    1    3    3    0    0  0.13113860302E+01  0.11564520279E+01 -0.55216672391E+01  0.57918843198E+01  0.51100000000E-03 0. -1.
        -11    1    3    3    0    0 -0.15568805111E+02  0.35236879910E+01 -0.24302003236E+02  0.29075615749E+02  0.51100000000E-03 0.  1.
        -12    1    3    3    0    0 -0.84180546096E+01 -0.12881198620E+02 -0.29136354795E+01  0.15661359871E+02  0.00000000000E+00 0.  1.
</event>
<event>
 7    1  0.8986500E-014  0.5052887E+02  0.7816164E-02  0.1300439E+00
        -11   -1    0    0    0    0  0.00000000000E+00  0.00000000000E+00  0.45593999997E+02  0.45594000000E+02  0.51100000000E-03 0. -1.
         11   -1    0    0    0    0 -0.00000000000E+00 -0.00000000000E+00 -0.45593999997E+02  0.45594000000E+02  0.51100000000E-03 0.  1.
    9900012    2    1    2    0    0  0.92352836645E+00  0.42936743105E+01 -0.40421238337E+02  0.50528867540E+02  0.30000023375E+02 0.  0.
         12    1    1    2    0    0 -0.92352836645E+00 -0.42936743105E+01  0.40421238337E+02  0.40659132460E+02  0.00000000000E+00 0. -1.
         11    1    3    3    0    0  0.88568970154E+01  0.53664098280E+01 -0.24696882728E+02  0.26780197832E+02  0.51100000000E-03 0.  1.
        -11    1    3    3    0    0  0.47735594521E+00  0.64736482852E+01 -0.54378999937E+01  0.84679836692E+01  0.51100000000E-03 0. -1.
         12    1    3    3    0    0 -0.84107245942E+01 -0.75463838028E+01 -0.10286455615E+02  0.15280686039E+02  0.00000000000E+00 0. -1.
</event>
<event>
 7    1  0.8986500E-014  0.5052886E+02  0.7816164E-02  0.1300439E+00
        -11   -1    0    0    0    0  0.00000000000E+00  0.00000000000E+00  0.45593999997E+02  0.45594000000E+02  0.51100000000E-03 0. -1.
         11   -1    0    0    0    0 -0.00000000000E+00 -0.00000000000E+00 -0.45593999997E+02  0.45594000000E+02  0.51100000000E-03 0.  1.
    9900012    2    1    2    0    0 -0.68199900824E+01  0.16330729286E+02  0.36605468935E+02  0.50528864007E+02  0.30000012635E+02 0.  0.
        -12    1    1    2    0    0  0.68199900824E+01 -0.16330729286E+02 -0.36605468935E+02  0.40659135993E+02  0.00000000000E+00 0.  1.
         11    1    3    3    0    0 -0.94946810468E+01 -0.23877700291E+01  0.24468966569E+02  0.26354899717E+02  0.51100000000E-03 0. -1.
        -11    1    3    3    0    0  0.22165030407E+01  0.79930384175E+01  0.10394358993E+02  0.13298279889E+02  0.51100000000E-03 0.  1.
        -12    1    3    3    0    0  0.45818792368E+00  0.10725460898E+02  0.17421433734E+01  0.10875684401E+02  0.00000000000E+00 0.  1.
</event>
<event>
 7    1  0.8986500E-014  0.5052887E+02  0.7816164E-02  0.1300439E+00
        -11   -1    0    0    0    0  0.00000000000E+00  0.00000000000E+00  0.45593999997E+02  0.45594000000E+02  0.51100000000E-03 0. -1.
         11   -1    0    0    0    0 -0.00000000000E+00 -0.00000000000E+00 -0.45593999997E+02  0.45594000000E+02  0.51100000000E-03 0.  1.
    9900012    2    1    2    0    0 -0.17860613665E+02 -0.32984057037E+02  0.15691253224E+02  0.50528868592E+02  0.30000026573E+02 0.  0.
        -12    1    1    2    0    0  0.17860613665E+02  0.32984057037E+02 -0.15691253224E+02  0.40659131408E+02  0.00000000000E+00 0.  1.
         11    1    3    3    0    0 -0.37476080276E+01 -0.37035330575E+01  0.39944612668E+01  0.66118412042E+01  0.51100000000E-03 0. -1.
        -11    1    3    3    0    0 -0.13916495361E+02 -0.77505313489E+01 -0.49727948233E+01  0.16687368514E+02  0.51100000000E-03 0.  1.
         12    1    3    3    0    0 -0.19651027638E+00 -0.21529992630E+02  0.16669586780E+02  0.27229658874E+02  0.00000000000E+00 0. -1.
</event>
<event>
 7    1  0.8986500E-014  0.5052887E+02  0.7816164E-02  0.1300439E+00
        -11   -1    0    0    0    0  0.00000000000E+00  0.00000000000E+00  0.45593999997E+02  0.45594000000E+02  0.51100000000E-03 0. -1.
         11   -1    0    0    0    0 -0.00000000000E+00 -0.00000000000E+00 -0.45593999997E+02  0.45594000000E+02  0.51100000000E-03 0.  1.
    9900012    2    1    2    0    0 -0.26131715516E+02 -0.24646785396E+02  0.19048213860E+02  0.50528867724E+02  0.30000023935E+02 0.  0.
        -12    1    1    2    0    0  0.26131715516E+02  0.24646785396E+02 -0.19048213860E+02  0.40659132276E+02  0.00000000000E+00 0.  1.
         11    1    3    3    0    0 -0.19709422184E+01 -0.10638279789E+01 -0.62153945921E+00  0.23243611504E+01  0.51100000000E-03 0. -1.
        -11    1    3    3    0    0 -0.13605846652E+02 -0.87209349588E+01 -0.55493996258E+01  0.17087118135E+02  0.51100000000E-03 0.  1.
         12    1    3    3    0    0 -0.10554926645E+02 -0.14862022458E+02  0.25219152945E+02  0.31117388439E+02  0.00000000000E+00 0. -1.
</event>
<event>
 7    1  0.8986500E-014  0.5052886E+02  0.7816164E-02  0.1300439E+00
        -11   -1    0    0    0    0  0.00000000000E+00  0.00000000000E+00  0.45593999997E+02  0.45594000000E+02  0.51100000000E-03 0. -1.
         11   -1    0    0    0    0 -0.00000000000E+00 -0.00000000000E+00 -0.45593999997E+02  0.45594000000E+02  0.51100000000E-03 0.  1.
    9900012    2    1    2    0    0  0.23528362559E+02 -0.17495735536E+02 -0.28168793978E+02  0.50528861287E+02  0.30000004369E+02 0.  0.
         12    1    1    2    0    0 -0.23528362559E+02  0.17495735536E+02  0.28168793978E+02  0.40659138713E+02  0.00000000000E+00 0. -1.
         11    1    3    3    0    0  0.32584026474E+00 -0.29347729088E+00  0.89374086394E+00  0.99552689134E+00  0.51100000000E-03 0. -1.
        -11    1    3    3    0    0  0.56363451765E+01 -0.21288168992E+02 -0.14688661812E+02  0.26470952232E+02  0.51100000000E-03 0.  1.
         12    1    3    3    0    0  0.17566177118E+02  0.40859107476E+01 -0.14373873030E+02  0.23062382164E+02  0.00000000000E+00 0. -1.
</event>
<event>
 7    1  0.8986500E-014  0.5052886E+02  0.7816164E-02  0.1300439E+00
        -11   -1    0    0    0    0  0.00000000000E+00  0.00000000000E+00  0.45593999997E+02  0.45594000000E+02  0.51100000000E-03 0. -1.
         11   -1    0    0    0    0 -0.00000000000E+00 -0.00000000000E+00 -0.45593999997E+02  0.45594000000E+02  0.51100000000E-03 0.  1.
    9900012    2    1    2    0    0  0.13324447757E+02 -0.19565266148E+02  0.33057907884E+02  0.50528858086E+02  0.29999994639E+02 0.  0.
        -12    1    1    2    0    0 -0.13324447757E+02  0.19565266148E+02 -0.33057907884E+02  0.40659141914E+02  0.00000000000E+00 0.  1.
         11    1    3    3    0    0 -0.38266070096E+01  0.20124245902E-01  0.17625103481E+01  0.42130474932E+01  0.51100000000E-03 0. -1.
        -11    1    3    3    0    0 -0.53077639827E+01 -0.51419242751E+01  0.57681969384E+01  0.93746381225E+01  0.51100000000E-03 0.  1.
        -12    1    3    3    0    0  0.22458818750E+02 -0.14443466119E+02  0.25527200598E+02  0.36941172471E+02  0.00000000000E+00 0.  1.
</event>
<event>
 7    1  0.8986500E-014  0.5052886E+02  0.7816164E-02  0.1300439E+00
        -11   -1    0    0    0    0  0.00000000000E+00  0.00000000000E+00  0.45593999997E+02  0.45594000000E+02  0.51100000000E-03 0. -1.
         11   -1    0    0    0    0 -0.00000000000E+00 -0.00000000000E+00 -0.45593999997E+02  0.45594000000E+02  0.51100000000E-03 0.  1.
    9900012    2    1    2    0    0  0.17309775375E+02 -0.19455549811E+02 -0.31225295646E+02  0.50528857976E+02  0.29999994303E+02 0.  0.
         12    1    1    2    0    0 -0.17309775375E+02  0.19455549811E+02  0.31225295646E+02  0.40659142024E+02  0.00000000000E+00 0. -1.
         11    1    3    3    0    0 -0.16662098226E+01 -0.96987424927E+01  0.11858195499E+01  0.99120143956E+01  0.51100000000E-03 0.  1.
        -11    1    3    3    0    0 -0.80881882247E+00 -0.35866330048E+01 -0.61199943219E+01  0.71394996295E+01  0.51100000000E-03 0. -1.
        -12    1    3    3    0    0  0.19784804020E+02 -0.61701743140E+01 -0.26291120874E+02  0.33477343950E+02  0.00000000000E+00 0.  1.
</event>
<event>
 7    1  0.8986500E-014  0.5052885E+02  0.7816164E-02  0.1300439E+00
        -11   -1    0    0    0    0  0.00000000000E+00  0.00000000000E+00  0.45593999997E+02  0.45594000000E+02  0.51100000000E-03 0.  1.
         11   -1    0    0    0    0 -0.00000000000E+00 -0.00000000000E+00 -0.45593999997E+02  0.45594000000E+02  0.51100000000E-03 0. -1.
    9900012    2    1    2    0    0 -0.31758702034E+02  0.19474823838E+02 -0.16287504504E+02  0.50528847016E+02  0.29999960991E+02 0.  0.
         12    1    1    2    0    0  0.31758702034E+02 -0.19474823838E+02  0.16287504504E+02  0.40659152984E+02  0.00000000000E+00 0. -1.
         11    1    3    3    0    0 -0.15440254852E+02  0.87966714473E+01 -0.61156791117E+01  0.18793201688E+02  0.51100000000E-03 0. -1.
        -11    1    3    3    0    0 -0.20713647703E+02  0.73664072178E+01 -0.13007963187E+02  0.25544593616E+02  0.51100000000E-03 0.  1.
         12    1    3    3    0    0  0.43952005211E+01  0.33117451732E+01  0.28361377947E+01  0.61910517122E+01  0.00000000000E+00 0. -1.
</event>
<event>
 7    1  0.8986500E-014  0.5052886E+02  0.7816164E-02  0.1300439E+00
        -11   -1    0    0    0    0  0.00000000000E+00  0.00000000000E+00  0.45593999997E+02  0.45594000000E+02  0.51100000000E-03 0. -1.
         11   -1    0    0    0    0 -0.00000000000E+00 -0.00000000000E+00 -0.45593999997E+02  0.45594000000E+02  0.51100000000E-03 0.  1.
    9900012    2    1    2    0    0 -0.24671978294E+02 -0.42726926898E+01 -0.32034401376E+02  0.50528864652E+02  0.30000014595E+02 0.  0.
         12    1    1    2    0    0  0.24671978294E+02  0.42726926898E+01  0.32034401376E+02  0.40659135348E+02  0.00000000000E+00 0. -1.
         11    1    3    3    0    0 -0.11448319291E+02 -0.70725773619E+00 -0.68504293987E+01  0.13360112698E+02  0.51100000000E-03 0. -1.
        -11    1    3    3    0    0 -0.15326323760E+02  0.67197958738E+01 -0.13878758463E+02  0.21741016382E+02  0.51100000000E-03 0.  1.
         12    1    3    3    0    0  0.21026647574E+01 -0.10285230827E+02 -0.11305213514E+02  0.15427735571E+02  0.00000000000E+00 0. -1.
</event>
<event>
 7    1  0.8986500E-014  0.5052886E+02  0.7816164E-02  0.1300439E+00
        -11   -1    0    0    0    0  0.00000000000E+00  0.00000000000E+00  0.45593999997E+02  0.45594000000E+02  0.51100000000E-03 0. -1.
         11   -1    0    0    0    0 -0.00000000000E+00 -0.00000000000E+00 -0.45593999997E+02  0.45594000000E+02  0.51100000000E-03 0.  1.
    9900012    2    1    2    0    0 -0.29223046472E+02  0.25941457245E+02  0.11234755273E+02  0.50528863571E+02  0.30000011311E+02 0.  0.
        -12    1    1    2    0    0  0.29223046472E+02 -0.25941457245E+02 -0.11234755273E+02  0.40659136429E+02  0.00000000000E+00 0.  1.
         11    1    3    3    0    0  0.19664025048E+00  0.13213200784E+02 -0.23377660758E+01  0.13419854427E+02  0.51100000000E-03 0. -1.
        -11    1    3    3    0    0 -0.44670963179E+01  0.11651914227E+01 -0.25053353834E+01  0.52525542557E+01  0.51100000000E-03 0.  1.
        -12    1    3    3    0    0 -0.24952590405E+02  0.11563065038E+02  0.16077856733E+02  0.31856454889E+02  0.00000000000E+00 0.  1.
</event>
<event>
 7    1  0.8986500E-014  0.5052885E+02  0.7816164E-02  0.1300439E+00
        -11   -1    0    0    0    0  0.00000000000E+00  0.00000000000E+00  0.45593999997E+02  0.45594000000E+02  0.51100000000E-03 0.  1.
         11   -1    0    0    0    0 -0.00000000000E+00 -0.00000000000E+00 -0.45593999997E+02  0.45594000000E+02  0.51100000000E-03 0. -1.
    9900012    2    1    2    0    0 -0.40406606711E+02  0.43755550039E+01 -0.11519902893E+01  0.50528850610E+02  0.29999971915E+02 0.  0.
         12    1    1    2    0    0  0.40406606711E+02 -0.43755550039E+01  0.11519902893E+01  0.40659149390E+02  0.00000000000E+00 0. -1.
         11    1    3    3    0    0 -0.32706959921E+00  0.42479237809E+01  0.43168284596E+01  0.60652155099E+01  0.51100000000E-03 0. -1.
        -11    1    3    3    0    0 -0.19547520557E+02  0.92670341244E+01 -0.20326996389E+01  0.21728215515E+02  0.51100000000E-03 0.  1.
        -12    1    3    3    0    0 -0.20532016554E+02 -0.91394029014E+01 -0.34361191099E+01  0.22735419585E+02  0.00000000000E+00 0.  1.
</event>
<event>
 7    1  0.8986500E-014  0.5052886E+02  0.7816164E-02  0.1300439E+00
        -11   -1    0    0    0    0  0.00000000000E+00  0.00000000000E+00  0.45593999997E+02  0.45594000000E+02  0.51100000000E-03 0. -1.
         11   -1    0    0    0    0 -0.00000000000E+00 -0.00000000000E+00 -0.45593999997E+02  0.45594000000E+02  0.51100000000E-03 0.  1.
    9900012    2    1    2    0    0 -0.31806829195E+02  0.19209799330E+02 -0.16506805845E+02  0.50528863107E+02  0.30000009899E+02 0.  0.
         12    1    1    2    0    0  0.31806829195E+02 -0.19209799330E+02  0.16506805845E+02  0.40659136893E+02  0.00000000000E+00 0. -1.
         11    1    3    3    0    0 -0.42018253390E+01  0.54970643182E+01  0.47534182759E+01  0.83945242787E+01  0.51100000000E-03 0. -1.
        -11    1    3    3    0    0 -0.20292548947E+01 -0.38300731880E+01 -0.64361708250E+01  0.77596154031E+01  0.51100000000E-03 0.  1.
         12    1    3    3    0    0 -0.25575748961E+02  0.17542808200E+02 -0.14824053295E+02  0.34374723425E+02  0.00000000000E+00 0. -1.
</event>
<event>
 7    1  0.8986500E-014  0.5052880E+02  0.7816164E-02  0.1300439E+00
        -11   -1    0    0    0    0  0.00000000000E+00  0.00000000000E+00  0.45593999997E+02  0.45594000000E+02  0.51100000000E-03 0. -1.
         11   -1    0    0    0    0 -0.00000000000E+00 -0.00000000000E+00 -0.45593999997E+02  0.45594000000E+02  0.51100000000E-03 0.  1.
    9900012    2    1    2    0    0  0.39121330405E+02  0.37816122684E+01  0.10411108702E+02  0.50528803397E+02  0.29999828405E+02 0.  0.
        -12    1    1    2    0    0 -0.39121330405E+02 -0.37816122684E+01 -0.10411108702E+02  0.40659196603E+02  0.00000000000E+00 0.  1.
         11    1    3    3    0    0  0.16503490589E+02  0.49669264246E+01 -0.13611828483E+01  0.17288388552E+02  0.51100000000E-03 0. -1.
        -11    1    3    3    0    0  0.16907658776E+02  0.22068959973E+01 -0.27499622184E+01  0.17271410124E+02  0.51100000000E-03 0.  1.
        -12    1    3    3    0    0  0.57101810402E+01 -0.33922101535E+01  0.14522253769E+02  0.15969004721E+02  0.00000000000E+00 0.  1.
</event>
<event>
 7    1  0.8986500E-014  0.5052886E+02  0.7816164E-02  0.1300439E+00
        -11   -1    0    0    0    0  0.00000000000E+00  0.00000000000E+00  0.45593999997E+02  0.45594000000E+02  0.51100000000E-03 0. -1.
         11   -1    0    0    0    0 -0.00000000000E+00 -0.00000000000E+00 -0.45593999997E+02  0.45594000000E+02  0.51100000000E-03 0.  1.
    9900012    2    1    2    0    0 -0.20773965151E+02  0.11717807690E+02 -0.32928729482E+02  0.50528857480E+02  0.29999992796E+02 0.  0.
         12    1    1    2    0    0  0.20773965151E+02 -0.11717807690E+02  0.32928729482E+02  0.40659142520E+02  0.00000000000E+00 0. -1.
         11    1    3    3    0    0 -0.13550514949E+02 -0.22350693124E+01 -0.17155412742E+02  0.21975444860E+02  0.51100000000E-03 0. -1.
        -11    1    3    3    0    0 -0.63977100447E+01 -0.20021235200E+01 -0.89469867408E+01  0.11179792682E+02  0.51100000000E-03 0.  1.
        -12    1    3    3    0    0 -0.82574015786E+00  0.15955000523E+02 -0.68263299992E+01  0.17373619938E+02  0.00000000000E+00 0.  1.
</event>
<event>
 7    1  0.8986500E-014  0.5052890E+02  0.7816164E-02  0.1300439E+00
        -11   -1    0    0    0    0  0.00000000000E+00  0.00000000000E+00  0.45593999997E+02  0.45594000000E+02  0.51100000000E-03 0. -1.
         11   -1    0    0    0    0 -0.00000000000E+00 -0.00000000000E+00 -0.45593999997E+02  0.45594000000E+02  0.51100000000E-03 0.  1.
    9900012    2    1    2    0    0  0.37632512407E+02 -0.73809296804E+01 -0.13508461508E+02  0.50528897141E+02  0.30000113349E+02 0.  0.
         12    1    1    2    0    0 -0.37632512407E+02  0.73809296804E+01  0.13508461508E+02  0.40659102859E+02  0.00000000000E+00 0. -1.
         11    1    3    3    0    0  0.44378377423E+01 -0.84511757852E+01 -0.82678438006E+00  0.95812498481E+01  0.51100000000E-03 0. -1.
        -11    1    3    3    0    0  0.90379500934E+01 -0.81990427999E+01 -0.81645073559E+01  0.14682235026E+02  0.51100000000E-03 0.  1.
         12    1    3    3    0    0  0.24156724571E+02  0.92692889047E+01 -0.45171697716E+01  0.26265412267E+02  0.00000000000E+00 0. -1.
</event>
<event>
 7    1  0.8986500E-014  0.5052886E+02  0.7816164E-02  0.1300439E+00
        -11   -1    0    0    0    0  0.00000000000E+00  0.00000000000E+00  0.45593999997E+02  0.45594000000E+02  0.51100000000E-03 0. -1.
         11   -1    0    0    0    0 -0.00000000000E+00 -0.00000000000E+00 -0.45593999997E+02  0.45594000000E+02  0.51100000000E-03 0.  1.
    9900012    2    1    2    0    0 -0.20403764833E+02 -0.10073817372E+02  0.33695251200E+02  0.50528863644E+02  0.30000011532E+02 0.  0.
        -12    1    1    2    0    0  0.20403764833E+02  0.10073817372E+02 -0.33695251200E+02  0.40659136356E+02  0.00000000000E+00 0.  1.
         11    1    3    3    0    0  0.13822799502E+01 -0.14611038299E+02  0.13625747721E+02  0.20026336141E+02  0.51100000000E-03 0. -1.
        -11    1    3    3    0    0 -0.30148786679E+00 -0.33112646028E+00 -0.26713041527E+00  0.52143895750E+00  0.51100000000E-03 0.  1.
        -12    1    3    3    0    0 -0.21484556917E+02  0.48683473873E+01  0.20336633894E+02  0.29981088545E+02  0.00000000000E+00 0.  1.
</event>
<event>
 7    1  0.8986500E-014  0.5052883E+02  0.7816164E-02  0.1300439E+00
        -11   -1    0    0    0    0  0.00000000000E+00  0.00000000000E+00  0.45593999997E+02  0.45594000000E+02  0.51100000000E-03 0. -1.
         11   -1    0    0    0    0 -0.00000000000E+00 -0.00000000000E+00 -0.45593999997E+02  0.45594000000E+02  0.51100000000E-03 0.  1.
    9900012    2    1    2    0    0 -0.30576583701E+02  0.53937042578E+01  0.26251634467E+02  0.50528833400E+02  0.29999919603E+02 0.  0.
        -12    1    1    2    0    0  0.30576583701E+02 -0.53937042578E+01 -0.26251634467E+02  0.40659166600E+02  0.00000000000E+00 0.  1.
         11    1    3    3    0    0 -0.15422600486E+02  0.76780607492E+01  0.86603509689E+01  0.19282398756E+02  0.51100000000E-03 0. -1.
        -11    1    3    3    0    0  0.50239866286E+01 -0.21807833552E+01  0.23539989407E+01  0.59613395274E+01  0.51100000000E-03 0.  1.
         12    1    3    3    0    0 -0.20177969843E+02 -0.10357313609E+00  0.15237284557E+02  0.25285095117E+02  0.00000000000E+00 0. -1.
</event>
<event>
 7    1  0.8986500E-014  0.5052885E+02  0.7816164E-02  0.1300439E+00
        -11   -1    0    0    0    0  0.00000000000E+00  0.00000000000E+00  0.45593999997E+02  0.45594000000E+02  0.51100000000E-03 0. -1.
         11   -1    0    0    0    0 -0.00000000000E+00 -0.00000000000E+00 -0.45593999997E+02  0.45594000000E+02  0.51100000000E-03 0.  1.
    9900012    2    1    2    0    0 -0.33464400640E+02  0.11164564584E+02  0.20215160234E+02  0.50528852003E+02  0.29999976149E+02 0.  0.
        -12    1    1    2    0    0  0.33464400640E+02 -0.11164564584E+02 -0.20215160234E+02  0.40659147997E+02  0.00000000000E+00 0.  1.
         11    1    3    3    0    0 -0.31976814953E+02  0.43252520091E+01  0.49770873794E+01  0.32649592624E+02  0.51100000000E-03 0. -1.
        -11    1    3    3    0    0 -0.23764726958E+01  0.48242670139E+01  0.47905462118E+01  0.72021182970E+01  0.51100000000E-03 0.  1.
        -12    1    3    3    0    0  0.88888700918E+00  0.20150455613E+01  0.10447526643E+02  0.10677141082E+02  0.00000000000E+00 0.  1.
</event>
<event>
 7    1  0.8986500E-014  0.5052886E+02  0.7816164E-02  0.1300439E+00
        -11   -1    0    0    0    0  0.00000000000E+00  0.00000000000E+00  0.45593999997E+02  0.45594000000E+02  0.51100000000E-03 0. -1.
         11   -1    0    0    0    0 -0.00000000000E+00 -0.00000000000E+00 -0.45593999997E+02  0.45594000000E+02  0.51100000000E-03 0.  1.
    9900012    2    1    2    0    0 -0.17827771058E+02  0.44459635809E+01 -0.36270785512E+02  0.50528857182E+02  0.29999991890E+02 0.  0.
         12    1    1    2    0    0  0.17827771058E+02 -0.44459635809E+01  0.36270785512E+02  0.40659142818E+02  0.00000000000E+00 0. -1.
         11    1    3    3    0    0 -0.10709680798E+02  0.28098551463E+01 -0.21282288163E+02  0.23990171705E+02  0.51100000000E-03 0. -1.
        -11    1    3    3    0    0 -0.28044939381E+00  0.67100380856E+00 -0.18689746777E+02  0.18703890847E+02  0.51100000000E-03 0.  1.
         12    1    3    3    0    0 -0.68376408660E+01  0.96510462607E+00  0.37012494284E+01  0.78347946293E+01  0.00000000000E+00 0. -1.
</event>
<event>
 7    1  0.8986500E-014  0.5052890E+02  0.7816164E-02  0.1300439E+00
        -11   -1    0    0    0    0  0.00000000000E+00  0.00000000000E+00  0.45593999997E+02  0.45594000000E+02  0.51100000000E-03 0. -1.
         11   -1    0    0    0    0 -0.00000000000E+00 -0.00000000000E+00 -0.45593999997E+02  0.45594000000E+02  0.51100000000E-03 0.  1.
    9900012    2    1    2    0    0 -0.22831698962E+02  0.40350340119E+01  0.33400513549E+02  0.50528901605E+02  0.30000126917E+02 0.  0.
        -12    1    1    2    0    0  0.22831698962E+02 -0.40350340119E+01 -0.33400513549E+02  0.40659098395E+02  0.00000000000E+00 0.  1.
         11    1    3    3    0    0 -0.33871645508E+01  0.11471477488E+02  0.53162449280E+01  0.13089313957E+02  0.51100000000E-03 0.  1.
        -11    1    3    3    0    0 -0.10435495546E+01 -0.61725050851E+01  0.82258691503E+01  0.10337008186E+02  0.51100000000E-03 0. -1.
        -12    1    3    3    0    0 -0.18400984856E+02 -0.12639383915E+01  0.19858399471E+02  0.27102579462E+02  0.00000000000E+00 0.  1.
</event>
<event>
 7    1  0.8986500E-014  0.5052886E+02  0.7816164E-02  0.1300439E+00
        -11   -1    0    0    0    0  0.00000000000E+00  0.00000000000E+00  0.45593999997E+02  0.45594000000E+02  0.51100000000E-03 0. -1.
         11   -1    0    0    0    0 -0.00000000000E+00 -0.00000000000E+00 -0.45593999997E+02  0.45594000000E+02  0.51100000000E-03 0.  1.
    9900012    2    1    2    0    0  0.21300683157E+02 -0.17875969194E+02  0.29663047698E+02  0.50528858638E+02  0.29999996315E+02 0.  0.
        -12    1    1    2    0    0 -0.21300683157E+02  0.17875969194E+02 -0.29663047698E+02  0.40659141362E+02  0.00000000000E+00 0.  1.
         11    1    3    3    0    0  0.21308828100E+01 -0.89384241793E+01  0.42880398690E+00  0.91989108855E+01  0.51100000000E-03 0.  1.
        -11    1    3    3    0    0  0.26474533704E+01 -0.93561245500E+01  0.27381557042E+01  0.10101661886E+02  0.51100000000E-03 0. -1.
        -12    1    3    3    0    0  0.16522346977E+02  0.41857953479E+00  0.26496088007E+02  0.31228285866E+02  0.00000000000E+00 0.  1.
</event>
<event>
 7    1  0.8986500E-014  0.5052885E+02  0.7816164E-02  0.1300439E+00
        -11   -1    0    0    0    0  0.00000000000E+00  0.00000000000E+00  0.45593999997E+02  0.45594000000E+02  0.51100000000E-03 0. -1.
         11   -1    0    0    0    0 -0.00000000000E+00 -0.00000000000E+00 -0.45593999997E+02  0.45594000000E+02  0.51100000000E-03 0.  1.
    9900012    2    1    2    0    0 -0.11689030449E+02  0.59517368196E+00 -0.38938137862E+02  0.50528852878E+02  0.29999978808E+02 0.  0.
         12    1    1    2    0    0  0.11689030449E+02 -0.59517368196E+00  0.38938137862E+02  0.40659147122E+02  0.00000000000E+00 0. -1.
         11    1    3    3    0    0 -0.16850221852E+01 -0.18845519534E+01 -0.94110750060E+00  0.26975024408E+01  0.51100000000E-03 0. -1.
        -11    1    3    3    0    0 -0.12252216706E+02  0.12504877549E+02 -0.16742919081E+02  0.24224246456E+02  0.51100000000E-03 0.  1.
        -12    1    3    3    0    0  0.22482084420E+01 -0.10025151914E+02 -0.21254111279E+02  0.23607103981E+02  0.00000000000E+00 0.  1.
</event>
<event>
 7    1  0.8986500E-014  0.5052886E+02  0.7816164E-02  0.1300439E+00
        -11   -1    0    0    0    0  0.00000000000E+00  0.00000000000E+00  0.45593999997E+02  0.45594000000E+02  0.51100000000E-03 0. -1.
         11   -1    0    0    0    0 -0.00000000000E+00 -0.00000000000E+00 -0.45593999997E+02  0.45594000000E+02  0.51100000000E-03 0.  1.
    9900012    2    1    2    0    0  0.13532531897E+02  0.19443760100E+02 -0.33045065353E+02  0.50528861168E+02  0.30000004006E+02 0.  0.
         12    1    1    2    0    0 -0.13532531897E+02 -0.19443760100E+02  0.33045065353E+02  0.40659138832E+02  0.00000000000E+00 0. -1.
         11    1    3    3    0    0 -0.28368613790E+01  0.10507750113E+02 -0.18181487637E+02  0.21190259268E+02  0.51100000000E-03 0. -1.
        -11    1    3    3    0    0  0.59650989746E+01  0.10506680348E+02 -0.14412540733E+02  0.18806755924E+02  0.51100000000E-03 0.  1.
         12    1    3    3    0    0  0.10404294302E+02 -0.15706703611E+01 -0.45103698302E+00  0.10531845976E+02  0.00000000000E+00 0. -1.
</event>
<event>
 7    1  0.8986500E-014  0.5052887E+02  0.7816164E-02  0.1300439E+00
        -11   -1    0    0    0    0  0.00000000000E+00  0.00000000000E+00  0.45593999997E+02  0.45594000000E+02  0.51100000000E-03 0. -1.
         11   -1    0    0    0    0 -0.00000000000E+00 -0.00000000000E+00 -0.45593999997E+02  0.45594000000E+02  0.51100000000E-03 0.  1.
    9900012    2    1    2    0    0  0.26992584068E+01  0.11642363248E+02 -0.38863021850E+02  0.50528867136E+02  0.30000022148E+02 0.  0.
         12    1    1    2    0    0 -0.26992584068E+01 -0.11642363248E+02  0.38863021850E+02  0.40659132864E+02  0.00000000000E+00 0. -1.
         11    1    3    3    0    0 -0.28429521399E+01  0.59989240319E+01 -0.15616789054E+02  0.16969194649E+02  0.51100000000E-03 0. -1.
        -11    1    3    3    0    0  0.68265592018E+01  0.84722770333E+01 -0.26749297629E+02  0.28877436046E+02  0.51100000000E-03 0.  1.
         12    1    3    3    0    0 -0.12843486551E+01 -0.28288378175E+01  0.35030648339E+01  0.46822364417E+01  0.00000000000E+00 0. -1.
</event>
<event>
 7    1  0.8986500E-014  0.5052884E+02  0.7816164E-02  0.1300439E+00
        -11   -1    0    0    0    0  0.00000000000E+00  0.00000000000E+00  0.45593999997E+02  0.45594000000E+02  0.51100000000E-03 0. -1.
         11   -1    0    0    0    0 -0.00000000000E+00 -0.00000000000E+00 -0.45593999997E+02  0.45594000000E+02  0.51100000000E-03 0.  1.
    9900012    2    1    2    0    0 -0.67650839011E+01 -0.27160249922E+01 -0.40000299860E+02  0.50528841858E+02  0.29999945312E+02 0.  0.
         12    1    1    2    0    0  0.67650839011E+01  0.27160249922E+01  0.40000299860E+02  0.40659158142E+02  0.00000000000E+00 0. -1.
         11    1    3    3    0    0 -0.29963030657E+01 -0.71210794220E+01 -0.12530665308E+02  0.14720909534E+02  0.51100000000E-03 0. -1.
        -11    1    3    3    0    0 -0.62555563291E+01 -0.80914355716E+01 -0.12401161673E+02  0.16074580110E+02  0.51100000000E-03 0.  1.
        -12    1    3    3    0    0  0.24867754937E+01  0.12496490001E+02 -0.15068472879E+02  0.19733352214E+02  0.00000000000E+00 0.  1.
</event>
<event>
 7    1  0.8986500E-014  0.5052886E+02  0.7816164E-02  0.1300439E+00
        -11   -1    0    0    0    0  0.00000000000E+00  0.00000000000E+00  0.45593999997E+02  0.45594000000E+02  0.51100000000E-03 0. -1.
         11   -1    0    0    0    0 -0.00000000000E+00 -0.00000000000E+00 -0.45593999997E+02  0.45594000000E+02  0.51100000000E-03 0.  1.
    9900012    2    1    2    0    0 -0.33613827529E+01 -0.72413586006E+01  0.39867650086E+02  0.50528859677E+02  0.29999999474E+02 0.  0.
        -12    1    1    2    0    0  0.33613827529E+01  0.72413586006E+01 -0.39867650086E+02  0.40659140323E+02  0.00000000000E+00 0.  1.
         11    1    3    3    0    0 -0.44323196753E+01 -0.45161844404E+01  0.22903920098E+01  0.67295821135E+01  0.51100000000E-03 0. -1.
        -11    1    3    3    0    0 -0.20290582932E+01 -0.12284598888E+02  0.21013865470E+02  0.24425621582E+02  0.51100000000E-03 0.  1.
         12    1    3    3    0    0  0.30999952155E+01  0.95594247277E+01  0.16563392607E+02  0.19373655982E+02  0.00000000000E+00 0. -1.
</event>
<event>
 7    1  0.8986500E-014  0.5052886E+02  0.7816164E-02  0.1300439E+00
        -11   -1    0    0    0    0  0.00000000000E+00  0.00000000000E+00  0.45593999997E+02  0.45594000000E+02  0.51100000000E-03 0. -1.
         11   -1    0    0    0    0 -0.00000000000E+00 -0.00000000000E+00 -0.45593999997E+02  0.45594000000E+02  0.51100000000E-03 0.  1.
    9900012    2    1    2    0    0  0.39801492859E+01  0.40454932261E+02 -0.85016447101E+00  0.50528856967E+02  0.29999991237E+02 0.  0.
         12    1    1    2    0    0 -0.39801492859E+01 -0.40454932261E+02  0.85016447101E+00  0.40659143033E+02  0.00000000000E+00 0. -1.
         11    1    3    3    0    0  0.22145751372E+01  0.42364747874E+02 -0.23549051309E-01  0.42422597283E+02  0.51100000000E-03 0.  1.
        -11    1    3    3    0    0 -0.26664438495E+01  0.12137708812E+00 -0.16841657778E+01  0.31561162571E+01  0.51100000000E-03 0. -1.
        -12    1    3    3    0    0  0.44320179981E+01 -0.20311927013E+01  0.85755035811E+00  0.49501434264E+01  0.00000000000E+00 0.  1.
</event>
<event>
 7    1  0.8986500E-014  0.5052886E+02  0.7816164E-02  0.1300439E+00
        -11   -1    0    0    0    0  0.00000000000E+00  0.00000000000E+00  0.45593999997E+02  0.45594000000E+02  0.51100000000E-03 0. -1.
         11   -1    0    0    0    0 -0.00000000000E+00 -0.00000000000E+00 -0.45593999997E+02  0.45594000000E+02  0.51100000000E-03 0.  1.
    9900012    2    1    2    0    0 -0.33658446848E+02  0.17215362593E+02  0.14963486475E+02  0.50528859811E+02  0.29999999882E+02 0.  0.
        -12    1    1    2    0    0  0.33658446848E+02 -0.17215362593E+02 -0.14963486475E+02  0.40659140189E+02  0.00000000000E+00 0.  1.
         11    1    3    3    0    0 -0.47882405173E+01 -0.33739905668E+01  0.96945063552E+01  0.11326716794E+02  0.51100000000E-03 0. -1.
        -11    1    3    3    0    0 -0.54802966638E-01  0.48485554808E+01  0.40950536455E+01  0.63467281520E+01  0.51100000000E-03 0.  1.
        -12    1    3    3    0    0 -0.28815403364E+02  0.15740797679E+02  0.11739264740E+01  0.32855414865E+02  0.00000000000E+00 0.  1.
</event>
<event>
 7    1  0.8986500E-014  0.5052887E+02  0.7816164E-02  0.1300439E+00
        -11   -1    0    0    0    0  0.00000000000E+00  0.00000000000E+00  0.45593999997E+02  0.45594000000E+02  0.51100000000E-03 0. -1.
         11   -1    0    0    0    0 -0.00000000000E+00 -0.00000000000E+00 -0.45593999997E+02  0.45594000000E+02  0.51100000000E-03 0.  1.
    9900012    2    1    2    0    0  0.26094357394E+01  0.20976070163E+02  0.34732700396E+02  0.50528866325E+02  0.30000019683E+02 0.  0.
        -12    1    1    2    0    0 -0.26094357394E+01 -0.20976070163E+02 -0.34732700396E+02  0.40659133675E+02  0.00000000000E+00 0.  1.
         11    1    3    3    0    0  0.11530891200E+01 -0.57062714902E+01  0.66788963603E+01  0.88599551743E+01  0.51100000000E-03 0. -1.
        -11    1    3    3    0    0 -0.58193246152E+01  0.41910826505E+01  0.64683403490E+01  0.96575949331E+01  0.51100000000E-03 0.  1.
         12    1    3    3    0    0  0.72756712346E+01  0.22491259002E+02  0.21585463687E+02  0.32011316218E+02  0.00000000000E+00 0. -1.
</event>
<event>
 7    1  0.8986500E-014  0.5052886E+02  0.7816164E-02  0.1300439E+00
        -11   -1    0    0    0    0  0.00000000000E+00  0.00000000000E+00  0.45593999997E+02  0.45594000000E+02  0.51100000000E-03 0.  1.
         11   -1    0    0    0    0 -0.00000000000E+00 -0.00000000000E+00 -0.45593999997E+02  0.45594000000E+02  0.51100000000E-03 0. -1.
    9900012    2    1    2    0    0  0.25240288500E+02  0.25512618662E+02 -0.19110205513E+02  0.50528857986E+02  0.29999994336E+02 0.  0.
        -12    1    1    2    0    0 -0.25240288500E+02 -0.25512618662E+02  0.19110205513E+02  0.40659142014E+02  0.00000000000E+00 0.  1.
         11    1    3    3    0    0  0.35562769836E+01  0.10707125643E+02 -0.14411964830E+02  0.18302851582E+02  0.51100000000E-03 0. -1.
        -11    1    3    3    0    0  0.23067146055E+01 -0.33405701417E+01  0.24391099203E+01  0.47359897178E+01  0.51100000000E-03 0.  1.
         12    1    3    3    0    0  0.19377296911E+02  0.18146063161E+02 -0.71373506030E+01  0.27490016687E+02  0.00000000000E+00 0. -1.
</event>
<event>
 7    1  0.8986500E-014  0.5052886E+02  0.7816164E-02  0.1300439E+00
        -11   -1    0    0    0    0  0.00000000000E+00  0.00000000000E+00  0.45593999997E+02  0.45594000000E+02  0.51100000000E-03 0. -1.
         11   -1    0    0    0    0 -0.00000000000E+00 -0.00000000000E+00 -0.45593999997E+02  0.45594000000E+02  0.51100000000E-03 0.  1.
    9900012    2    1    2    0    0 -0.21974342964E+02  0.28334610617E+02  0.19168818465E+02  0.50528861927E+02  0.30000006313E+02 0.  0.
        -12    1    1    2    0    0  0.21974342964E+02 -0.28334610617E+02 -0.19168818465E+02  0.40659138073E+02  0.00000000000E+00 0.  1.
         11    1    3    3    0    0 -0.26441156800E+01  0.17136162410E+02  0.26417538674E+01  0.17539049964E+02  0.51100000000E-03 0. -1.
        -11    1    3    3    0    0 -0.17323908633E+01  0.87885264113E+01  0.34909259182E+00  0.89644431218E+01  0.51100000000E-03 0.  1.
        -12    1    3    3    0    0 -0.17597836420E+02  0.24099217954E+01  0.16177972006E+02  0.24025368841E+02  0.00000000000E+00 0.  1.
</event>
<event>
 7    1  0.8986500E-014  0.5052886E+02  0.7816164E-02  0.1300439E+00
        -11   -1    0    0    0    0  0.00000000000E+00  0.00000000000E+00  0.45593999997E+02  0.45594000000E+02  0.51100000000E-03 0. -1.
         11   -1    0    0    0    0 -0.00000000000E+00 -0.00000000000E+00 -0.45593999997E+02  0.45594000000E+02  0.51100000000E-03 0.  1.
    9900012    2    1    2    0    0  0.24838849829E+02  0.31444534161E+02  0.68875684882E+01  0.50528858480E+02  0.29999995835E+02 0.  0.
        -12    1    1    2    0    0 -0.24838849829E+02 -0.31444534161E+02 -0.68875684882E+01  0.40659141520E+02  0.00000000000E+00 0.  1.
         11    1    3    3    0    0 -0.10098779183E+01  0.80356085136E+01 -0.44852769052E+01  0.92578921343E+01  0.51100000000E-03 0. -1.
        -11    1    3    3    0    0  0.10029988291E+02  0.15766957455E+02 -0.25433016733E+01  0.18859109104E+02  0.51100000000E-03 0.  1.
         12    1    3    3    0    0  0.15818739457E+02  0.76419681927E+01  0.13916147067E+02  0.22411857242E+02  0.00000000000E+00 0. -1.
</event>
<event>
 7    1  0.8986500E-014  0.5052885E+02  0.7816164E-02  0.1300439E+00
        -11   -1    0    0    0    0  0.00000000000E+00  0.00000000000E+00  0.45593999997E+02  0.45594000000E+02  0.51100000000E-03 0.  1.
         11   -1    0    0    0    0 -0.00000000000E+00 -0.00000000000E+00 -0.45593999997E+02  0.45594000000E+02  0.51100000000E-03 0. -1.
    9900012    2    1    2    0    0  0.91827185810E+01  0.35124647767E+02 -0.18305829845E+02  0.50528848415E+02  0.29999965243E+02 0.  0.
         12    1    1    2    0    0 -0.91827185810E+01 -0.35124647767E+02  0.18305829845E+02  0.40659151585E+02  0.00000000000E+00 0. -1.
         11    1    3    3    0    0 -0.14804453941E+01  0.23886180509E+01 -0.82559242848E+01  0.87210951614E+01  0.51100000000E-03 0. -1.
        -11    1    3    3    0    0 -0.55218951718E+01  0.29437773793E+01  0.55759368150E+00  0.62823612219E+01  0.51100000000E-03 0.  1.
        -12    1    3    3    0    0  0.16185059147E+02  0.29792252336E+02 -0.10607499242E+02  0.35525392032E+02  0.00000000000E+00 0.  1.
</event>
<event>
 7    1  0.8986500E-014  0.5052886E+02  0.7816164E-02  0.1300439E+00
        -11   -1    0    0    0    0  0.00000000000E+00  0.00000000000E+00  0.45593999997E+02  0.45594000000E+02  0.51100000000E-03 0. -1.
         11   -1    0    0    0    0 -0.00000000000E+00 -0.00000000000E+00 -0.45593999997E+02  0.45594000000E+02  0.51100000000E-03 0.  1.
    9900012    2    1    2    0    0 -0.12813639761E+02 -0.27656571290E+01 -0.38488019384E+02  0.50528857616E+02  0.29999993211E+02 0.  0.
         12    1    1    2    0    0  0.12813639761E+02  0.27656571290E+01  0.38488019384E+02  0.40659142384E+02  0.00000000000E+00 0. -1.
         11    1    3    3    0    0  0.22759355290E+01  0.15219897998E+01 -0.13327415979E+02  0.13605747036E+02  0.51100000000E-03 0. -1.
        -11    1    3    3    0    0  0.13115175755E+01 -0.32400278187E+01 -0.19083531203E+02  0.19401005697E+02  0.51100000000E-03 0.  1.
         12    1    3    3    0    0 -0.16401092865E+02 -0.10476191102E+01 -0.60770722020E+01  0.17522104883E+02  0.00000000000E+00 0. -1.
</event>
<event>
 7    1  0.1020895E-013  0.5052886E+02  0.7816164E-02  0.1300439E+00
        -11   -1    0    0    0    0  0.00000000000E+00  0.00000000000E+00  0.45593999997E+02  0.45594000000E+02  0.51100000000E-03 0. -1.
         11   -1    0    0    0    0 -0.00000000000E+00 -0.00000000000E+00 -0.45593999997E+02  0.45594000000E+02  0.51100000000E-03 0.  1.
    9900012    2    1    2    0    0 -0.59042285061E+01 -0.23493544400E+02  0.32655152425E+02  0.50528861758E+02  0.30000005800E+02 0.  0.
        -12    1    1    2    0    0  0.59042285061E+01  0.23493544400E+02 -0.32655152425E+02  0.40659138242E+02  0.00000000000E+00 0.  1.
         11    1    3    3    0    0  0.37897412059E+01 -0.14350640482E+02  0.16438302863E+02  0.22147704665E+02  0.51100000000E-03 0. -1.
        -11    1    3    3    0    0 -0.11655470484E+02 -0.95368966632E+01  0.34389947951E+01  0.15447623624E+02  0.51100000000E-03 0.  1.
         12    1    3    3    0    0  0.19615007719E+01  0.39399274594E+00  0.12777854766E+02  0.12933533469E+02  0.00000000000E+00 0. -1.
</event>
<event>
 7    1  0.8986500E-014  0.5052886E+02  0.7816164E-02  0.1300439E+00
        -11   -1    0    0    0    0  0.00000000000E+00  0.00000000000E+00  0.45593999997E+02  0.45594000000E+02  0.51100000000E-03 0.  1.
         11   -1    0    0    0    0 -0.00000000000E+00 -0.00000000000E+00 -0.45593999997E+02  0.45594000000E+02  0.51100000000E-03 0. -1.
    9900012    2    1    2    0    0  0.32003374096E+01 -0.40040819577E+02 -0.62972906049E+01  0.50528864977E+02  0.30000015583E+02 0.  0.
         12    1    1    2    0    0 -0.32003374096E+01  0.40040819577E+02  0.62972906049E+01  0.40659135023E+02  0.00000000000E+00 0. -1.
         11    1    3    3    0    0 -0.88480000858E+01 -0.28396927473E+02 -0.75161821867E+01  0.30678422227E+02  0.51100000000E-03 0. -1.
        -11    1    3    3    0    0  0.14539546662E+01  0.16677527900E+01 -0.14272145083E+01  0.26329308866E+01  0.51100000000E-03 0.  1.
        -12    1    3    3    0    0  0.10594382829E+02 -0.13311644894E+02  0.26461060901E+01  0.17217511863E+02  0.00000000000E+00 0.  1.
</event>
<event>
 7    1  0.8986500E-014  0.5052886E+02  0.7816164E-02  0.1300439E+00
        -11   -1    0    0    0    0  0.00000000000E+00  0.00000000000E+00  0.45593999997E+02  0.45594000000E+02  0.51100000000E-03 0. -1.
         11   -1    0    0    0    0 -0.00000000000E+00 -0.00000000000E+00 -0.45593999997E+02  0.45594000000E+02  0.51100000000E-03 0.  1.
    9900012    2    1    2    0    0 -0.79346591151E+01  0.16798463447E+01  0.39842002279E+02  0.50528857798E+02  0.29999993763E+02 0.  0.
        -12    1    1    2    0    0  0.79346591151E+01 -0.16798463447E+01 -0.39842002279E+02  0.40659142202E+02  0.00000000000E+00 0.  1.
         11    1    3    3    0    0  0.35331684601E+01  0.89866629669E+01  0.15852249671E+02  0.18561713567E+02  0.51100000000E-03 0. -1.
        -11    1    3    3    0    0 -0.81665495212E+01 -0.49517780115E+00  0.16053784970E+01  0.83375639438E+01  0.51100000000E-03 0.  1.
         12    1    3    3    0    0 -0.33012780540E+01 -0.68116388210E+01  0.22384374110E+02  0.23629580287E+02  0.00000000000E+00 0. -1.
</event>
<event>
 7    1  0.8986500E-014  0.5052883E+02  0.7816164E-02  0.1300439E+00
        -11   -1    0    0    0    0  0.00000000000E+00  0.00000000000E+00  0.45593999997E+02  0.45594000000E+02  0.51100000000E-03 0. -1.
         11   -1    0    0    0    0 -0.00000000000E+00 -0.00000000000E+00 -0.45593999997E+02  0.45594000000E+02  0.51100000000E-03 0.  1.
    9900012    2    1    2    0    0  0.21003958744E+02 -0.11643249561E+02 -0.32809096075E+02  0.50528827252E+02  0.29999900916E+02 0.  0.
         12    1    1    2    0    0 -0.21003958744E+02  0.11643249561E+02  0.32809096075E+02  0.40659172748E+02  0.00000000000E+00 0. -1.
         11    1    3    3    0    0  0.26366189527E+01  0.68461911684E-01 -0.49773246118E-01  0.26379772880E+01  0.51100000000E-03 0. -1.
        -11    1    3    3    0    0  0.25323654992E+02 -0.69972381942E+01 -0.22201753369E+02  0.34397190255E+02  0.51100000000E-03 0.  1.
         12    1    3    3    0    0 -0.69563152004E+01 -0.47144732789E+01 -0.10557569459E+02  0.13493659709E+02  0.00000000000E+00 0. -1.
</event>
<event>
 7    1  0.8986500E-014  0.5052886E+02  0.7816164E-02  0.1300439E+00
        -11   -1    0    0    0    0  0.00000000000E+00  0.00000000000E+00  0.45593999997E+02  0.45594000000E+02  0.51100000000E-03 0. -1.
         11   -1    0    0    0    0 -0.00000000000E+00 -0.00000000000E+00 -0.45593999997E+02  0.45594000000E+02  0.51100000000E-03 0.  1.
    9900012    2    1    2    0    0 -0.15111553265E+02 -0.18410654784E+02 -0.32952308764E+02  0.50528857061E+02  0.29999991523E+02 0.  0.
         12    1    1    2    0    0  0.15111553265E+02  0.18410654784E+02  0.32952308764E+02  0.40659142939E+02  0.00000000000E+00 0. -1.
         11    1    3    3    0    0 -0.10943369863E+02 -0.74198655613E+01 -0.58427600604E+01  0.14455088872E+02  0.51100000000E-03 0. -1.
        -11    1    3    3    0    0  0.77509845112E+01 -0.48543322570E+01 -0.55860163529E+01  0.10716617074E+02  0.51100000000E-03 0.  1.
         12    1    3    3    0    0 -0.11919167912E+02 -0.61364569657E+01 -0.21523532351E+02  0.25357151115E+02  0.00000000000E+00 0. -1.
</event>
<event>
 7    1  0.8986500E-014  0.5052885E+02  0.7816164E-02  0.1300439E+00
        -11   -1    0    0    0    0  0.00000000000E+00  0.00000000000E+00  0.45593999997E+02  0.45594000000E+02  0.51100000000E-03 0. -1.
         11   -1    0    0    0    0 -0.00000000000E+00 -0.00000000000E+00 -0.45593999997E+02  0.45594000000E+02  0.51100000000E-03 0.  1.
    9900012    2    1    2    0    0 -0.19246598182E+01 -0.26156184198E+02 -0.31069540437E+02  0.50528848138E+02  0.29999964400E+02 0.  0.
         12    1    1    2    0    0  0.19246598182E+01  0.26156184198E+02  0.31069540437E+02  0.40659151862E+02  0.00000000000E+00 0. -1.
         11    1    3    3    0    0 -0.65026454942E+01 -0.24957168360E+01  0.26371892897E+01  0.74476686661E+01  0.51100000000E-03 0. -1.
        -11    1    3    3    0    0 -0.36369024918E+01 -0.41515631503E+01 -0.52737114357E+01  0.76337781533E+01  0.51100000000E-03 0.  1.
        -12    1    3    3    0    0  0.82148881678E+01 -0.19508904211E+02 -0.28433018291E+02  0.35447401319E+02  0.00000000000E+00 0.  1.
</event>
<event>
 7    1  0.8986500E-014  0.5052886E+02  0.7816164E-02  0.1300439E+00
        -11   -1    0    0    0    0  0.00000000000E+00  0.00000000000E+00  0.45593999997E+02  0.45594000000E+02  0.51100000000E-03 0.  1.
         11   -1    0    0    0    0 -0.00000000000E+00 -0.00000000000E+00 -0.45593999997E+02  0.45594000000E+02  0.51100000000E-03 0. -1.
    9900012    2    1    2    0    0 -0.58327337880E+01 -0.20743826541E+02 -0.34479536253E+02  0.50528861504E+02  0.30000005029E+02 0.  0.
         12    1    1    2    0    0  0.58327337880E+01  0.20743826541E+02  0.34479536253E+02  0.40659138496E+02  0.00000000000E+00 0. -1.
         11    1    3    3    0    0  0.31341218452E+01 -0.11251767003E+02 -0.21307050392E+02  0.24298464501E+02  0.51100000000E-03 0. -1.
        -11    1    3    3    0    0  0.49370393083E+01 -0.38665137365E+01 -0.84160656227E+01  0.10495448844E+02  0.51100000000E-03 0.  1.
        -12    1    3    3    0    0 -0.13903894942E+02 -0.56255458014E+01 -0.47564202378E+01  0.15734948160E+02  0.00000000000E+00 0.  1.
</event>
<event>
 7    1  0.8986500E-014  0.5052886E+02  0.7816164E-02  0.1300439E+00
        -11   -1    0    0    0    0  0.00000000000E+00  0.00000000000E+00  0.45593999997E+02  0.45594000000E+02  0.51100000000E-03 0. -1.
         11   -1    0    0    0    0 -0.00000000000E+00 -0.00000000000E+00 -0.45593999997E+02  0.45594000000E+02  0.51100000000E-03 0.  1.
    9900012    2    1    2    0    0 -0.21139028318E+01 -0.56863537323E+01  0.40204009270E+02  0.50528861232E+02  0.30000004200E+02 0.  0.
        -12    1    1    2    0    0  0.21139028318E+01  0.56863537323E+01 -0.40204009270E+02  0.40659138768E+02  0.00000000000E+00 0.  1.
         11    1    3    3    0    0  0.25613969173E+01 -0.83278944194E+00  0.39935027858E+00  0.27228245130E+01  0.51100000000E-03 0. -1.
        -11    1    3    3    0    0 -0.13000065925E+01  0.69700919097E+01  0.10749646656E+01  0.71713142215E+01  0.51100000000E-03 0.  1.
         12    1    3    3    0    0 -0.33752931566E+01 -0.11823656200E+02  0.38729694326E+02  0.40634722497E+02  0.00000000000E+00 0. -1.
</event>
<event>
 7    1  0.8986500E-014  0.5052882E+02  0.7816164E-02  0.1300439E+00
        -11   -1    0    0    0    0  0.00000000000E+00  0.00000000000E+00  0.45593999997E+02  0.45594000000E+02  0.51100000000E-03 0. -1.
         11   -1    0    0    0    0 -0.00000000000E+00 -0.00000000000E+00 -0.45593999997E+02  0.45594000000E+02  0.51100000000E-03 0.  1.
    9900012    2    1    2    0    0  0.20684622313E+02 -0.33696286665E+02 -0.94802769997E+01  0.50528819152E+02  0.29999876295E+02 0.  0.
         12    1    1    2    0    0 -0.20684622313E+02  0.33696286665E+02  0.94802769997E+01  0.40659180848E+02  0.00000000000E+00 0. -1.
         11    1    3    3    0    0 -0.36703860979E+01  0.95136149437E+00 -0.11191814863E+00  0.37933295051E+01  0.51100000000E-03 0. -1.
        -11    1    3    3    0    0  0.59258560962E+01 -0.21762912542E+02 -0.88891996847E+01  0.24243720920E+02  0.51100000000E-03 0.  1.
        -12    1    3    3    0    0  0.18429152314E+02 -0.12884735618E+02 -0.47915916628E+00  0.22491768727E+02  0.00000000000E+00 0.  1.
</event>
<event>
 7    1  0.8986500E-014  0.5052886E+02  0.7816164E-02  0.1300439E+00
        -11   -1    0    0    0    0  0.00000000000E+00  0.00000000000E+00  0.45593999997E+02  0.45594000000E+02  0.51100000000E-03 0. -1.
         11   -1    0    0    0    0 -0.00000000000E+00 -0.00000000000E+00 -0.45593999997E+02  0.45594000000E+02  0.51100000000E-03 0.  1.
    9900012    2    1    2    0    0 -0.23627679186E+02 -0.17165115247E+02  0.28288813638E+02  0.50528863484E+02  0.30000011046E+02 0.  0.
        -12    1    1    2    0    0  0.23627679186E+02  0.17165115247E+02 -0.28288813638E+02  0.40659136516E+02  0.00000000000E+00 0.  1.
         11    1    3    3    0    0  0.29638862082E+01 -0.28145214336E+01  0.44435055937E+01  0.60374576253E+01  0.51100000000E-03 0. -1.
        -11    1    3    3    0    0 -0.70797101098E+00 -0.10772445907E+02  0.34156791793E+01  0.11323147897E+02  0.51100000000E-03 0.  1.
         12    1    3    3    0    0 -0.25883594383E+02 -0.35781479062E+01  0.20429628865E+02  0.33168257962E+02  0.00000000000E+00 0. -1.
</event>
<event>
 7    1  0.8986500E-014  0.5052884E+02  0.7816164E-02  0.1300439E+00
        -11   -1    0    0    0    0  0.00000000000E+00  0.00000000000E+00  0.45593999997E+02  0.45594000000E+02  0.51100000000E-03 0. -1.
         11   -1    0    0    0    0 -0.00000000000E+00 -0.00000000000E+00 -0.45593999997E+02  0.45594000000E+02  0.51100000000E-03 0.  1.
    9900012    2    1    2    0    0  0.86213006625E+01 -0.47462247611E+01 -0.39450141917E+02  0.50528841476E+02  0.29999944150E+02 0.  0.
         12    1    1    2    0    0 -0.86213006625E+01  0.47462247611E+01  0.39450141917E+02  0.40659158524E+02  0.00000000000E+00 0. -1.
         11    1    3    3    0    0 -0.39830864321E+01  0.18615813612E+01 -0.15291525375E+02  0.15911040545E+02  0.51100000000E-03 0. -1.
        -11    1    3    3    0    0  0.10108805666E+02 -0.12763913881E+02 -0.22496239622E+02  0.27770240311E+02  0.51100000000E-03 0.  1.
        -12    1    3    3    0    0  0.24955814288E+01  0.61561077589E+01 -0.16623769204E+01  0.68475606191E+01  0.00000000000E+00 0.  1.
</event>
<event>
 7    1  0.8986500E-014  0.5052880E+02  0.7816164E-02  0.1300439E+00
        -11   -1    0    0    0    0  0.00000000000E+00  0.00000000000E+00  0.45593999997E+02  0.45594000000E+02  0.51100000000E-03 0. -1.
         11   -1    0    0    0    0 -0.00000000000E+00 -0.00000000000E+00 -0.45593999997E+02  0.45594000000E+02  0.51100000000E-03 0.  1.
    9900012    2    1    2    0    0 -0.26903100600E+02  0.41619123135E+01  0.30200529690E+02  0.50528802645E+02  0.29999826119E+02 0.  0.
        -12    1    1    2    0    0  0.26903100600E+02 -0.41619123135E+01 -0.30200529690E+02  0.40659197355E+02  0.00000000000E+00 0.  1.
         11    1    3    3    0    0 -0.11065221071E+01  0.50367186563E+01  0.21941987123E+01  0.56042336003E+01  0.51100000000E-03 0. -1.
        -11    1    3    3    0    0 -0.19004032589E+02 -0.11520631731E+02  0.15100934800E+02  0.26868502791E+02  0.51100000000E-03 0.  1.
         12    1    3    3    0    0 -0.67925459045E+01  0.10645825388E+02  0.12905396177E+02  0.18056066254E+02  0.00000000000E+00 0. -1.
</event>
<event>
 7    1  0.8986500E-014  0.5052886E+02  0.7816164E-02  0.1300439E+00
        -11   -1    0    0    0    0  0.00000000000E+00  0.00000000000E+00  0.45593999997E+02  0.45594000000E+02  0.51100000000E-03 0. -1.
         11   -1    0    0    0    0 -0.00000000000E+00 -0.00000000000E+00 -0.45593999997E+02  0.45594000000E+02  0.51100000000E-03 0.  1.
    9900012    2    1    2    0    0 -0.30002906733E+02  0.18913049371E+02  0.19881851898E+02  0.50528857316E+02  0.29999992297E+02 0.  0.
        -12    1    1    2    0    0  0.30002906733E+02 -0.18913049371E+02 -0.19881851898E+02  0.40659142684E+02  0.00000000000E+00 0.  1.
         11    1    3    3    0    0  0.90111367561E+00  0.57025235445E+01  0.21390670950E+01  0.61568164606E+01  0.51100000000E-03 0. -1.
        -11    1    3    3    0    0  0.28437804224E+01  0.25514194970E+01  0.59440208900E+01  0.70659898912E+01  0.51100000000E-03 0.  1.
         12    1    3    3    0    0 -0.33747800831E+02  0.10659106330E+02  0.11798763913E+02  0.37306050964E+02  0.00000000000E+00 0. -1.
</event>
<event>
 7    1  0.8986500E-014  0.5052885E+02  0.7816164E-02  0.1300439E+00
        -11   -1    0    0    0    0  0.00000000000E+00  0.00000000000E+00  0.45593999997E+02  0.45594000000E+02  0.51100000000E-03 0. -1.
         11   -1    0    0    0    0 -0.00000000000E+00 -0.00000000000E+00 -0.45593999997E+02  0.45594000000E+02  0.51100000000E-03 0.  1.
    9900012    2    1    2    0    0 -0.12238004792E+02 -0.22319892128E+02 -0.31705201287E+02  0.50528854232E+02  0.29999982924E+02 0.  0.
         12    1    1    2    0    0  0.12238004792E+02  0.22319892128E+02  0.31705201287E+02  0.40659145768E+02  0.00000000000E+00 0. -1.
         11    1    3    3    0    0  0.45390593233E+00  0.31917187704E+01 -0.12666539924E+01  0.34637424706E+01  0.51100000000E-03 0. -1.
        -11    1    3    3    0    0 -0.41580973294E+01 -0.17265642143E+01 -0.18641317748E+02  0.19177317984E+02  0.51100000000E-03 0.  1.
        -12    1    3    3    0    0 -0.85338133949E+01 -0.23785046684E+02 -0.11797229547E+02  0.27887793778E+02  0.00000000000E+00 0.  1.
</event>
<event>
 7    1  0.8986500E-014  0.5052886E+02  0.7816164E-02  0.1300439E+00
        -11   -1    0    0    0    0  0.00000000000E+00  0.00000000000E+00  0.45593999997E+02  0.45594000000E+02  0.51100000000E-03 0. -1.
         11   -1    0    0    0    0 -0.00000000000E+00 -0.00000000000E+00 -0.45593999997E+02  0.45594000000E+02  0.51100000000E-03 0.  1.
    9900012    2    1    2    0    0 -0.73354432129E+01 -0.10752492812E+02 -0.38519355547E+02  0.50528861045E+02  0.30000003633E+02 0.  0.
         12    1    1    2    0    0  0.73354432129E+01  0.10752492812E+02  0.38519355547E+02  0.40659138955E+02  0.00000000000E+00 0. -1.
         11    1    3    3    0    0 -0.16469577828E+02 -0.13348949346E+01 -0.11348568581E+02  0.20045422106E+02  0.51100000000E-03 0. -1.
        -11    1    3    3    0    0 -0.31238207234E+00 -0.67815464891E+00 -0.59147304693E+00  0.95253184373E+00  0.51100000000E-03 0.  1.
        -12    1    3    3    0    0  0.94465166873E+01 -0.87394432285E+01 -0.26579313919E+02  0.29530907095E+02  0.00000000000E+00 0.  1.
</event>
<event>
 7    1  0.8986500E-014  0.5052886E+02  0.7816164E-02  0.1300439E+00
        -11   -1    0    0    0    0  0.00000000000E+00  0.00000000000E+00  0.45593999997E+02  0.45594000000E+02  0.51100000000E-03 0. -1.
         11   -1    0    0    0    0 -0.00000000000E+00 -0.00000000000E+00 -0.45593999997E+02  0.45594000000E+02  0.51100000000E-03 0.  1.
    9900012    2    1    2    0    0 -0.18963010814E+02 -0.94708399320E+01  0.34696877279E+02  0.50528857350E+02  0.29999992400E+02 0.  0.
        -12    1    1    2    0    0  0.18963010814E+02  0.94708399320E+01 -0.34696877279E+02  0.40659142650E+02  0.00000000000E+00 0.  1.
         11    1    3    3    0    0 -0.11161775394E+01 -0.12654164678E+02  0.89086285166E+01  0.15515714560E+02  0.51100000000E-03 0. -1.
        -11    1    3    3    0    0  0.84046314747E+00 -0.36526096171E+01  0.34030181722E+01  0.50624567414E+01  0.51100000000E-03 0.  1.
         12    1    3    3    0    0 -0.18687296422E+02  0.68359343631E+01  0.22385230590E+02  0.29950686048E+02  0.00000000000E+00 0. -1.
</event>
<event>
 7    1  0.8986500E-014  0.5052886E+02  0.7816164E-02  0.1300439E+00
        -11   -1    0    0    0    0  0.00000000000E+00  0.00000000000E+00  0.45593999997E+02  0.45594000000E+02  0.51100000000E-03 0. -1.
         11   -1    0    0    0    0 -0.00000000000E+00 -0.00000000000E+00 -0.45593999997E+02  0.45594000000E+02  0.51100000000E-03 0.  1.
    9900012    2    1    2    0    0 -0.19482540446E+02 -0.24081738285E+02 -0.26337544284E+02  0.50528859085E+02  0.29999997675E+02 0.  0.
         12    1    1    2    0    0  0.19482540446E+02  0.24081738285E+02  0.26337544284E+02  0.40659140915E+02  0.00000000000E+00 0. -1.
         11    1    3    3    0    0 -0.92020689002E+01 -0.70926114984E+01 -0.24850124094E+02  0.27431949943E+02  0.51100000000E-03 0.  1.
        -11    1    3    3    0    0 -0.11034331042E+02 -0.76395158722E+01  0.79128516427E+00  0.13444136148E+02  0.51100000000E-03 0. -1.
        -12    1    3    3    0    0  0.75385949596E+00 -0.93496109140E+01 -0.22787053541E+01  0.96527729940E+01  0.00000000000E+00 0.  1.
</event>
<event>
 7    1  0.8986500E-014  0.5052886E+02  0.7816164E-02  0.1300439E+00
        -11   -1    0    0    0    0  0.00000000000E+00  0.00000000000E+00  0.45593999997E+02  0.45594000000E+02  0.51100000000E-03 0. -1.
         11   -1    0    0    0    0 -0.00000000000E+00 -0.00000000000E+00 -0.45593999997E+02  0.45594000000E+02  0.51100000000E-03 0.  1.
    9900012    2    1    2    0    0  0.24060362898E+02 -0.22383630364E+02 -0.23942383259E+02  0.50528859734E+02  0.29999999646E+02 0.  0.
         12    1    1    2    0    0 -0.24060362898E+02  0.22383630364E+02  0.23942383259E+02  0.40659140266E+02  0.00000000000E+00 0. -1.
         11    1    3    3    0    0  0.15774170931E+02 -0.38814757685E+01 -0.14175135865E+02  0.21559795912E+02  0.51100000000E-03 0. -1.
        -11    1    3    3    0    0  0.12610071430E+02 -0.13690299195E+02 -0.11976459681E+02  0.22133092425E+02  0.51100000000E-03 0.  1.
         12    1    3    3    0    0 -0.43238794633E+01 -0.48118554007E+01  0.22092122872E+01  0.68359713970E+01  0.00000000000E+00 0. -1.
</event>
<event>
 7    1  0.8986500E-014  0.5052886E+02  0.7816164E-02  0.1300439E+00
        -11   -1    0    0    0    0  0.00000000000E+00  0.00000000000E+00  0.45593999997E+02  0.45594000000E+02  0.51100000000E-03 0. -1.
         11   -1    0    0    0    0 -0.00000000000E+00 -0.00000000000E+00 -0.45593999997E+02  0.45594000000E+02  0.51100000000E-03 0.  1.
    9900012    2    1    2    0    0  0.17979793400E+02 -0.14571258377E+02  0.33430094355E+02  0.50528858961E+02  0.29999997299E+02 0.  0.
        -12    1    1    2    0    0 -0.17979793400E+02  0.14571258377E+02 -0.33430094355E+02  0.40659141039E+02  0.00000000000E+00 0.  1.
         11    1    3    3    0    0 -0.27300235979E+01 -0.63002385913E+01  0.69325785926E+01  0.97573911143E+01  0.51100000000E-03 0. -1.
        -11    1    3    3    0    0  0.53954401374E+01 -0.13047882152E+02  0.77835217026E+01  0.16122692495E+02  0.51100000000E-03 0.  1.
        -12    1    3    3    0    0  0.15314376860E+02  0.47768623658E+01  0.18713994060E+02  0.24648775352E+02  0.00000000000E+00 0.  1.
</event>
<event>
 7    1  0.8986500E-014  0.5052887E+02  0.7816164E-02  0.1300439E+00
        -11   -1    0    0    0    0  0.00000000000E+00  0.00000000000E+00  0.45593999997E+02  0.45594000000E+02  0.51100000000E-03 0. -1.
         11   -1    0    0    0    0 -0.00000000000E+00 -0.00000000000E+00 -0.45593999997E+02  0.45594000000E+02  0.51100000000E-03 0.  1.
    9900012    2    1    2    0    0 -0.23132949619E+02  0.32516562632E+02 -0.77913150536E+01  0.50528870720E+02  0.30000033042E+02 0.  0.
         12    1    1    2    0    0  0.23132949619E+02 -0.32516562632E+02  0.77913150536E+01  0.40659129280E+02  0.00000000000E+00 0. -1.
         11    1    3    3    0    0 -0.49749806399E+01 -0.36149232731E+01 -0.17904893893E+01  0.64049945474E+01  0.51100000000E-03 0. -1.
        -11    1    3    3    0    0 -0.86582070603E+01  0.29721056191E+01 -0.22547894759E+01  0.94277270406E+01  0.51100000000E-03 0.  1.
        -12    1    3    3    0    0 -0.94997619192E+01  0.33159380286E+02 -0.37460361884E+01  0.34696149132E+02  0.00000000000E+00 0.  1.
</event>
<event>
 7    1  0.8986500E-014  0.5052887E+02  0.7816164E-02  0.1300439E+00
        -11   -1    0    0    0    0  0.00000000000E+00  0.00000000000E+00  0.45593999997E+02  0.45594000000E+02  0.51100000000E-03 0. -1.
         11   -1    0    0    0    0 -0.00000000000E+00 -0.00000000000E+00 -0.45593999997E+02  0.45594000000E+02  0.51100000000E-03 0.  1.
    9900012    2    1    2    0    0 -0.17815763156E+02 -0.29611378049E+02 -0.21422643910E+02  0.50528870657E+02  0.30000032849E+02 0.  0.
         12    1    1    2    0    0  0.17815763156E+02  0.29611378049E+02  0.21422643910E+02  0.40659129343E+02  0.00000000000E+00 0. -1.
         11    1    3    3    0    0 -0.30563007903E+01 -0.11317360473E+01  0.16325289778E+01  0.36451271756E+01  0.51100000000E-03 0. -1.
        -11    1    3    3    0    0 -0.20613415219E+02 -0.21010385162E+02 -0.10730457580E+02  0.31328770991E+02  0.51100000000E-03 0.  1.
         12    1    3    3    0    0  0.58539528537E+01 -0.74692568402E+01 -0.12324715308E+02  0.15554972491E+02  0.00000000000E+00 0. -1.
</event>
<event>
 7    1  0.8986500E-014  0.5052887E+02  0.7816164E-02  0.1300439E+00
        -11   -1    0    0    0    0  0.00000000000E+00  0.00000000000E+00  0.45593999997E+02  0.45594000000E+02  0.51100000000E-03 0. -1.
         11   -1    0    0    0    0 -0.00000000000E+00 -0.00000000000E+00 -0.45593999997E+02  0.45594000000E+02  0.51100000000E-03 0.  1.
    9900012    2    1    2    0    0  0.16842059539E+02 -0.32477322657E+01  0.36864108115E+02  0.50528865707E+02  0.30000017802E+02 0.  0.
        -12    1    1    2    0    0 -0.16842059539E+02  0.32477322657E+01 -0.36864108115E+02  0.40659134293E+02  0.00000000000E+00 0.  1.
         11    1    3    3    0    0  0.14255486766E+02  0.78055770359E+00  0.12045195406E+02  0.18679264062E+02  0.51100000000E-03 0. -1.
        -11    1    3    3    0    0 -0.14798102900E+01  0.18037322068E+01 -0.26178536599E+01  0.35066289245E+01  0.51100000000E-03 0.  1.
        -12    1    3    3    0    0  0.40663830632E+01 -0.58320221761E+01  0.27436766368E+02  0.28342972720E+02  0.00000000000E+00 0.  1.
</event>
<event>
 7    1  0.9617290E-014  0.5052881E+02  0.7816164E-02  0.1300439E+00
        -11   -1    0    0    0    0  0.00000000000E+00  0.00000000000E+00  0.45593999997E+02  0.45594000000E+02  0.51100000000E-03 0. -1.
         11   -1    0    0    0    0 -0.00000000000E+00 -0.00000000000E+00 -0.45593999997E+02  0.45594000000E+02  0.51100000000E-03 0.  1.
    9900012    2    1    2    0    0  0.16582092475E+01  0.35251090785E+01  0.40472135877E+02  0.50528808735E+02  0.29999844630E+02 0.  0.
        -12    1    1    2    0    0 -0.16582092475E+01 -0.35251090785E+01 -0.40472135877E+02  0.40659191265E+02  0.00000000000E+00 0.  1.
         11    1    3    3    0    0  0.51664915855E+01 -0.27141621148E+01  0.35603268192E+01  0.68363176205E+01  0.51100000000E-03 0. -1.
        -11    1    3    3    0    0 -0.25939507898E+01  0.12891463259E+02  0.11698516003E+02  0.17600388706E+02  0.51100000000E-03 0.  1.
         12    1    3    3    0    0 -0.91433154825E+00 -0.66521920656E+01  0.25213293054E+02  0.26092102409E+02  0.00000000000E+00 0. -1.
</event>
<event>
 7    1  0.1888009E-013  0.5052885E+02  0.7816164E-02  0.1300439E+00
        -11   -1    0    0    0    0  0.00000000000E+00  0.00000000000E+00  0.45593999997E+02  0.45594000000E+02  0.51100000000E-03 0. -1.
         11   -1    0    0    0    0 -0.00000000000E+00 -0.00000000000E+00 -0.45593999997E+02  0.45594000000E+02  0.51100000000E-03 0.  1.
    9900012    2    1    2    0    0  0.43203054562E+01  0.65793015602E+00  0.40423609846E+02  0.50528854112E+02  0.29999982559E+02 0.  0.
        -12    1    1    2    0    0 -0.43203054562E+01 -0.65793015602E+00 -0.40423609846E+02  0.40659145888E+02  0.00000000000E+00 0.  1.
         11    1    3    3    0    0  0.75529924852E+01 -0.63053053773E+01  0.21249455152E+02  0.23416744349E+02  0.51100000000E-03 0. -1.
        -11    1    3    3    0    0  0.30612577463E+01  0.39400753900E+01 -0.15649118134E+01  0.52291913632E+01  0.51100000000E-03 0.  1.
         12    1    3    3    0    0 -0.62939447753E+01  0.30231601433E+01  0.20739066508E+02  0.21882918400E+02  0.00000000000E+00 0. -1.
</event>
<event>
 7    1  0.8986500E-014  0.5052886E+02  0.7816164E-02  0.1300439E+00
        -11   -1    0    0    0    0  0.00000000000E+00  0.00000000000E+00  0.45593999997E+02  0.45594000000E+02  0.51100000000E-03 0. -1.
         11   -1    0    0    0    0 -0.00000000000E+00 -0.00000000000E+00 -0.45593999997E+02  0.45594000000E+02  0.51100000000E-03 0.  1.
    9900012    2    1    2    0    0  0.29301361384E+01 -0.64410207739E+01 -0.40038645210E+02  0.50528861339E+02  0.30000004527E+02 0.  0.
         12    1    1    2    0    0 -0.29301361384E+01  0.64410207739E+01  0.40038645210E+02  0.40659138661E+02  0.00000000000E+00 0. -1.
         11    1    3    3    0    0 -0.16744036355E+01 -0.42808012282E+01 -0.12939533192E+02  0.13731729904E+02  0.51100000000E-03 0. -1.
        -11    1    3    3    0    0  0.63880322323E+01 -0.62340387735E+01 -0.30124140146E+02  0.31418688945E+02  0.51100000000E-03 0.  1.
         12    1    3    3    0    0 -0.17834924584E+01  0.40738192278E+01  0.30250281276E+01  0.53784424904E+01  0.00000000000E+00 0. -1.
</event>
<event>
 7    1  0.8986500E-014  0.5052886E+02  0.7816164E-02  0.1300439E+00
        -11   -1    0    0    0    0  0.00000000000E+00  0.00000000000E+00  0.45593999997E+02  0.45594000000E+02  0.51100000000E-03 0. -1.
         11   -1    0    0    0    0 -0.00000000000E+00 -0.00000000000E+00 -0.45593999997E+02  0.45594000000E+02  0.51100000000E-03 0.  1.
    9900012    2    1    2    0    0 -0.15767170537E+02  0.13452422035E+02 -0.34979914615E+02  0.50528858939E+02  0.29999997232E+02 0.  0.
         12    1    1    2    0    0  0.15767170537E+02 -0.13452422035E+02  0.34979914615E+02  0.40659141061E+02  0.00000000000E+00 0. -1.
         11    1    3    3    0    0 -0.19883644044E+01  0.54720807764E+01 -0.19646922617E+01  0.61446950268E+01  0.51100000000E-03 0. -1.
        -11    1    3    3    0    0 -0.98574176353E+01  0.15830104449E+02 -0.29566054457E+02  0.34955864540E+02  0.51100000000E-03 0.  1.
        -12    1    3    3    0    0 -0.39213884973E+01 -0.78497631902E+01 -0.34491678957E+01  0.94282993727E+01  0.00000000000E+00 0.  1.
</event>
<event>
 7    1  0.8986500E-014  0.5052887E+02  0.7816164E-02  0.1300439E+00
        -11   -1    0    0    0    0  0.00000000000E+00  0.00000000000E+00  0.45593999997E+02  0.45594000000E+02  0.51100000000E-03 0.  1.
         11   -1    0    0    0    0 -0.00000000000E+00 -0.00000000000E+00 -0.45593999997E+02  0.45594000000E+02  0.51100000000E-03 0. -1.
    9900012    2    1    2    0    0  0.11252448104E+02 -0.37102171461E+02 -0.12246470434E+02  0.50528871215E+02  0.30000034545E+02 0.  0.
         12    1    1    2    0    0 -0.11252448104E+02  0.37102171461E+02  0.12246470434E+02  0.40659128785E+02  0.00000000000E+00 0. -1.
         11    1    3    3    0    0  0.11802525544E+00 -0.73899471420E+01  0.76595261540E+01  0.10643946161E+02  0.51100000000E-03 0. -1.
        -11    1    3    3    0    0  0.37810897756E+01 -0.42126018934E+01  0.14238481682E+01  0.58369511280E+01  0.51100000000E-03 0.  1.
         12    1    3    3    0    0  0.73533330729E+01 -0.25499622426E+02 -0.21329844756E+02  0.34047973926E+02  0.00000000000E+00 0. -1.
</event>
<event>
 7    1  0.8986500E-014  0.5052889E+02  0.7816164E-02  0.1300439E+00
        -11   -1    0    0    0    0  0.00000000000E+00  0.00000000000E+00  0.45593999997E+02  0.45594000000E+02  0.51100000000E-03 0.  1.
         11   -1    0    0    0    0 -0.00000000000E+00 -0.00000000000E+00 -0.45593999997E+02  0.45594000000E+02  0.51100000000E-03 0. -1.
    9900012    2    1    2    0    0 -0.38218363448E+01  0.38633265615E+02 -0.12084192491E+02  0.50528888434E+02  0.30000086885E+02 0.  0.
        -12    1    1    2    0    0  0.38218363448E+01 -0.38633265615E+02  0.12084192491E+02  0.40659111566E+02  0.00000000000E+00 0.  1.
         11    1    3    3    0    0 -0.62029079981E+01 -0.13877918251E+01 -0.19841510210E+01  0.66587453261E+01  0.51100000000E-03 0.  1.
        -11    1    3    3    0    0 -0.53401978771E+01  0.26470854475E+02 -0.77821973592E+01  0.28103139433E+02  0.51100000000E-03 0. -1.
        -12    1    3    3    0    0  0.77212695304E+01  0.13550202965E+02 -0.23178441103E+01  0.15767003675E+02  0.00000000000E+00 0.  1.
</event>
<event>
 7    1  0.8986500E-014  0.5052886E+02  0.7816164E-02  0.1300439E+00
        -11   -1    0    0    0    0  0.00000000000E+00  0.00000000000E+00  0.45593999997E+02  0.45594000000E+02  0.51100000000E-03 0. -1.
         11   -1    0    0    0    0 -0.00000000000E+00 -0.00000000000E+00 -0.45593999997E+02  0.45594000000E+02  0.51100000000E-03 0.  1.
    9900012    2    1    2    0    0  0.62322101318E+00  0.26350750384E+02 -0.30958281056E+02  0.50528860607E+02  0.30000002301E+02 0.  0.
         12    1    1    2    0    0 -0.62322101318E+00 -0.26350750384E+02  0.30958281056E+02  0.40659139393E+02  0.00000000000E+00 0. -1.
         11    1    3    3    0    0 -0.81989344756E+01  0.44526306538E+01 -0.94352088157E+01  0.13269197863E+02  0.51100000000E-03 0. -1.
        -11    1    3    3    0    0 -0.58852722778E+01  0.45451248397E+01 -0.73663626935E+01  0.10466990455E+02  0.51100000000E-03 0.  1.
        -12    1    3    3    0    0  0.14707427767E+02  0.17352994890E+02 -0.14156709547E+02  0.26792672289E+02  0.00000000000E+00 0.  1.
</event>
<event>
 7    1  0.8986500E-014  0.5052886E+02  0.7816164E-02  0.1300439E+00
        -11   -1    0    0    0    0  0.00000000000E+00  0.00000000000E+00  0.45593999997E+02  0.45594000000E+02  0.51100000000E-03 0. -1.
         11   -1    0    0    0    0 -0.00000000000E+00 -0.00000000000E+00 -0.45593999997E+02  0.45594000000E+02  0.51100000000E-03 0.  1.
    9900012    2    1    2    0    0  0.23291032061E+02 -0.28234752334E+02 -0.17705705528E+02  0.50528862994E+02  0.30000009557E+02 0.  0.
         12    1    1    2    0    0 -0.23291032061E+02  0.28234752334E+02  0.17705705528E+02  0.40659137006E+02  0.00000000000E+00 0. -1.
         11    1    3    3    0    0  0.10520420972E+01  0.35531638873E+01  0.22742415605E+01  0.43478662722E+01  0.51100000000E-03 0. -1.
        -11    1    3    3    0    0  0.20595337571E+01 -0.44808062648E+01 -0.94026897590E+01  0.10617432790E+02  0.51100000000E-03 0.  1.
        -12    1    3    3    0    0  0.20179456206E+02 -0.27307109956E+02 -0.10577257330E+02  0.35563563932E+02  0.00000000000E+00 0.  1.
</event>
<event>
 7    1  0.8986500E-014  0.5052885E+02  0.7816164E-02  0.1300439E+00
        -11   -1    0    0    0    0  0.00000000000E+00  0.00000000000E+00  0.45593999997E+02  0.45594000000E+02  0.51100000000E-03 0. -1.
         11   -1    0    0    0    0 -0.00000000000E+00 -0.00000000000E+00 -0.45593999997E+02  0.45594000000E+02  0.51100000000E-03 0.  1.
    9900012    2    1    2    0    0 -0.34063454244E+02 -0.11223692315E+02  0.19154005576E+02  0.50528854487E+02  0.29999983699E+02 0.  0.
        -12    1    1    2    0    0  0.34063454244E+02  0.11223692315E+02 -0.19154005576E+02  0.40659145513E+02  0.00000000000E+00 0.  1.
         11    1    3    3    0    0 -0.78853739484E+01 -0.16750813142E+01  0.90368381655E+01  0.12109891164E+02  0.51100000000E-03 0. -1.
        -11    1    3    3    0    0 -0.22420162778E+02 -0.12507188403E+02  0.16444062674E+02  0.30487713234E+02  0.51100000000E-03 0.  1.
        -12    1    3    3    0    0 -0.37579175175E+01  0.29585774021E+01 -0.63268952627E+01  0.79312500892E+01  0.00000000000E+00 0.  1.
</event>
<event>
 7    1  0.8986500E-014  0.5052885E+02  0.7816164E-02  0.1300439E+00
        -11   -1    0    0    0    0  0.00000000000E+00  0.00000000000E+00  0.45593999997E+02  0.45594000000E+02  0.51100000000E-03 0.  1.
         11   -1    0    0    0    0 -0.00000000000E+00 -0.00000000000E+00 -0.45593999997E+02  0.45594000000E+02  0.51100000000E-03 0. -1.
    9900012    2    1    2    0    0  0.35735912468E+02 -0.18926225132E+02  0.42319192951E+01  0.50528848772E+02  0.29999966328E+02 0.  0.
         12    1    1    2    0    0 -0.35735912468E+02  0.18926225132E+02 -0.42319192951E+01  0.40659151228E+02  0.00000000000E+00 0. -1.
         11    1    3    3    0    0 -0.17126561030E+01  0.30076115914E+01 -0.21369009814E+01  0.40675870584E+01  0.51100000000E-03 0. -1.
        -11    1    3    3    0    0  0.17573344334E+02 -0.12729645796E+02 -0.42630109674E+01  0.22114239213E+02  0.51100000000E-03 0.  1.
        -12    1    3    3    0    0  0.19875224237E+02 -0.92041909272E+01  0.10631831244E+02  0.24347022501E+02  0.00000000000E+00 0.  1.
</event>
<event>
 7    1  0.8986500E-014  0.5052886E+02  0.7816164E-02  0.1300439E+00
        -11   -1    0    0    0    0  0.00000000000E+00  0.00000000000E+00  0.45593999997E+02  0.45594000000E+02  0.51100000000E-03 0. -1.
         11   -1    0    0    0    0 -0.00000000000E+00 -0.00000000000E+00 -0.45593999997E+02  0.45594000000E+02  0.51100000000E-03 0.  1.
    9900012    2    1    2    0    0  0.47356745008E+01  0.24489573624E+02 -0.32109192138E+02  0.50528855284E+02  0.29999986121E+02 0.  0.
         12    1    1    2    0    0 -0.47356745008E+01 -0.24489573624E+02  0.32109192138E+02  0.40659144716E+02  0.00000000000E+00 0. -1.
         11    1    3    3    0    0 -0.15846316489E+01 -0.33867438648E+01 -0.10805948237E+02  0.11434579530E+02  0.51100000000E-03 0. -1.
        -11    1    3    3    0    0  0.85578480645E+01  0.83777928985E+01 -0.13303859640E+02  0.17900191589E+02  0.51100000000E-03 0.  1.
         12    1    3    3    0    0 -0.22375419149E+01  0.19498524590E+02 -0.79993842609E+01  0.21194084164E+02  0.00000000000E+00 0. -1.
</event>
<event>
 7    1  0.8986500E-014  0.5052886E+02  0.7816164E-02  0.1300439E+00
        -11   -1    0    0    0    0  0.00000000000E+00  0.00000000000E+00  0.45593999997E+02  0.45594000000E+02  0.51100000000E-03 0. -1.
         11   -1    0    0    0    0 -0.00000000000E+00 -0.00000000000E+00 -0.45593999997E+02  0.45594000000E+02  0.51100000000E-03 0.  1.
    9900012    2    1    2    0    0  0.17256215889E+02 -0.12965925847E+01 -0.36792769107E+02  0.50528855916E+02  0.29999988041E+02 0.  0.
         12    1    1    2    0    0 -0.17256215889E+02  0.12965925847E+01  0.36792769107E+02  0.40659144084E+02  0.00000000000E+00 0. -1.
         11    1    3    3    0    0 -0.10525505024E+01  0.38119671437E+01 -0.21597557020E+02  0.21956626006E+02  0.51100000000E-03 0. -1.
        -11    1    3    3    0    0 -0.13877132921E+01 -0.24610023586E+01 -0.60872300200E+01  0.67109351336E+01  0.51100000000E-03 0.  1.
        -12    1    3    3    0    0  0.19696479684E+02 -0.26475573699E+01 -0.91079820665E+01  0.21861294776E+02  0.00000000000E+00 0.  1.
</event>
<event>
 7    1  0.8986500E-014  0.5052888E+02  0.7816164E-02  0.1300439E+00
        -11   -1    0    0    0    0  0.00000000000E+00  0.00000000000E+00  0.45593999997E+02  0.45594000000E+02  0.51100000000E-03 0. -1.
         11   -1    0    0    0    0 -0.00000000000E+00 -0.00000000000E+00 -0.45593999997E+02  0.45594000000E+02  0.51100000000E-03 0.  1.
    9900012    2    1    2    0    0 -0.20741818112E+02  0.69471886708E+01 -0.34273575653E+02  0.50528875107E+02  0.30000046375E+02 0.  0.
         12    1    1    2    0    0  0.20741818112E+02 -0.69471886708E+01  0.34273575653E+02  0.40659124893E+02  0.00000000000E+00 0. -1.
         11    1    3    3    0    0  0.29820249324E+01 -0.32261096114E+01 -0.10491117514E+02  0.11373820944E+02  0.51100000000E-03 0. -1.
        -11    1    3    3    0    0 -0.52137933756E+01  0.27815401969E+00 -0.15899083827E+02  0.16734451823E+02  0.51100000000E-03 0.  1.
        -12    1    3    3    0    0 -0.18510049669E+02  0.98951442625E+01 -0.78833743118E+01  0.22420602339E+02  0.00000000000E+00 0.  1.
</event>
<event>
 7    1  0.8986500E-014  0.5052886E+02  0.7816164E-02  0.1300439E+00
        -11   -1    0    0    0    0  0.00000000000E+00  0.00000000000E+00  0.45593999997E+02  0.45594000000E+02  0.51100000000E-03 0. -1.
         11   -1    0    0    0    0 -0.00000000000E+00 -0.00000000000E+00 -0.45593999997E+02  0.45594000000E+02  0.51100000000E-03 0.  1.
    9900012    2    1    2    0    0 -0.22841769792E+01 -0.53804195306E+01  0.40236786484E+02  0.50528863691E+02  0.30000011676E+02 0.  0.
        -12    1    1    2    0    0  0.22841769792E+01  0.53804195306E+01 -0.40236786484E+02  0.40659136309E+02  0.00000000000E+00 0.  1.
         11    1    3    3    0    0  0.82514289488E+01 -0.19223522298E-02  0.13231885532E+02  0.15593873104E+02  0.51100000000E-03 0. -1.
        -11    1    3    3    0    0  0.30318003623E+01  0.30336517386E+01  0.13032919858E+02  0.13720490392E+02  0.51100000000E-03 0.  1.
        -12    1    3    3    0    0 -0.13567406290E+02 -0.84121489170E+01  0.13971981095E+02  0.21214500196E+02  0.00000000000E+00 0.  1.
</event>
<event>
 7    1  0.8986500E-014  0.5052886E+02  0.7816164E-02  0.1300439E+00
        -11   -1    0    0    0    0  0.00000000000E+00  0.00000000000E+00  0.45593999997E+02  0.45594000000E+02  0.51100000000E-03 0. -1.
         11   -1    0    0    0    0 -0.00000000000E+00 -0.00000000000E+00 -0.45593999997E+02  0.45594000000E+02  0.51100000000E-03 0.  1.
    9900012    2    1    2    0    0 -0.75731478961E+01 -0.12139183799E+02 -0.38058547713E+02  0.50528863187E+02  0.30000010144E+02 0.  0.
         12    1    1    2    0    0  0.75731478961E+01  0.12139183799E+02  0.38058547713E+02  0.40659136813E+02  0.00000000000E+00 0. -1.
         11    1    3    3    0    0 -0.13661675611E+01 -0.35811725506E+01  0.19802506387E+00  0.38380235577E+01  0.51100000000E-03 0. -1.
        -11    1    3    3    0    0  0.82537532384E+01 -0.64372232502E+01 -0.82983153992E+01  0.13357556828E+02  0.51100000000E-03 0.  1.
        -12    1    3    3    0    0 -0.14460733573E+02 -0.21207879983E+01 -0.29958257377E+02  0.33333282801E+02  0.00000000000E+00 0.  1.
</event>
<event>
 7    1  0.8986500E-014  0.5052887E+02  0.7816164E-02  0.1300439E+00
        -11   -1    0    0    0    0  0.00000000000E+00  0.00000000000E+00  0.45593999997E+02  0.45594000000E+02  0.51100000000E-03 0. -1.
         11   -1    0    0    0    0 -0.00000000000E+00 -0.00000000000E+00 -0.45593999997E+02  0.45594000000E+02  0.51100000000E-03 0.  1.
    9900012    2    1    2    0    0  0.33138580925E+02  0.68651481268E+01 -0.22535958181E+02  0.50528865533E+02  0.30000017273E+02 0.  0.
         12    1    1    2    0    0 -0.33138580925E+02 -0.68651481268E+01  0.22535958181E+02  0.40659134467E+02  0.00000000000E+00 0. -1.
         11    1    3    3    0    0  0.30090436300E+01  0.72410933742E+01 -0.56538021318E+01  0.96671224068E+01  0.51100000000E-03 0. -1.
        -11    1    3    3    0    0  0.82740252070E+01 -0.54171414480E+01 -0.15504539327E+02  0.18390096645E+02  0.51100000000E-03 0.  1.
        -12    1    3    3    0    0  0.21855512088E+02  0.50411962006E+01 -0.13776167221E+01  0.22471646481E+02  0.00000000000E+00 0.  1.
</event>
<event>
 7    1  0.8986500E-014  0.5052887E+02  0.7816164E-02  0.1300439E+00
        -11   -1    0    0    0    0  0.00000000000E+00  0.00000000000E+00  0.45593999997E+02  0.45594000000E+02  0.51100000000E-03 0.  1.
         11   -1    0    0    0    0 -0.00000000000E+00 -0.00000000000E+00 -0.45593999997E+02  0.45594000000E+02  0.51100000000E-03 0. -1.
    9900012    2    1    2    0    0  0.36477532225E+02 -0.16613772904E+02 -0.68217946698E+01  0.50528871998E+02  0.30000036925E+02 0.  0.
         12    1    1    2    0    0 -0.36477532225E+02  0.16613772904E+02  0.68217946698E+01  0.40659128002E+02  0.00000000000E+00 0. -1.
         11    1    3    3    0    0  0.27904898189E+02 -0.94126713670E+01 -0.14172516144E+01  0.29483729880E+02  0.51100000000E-03 0.  1.
        -11    1    3    3    0    0  0.79017125744E+01 -0.53530330489E+01  0.47787929621E+01  0.10673747555E+02  0.51100000000E-03 0. -1.
         12    1    3    3    0    0  0.67092146147E+00 -0.18480684883E+01 -0.10183336017E+02  0.10371394563E+02  0.00000000000E+00 0. -1.
</event>
<event>
 7    1  0.8986500E-014  0.5052886E+02  0.7816164E-02  0.1300439E+00
        -11   -1    0    0    0    0  0.00000000000E+00  0.00000000000E+00  0.45593999997E+02  0.45594000000E+02  0.51100000000E-03 0. -1.
         11   -1    0    0    0    0 -0.00000000000E+00 -0.00000000000E+00 -0.45593999997E+02  0.45594000000E+02  0.51100000000E-03 0.  1.
    9900012    2    1    2    0    0 -0.12111127627E+02  0.23925920719E+02 -0.30562005994E+02  0.50528864434E+02  0.30000013932E+02 0.  0.
         12    1    1    2    0    0  0.12111127627E+02 -0.23925920719E+02  0.30562005994E+02  0.40659135566E+02  0.00000000000E+00 0. -1.
         11    1    3    3    0    0  0.36796800462E+01  0.29110126705E+01 -0.37213213530E+01  0.59885117420E+01  0.51100000000E-03 0. -1.
        -11    1    3    3    0    0  0.21949585691E+01  0.14962820865E+02 -0.18272626994E+02  0.23719037689E+02  0.51100000000E-03 0.  1.
         12    1    3    3    0    0 -0.17985766243E+02  0.60520871827E+01 -0.85680576473E+01  0.20821315003E+02  0.00000000000E+00 0. -1.
</event>
<event>
 7    1  0.8986500E-014  0.5052886E+02  0.7816164E-02  0.1300439E+00
        -11   -1    0    0    0    0  0.00000000000E+00  0.00000000000E+00  0.45593999997E+02  0.45594000000E+02  0.51100000000E-03 0.  1.
         11   -1    0    0    0    0 -0.00000000000E+00 -0.00000000000E+00 -0.45593999997E+02  0.45594000000E+02  0.51100000000E-03 0. -1.
    9900012    2    1    2    0    0 -0.25651004505E+02 -0.26881055437E+02  0.16510606186E+02  0.50528864617E+02  0.30000014489E+02 0.  0.
        -12    1    1    2    0    0  0.25651004505E+02  0.26881055437E+02 -0.16510606186E+02  0.40659135383E+02  0.00000000000E+00 0.  1.
         11    1    3    3    0    0  0.16611990405E+01 -0.85522267375E+01  0.36891654009E+01  0.94609780699E+01  0.51100000000E-03 0.  1.
        -11    1    3    3    0    0 -0.27594305581E+02 -0.12360962495E+02  0.41243551499E+01  0.30516379208E+02  0.51100000000E-03 0. -1.
         12    1    3    3    0    0  0.28210203565E+00 -0.59678662039E+01  0.86970856348E+01  0.10551507339E+02  0.00000000000E+00 0. -1.
</event>
<event>
 7    1  0.8986500E-014  0.5052886E+02  0.7816164E-02  0.1300439E+00
        -11   -1    0    0    0    0  0.00000000000E+00  0.00000000000E+00  0.45593999997E+02  0.45594000000E+02  0.51100000000E-03 0. -1.
         11   -1    0    0    0    0 -0.00000000000E+00 -0.00000000000E+00 -0.45593999997E+02  0.45594000000E+02  0.51100000000E-03 0.  1.
    9900012    2    1    2    0    0  0.40156464129E+01 -0.15600849341E+02 -0.37331668262E+02  0.50528863616E+02  0.30000011447E+02 0.  0.
         12    1    1    2    0    0 -0.40156464129E+01  0.15600849341E+02  0.37331668262E+02  0.40659136384E+02  0.00000000000E+00 0. -1.
         11    1    3    3    0    0  0.85361512610E+01 -0.10336721420E+02 -0.11838342844E+02  0.17884631660E+02  0.51100000000E-03 0. -1.
        -11    1    3    3    0    0  0.62380662498E+01 -0.62161577983E+01 -0.70908912356E+01  0.11306406462E+02  0.51100000000E-03 0.  1.
         12    1    3    3    0    0 -0.10758571098E+02  0.95202987739E+00 -0.18402434183E+02  0.21337825494E+02  0.00000000000E+00 0. -1.
</event>
<event>
 7    1  0.8986500E-014  0.5052886E+02  0.7816164E-02  0.1300439E+00
        -11   -1    0    0    0    0  0.00000000000E+00  0.00000000000E+00  0.45593999997E+02  0.45594000000E+02  0.51100000000E-03 0. -1.
         11   -1    0    0    0    0 -0.00000000000E+00 -0.00000000000E+00 -0.45593999997E+02  0.45594000000E+02  0.51100000000E-03 0.  1.
    9900012    2    1    2    0    0 -0.15752437339E+02  0.28111689560E+02  0.24794342309E+02  0.50528858560E+02  0.29999996080E+02 0.  0.
        -12    1    1    2    0    0  0.15752437339E+02 -0.28111689560E+02 -0.24794342309E+02  0.40659141440E+02  0.00000000000E+00 0.  1.
         11    1    3    3    0    0 -0.46497405083E+00 -0.24584068101E+01 -0.13261385504E+01  0.28317147858E+01  0.51100000000E-03 0. -1.
        -11    1    3    3    0    0 -0.12429998562E+02  0.69627128115E+01  0.30598404626E+01  0.14572126058E+02  0.51100000000E-03 0.  1.
         12    1    3    3    0    0 -0.28574647264E+01  0.23607383559E+02  0.23060640397E+02  0.33125017716E+02  0.00000000000E+00 0. -1.
</event>
<event>
 7    1  0.8986500E-014  0.5052880E+02  0.7816164E-02  0.1300439E+00
        -11   -1    0    0    0    0  0.00000000000E+00  0.00000000000E+00  0.45593999997E+02  0.45594000000E+02  0.51100000000E-03 0. -1.
         11   -1    0    0    0    0 -0.00000000000E+00 -0.00000000000E+00 -0.45593999997E+02  0.45594000000E+02  0.51100000000E-03 0.  1.
    9900012    2    1    2    0    0 -0.15758181503E+02  0.37146616356E+01  0.37296804388E+02  0.50528799161E+02  0.29999815528E+02 0.  0.
        -12    1    1    2    0    0  0.15758181503E+02 -0.37146616356E+01 -0.37296804388E+02  0.40659200839E+02  0.00000000000E+00 0.  1.
         11    1    3    3    0    0 -0.10740011262E+02  0.96030950771E+01  0.29956652597E+02  0.33241063642E+02  0.51100000000E-03 0. -1.
        -11    1    3    3    0    0  0.29784758865E+01 -0.24553269250E+01  0.76619297101E+01  0.85793424024E+01  0.51100000000E-03 0.  1.
        -12    1    3    3    0    0 -0.79966461276E+01 -0.34331065165E+01 -0.32177791883E+00  0.87083931166E+01  0.00000000000E+00 0.  1.
</event>
<event>
 7    1  0.8986500E-014  0.5052886E+02  0.7816164E-02  0.1300439E+00
        -11   -1    0    0    0    0  0.00000000000E+00  0.00000000000E+00  0.45593999997E+02  0.45594000000E+02  0.51100000000E-03 0.  1.
         11   -1    0    0    0    0 -0.00000000000E+00 -0.00000000000E+00 -0.45593999997E+02  0.45594000000E+02  0.51100000000E-03 0. -1.
    9900012    2    1    2    0    0 -0.10022422481E+02 -0.28550588372E+02 -0.27158440680E+02  0.50528856515E+02  0.29999989863E+02 0.  0.
         12    1    1    2    0    0  0.10022422481E+02  0.28550588372E+02  0.27158440680E+02  0.40659143485E+02  0.00000000000E+00 0. -1.
         11    1    3    3    0    0 -0.38045857103E+01 -0.14489199773E+01  0.26990546136E+01  0.48845816193E+01  0.51100000000E-03 0. -1.
        -11    1    3    3    0    0  0.74867953483E+01 -0.74475768608E+01 -0.88264394267E+01  0.13763158754E+02  0.51100000000E-03 0.  1.
        -12    1    3    3    0    0 -0.13704632119E+02 -0.19654091534E+02 -0.21031055866E+02  0.31881116141E+02  0.00000000000E+00 0.  1.
</event>
<event>
 7    1  0.8986500E-014  0.5052886E+02  0.7816164E-02  0.1300439E+00
        -11   -1    0    0    0    0  0.00000000000E+00  0.00000000000E+00  0.45593999997E+02  0.45594000000E+02  0.51100000000E-03 0. -1.
         11   -1    0    0    0    0 -0.00000000000E+00 -0.00000000000E+00 -0.45593999997E+02  0.45594000000E+02  0.51100000000E-03 0.  1.
    9900012    2    1    2    0    0  0.19900338817E+02 -0.19519873222E+02 -0.29599263277E+02  0.50528864222E+02  0.30000013290E+02 0.  0.
         12    1    1    2    0    0 -0.19900338817E+02  0.19519873222E+02  0.29599263277E+02  0.40659135778E+02  0.00000000000E+00 0. -1.
         11    1    3    3    0    0  0.18861733219E+02 -0.39864639314E+01 -0.19082957382E+02  0.27125931089E+02  0.51100000000E-03 0. -1.
        -11    1    3    3    0    0  0.51157749229E+01 -0.73359826360E+00 -0.47038241535E+01  0.69882244814E+01  0.51100000000E-03 0.  1.
        -12    1    3    3    0    0 -0.40771693248E+01 -0.14799811027E+02 -0.58124817415E+01  0.16414708652E+02  0.00000000000E+00 0.  1.
</event>
<event>
 7    1  0.8986500E-014  0.5052886E+02  0.7816164E-02  0.1300439E+00
        -11   -1    0    0    0    0  0.00000000000E+00  0.00000000000E+00  0.45593999997E+02  0.45594000000E+02  0.51100000000E-03 0. -1.
         11   -1    0    0    0    0 -0.00000000000E+00 -0.00000000000E+00 -0.45593999997E+02  0.45594000000E+02  0.51100000000E-03 0.  1.
    9900012    2    1    2    0    0 -0.23551799919E+02  0.23913541180E+02 -0.22948217378E+02  0.50528863117E+02  0.30000009931E+02 0.  0.
         12    1    1    2    0    0  0.23551799919E+02 -0.23913541180E+02  0.22948217378E+02  0.40659136883E+02  0.00000000000E+00 0. -1.
         11    1    3    3    0    0 -0.10875113717E+02  0.44714564557E+01  0.30221121148E+00  0.11762370215E+02  0.51100000000E-03 0. -1.
        -11    1    3    3    0    0 -0.16752207624E+02  0.19486938985E+02 -0.15501980767E+02  0.30011475459E+02  0.51100000000E-03 0.  1.
         12    1    3    3    0    0  0.40755214221E+01 -0.44854260275E-01 -0.77484478231E+01  0.87550174434E+01  0.00000000000E+00 0. -1.
</event>
<event>
 7    1  0.8986500E-014  0.5052885E+02  0.7816164E-02  0.1300439E+00
        -11   -1    0    0    0    0  0.00000000000E+00  0.00000000000E+00  0.45593999997E+02  0.45594000000E+02  0.51100000000E-03 0. -1.
         11   -1    0    0    0    0 -0.00000000000E+00 -0.00000000000E+00 -0.45593999997E+02  0.45594000000E+02  0.51100000000E-03 0.  1.
    9900012    2    1    2    0    0 -0.25626302009E+02 -0.18394681653E+02 -0.25653357941E+02  0.50528850459E+02  0.29999971454E+02 0.  0.
         12    1    1    2    0    0  0.25626302009E+02  0.18394681653E+02  0.25653357941E+02  0.40659149541E+02  0.00000000000E+00 0. -1.
         11    1    3    3    0    0 -0.49469153042E+01  0.12023249062E+01 -0.17147172286E+01  0.53719467274E+01  0.51100000000E-03 0. -1.
        -11    1    3    3    0    0 -0.11670753936E+02  0.78614928981E+00 -0.19030012775E+02  0.22337544955E+02  0.51100000000E-03 0.  1.
        -12    1    3    3    0    0 -0.90086327687E+01 -0.20383155849E+02 -0.49086279372E+01  0.22819358776E+02  0.00000000000E+00 0.  1.
</event>
<event>
 7    1  0.8986500E-014  0.5052886E+02  0.7816164E-02  0.1300439E+00
        -11   -1    0    0    0    0  0.00000000000E+00  0.00000000000E+00  0.45593999997E+02  0.45594000000E+02  0.51100000000E-03 0. -1.
         11   -1    0    0    0    0 -0.00000000000E+00 -0.00000000000E+00 -0.45593999997E+02  0.45594000000E+02  0.51100000000E-03 0.  1.
    9900012    2    1    2    0    0  0.33285703286E+02 -0.80499382233E+01  0.21918624359E+02  0.50528860284E+02  0.30000001319E+02 0.  0.
        -12    1    1    2    0    0 -0.33285703286E+02  0.80499382233E+01 -0.21918624359E+02  0.40659139716E+02  0.00000000000E+00 0.  1.
         11    1    3    3    0    0  0.26256914522E+01 -0.85023099324E+01  0.75531861814E+01  0.11671938637E+02  0.51100000000E-03 0. -1.
        -11    1    3    3    0    0  0.83959640783E+00 -0.24307975582E+01  0.77639106050E+01  0.81787533915E+01  0.51100000000E-03 0.  1.
        -12    1    3    3    0    0  0.29820415426E+02  0.28831692673E+01  0.66015275727E+01  0.30678168255E+02  0.00000000000E+00 0.  1.
</event>
<event>
 7    1  0.8986500E-014  0.5052886E+02  0.7816164E-02  0.1300439E+00
        -11   -1    0    0    0    0  0.00000000000E+00  0.00000000000E+00  0.45593999997E+02  0.45594000000E+02  0.51100000000E-03 0. -1.
         11   -1    0    0    0    0 -0.00000000000E+00 -0.00000000000E+00 -0.45593999997E+02  0.45594000000E+02  0.51100000000E-03 0.  1.
    9900012    2    1    2    0    0 -0.84549942409E+01 -0.25307805622E+01 -0.39689722244E+02  0.50528857981E+02  0.29999994319E+02 0.  0.
         12    1    1    2    0    0  0.84549942409E+01  0.25307805622E+01  0.39689722244E+02  0.40659142019E+02  0.00000000000E+00 0. -1.
         11    1    3    3    0    0 -0.66984108382E+01 -0.42827154580E+01 -0.22759575471E+02  0.24108269024E+02  0.51100000000E-03 0. -1.
        -11    1    3    3    0    0  0.32639045667E+01 -0.75296899220E+01 -0.25690190010E+01  0.85993698740E+01  0.51100000000E-03 0.  1.
         12    1    3    3    0    0 -0.50204879694E+01  0.92816248178E+01 -0.14361127772E+02  0.17821219083E+02  0.00000000000E+00 0. -1.
</event>
<event>
 7    1  0.8986500E-014  0.5052888E+02  0.7816164E-02  0.1300439E+00
        -11   -1    0    0    0    0  0.00000000000E+00  0.00000000000E+00  0.45593999997E+02  0.45594000000E+02  0.51100000000E-03 0. -1.
         11   -1    0    0    0    0 -0.00000000000E+00 -0.00000000000E+00 -0.45593999997E+02  0.45594000000E+02  0.51100000000E-03 0.  1.
    9900012    2    1    2    0    0  0.68776815878E+01  0.15186515812E+02 -0.37084114143E+02  0.50528876937E+02  0.30000051937E+02 0.  0.
         12    1    1    2    0    0 -0.68776815878E+01 -0.15186515812E+02  0.37084114143E+02  0.40659123063E+02  0.00000000000E+00 0. -1.
         11    1    3    3    0    0  0.10943591721E+02  0.16010182823E+02 -0.26501292095E+02  0.32839102253E+02  0.51100000000E-03 0.  1.
        -11    1    3    3    0    0 -0.42090560535E+00  0.62099263812E+01 -0.40983766288E+01  0.74523176557E+01  0.51100000000E-03 0. -1.
         12    1    3    3    0    0 -0.36450045282E+01 -0.70335933922E+01 -0.64844454186E+01  0.10237457028E+02  0.00000000000E+00 0. -1.
</event>
<event>
 7    1  0.8986500E-014  0.5052888E+02  0.7816164E-02  0.1300439E+00
        -11   -1    0    0    0    0  0.00000000000E+00  0.00000000000E+00  0.45593999997E+02  0.45594000000E+02  0.51100000000E-03 0. -1.
         11   -1    0    0    0    0 -0.00000000000E+00 -0.00000000000E+00 -0.45593999997E+02  0.45594000000E+02  0.51100000000E-03 0.  1.
    9900012    2    1    2    0    0  0.32956702196E+01 -0.64204504494E+01 -0.40013503081E+02  0.50528879806E+02  0.30000060657E+02 0.  0.
         12    1    1    2    0    0 -0.32956702196E+01  0.64204504494E+01  0.40013503081E+02  0.40659120194E+02  0.00000000000E+00 0. -1.
         11    1    3    3    0    0 -0.47599838151E+01 -0.83725606088E+01 -0.89744383205E+01  0.13164260727E+02  0.51100000000E-03 0. -1.
        -11    1    3    3    0    0  0.52780459254E+01 -0.84435560281E+01 -0.13252815808E+02  0.16576746795E+02  0.51100000000E-03 0.  1.
        -12    1    3    3    0    0  0.27776081092E+01  0.10395666187E+02 -0.17786248952E+02  0.20787872284E+02  0.00000000000E+00 0.  1.
</event>
<event>
 7    1  0.8986500E-014  0.5052886E+02  0.7816164E-02  0.1300439E+00
        -11   -1    0    0    0    0  0.00000000000E+00  0.00000000000E+00  0.45593999997E+02  0.45594000000E+02  0.51100000000E-03 0. -1.
         11   -1    0    0    0    0 -0.00000000000E+00 -0.00000000000E+00 -0.45593999997E+02  0.45594000000E+02  0.51100000000E-03 0.  1.
    9900012    2    1    2    0    0  0.93991678220E+01 -0.94806596527E+01 -0.38404927263E+02  0.50528859560E+02  0.29999999120E+02 0.  0.
         12    1    1    2    0    0 -0.93991678220E+01  0.94806596527E+01  0.38404927263E+02  0.40659140440E+02  0.00000000000E+00 0. -1.
         11    1    3    3    0    0  0.30718617881E+01  0.15603483206E+01  0.47807657616E+00  0.34784449400E+01  0.51100000000E-03 0. -1.
        -11    1    3    3    0    0  0.90870715732E+01 -0.11440451069E+02 -0.92624556577E+01  0.17298898101E+02  0.51100000000E-03 0.  1.
        -12    1    3    3    0    0 -0.27597655393E+01  0.39944309577E+00 -0.29620548182E+02  0.29751516519E+02  0.00000000000E+00 0.  1.
</event>
<event>
 7    1  0.8986500E-014  0.5052886E+02  0.7816164E-02  0.1300439E+00
        -11   -1    0    0    0    0  0.00000000000E+00  0.00000000000E+00  0.45593999997E+02  0.45594000000E+02  0.51100000000E-03 0. -1.
         11   -1    0    0    0    0 -0.00000000000E+00 -0.00000000000E+00 -0.45593999997E+02  0.45594000000E+02  0.51100000000E-03 0.  1.
    9900012    2    1    2    0    0 -0.17219079399E+02  0.15184560451E+02  0.33557386476E+02  0.50528858856E+02  0.29999996979E+02 0.  0.
        -12    1    1    2    0    0  0.17219079399E+02 -0.15184560451E+02 -0.33557386476E+02  0.40659141144E+02  0.00000000000E+00 0.  1.
         11    1    3    3    0    0  0.34777787614E+01  0.29002942882E+01  0.67978405581E+01  0.81680651679E+01  0.51100000000E-03 0. -1.
        -11    1    3    3    0    0  0.48739242831E+01  0.22638966695E+01  0.44543384853E+01  0.69800786278E+01  0.51100000000E-03 0.  1.
         12    1    3    3    0    0 -0.25570782444E+02  0.10020369493E+02  0.22305207433E+02  0.35380715060E+02  0.00000000000E+00 0. -1.
</event>
<event>
 7    1  0.8986500E-014  0.5052887E+02  0.7816164E-02  0.1300439E+00
        -11   -1    0    0    0    0  0.00000000000E+00  0.00000000000E+00  0.45593999997E+02  0.45594000000E+02  0.51100000000E-03 0. -1.
         11   -1    0    0    0    0 -0.00000000000E+00 -0.00000000000E+00 -0.45593999997E+02  0.45594000000E+02  0.51100000000E-03 0.  1.
    9900012    2    1    2    0    0  0.14132724569E+02 -0.24306737821E+02  0.29370282692E+02  0.50528869259E+02  0.30000028599E+02 0.  0.
        -12    1    1    2    0    0 -0.14132724569E+02  0.24306737821E+02 -0.29370282692E+02  0.40659130741E+02  0.00000000000E+00 0.  1.
         11    1    3    3    0    0 -0.22106609230E+01  0.81483806795E-01  0.68865371512E+01  0.72331221145E+01  0.51100000000E-03 0.  1.
        -11    1    3    3    0    0  0.13471358333E+02 -0.32679113338E+01  0.25148489472E+01  0.14088335789E+02  0.51100000000E-03 0. -1.
         12    1    3    3    0    0  0.28720271592E+01 -0.21120310294E+02  0.19968896593E+02  0.29207411355E+02  0.00000000000E+00 0. -1.
</event>
<event>
 7    1  0.8986500E-014  0.5052887E+02  0.7816164E-02  0.1300439E+00
        -11   -1    0    0    0    0  0.00000000000E+00  0.00000000000E+00  0.45593999997E+02  0.45594000000E+02  0.51100000000E-03 0. -1.
         11   -1    0    0    0    0 -0.00000000000E+00 -0.00000000000E+00 -0.45593999997E+02  0.45594000000E+02  0.51100000000E-03 0.  1.
    9900012    2    1    2    0    0 -0.30068054695E+02  0.21656993044E+02 -0.16734750053E+02  0.50528866706E+02  0.30000020840E+02 0.  0.
         12    1    1    2    0    0  0.30068054695E+02 -0.21656993044E+02  0.16734750053E+02  0.40659133294E+02  0.00000000000E+00 0. -1.
         11    1    3    3    0    0 -0.16519946067E+02  0.23460570044E+02 -0.48259313878E+01  0.29096332739E+02  0.51100000000E-03 0. -1.
        -11    1    3    3    0    0 -0.46958874467E+01  0.47093962394E+01 -0.59880106624E+01  0.89490806124E+01  0.51100000000E-03 0.  1.
         12    1    3    3    0    0 -0.88522211810E+01 -0.65129732389E+01 -0.59208080031E+01  0.12483453355E+02  0.00000000000E+00 0. -1.
</event>
<event>
 7    1  0.8986500E-014  0.5052886E+02  0.7816164E-02  0.1300439E+00
        -11   -1    0    0    0    0  0.00000000000E+00  0.00000000000E+00  0.45593999997E+02  0.45594000000E+02  0.51100000000E-03 0. -1.
         11   -1    0    0    0    0 -0.00000000000E+00 -0.00000000000E+00 -0.45593999997E+02  0.45594000000E+02  0.51100000000E-03 0.  1.
    9900012    2    1    2    0    0  0.32630519082E+02 -0.95244070331E+01  0.22309194501E+02  0.50528864936E+02  0.30000015458E+02 0.  0.
        -12    1    1    2    0    0 -0.32630519082E+02  0.95244070331E+01 -0.22309194501E+02  0.40659135064E+02  0.00000000000E+00 0.  1.
         11    1    3    3    0    0  0.86348574312E+01  0.14245844608E+00 -0.20858153491E+01  0.88843504657E+01  0.51100000000E-03 0. -1.
        -11    1    3    3    0    0 -0.16565763188E+01 -0.93946480987E+00 -0.27140769337E+01  0.33155773392E+01  0.51100000000E-03 0.  1.
         12    1    3    3    0    0  0.25652237970E+02 -0.87274006694E+01  0.27109086784E+02  0.38328937131E+02  0.00000000000E+00 0. -1.
</event>
<event>
 7    1  0.8986500E-014  0.5052885E+02  0.7816164E-02  0.1300439E+00
        -11   -1    0    0    0    0  0.00000000000E+00  0.00000000000E+00  0.45593999997E+02  0.45594000000E+02  0.51100000000E-03 0. -1.
         11   -1    0    0    0    0 -0.00000000000E+00 -0.00000000000E+00 -0.45593999997E+02  0.45594000000E+02  0.51100000000E-03 0.  1.
    9900012    2    1    2    0    0  0.27334571260E+01  0.11230135999E+02 -0.38981771188E+02  0.50528853091E+02  0.29999979454E+02 0.  0.
         12    1    1    2    0    0 -0.27334571260E+01 -0.11230135999E+02  0.38981771188E+02  0.40659146909E+02  0.00000000000E+00 0. -1.
         11    1    3    3    0    0  0.15910402630E+01  0.59272385023E+01 -0.22271706376E+02  0.23101785008E+02  0.51100000000E-03 0. -1.
        -11    1    3    3    0    0 -0.29482686686E+01  0.42858687230E+01 -0.20867763350E+02  0.21506382921E+02  0.51100000000E-03 0.  1.
         12    1    3    3    0    0  0.40906855316E+01  0.10170287740E+01  0.41576985382E+01  0.59206851614E+01  0.00000000000E+00 0. -1.
</event>
<event>
 7    1  0.8986500E-014  0.5052884E+02  0.7816164E-02  0.1300439E+00
        -11   -1    0    0    0    0  0.00000000000E+00  0.00000000000E+00  0.45593999997E+02  0.45594000000E+02  0.51100000000E-03 0. -1.
         11   -1    0    0    0    0 -0.00000000000E+00 -0.00000000000E+00 -0.45593999997E+02  0.45594000000E+02  0.51100000000E-03 0.  1.
    9900012    2    1    2    0    0 -0.44929717681E+01  0.29836453604E+02  0.27253742266E+02  0.50528840805E+02  0.29999942110E+02 0.  0.
        -12    1    1    2    0    0  0.44929717681E+01 -0.29836453604E+02 -0.27253742266E+02  0.40659159195E+02  0.00000000000E+00 0.  1.
         11    1    3    3    0    0  0.14729010295E+01  0.14777015860E+02  0.11990367901E+02  0.19086606766E+02  0.51100000000E-03 0. -1.
        -11    1    3    3    0    0  0.14323693154E+01  0.18960684612E+02  0.92790225422E+01  0.21157965460E+02  0.51100000000E-03 0.  1.
        -12    1    3    3    0    0 -0.73982421129E+01 -0.39012468672E+01  0.59843518221E+01  0.10284268579E+02  0.00000000000E+00 0.  1.
</event>
<event>
 7    1  0.8986500E-014  0.5052886E+02  0.7816164E-02  0.1300439E+00
        -11   -1    0    0    0    0  0.00000000000E+00  0.00000000000E+00  0.45593999997E+02  0.45594000000E+02  0.51100000000E-03 0. -1.
         11   -1    0    0    0    0 -0.00000000000E+00 -0.00000000000E+00 -0.45593999997E+02  0.45594000000E+02  0.51100000000E-03 0.  1.
    9900012    2    1    2    0    0 -0.28875478773E+02 -0.20938096796E+02 -0.19518407929E+02  0.50528863021E+02  0.30000009638E+02 0.  0.
         12    1    1    2    0    0  0.28875478773E+02  0.20938096796E+02  0.19518407929E+02  0.40659136979E+02  0.00000000000E+00 0. -1.
         11    1    3    3    0    0 -0.43845902434E+01 -0.41927312152E+00 -0.45400577583E+01  0.63255471118E+01  0.51100000000E-03 0. -1.
        -11    1    3    3    0    0 -0.32260019557E+00 -0.46124000841E+01 -0.14550135145E+02  0.15267112970E+02  0.51100000000E-03 0.  1.
         12    1    3    3    0    0 -0.24168288334E+02 -0.15906423590E+02 -0.42821502562E+00  0.28936202939E+02  0.00000000000E+00 0. -1.
</event>
<event>
 7    1  0.8986500E-014  0.5052886E+02  0.7816164E-02  0.1300439E+00
        -11   -1    0    0    0    0  0.00000000000E+00  0.00000000000E+00  0.45593999997E+02  0.45594000000E+02  0.51100000000E-03 0. -1.
         11   -1    0    0    0    0 -0.00000000000E+00 -0.00000000000E+00 -0.45593999997E+02  0.45594000000E+02  0.51100000000E-03 0.  1.
    9900012    2    1    2    0    0  0.25361777532E+02  0.17730393577E+02 -0.26373830711E+02  0.50528861269E+02  0.30000004313E+02 0.  0.
         12    1    1    2    0    0 -0.25361777532E+02 -0.17730393577E+02  0.26373830711E+02  0.40659138731E+02  0.00000000000E+00 0. -1.
         11    1    3    3    0    0  0.44281401630E+01  0.12270987908E+02 -0.20726411337E+01  0.13209141193E+02  0.51100000000E-03 0. -1.
        -11    1    3    3    0    0  0.13648788830E+00  0.30986930558E+01  0.20120125728E+01  0.36971235375E+01  0.51100000000E-03 0.  1.
         12    1    3    3    0    0  0.20797149481E+02  0.23607126140E+01 -0.26313202150E+02  0.33622596538E+02  0.00000000000E+00 0. -1.
</event>
<event>
 7    1  0.8986500E-014  0.5052886E+02  0.7816164E-02  0.1300439E+00
        -11   -1    0    0    0    0  0.00000000000E+00  0.00000000000E+00  0.45593999997E+02  0.45594000000E+02  0.51100000000E-03 0. -1.
         11   -1    0    0    0    0 -0.00000000000E+00 -0.00000000000E+00 -0.45593999997E+02  0.45594000000E+02  0.51100000000E-03 0.  1.
    9900012    2    1    2    0    0  0.11475267697E+02 -0.37846677083E+02  0.94399843246E+01  0.50528855408E+02  0.29999986497E+02 0.  0.
        -12    1    1    2    0    0 -0.11475267697E+02  0.37846677083E+02 -0.94399843246E+01  0.40659144592E+02  0.00000000000E+00 0.  1.
         11    1    3    3    0    0 -0.42915025879E+01 -0.87489190915E+01  0.87436563535E+01  0.13092444631E+02  0.51100000000E-03 0. -1.
        -11    1    3    3    0    0 -0.31477296755E+01 -0.10457131116E+01  0.13897168952E+01  0.35962524010E+01  0.51100000000E-03 0.  1.
        -12    1    3    3    0    0  0.18914499961E+02 -0.28052044880E+02 -0.69338892405E+00  0.33840158376E+02  0.00000000000E+00 0.  1.
</event>
<event>
 7    1  0.8986500E-014  0.5052886E+02  0.7816164E-02  0.1300439E+00
        -11   -1    0    0    0    0  0.00000000000E+00  0.00000000000E+00  0.45593999997E+02  0.45594000000E+02  0.51100000000E-03 0.  1.
         11   -1    0    0    0    0 -0.00000000000E+00 -0.00000000000E+00 -0.45593999997E+02  0.45594000000E+02  0.51100000000E-03 0. -1.
    9900012    2    1    2    0    0  0.12742053832E+02  0.28175091076E+02 -0.26400193605E+02  0.50528856927E+02  0.29999991117E+02 0.  0.
         12    1    1    2    0    0 -0.12742053832E+02 -0.28175091076E+02  0.26400193605E+02  0.40659143073E+02  0.00000000000E+00 0. -1.
         11    1    3    3    0    0 -0.24624173073E+01 -0.20954086038E+01  0.16787244492E+01  0.36431239685E+01  0.51100000000E-03 0. -1.
        -11    1    3    3    0    0  0.18632714114E+01 -0.19361098166E+01 -0.20636940020E+01  0.33880871844E+01  0.51100000000E-03 0.  1.
        -12    1    3    3    0    0  0.13341199728E+02  0.32206609496E+02 -0.26015224052E+02  0.43497645775E+02  0.00000000000E+00 0.  1.
</event>
<event>
 7    1  0.8986500E-014  0.5052886E+02  0.7816164E-02  0.1300439E+00
        -11   -1    0    0    0    0  0.00000000000E+00  0.00000000000E+00  0.45593999997E+02  0.45594000000E+02  0.51100000000E-03 0. -1.
         11   -1    0    0    0    0 -0.00000000000E+00 -0.00000000000E+00 -0.45593999997E+02  0.45594000000E+02  0.51100000000E-03 0.  1.
    9900012    2    1    2    0    0  0.52917218138E+01  0.76001981328E+01 -0.39590410116E+02  0.50528857060E+02  0.29999991521E+02 0.  0.
         12    1    1    2    0    0 -0.52917218138E+01 -0.76001981328E+01  0.39590410116E+02  0.40659142940E+02  0.00000000000E+00 0. -1.
         11    1    3    3    0    0  0.33343290720E+01 -0.12776581846E+01 -0.34935453817E+02  0.35117461390E+02  0.51100000000E-03 0. -1.
        -11    1    3    3    0    0 -0.10548296590E+01  0.30735973300E+01 -0.75803744842E+01  0.82475295536E+01  0.51100000000E-03 0.  1.
         12    1    3    3    0    0  0.30122224008E+01  0.58042589874E+01  0.29254181849E+01  0.71638661169E+01  0.00000000000E+00 0. -1.
</event>
<event>
 7    1  0.8986500E-014  0.5052886E+02  0.7816164E-02  0.1300439E+00
        -11   -1    0    0    0    0  0.00000000000E+00  0.00000000000E+00  0.45593999997E+02  0.45594000000E+02  0.51100000000E-03 0.  1.
         11   -1    0    0    0    0 -0.00000000000E+00 -0.00000000000E+00 -0.45593999997E+02  0.45594000000E+02  0.51100000000E-03 0. -1.
    9900012    2    1    2    0    0 -0.21167089597E+02  0.26479816801E+02 -0.22448599511E+02  0.50528855889E+02  0.29999987960E+02 0.  0.
         12    1    1    2    0    0  0.21167089597E+02 -0.26479816801E+02  0.22448599511E+02  0.40659144111E+02  0.00000000000E+00 0. -1.
         11    1    3    3    0    0  0.63286577403E+01  0.62400592311E+01 -0.20580826447E+01  0.91228259018E+01  0.51100000000E-03 0. -1.
        -11    1    3    3    0    0 -0.12643033117E+02  0.47770677185E+01 -0.12930635016E+02  0.18704758340E+02  0.51100000000E-03 0.  1.
        -12    1    3    3    0    0 -0.14852714220E+02  0.15462689851E+02 -0.74598818508E+01  0.22701271647E+02  0.00000000000E+00 0.  1.
</event>
<event>
 7    1  0.8986500E-014  0.5052886E+02  0.7816164E-02  0.1300439E+00
        -11   -1    0    0    0    0  0.00000000000E+00  0.00000000000E+00  0.45593999997E+02  0.45594000000E+02  0.51100000000E-03 0. -1.
         11   -1    0    0    0    0 -0.00000000000E+00 -0.00000000000E+00 -0.45593999997E+02  0.45594000000E+02  0.51100000000E-03 0.  1.
    9900012    2    1    2    0    0 -0.34193386418E+02  0.15174979610E+02 -0.15927906758E+02  0.50528857184E+02  0.29999991896E+02 0.  0.
         12    1    1    2    0    0  0.34193386418E+02 -0.15174979610E+02  0.15927906758E+02  0.40659142816E+02  0.00000000000E+00 0. -1.
         11    1    3    3    0    0 -0.91152810609E+01 -0.58459570603E+01 -0.40774689094E+01  0.11571055083E+02  0.51100000000E-03 0. -1.
        -11    1    3    3    0    0 -0.44222723173E+01  0.12024795045E+01 -0.91142403264E+01  0.10201559998E+02  0.51100000000E-03 0.  1.
         12    1    3    3    0    0 -0.20655833039E+02  0.19818457166E+02 -0.27361975218E+01  0.28756242103E+02  0.00000000000E+00 0. -1.
</event>
<event>
 7    1  0.8986500E-014  0.5052886E+02  0.7816164E-02  0.1300439E+00
        -11   -1    0    0    0    0  0.00000000000E+00  0.00000000000E+00  0.45593999997E+02  0.45594000000E+02  0.51100000000E-03 0. -1.
         11   -1    0    0    0    0 -0.00000000000E+00 -0.00000000000E+00 -0.45593999997E+02  0.45594000000E+02  0.51100000000E-03 0.  1.
    9900012    2    1    2    0    0 -0.54971093149E+01  0.14230879889E+02 -0.37688590655E+02  0.50528855656E+02  0.29999987251E+02 0.  0.
         12    1    1    2    0    0  0.54971093149E+01 -0.14230879889E+02  0.37688590655E+02  0.40659144344E+02  0.00000000000E+00 0. -1.
         11    1    3    3    0    0  0.82435511946E+01  0.56988441071E+01 -0.76567810376E+01  0.12611869670E+02  0.51100000000E-03 0. -1.
        -11    1    3    3    0    0 -0.45744317239E+01  0.11315762074E+02 -0.22985199277E+02  0.26024820518E+02  0.51100000000E-03 0.  1.
         12    1    3    3    0    0 -0.91662287856E+01 -0.27837262921E+01 -0.70466103405E+01  0.11892165468E+02  0.00000000000E+00 0. -1.
</event>
<event>
 7    1  0.8986500E-014  0.5052888E+02  0.7816164E-02  0.1300439E+00
        -11   -1    0    0    0    0  0.00000000000E+00  0.00000000000E+00  0.45593999997E+02  0.45594000000E+02  0.51100000000E-03 0. -1.
         11   -1    0    0    0    0 -0.00000000000E+00 -0.00000000000E+00 -0.45593999997E+02  0.45594000000E+02  0.51100000000E-03 0.  1.
    9900012    2    1    2    0    0 -0.10259285471E+02 -0.39339895072E+02  0.53282397018E+00  0.50528878218E+02  0.30000055832E+02 0.  0.
         12    1    1    2    0    0  0.10259285471E+02  0.39339895072E+02 -0.53282397018E+00  0.40659121782E+02  0.00000000000E+00 0. -1.
         11    1    3    3    0    0 -0.11940371741E+02 -0.22297809415E+02 -0.16242497798E+01  0.25345669642E+02  0.51100000000E-03 0. -1.
        -11    1    3    3    0    0  0.23836829292E+01 -0.13404282997E+02  0.97424562592E+01  0.16741332122E+02  0.51100000000E-03 0.  1.
        -12    1    3    3    0    0 -0.70259665907E+00 -0.36378026599E+01 -0.75853825092E+01  0.84418764543E+01  0.00000000000E+00 0.  1.
</event>
<event>
 7    1  0.8986500E-014  0.5052886E+02  0.7816164E-02  0.1300439E+00
        -11   -1    0    0    0    0  0.00000000000E+00  0.00000000000E+00  0.45593999997E+02  0.45594000000E+02  0.51100000000E-03 0. -1.
         11   -1    0    0    0    0 -0.00000000000E+00 -0.00000000000E+00 -0.45593999997E+02  0.45594000000E+02  0.51100000000E-03 0.  1.
    9900012    2    1    2    0    0  0.43055825054E+01 -0.24608622609E+01 -0.40355567915E+02  0.50528859017E+02  0.29999997467E+02 0.  0.
         12    1    1    2    0    0 -0.43055825054E+01  0.24608622609E+01  0.40355567915E+02  0.40659140983E+02  0.00000000000E+00 0. -1.
         11    1    3    3    0    0 -0.55115037028E+01 -0.36234549866E+01 -0.16605081188E+02  0.17867143605E+02  0.51100000000E-03 0. -1.
        -11    1    3    3    0    0  0.84591674833E+01  0.67282098222E+01 -0.24600368789E+02  0.26870140803E+02  0.51100000000E-03 0.  1.
        -12    1    3    3    0    0  0.13579187249E+01 -0.55656170965E+01  0.84988206229E+00  0.57915746087E+01  0.00000000000E+00 0.  1.
</event>
<event>
 7    1  0.8986500E-014  0.5052884E+02  0.7816164E-02  0.1300439E+00
        -11   -1    0    0    0    0  0.00000000000E+00  0.00000000000E+00  0.45593999997E+02  0.45594000000E+02  0.51100000000E-03 0. -1.
         11   -1    0    0    0    0 -0.00000000000E+00 -0.00000000000E+00 -0.45593999997E+02  0.45594000000E+02  0.51100000000E-03 0.  1.
    9900012    2    1    2    0    0 -0.58992515641E+00 -0.35312757483E+02  0.20145174309E+02  0.50528844812E+02  0.29999954289E+02 0.  0.
        -12    1    1    2    0    0  0.58992515641E+00  0.35312757483E+02 -0.20145174309E+02  0.40659155188E+02  0.00000000000E+00 0.  1.
         11    1    3    3    0    0 -0.76379133012E+01 -0.10991930469E+02  0.12124706371E+02  0.18060142853E+02  0.51100000000E-03 0. -1.
        -11    1    3    3    0    0 -0.45176710745E+01 -0.64548107158E+01  0.79401716493E+01  0.11185716758E+02  0.51100000000E-03 0.  1.
         12    1    3    3    0    0  0.11565659219E+02 -0.17866016298E+02  0.80296288257E-01  0.21282985200E+02  0.00000000000E+00 0. -1.
</event>
<event>
 7    1  0.8986500E-014  0.5052885E+02  0.7816164E-02  0.1300439E+00
        -11   -1    0    0    0    0  0.00000000000E+00  0.00000000000E+00  0.45593999997E+02  0.45594000000E+02  0.51100000000E-03 0. -1.
         11   -1    0    0    0    0 -0.00000000000E+00 -0.00000000000E+00 -0.45593999997E+02  0.45594000000E+02  0.51100000000E-03 0.  1.
    9900012    2    1    2    0    0 -0.32107929527E+02 -0.30137662265E+01 -0.24762163451E+02  0.50528847720E+02  0.29999963130E+02 0.  0.
         12    1    1    2    0    0  0.32107929527E+02  0.30137662265E+01  0.24762163451E+02  0.40659152280E+02  0.00000000000E+00 0. -1.
         11    1    3    3    0    0 -0.74977222341E+01  0.51968019688E+01 -0.15216809692E+01  0.92486811296E+01  0.51100000000E-03 0. -1.
        -11    1    3    3    0    0 -0.84317903500E+01 -0.58369031857E+01 -0.22712168449E+02  0.24920014511E+02  0.51100000000E-03 0.  1.
         12    1    3    3    0    0 -0.16178416943E+02 -0.23736650096E+01 -0.52831403261E+00  0.16360152079E+02  0.00000000000E+00 0. -1.
</event>
<event>
 7    1  0.8986500E-014  0.5052885E+02  0.7816164E-02  0.1300439E+00
        -11   -1    0    0    0    0  0.00000000000E+00  0.00000000000E+00  0.45593999997E+02  0.45594000000E+02  0.51100000000E-03 0. -1.
         11   -1    0    0    0    0 -0.00000000000E+00 -0.00000000000E+00 -0.45593999997E+02  0.45594000000E+02  0.51100000000E-03 0.  1.
    9900012    2    1    2    0    0  0.15699865813E+02 -0.37505710208E+02  0.51861501996E-01  0.50528846365E+02  0.29999959010E+02 0.  0.
         12    1    1    2    0    0 -0.15699865813E+02  0.37505710208E+02 -0.51861501996E-01  0.40659153635E+02  0.00000000000E+00 0. -1.
         11    1    3    3    0    0  0.16745758240E+02 -0.12209183581E+02 -0.51368583804E+01  0.21351156808E+02  0.51100000000E-03 0. -1.
        -11    1    3    3    0    0  0.42395274515E+01 -0.16081496308E+02  0.75985486024E+01  0.18284585246E+02  0.51100000000E-03 0.  1.
        -12    1    3    3    0    0 -0.52854198778E+01 -0.92150303186E+01 -0.24098287200E+01  0.10893104310E+02  0.00000000000E+00 0.  1.
</event>
<event>
 7    1  0.8986500E-014  0.5052887E+02  0.7816164E-02  0.1300439E+00
        -11   -1    0    0    0    0  0.00000000000E+00  0.00000000000E+00  0.45593999997E+02  0.45594000000E+02  0.51100000000E-03 0. -1.
         11   -1    0    0    0    0 -0.00000000000E+00 -0.00000000000E+00 -0.45593999997E+02  0.45594000000E+02  0.51100000000E-03 0.  1.
    9900012    2    1    2    0    0 -0.21854038142E+02  0.24300083228E+02 -0.24188262789E+02  0.50528867143E+02  0.30000022166E+02 0.  0.
         12    1    1    2    0    0  0.21854038142E+02 -0.24300083228E+02  0.24188262789E+02  0.40659132857E+02  0.00000000000E+00 0. -1.
         11    1    3    3    0    0 -0.41061646735E+01  0.16751330447E+01 -0.24111082990E+01  0.50477819420E+01  0.51100000000E-03 0. -1.
        -11    1    3    3    0    0 -0.19482751364E+02  0.53244956361E+01 -0.39519779550E+01  0.20580232859E+02  0.51100000000E-03 0.  1.
         12    1    3    3    0    0  0.17348778961E+01  0.17300454547E+02 -0.17825176535E+02  0.24900852342E+02  0.00000000000E+00 0. -1.
</event>
<event>
 7    1  0.8986500E-014  0.5052890E+02  0.7816164E-02  0.1300439E+00
        -11   -1    0    0    0    0  0.00000000000E+00  0.00000000000E+00  0.45593999997E+02  0.45594000000E+02  0.51100000000E-03 0.  1.
         11   -1    0    0    0    0 -0.00000000000E+00 -0.00000000000E+00 -0.45593999997E+02  0.45594000000E+02  0.51100000000E-03 0. -1.
    9900012    2    1    2    0    0  0.40617634817E+02  0.24379682934E+00  0.18196040156E+01  0.50528897037E+02  0.30000113033E+02 0.  0.
        -12    1    1    2    0    0 -0.40617634817E+02 -0.24379682934E+00 -0.18196040156E+01  0.40659102963E+02  0.00000000000E+00 0.  1.
         11    1    3    3    0    0  0.49017832046E+01  0.21731287327E+01 -0.61711812274E+01  0.81751724800E+01  0.51100000000E-03 0. -1.
        -11    1    3    3    0    0  0.46813366805E+01  0.47525481447E+01  0.82466334552E+01  0.10607006674E+02  0.51100000000E-03 0.  1.
         12    1    3    3    0    0  0.31034514931E+02 -0.66818800480E+01 -0.25584821224E+00  0.31746717883E+02  0.00000000000E+00 0. -1.
</event>
<event>
 7    1  0.8986500E-014  0.5052886E+02  0.7816164E-02  0.1300439E+00
        -11   -1    0    0    0    0  0.00000000000E+00  0.00000000000E+00  0.45593999997E+02  0.45594000000E+02  0.51100000000E-03 0. -1.
         11   -1    0    0    0    0 -0.00000000000E+00 -0.00000000000E+00 -0.45593999997E+02  0.45594000000E+02  0.51100000000E-03 0.  1.
    9900012    2    1    2    0    0 -0.25372596308E+02 -0.40344748721E+01 -0.31513806912E+02  0.50528860105E+02  0.30000000777E+02 0.  0.
         12    1    1    2    0    0  0.25372596308E+02  0.40344748721E+01  0.31513806912E+02  0.40659139895E+02  0.00000000000E+00 0. -1.
         11    1    3    3    0    0  0.14854400439E+01  0.11472632512E+01 -0.46204726386E+00  0.19329337875E+01  0.51100000000E-03 0. -1.
        -11    1    3    3    0    0 -0.52386253318E+01 -0.28628518639E+01  0.41145936527E+01  0.72504480792E+01  0.51100000000E-03 0.  1.
        -12    1    3    3    0    0 -0.21619411020E+02 -0.23188862595E+01 -0.35166353301E+02  0.41345478239E+02  0.00000000000E+00 0.  1.
</event>
<event>
 7    1  0.8986500E-014  0.5052885E+02  0.7816164E-02  0.1300439E+00
        -11   -1    0    0    0    0  0.00000000000E+00  0.00000000000E+00  0.45593999997E+02  0.45594000000E+02  0.51100000000E-03 0. -1.
         11   -1    0    0    0    0 -0.00000000000E+00 -0.00000000000E+00 -0.45593999997E+02  0.45594000000E+02  0.51100000000E-03 0.  1.
    9900012    2    1    2    0    0  0.36617398050E+02  0.98188647977E+00 -0.17645629010E+02  0.50528853868E+02  0.29999981817E+02 0.  0.
         12    1    1    2    0    0 -0.36617398050E+02 -0.98188647977E+00  0.17645629010E+02  0.40659146132E+02  0.00000000000E+00 0. -1.
         11    1    3    3    0    0  0.10812502166E+02 -0.97185087158E+01 -0.12415429055E+02  0.19118119511E+02  0.51100000000E-03 0. -1.
        -11    1    3    3    0    0  0.77164949563E+01 -0.18192766281E+01 -0.50720873411E+01  0.94117018715E+01  0.51100000000E-03 0.  1.
        -12    1    3    3    0    0  0.18088400928E+02  0.12519671824E+02 -0.15811261373E+00  0.21999032485E+02  0.00000000000E+00 0.  1.
</event>
<event>
 7    1  0.8986500E-014  0.5052886E+02  0.7816164E-02  0.1300439E+00
        -11   -1    0    0    0    0  0.00000000000E+00  0.00000000000E+00  0.45593999997E+02  0.45594000000E+02  0.51100000000E-03 0.  1.
         11   -1    0    0    0    0 -0.00000000000E+00 -0.00000000000E+00 -0.45593999997E+02  0.45594000000E+02  0.51100000000E-03 0. -1.
    9900012    2    1    2    0    0 -0.33313163626E+02 -0.21998072987E+02 -0.77125441093E+01  0.50528862988E+02  0.30000009539E+02 0.  0.
         12    1    1    2    0    0  0.33313163626E+02  0.21998072987E+02  0.77125441093E+01  0.40659137012E+02  0.00000000000E+00 0. -1.
         11    1    3    3    0    0 -0.14208983724E+02 -0.10585469537E+02 -0.48976838274E+00  0.17725328124E+02  0.51100000000E-03 0. -1.
        -11    1    3    3    0    0 -0.17597847329E+02 -0.16660093720E+02 -0.62668459404E+00  0.24241198139E+02  0.51100000000E-03 0.  1.
         12    1    3    3    0    0 -0.15063325735E+01  0.52474902706E+01 -0.65960911325E+01  0.85623367249E+01  0.00000000000E+00 0. -1.
</event>
<event>
 7    1  0.8986500E-014  0.5052886E+02  0.7816164E-02  0.1300439E+00
        -11   -1    0    0    0    0  0.00000000000E+00  0.00000000000E+00  0.45593999997E+02  0.45594000000E+02  0.51100000000E-03 0.  1.
         11   -1    0    0    0    0 -0.00000000000E+00 -0.00000000000E+00 -0.45593999997E+02  0.45594000000E+02  0.51100000000E-03 0. -1.
    9900012    2    1    2    0    0 -0.80688106752E+00  0.32624808478E+02  0.24251531489E+02  0.50528856320E+02  0.29999989269E+02 0.  0.
        -12    1    1    2    0    0  0.80688106752E+00 -0.32624808478E+02 -0.24251531489E+02  0.40659143680E+02  0.00000000000E+00 0.  1.
         11    1    3    3    0    0  0.83130335740E+01  0.56447020376E+01  0.58098165061E+01  0.11607030473E+02  0.51100000000E-03 0. -1.
        -11    1    3    3    0    0 -0.21467201369E+00  0.22775794064E+02  0.18057675399E+02  0.29066518890E+02  0.51100000000E-03 0.  1.
         12    1    3    3    0    0 -0.89052426278E+01  0.42043123765E+01  0.38403958439E+00  0.98553069573E+01  0.00000000000E+00 0. -1.
</event>
<event>
 7    1  0.8986500E-014  0.5052886E+02  0.7816164E-02  0.1300439E+00
        -11   -1    0    0    0    0  0.00000000000E+00  0.00000000000E+00  0.45593999997E+02  0.45594000000E+02  0.51100000000E-03 0. -1.
         11   -1    0    0    0    0 -0.00000000000E+00 -0.00000000000E+00 -0.45593999997E+02  0.45594000000E+02  0.51100000000E-03 0.  1.
    9900012    2    1    2    0    0 -0.24995052108E+02 -0.10871357116E+02  0.30169963751E+02  0.50528858983E+02  0.29999997366E+02 0.  0.
        -12    1    1    2    0    0  0.24995052108E+02  0.10871357116E+02 -0.30169963751E+02  0.40659141017E+02  0.00000000000E+00 0.  1.
         11    1    3    3    0    0 -0.22676227799E+02 -0.39974732962E+01  0.11468458915E+02  0.25723853718E+02  0.51100000000E-03 0. -1.
        -11    1    3    3    0    0 -0.60151866905E+01  0.30749294533E+00  0.14499018252E+02  0.15700272398E+02  0.51100000000E-03 0.  1.
        -12    1    3    3    0    0  0.36963623815E+01 -0.71813767655E+01  0.42024865846E+01  0.91047328680E+01  0.00000000000E+00 0.  1.
</event>
<event>
 7    1  0.8986500E-014  0.5052884E+02  0.7816164E-02  0.1300439E+00
        -11   -1    0    0    0    0  0.00000000000E+00  0.00000000000E+00  0.45593999997E+02  0.45594000000E+02  0.51100000000E-03 0. -1.
         11   -1    0    0    0    0 -0.00000000000E+00 -0.00000000000E+00 -0.45593999997E+02  0.45594000000E+02  0.51100000000E-03 0.  1.
    9900012    2    1    2    0    0 -0.39134759212E+01  0.33444158368E+02 -0.22789042613E+02  0.50528837614E+02  0.29999932410E+02 0.  0.
         12    1    1    2    0    0  0.39134759212E+01 -0.33444158368E+02  0.22789042613E+02  0.40659162386E+02  0.00000000000E+00 0. -1.
         11    1    3    3    0    0 -0.41541288050E+01  0.15672184860E+01  0.22608627416E+01  0.49824151281E+01  0.51100000000E-03 0. -1.
        -11    1    3    3    0    0 -0.86655805790E+01  0.60415384862E+01 -0.88282750140E+01  0.13767022700E+02  0.51100000000E-03 0.  1.
         12    1    3    3    0    0  0.89062334627E+01  0.25835401396E+02 -0.16221630340E+02  0.31779399785E+02  0.00000000000E+00 0. -1.
</event>
<event>
 7    1  0.8986500E-014  0.5052887E+02  0.7816164E-02  0.1300439E+00
        -11   -1    0    0    0    0  0.00000000000E+00  0.00000000000E+00  0.45593999997E+02  0.45594000000E+02  0.51100000000E-03 0. -1.
         11   -1    0    0    0    0 -0.00000000000E+00 -0.00000000000E+00 -0.45593999997E+02  0.45594000000E+02  0.51100000000E-03 0.  1.
    9900012    2    1    2    0    0  0.33572436124E+01 -0.42361437746E+01  0.40298253244E+02  0.50528865562E+02  0.30000017362E+02 0.  0.
        -12    1    1    2    0    0 -0.33572436124E+01  0.42361437746E+01 -0.40298253244E+02  0.40659134438E+02  0.00000000000E+00 0.  1.
         11    1    3    3    0    0 -0.64172611035E+00  0.61392094408E+01  0.11357643616E+02  0.12926630408E+02  0.51100000000E-03 0. -1.
        -11    1    3    3    0    0  0.52574856096E+01  0.46212655695E+01  0.17021688278E+02  0.18404758148E+02  0.51100000000E-03 0.  1.
         12    1    3    3    0    0 -0.12585158868E+01 -0.14996618785E+02  0.11918921350E+02  0.19197477005E+02  0.00000000000E+00 0. -1.
</event>
<event>
 7    1  0.8986500E-014  0.5052886E+02  0.7816164E-02  0.1300439E+00
        -11   -1    0    0    0    0  0.00000000000E+00  0.00000000000E+00  0.45593999997E+02  0.45594000000E+02  0.51100000000E-03 0. -1.
         11   -1    0    0    0    0 -0.00000000000E+00 -0.00000000000E+00 -0.45593999997E+02  0.45594000000E+02  0.51100000000E-03 0.  1.
    9900012    2    1    2    0    0 -0.14301572811E+02  0.21565538910E+02  0.31361731053E+02  0.50528860462E+02  0.30000001860E+02 0.  0.
        -12    1    1    2    0    0  0.14301572811E+02 -0.21565538910E+02 -0.31361731053E+02  0.40659139538E+02  0.00000000000E+00 0.  1.
         11    1    3    3    0    0 -0.91732810112E+01  0.18057701717E+02  0.36368252816E+02  0.41627869138E+02  0.51100000000E-03 0. -1.
        -11    1    3    3    0    0 -0.33294496017E+00 -0.78207411604E+00 -0.20959045672E+00  0.87545456202E+00  0.51100000000E-03 0.  1.
         12    1    3    3    0    0 -0.47953468398E+01  0.42899113091E+01 -0.47969313070E+01  0.80255367620E+01  0.00000000000E+00 0. -1.
</event>
<event>
 7    1  0.8986500E-014  0.5052886E+02  0.7816164E-02  0.1300439E+00
        -11   -1    0    0    0    0  0.00000000000E+00  0.00000000000E+00  0.45593999997E+02  0.45594000000E+02  0.51100000000E-03 0.  1.
         11   -1    0    0    0    0 -0.00000000000E+00 -0.00000000000E+00 -0.45593999997E+02  0.45594000000E+02  0.51100000000E-03 0. -1.
    9900012    2    1    2    0    0 -0.32104764098E+02  0.21200198541E+02  0.13152994583E+02  0.50528861267E+02  0.30000004308E+02 0.  0.
        -12    1    1    2    0    0  0.32104764098E+02 -0.21200198541E+02 -0.13152994583E+02  0.40659138733E+02  0.00000000000E+00 0.  1.
         11    1    3    3    0    0 -0.26116159677E+02  0.53491768449E+01  0.18852539098E+01  0.26724926038E+02  0.51100000000E-03 0.  1.
        -11    1    3    3    0    0 -0.86331773156E+00  0.12365316269E+02  0.18546497030E+01  0.12533398969E+02  0.51100000000E-03 0. -1.
        -12    1    3    3    0    0 -0.51252866897E+01  0.34857054274E+01  0.94130909701E+01  0.11270536260E+02  0.00000000000E+00 0.  1.
</event>
<event>
 7    1  0.8986500E-014  0.5052886E+02  0.7816164E-02  0.1300439E+00
        -11   -1    0    0    0    0  0.00000000000E+00  0.00000000000E+00  0.45593999997E+02  0.45594000000E+02  0.51100000000E-03 0. -1.
         11   -1    0    0    0    0 -0.00000000000E+00 -0.00000000000E+00 -0.45593999997E+02  0.45594000000E+02  0.51100000000E-03 0.  1.
    9900012    2    1    2    0    0 -0.69585572156E+01 -0.83708560905E+01  0.39174900395E+02  0.50528861161E+02  0.30000003985E+02 0.  0.
        -12    1    1    2    0    0  0.69585572156E+01  0.83708560905E+01 -0.39174900395E+02  0.40659138839E+02  0.00000000000E+00 0.  1.
         11    1    3    3    0    0 -0.96906456493E+01 -0.74580875822E+01  0.19443756724E+02  0.22969356963E+02  0.51100000000E-03 0.  1.
        -11    1    3    3    0    0  0.44535645591E+00 -0.72621230798E+01  0.19493148587E+02  0.20806720455E+02  0.51100000000E-03 0. -1.
        -12    1    3    3    0    0  0.22867319778E+01  0.63493545715E+01  0.23799508291E+00  0.67527837424E+01  0.00000000000E+00 0.  1.
</event>
<event>
 7    1  0.8986500E-014  0.5052887E+02  0.7816164E-02  0.1300439E+00
        -11   -1    0    0    0    0  0.00000000000E+00  0.00000000000E+00  0.45593999997E+02  0.45594000000E+02  0.51100000000E-03 0. -1.
         11   -1    0    0    0    0 -0.00000000000E+00 -0.00000000000E+00 -0.45593999997E+02  0.45594000000E+02  0.51100000000E-03 0.  1.
    9900012    2    1    2    0    0 -0.16826685177E+01 -0.16886756702E+01 -0.40589188688E+02  0.50528865267E+02  0.30000016466E+02 0.  0.
         12    1    1    2    0    0  0.16826685177E+01  0.16886756702E+01  0.40589188688E+02  0.40659134733E+02  0.00000000000E+00 0. -1.
         11    1    3    3    0    0 -0.57722219355E+01 -0.58798089281E+00  0.18308647711E+01  0.60841050019E+01  0.51100000000E-03 0. -1.
        -11    1    3    3    0    0 -0.33662976740E+01  0.24161835162E+01 -0.22632328238E+02  0.23008524171E+02  0.51100000000E-03 0.  1.
        -12    1    3    3    0    0  0.74558510918E+01 -0.35168782936E+01 -0.19787725222E+02  0.21436236094E+02  0.00000000000E+00 0.  1.
</event>
<event>
 7    1  0.8986500E-014  0.5052887E+02  0.7816164E-02  0.1300439E+00
        -11   -1    0    0    0    0  0.00000000000E+00  0.00000000000E+00  0.45593999997E+02  0.45594000000E+02  0.51100000000E-03 0. -1.
         11   -1    0    0    0    0 -0.00000000000E+00 -0.00000000000E+00 -0.45593999997E+02  0.45594000000E+02  0.51100000000E-03 0.  1.
    9900012    2    1    2    0    0  0.28865150104E+01 -0.22592755928E+02  0.33680864886E+02  0.50528865125E+02  0.30000016034E+02 0.  0.
        -12    1    1    2    0    0 -0.28865150104E+01  0.22592755928E+02 -0.33680864886E+02  0.40659134875E+02  0.00000000000E+00 0.  1.
         11    1    3    3    0    0  0.12448639298E+02 -0.73656042802E+01  0.25894124068E+02  0.29660182202E+02  0.51100000000E-03 0. -1.
        -11    1    3    3    0    0  0.35561608961E+00 -0.92472934187E+00 -0.96894124896E+00  0.13857974469E+01  0.51100000000E-03 0.  1.
        -12    1    3    3    0    0 -0.99177403767E+01 -0.14302422306E+02  0.87556820669E+01  0.19482885475E+02  0.00000000000E+00 0.  1.
</event>
<event>
 7    1  0.8986500E-014  0.5052887E+02  0.7816164E-02  0.1300439E+00
        -11   -1    0    0    0    0  0.00000000000E+00  0.00000000000E+00  0.45593999997E+02  0.45594000000E+02  0.51100000000E-03 0. -1.
         11   -1    0    0    0    0 -0.00000000000E+00 -0.00000000000E+00 -0.45593999997E+02  0.45594000000E+02  0.51100000000E-03 0.  1.
    9900012    2    1    2    0    0 -0.20072424584E+02  0.32333301080E+02  0.14311551341E+02  0.50528867088E+02  0.30000021999E+02 0.  0.
        -12    1    1    2    0    0  0.20072424584E+02 -0.32333301080E+02 -0.14311551341E+02  0.40659132912E+02  0.00000000000E+00 0.  1.
         11    1    3    3    0    0 -0.11935524601E+02  0.78673937818E+01 -0.50125221800E+01  0.15148531655E+02  0.51100000000E-03 0. -1.
        -11    1    3    3    0    0  0.19460543015E+01  0.10494483925E+01 -0.13201685902E+01  0.25751339073E+01  0.51100000000E-03 0.  1.
        -12    1    3    3    0    0 -0.10082954284E+02  0.23416458906E+02  0.20644242111E+02  0.32805201525E+02  0.00000000000E+00 0.  1.
</event>
<event>
 7    1  0.8986500E-014  0.5052885E+02  0.7816164E-02  0.1300439E+00
        -11   -1    0    0    0    0  0.00000000000E+00  0.00000000000E+00  0.45593999997E+02  0.45594000000E+02  0.51100000000E-03 0. -1.
         11   -1    0    0    0    0 -0.00000000000E+00 -0.00000000000E+00 -0.45593999997E+02  0.45594000000E+02  0.51100000000E-03 0.  1.
    9900012    2    1    2    0    0  0.12500848850E+02  0.94414430632E+01  0.37520048338E+02  0.50528854702E+02  0.29999984352E+02 0.  0.
        -12    1    1    2    0    0 -0.12500848850E+02 -0.94414430632E+01 -0.37520048338E+02  0.40659145298E+02  0.00000000000E+00 0.  1.
         11    1    3    3    0    0  0.78018184097E+01  0.11579030950E+02  0.25798879109E+02  0.29334697745E+02  0.51100000000E-03 0. -1.
        -11    1    3    3    0    0  0.38306714464E+01 -0.74324095898E+01  0.13202777318E+02  0.15627798476E+02  0.51100000000E-03 0.  1.
        -12    1    3    3    0    0  0.86835899387E+00  0.52948217025E+01 -0.14816080891E+01  0.55663584805E+01  0.00000000000E+00 0.  1.
</event>
<event>
 7    1  0.8986500E-014  0.5052886E+02  0.7816164E-02  0.1300439E+00
        -11   -1    0    0    0    0  0.00000000000E+00  0.00000000000E+00  0.45593999997E+02  0.45594000000E+02  0.51100000000E-03 0. -1.
         11   -1    0    0    0    0 -0.00000000000E+00 -0.00000000000E+00 -0.45593999997E+02  0.45594000000E+02  0.51100000000E-03 0.  1.
    9900012    2    1    2    0    0 -0.11469339855E+02 -0.10131281743E+02  0.37669315826E+02  0.50528856117E+02  0.29999988654E+02 0.  0.
        -12    1    1    2    0    0  0.11469339855E+02  0.10131281743E+02 -0.37669315826E+02  0.40659143883E+02  0.00000000000E+00 0.  1.
         11    1    3    3    0    0 -0.55860792714E+00 -0.64747933590E+01 -0.56905879203E+00  0.65237121356E+01  0.51100000000E-03 0. -1.
        -11    1    3    3    0    0 -0.42384056890E+01 -0.29192201650E+01 -0.35963622130E-01  0.51465738895E+01  0.51100000000E-03 0.  1.
         12    1    3    3    0    0 -0.66723262391E+01 -0.73726821854E+00  0.38274338240E+02  0.38858570092E+02  0.00000000000E+00 0. -1.
</event>
<event>
 7    1  0.8986500E-014  0.5052885E+02  0.7816164E-02  0.1300439E+00
        -11   -1    0    0    0    0  0.00000000000E+00  0.00000000000E+00  0.45593999997E+02  0.45594000000E+02  0.51100000000E-03 0. -1.
         11   -1    0    0    0    0 -0.00000000000E+00 -0.00000000000E+00 -0.45593999997E+02  0.45594000000E+02  0.51100000000E-03 0.  1.
    9900012    2    1    2    0    0 -0.24055552972E+02  0.15350422564E+02  0.28963098261E+02  0.50528853888E+02  0.29999981877E+02 0.  0.
        -12    1    1    2    0    0  0.24055552972E+02 -0.15350422564E+02 -0.28963098261E+02  0.40659146112E+02  0.00000000000E+00 0.  1.
         11    1    3    3    0    0 -0.75811620542E+01  0.15924720942E+02  0.21020015758E+02  0.27439238654E+02  0.51100000000E-03 0. -1.
        -11    1    3    3    0    0 -0.15284472663E+01  0.51689540754E+01  0.36595185789E+01  0.65150835582E+01  0.51100000000E-03 0.  1.
         12    1    3    3    0    0 -0.14945943651E+02 -0.57432524536E+01  0.42835639246E+01  0.16574531676E+02  0.00000000000E+00 0. -1.
</event>
<event>
 7    1  0.8986500E-014  0.5052886E+02  0.7816164E-02  0.1300439E+00
        -11   -1    0    0    0    0  0.00000000000E+00  0.00000000000E+00  0.45593999997E+02  0.45594000000E+02  0.51100000000E-03 0. -1.
         11   -1    0    0    0    0 -0.00000000000E+00 -0.00000000000E+00 -0.45593999997E+02  0.45594000000E+02  0.51100000000E-03 0.  1.
    9900012    2    1    2    0    0  0.15736937421E+02 -0.16183356335E+02 -0.33817352609E+02  0.50528861308E+02  0.30000004432E+02 0.  0.
         12    1    1    2    0    0 -0.15736937421E+02  0.16183356335E+02  0.33817352609E+02  0.40659138692E+02  0.00000000000E+00 0. -1.
         11    1    3    3    0    0 -0.14598420098E+01 -0.14187452538E+02 -0.21105328320E+02  0.25472530930E+02  0.51100000000E-03 0.  1.
        -11    1    3    3    0    0  0.55801389136E+00  0.21086229972E+01  0.16189737868E+01  0.27163848826E+01  0.51100000000E-03 0. -1.
        -12    1    3    3    0    0  0.16638765540E+02 -0.41045267935E+01 -0.14330998076E+02  0.22339945495E+02  0.00000000000E+00 0.  1.
</event>
<event>
 7    1  0.8986500E-014  0.5052886E+02  0.7816164E-02  0.1300439E+00
        -11   -1    0    0    0    0  0.00000000000E+00  0.00000000000E+00  0.45593999997E+02  0.45594000000E+02  0.51100000000E-03 0. -1.
         11   -1    0    0    0    0 -0.00000000000E+00 -0.00000000000E+00 -0.45593999997E+02  0.45594000000E+02  0.51100000000E-03 0.  1.
    9900012    2    1    2    0    0 -0.18764496209E+02  0.10138171156E+01 -0.36055951644E+02  0.50528858444E+02  0.29999995727E+02 0.  0.
         12    1    1    2    0    0  0.18764496209E+02 -0.10138171156E+01  0.36055951644E+02  0.40659141556E+02  0.00000000000E+00 0. -1.
         11    1    3    3    0    0 -0.77189750505E+01  0.33264115483E+01 -0.26836676614E+01  0.88232455478E+01  0.51100000000E-03 0. -1.
        -11    1    3    3    0    0 -0.80569639890E+01  0.61699661880E+01 -0.38666603921E+01  0.10859752038E+02  0.51100000000E-03 0.  1.
         12    1    3    3    0    0 -0.29885571696E+01 -0.84825606207E+01 -0.29505623590E+02  0.30845860858E+02  0.00000000000E+00 0. -1.
</event>
<event>
 7    1  0.8986500E-014  0.5052885E+02  0.7816164E-02  0.1300439E+00
        -11   -1    0    0    0    0  0.00000000000E+00  0.00000000000E+00  0.45593999997E+02  0.45594000000E+02  0.51100000000E-03 0.  1.
         11   -1    0    0    0    0 -0.00000000000E+00 -0.00000000000E+00 -0.45593999997E+02  0.45594000000E+02  0.51100000000E-03 0. -1.
    9900012    2    1    2    0    0  0.32595872373E+02  0.19524271014E+02  0.14473379758E+02  0.50528846344E+02  0.29999958948E+02 0.  0.
        -12    1    1    2    0    0 -0.32595872373E+02 -0.19524271014E+02 -0.14473379758E+02  0.40659153656E+02  0.00000000000E+00 0.  1.
         11    1    3    3    0    0  0.11259624393E+02  0.83803684136E+01 -0.53241981856E+01  0.15011888716E+02  0.51100000000E-03 0. -1.
        -11    1    3    3    0    0  0.21056292152E+02  0.12910155669E+02  0.11894063557E+02  0.27413651832E+02  0.51100000000E-03 0.  1.
         12    1    3    3    0    0  0.27995582754E+00 -0.17662530690E+01  0.79035143872E+01  0.81033057968E+01  0.00000000000E+00 0. -1.
</event>
<event>
 7    1  0.8986500E-014  0.5052884E+02  0.7816164E-02  0.1300439E+00
        -11   -1    0    0    0    0  0.00000000000E+00  0.00000000000E+00  0.45593999997E+02  0.45594000000E+02  0.51100000000E-03 0. -1.
         11   -1    0    0    0    0 -0.00000000000E+00 -0.00000000000E+00 -0.45593999997E+02  0.45594000000E+02  0.51100000000E-03 0.  1.
    9900012    2    1    2    0    0  0.30453272452E+02 -0.72058091838E+00 -0.26930403918E+02  0.50528835042E+02  0.29999924595E+02 0.  0.
         12    1    1    2    0    0 -0.30453272452E+02  0.72058091838E+00  0.26930403918E+02  0.40659164958E+02  0.00000000000E+00 0. -1.
         11    1    3    3    0    0  0.54751299633E+01 -0.24928702545E+01  0.14442204445E+00  0.60176663424E+01  0.51100000000E-03 0. -1.
        -11    1    3    3    0    0  0.23837484791E+02 -0.64063168982E+01 -0.12283439416E+02  0.27570808140E+02  0.51100000000E-03 0.  1.
        -12    1    3    3    0    0  0.11406576973E+01  0.81786062344E+01 -0.14791386547E+02  0.16940360560E+02  0.00000000000E+00 0.  1.
</event>
<event>
 7    1  0.8986500E-014  0.5052886E+02  0.7816164E-02  0.1300439E+00
        -11   -1    0    0    0    0  0.00000000000E+00  0.00000000000E+00  0.45593999997E+02  0.45594000000E+02  0.51100000000E-03 0. -1.
         11   -1    0    0    0    0 -0.00000000000E+00 -0.00000000000E+00 -0.45593999997E+02  0.45594000000E+02  0.51100000000E-03 0.  1.
    9900012    2    1    2    0    0 -0.27773663905E+02  0.15460609379E+01  0.29654667798E+02  0.50528855477E+02  0.29999986708E+02 0.  0.
        -12    1    1    2    0    0  0.27773663905E+02 -0.15460609379E+01 -0.29654667798E+02  0.40659144523E+02  0.00000000000E+00 0.  1.
         11    1    3    3    0    0 -0.90843061756E+01 -0.23752682017E+01  0.11758952510E+02  0.15047906237E+02  0.51100000000E-03 0. -1.
        -11    1    3    3    0    0  0.19862508916E+01  0.72955957544E+01  0.11151087543E+02  0.13472849129E+02  0.51100000000E-03 0.  1.
         12    1    3    3    0    0 -0.20675608621E+02 -0.33742666148E+01  0.67446277448E+01  0.22008100110E+02  0.00000000000E+00 0. -1.
</event>
<event>
 7    1  0.8986500E-014  0.5052886E+02  0.7816164E-02  0.1300439E+00
        -11   -1    0    0    0    0  0.00000000000E+00  0.00000000000E+00  0.45593999997E+02  0.45594000000E+02  0.51100000000E-03 0.  1.
         11   -1    0    0    0    0 -0.00000000000E+00 -0.00000000000E+00 -0.45593999997E+02  0.45594000000E+02  0.51100000000E-03 0. -1.
    9900012    2    1    2    0    0 -0.24802865644E+02 -0.22662523013E+02  0.22899648584E+02  0.50528855902E+02  0.29999988001E+02 0.  0.
        -12    1    1    2    0    0  0.24802865644E+02  0.22662523013E+02 -0.22899648584E+02  0.40659144098E+02  0.00000000000E+00 0.  1.
         11    1    3    3    0    0 -0.63728748010E+01 -0.15908848101E+02  0.13380873500E+02  0.21742878306E+02  0.51100000000E-03 0.  1.
        -11    1    3    3    0    0 -0.19459770161E+02 -0.10213357290E+02  0.11353735389E+02  0.24736665689E+02  0.51100000000E-03 0. -1.
        -12    1    3    3    0    0  0.10297793183E+01  0.34596823782E+01 -0.18349603051E+01  0.40493119075E+01  0.00000000000E+00 0.  1.
</event>
<event>
 7    1  0.8986500E-014  0.5052887E+02  0.7816164E-02  0.1300439E+00
        -11   -1    0    0    0    0  0.00000000000E+00  0.00000000000E+00  0.45593999997E+02  0.45594000000E+02  0.51100000000E-03 0. -1.
         11   -1    0    0    0    0 -0.00000000000E+00 -0.00000000000E+00 -0.45593999997E+02  0.45594000000E+02  0.51100000000E-03 0.  1.
    9900012    2    1    2    0    0  0.16805498074E+02  0.76239724956E+01  0.36230031355E+02  0.50528869487E+02  0.30000029292E+02 0.  0.
        -12    1    1    2    0    0 -0.16805498074E+02 -0.76239724956E+01 -0.36230031355E+02  0.40659130513E+02  0.00000000000E+00 0.  1.
         11    1    3    3    0    0 -0.16333343557E+01  0.21272910332E+01  0.54600004317E+01  0.60831532311E+01  0.51100000000E-03 0. -1.
        -11    1    3    3    0    0 -0.13343964276E+01  0.70495850972E+00 -0.39361924540E+01  0.42155891193E+01  0.51100000000E-03 0.  1.
         12    1    3    3    0    0  0.19773228858E+02  0.47917229527E+01  0.34706223377E+02  0.40230127136E+02  0.00000000000E+00 0. -1.
</event>
<event>
 7    1  0.8986500E-014  0.5052886E+02  0.7816164E-02  0.1300439E+00
        -11   -1    0    0    0    0  0.00000000000E+00  0.00000000000E+00  0.45593999997E+02  0.45594000000E+02  0.51100000000E-03 0. -1.
         11   -1    0    0    0    0 -0.00000000000E+00 -0.00000000000E+00 -0.45593999997E+02  0.45594000000E+02  0.51100000000E-03 0.  1.
    9900012    2    1    2    0    0  0.12857680136E+02 -0.26430363143E+02  0.28094162203E+02  0.50528856081E+02  0.29999988544E+02 0.  0.
        -12    1    1    2    0    0 -0.12857680136E+02  0.26430363143E+02 -0.28094162203E+02  0.40659143919E+02  0.00000000000E+00 0.  1.
         11    1    3    3    0    0 -0.65865906616E+01 -0.11365891895E+02  0.17010423702E+02  0.21492351893E+02  0.51100000000E-03 0. -1.
        -11    1    3    3    0    0 -0.14415720667E+00  0.10696413368E+01 -0.43948415658E+00  0.11653585176E+01  0.51100000000E-03 0.  1.
         12    1    3    3    0    0  0.19588428004E+02 -0.16134112585E+02  0.11523222657E+02  0.27871145670E+02  0.00000000000E+00 0. -1.
</event>
<event>
 7    1  0.8986500E-014  0.5052887E+02  0.7816164E-02  0.1300439E+00
        -11   -1    0    0    0    0  0.00000000000E+00  0.00000000000E+00  0.45593999997E+02  0.45594000000E+02  0.51100000000E-03 0. -1.
         11   -1    0    0    0    0 -0.00000000000E+00 -0.00000000000E+00 -0.45593999997E+02  0.45594000000E+02  0.51100000000E-03 0.  1.
    9900012    2    1    2    0    0  0.15294532395E+02  0.84290144710E+01  0.36717754966E+02  0.50528873892E+02  0.30000042681E+02 0.  0.
        -12    1    1    2    0    0 -0.15294532395E+02 -0.84290144710E+01 -0.36717754966E+02  0.40659126108E+02  0.00000000000E+00 0.  1.
         11    1    3    3    0    0 -0.48532290009E+01  0.92159582273E+01  0.86507997517E+01  0.13539721356E+02  0.51100000000E-03 0. -1.
        -11    1    3    3    0    0  0.64400669733E+00  0.21478294707E+01  0.99780843685E+01  0.10226929353E+02  0.51100000000E-03 0.  1.
        -12    1    3    3    0    0  0.19503754698E+02 -0.29347732269E+01  0.18088870846E+02  0.26762223183E+02  0.00000000000E+00 0.  1.
</event>
<event>
 7    1  0.8986500E-014  0.5052886E+02  0.7816164E-02  0.1300439E+00
        -11   -1    0    0    0    0  0.00000000000E+00  0.00000000000E+00  0.45593999997E+02  0.45594000000E+02  0.51100000000E-03 0. -1.
         11   -1    0    0    0    0 -0.00000000000E+00 -0.00000000000E+00 -0.45593999997E+02  0.45594000000E+02  0.51100000000E-03 0.  1.
    9900012    2    1    2    0    0  0.35210943401E+01 -0.24464436583E+02 -0.32284033525E+02  0.50528861011E+02  0.30000003529E+02 0.  0.
         12    1    1    2    0    0 -0.35210943401E+01  0.24464436583E+02  0.32284033525E+02  0.40659138989E+02  0.00000000000E+00 0. -1.
         11    1    3    3    0    0 -0.24863832532E+01  0.19201974012E+01 -0.10652384328E+02  0.11105969201E+02  0.51100000000E-03 0. -1.
        -11    1    3    3    0    0  0.49000813761E+01 -0.78777211293E+01 -0.18395562472E+02  0.20602572815E+02  0.51100000000E-03 0.  1.
         12    1    3    3    0    0  0.11073962172E+01 -0.18506912855E+02 -0.32360867253E+01  0.18820318996E+02  0.00000000000E+00 0. -1.
</event>
<event>
 7    1  0.8986500E-014  0.5052885E+02  0.7816164E-02  0.1300439E+00
        -11   -1    0    0    0    0  0.00000000000E+00  0.00000000000E+00  0.45593999997E+02  0.45594000000E+02  0.51100000000E-03 0. -1.
         11   -1    0    0    0    0 -0.00000000000E+00 -0.00000000000E+00 -0.45593999997E+02  0.45594000000E+02  0.51100000000E-03 0.  1.
    9900012    2    1    2    0    0  0.16066193670E+00  0.38721478937E+02 -0.12401105012E+02  0.50528854056E+02  0.29999982390E+02 0.  0.
         12    1    1    2    0    0 -0.16066193670E+00 -0.38721478937E+02  0.12401105012E+02  0.40659145944E+02  0.00000000000E+00 0. -1.
         11    1    3    3    0    0 -0.72655539309E+01  0.10260667292E+02  0.34103690172E+01  0.13026902330E+02  0.51100000000E-03 0. -1.
        -11    1    3    3    0    0 -0.38581140276E+01  0.11725325599E+02 -0.84220293002E+00  0.12372453690E+02  0.51100000000E-03 0.  1.
        -12    1    3    3    0    0  0.11284329895E+02  0.16735486045E+02 -0.14969271100E+02  0.25129498037E+02  0.00000000000E+00 0.  1.
</event>
<event>
 7    1  0.8986500E-014  0.5052886E+02  0.7816164E-02  0.1300439E+00
        -11   -1    0    0    0    0  0.00000000000E+00  0.00000000000E+00  0.45593999997E+02  0.45594000000E+02  0.51100000000E-03 0. -1.
         11   -1    0    0    0    0 -0.00000000000E+00 -0.00000000000E+00 -0.45593999997E+02  0.45594000000E+02  0.51100000000E-03 0.  1.
    9900012    2    1    2    0    0 -0.23752724369E+01  0.15735288091E+02 -0.37415564886E+02  0.50528859500E+02  0.29999998936E+02 0.  0.
         12    1    1    2    0    0  0.23752724369E+01 -0.15735288091E+02  0.37415564886E+02  0.40659140500E+02  0.00000000000E+00 0. -1.
         11    1    3    3    0    0 -0.11716788654E+02  0.63445391995E+01 -0.15817756851E+02  0.20681821634E+02  0.51100000000E-03 0. -1.
        -11    1    3    3    0    0 -0.14940833186E+01  0.88270211738E+01 -0.13937725202E+02  0.16565288160E+02  0.51100000000E-03 0.  1.
         12    1    3    3    0    0  0.10835599536E+02  0.56372771784E+00 -0.76600828333E+01  0.13281749706E+02  0.00000000000E+00 0. -1.
</event>
<event>
 7    1  0.8986500E-014  0.5052886E+02  0.7816164E-02  0.1300439E+00
        -11   -1    0    0    0    0  0.00000000000E+00  0.00000000000E+00  0.45593999997E+02  0.45594000000E+02  0.51100000000E-03 0. -1.
         11   -1    0    0    0    0 -0.00000000000E+00 -0.00000000000E+00 -0.45593999997E+02  0.45594000000E+02  0.51100000000E-03 0.  1.
    9900012    2    1    2    0    0 -0.75561493073E+01  0.21418992745E+02 -0.33723836260E+02  0.50528858658E+02  0.29999996377E+02 0.  0.
         12    1    1    2    0    0  0.75561493073E+01 -0.21418992745E+02  0.33723836260E+02  0.40659141342E+02  0.00000000000E+00 0. -1.
         11    1    3    3    0    0 -0.13791924694E+02  0.88399181363E+01 -0.11611062654E+02  0.20079295696E+02  0.51100000000E-03 0. -1.
        -11    1    3    3    0    0 -0.34948015806E+01  0.59962900228E+00 -0.10650431098E+02  0.11225189346E+02  0.51100000000E-03 0.  1.
        -12    1    3    3    0    0  0.97305769673E+01  0.11979445606E+02 -0.11462342508E+02  0.19224373616E+02  0.00000000000E+00 0.  1.
</event>
<event>
 7    1  0.8986500E-014  0.5052886E+02  0.7816164E-02  0.1300439E+00
        -11   -1    0    0    0    0  0.00000000000E+00  0.00000000000E+00  0.45593999997E+02  0.45594000000E+02  0.51100000000E-03 0. -1.
         11   -1    0    0    0    0 -0.00000000000E+00 -0.00000000000E+00 -0.45593999997E+02  0.45594000000E+02  0.51100000000E-03 0.  1.
    9900012    2    1    2    0    0 -0.25140096667E+02 -0.27549907813E+02  0.16190853873E+02  0.50528860436E+02  0.30000001781E+02 0.  0.
        -12    1    1    2    0    0  0.25140096667E+02  0.27549907813E+02 -0.16190853873E+02  0.40659139564E+02  0.00000000000E+00 0.  1.
         11    1    3    3    0    0 -0.18223524930E+02 -0.21576019088E+02  0.30405764253E+01  0.28405396773E+02  0.51100000000E-03 0. -1.
        -11    1    3    3    0    0 -0.41774828145E+01 -0.62994086908E+01 -0.10736314869E+01  0.76345659569E+01  0.51100000000E-03 0.  1.
        -12    1    3    3    0    0 -0.27390889226E+01  0.32551996518E+00  0.14223908935E+02  0.14488897707E+02  0.00000000000E+00 0.  1.
</event>
<event>
 7    1  0.8986500E-014  0.5052883E+02  0.7816164E-02  0.1300439E+00
        -11   -1    0    0    0    0  0.00000000000E+00  0.00000000000E+00  0.45593999997E+02  0.45594000000E+02  0.51100000000E-03 0. -1.
         11   -1    0    0    0    0 -0.00000000000E+00 -0.00000000000E+00 -0.45593999997E+02  0.45594000000E+02  0.51100000000E-03 0.  1.
    9900012    2    1    2    0    0 -0.26236177274E+02  0.40165720021E+01 -0.30800941909E+02  0.50528832878E+02  0.29999918015E+02 0.  0.
         12    1    1    2    0    0  0.26236177274E+02 -0.40165720021E+01  0.30800941909E+02  0.40659167122E+02  0.00000000000E+00 0. -1.
         11    1    3    3    0    0 -0.39082093728E+01 -0.23356456368E+01  0.37353779274E+01  0.58891756269E+01  0.51100000000E-03 0. -1.
        -11    1    3    3    0    0 -0.41552992442E+01 -0.49315240277E+01 -0.49451262298E+01  0.81265438370E+01  0.51100000000E-03 0.  1.
        -12    1    3    3    0    0 -0.18172668657E+02  0.11283741667E+02 -0.29591193606E+02  0.36513113414E+02  0.00000000000E+00 0.  1.
</event>
<event>
 7    1  0.8986500E-014  0.5052885E+02  0.7816164E-02  0.1300439E+00
        -11   -1    0    0    0    0  0.00000000000E+00  0.00000000000E+00  0.45593999997E+02  0.45594000000E+02  0.51100000000E-03 0. -1.
         11   -1    0    0    0    0 -0.00000000000E+00 -0.00000000000E+00 -0.45593999997E+02  0.45594000000E+02  0.51100000000E-03 0.  1.
    9900012    2    1    2    0    0 -0.18701363750E+02 -0.21376620218E+02 -0.29094076007E+02  0.50528853959E+02  0.29999982095E+02 0.  0.
         12    1    1    2    0    0  0.18701363750E+02  0.21376620218E+02  0.29094076007E+02  0.40659146041E+02  0.00000000000E+00 0. -1.
         11    1    3    3    0    0 -0.14451940057E+02 -0.38195498967E+01 -0.10492692355E+02  0.18263190464E+02  0.51100000000E-03 0. -1.
        -11    1    3    3    0    0 -0.10743344651E+02 -0.47519190516E+01 -0.61441760591E+01  0.13257114643E+02  0.51100000000E-03 0.  1.
         12    1    3    3    0    0  0.64939209575E+01 -0.12805151270E+02 -0.12457207592E+02  0.19008548852E+02  0.00000000000E+00 0. -1.
</event>
<event>
 7    1  0.8986500E-014  0.5052891E+02  0.7816164E-02  0.1300439E+00
        -11   -1    0    0    0    0  0.00000000000E+00  0.00000000000E+00  0.45593999997E+02  0.45594000000E+02  0.51100000000E-03 0. -1.
         11   -1    0    0    0    0 -0.00000000000E+00 -0.00000000000E+00 -0.45593999997E+02  0.45594000000E+02  0.51100000000E-03 0.  1.
    9900012    2    1    2    0    0 -0.21586153868E+02 -0.18264865693E+02  0.29216335830E+02  0.50528909541E+02  0.30000151041E+02 0.  0.
        -12    1    1    2    0    0  0.21586153868E+02  0.18264865693E+02 -0.29216335830E+02  0.40659090459E+02  0.00000000000E+00 0.  1.
         11    1    3    3    0    0 -0.92828987019E+01 -0.10752256951E+02  0.10345757880E+02  0.17573216673E+02  0.51100000000E-03 0. -1.
        -11    1    3    3    0    0 -0.15052921821E+02 -0.13617990167E+02  0.13589688450E+02  0.24427847715E+02  0.51100000000E-03 0.  1.
        -12    1    3    3    0    0  0.27496666551E+01  0.61053814250E+01  0.52808895000E+01  0.85278451540E+01  0.00000000000E+00 0.  1.
</event>
<event>
 7    1  0.8986500E-014  0.5052886E+02  0.7816164E-02  0.1300439E+00
        -11   -1    0    0    0    0  0.00000000000E+00  0.00000000000E+00  0.45593999997E+02  0.45594000000E+02  0.51100000000E-03 0.  1.
         11   -1    0    0    0    0 -0.00000000000E+00 -0.00000000000E+00 -0.45593999997E+02  0.45594000000E+02  0.51100000000E-03 0. -1.
    9900012    2    1    2    0    0 -0.27415593780E+01  0.14362285192E+02  0.37939087363E+02  0.50528859161E+02  0.29999997907E+02 0.  0.
        -12    1    1    2    0    0  0.27415593780E+01 -0.14362285192E+02 -0.37939087363E+02  0.40659140839E+02  0.00000000000E+00 0.  1.
         11    1    3    3    0    0 -0.45160011644E+01  0.25051247150E+01  0.66315806267E+00  0.52066971519E+01  0.51100000000E-03 0. -1.
        -11    1    3    3    0    0 -0.76236953601E+00 -0.43955693180E+01 -0.12577316550E+00  0.44629649437E+01  0.51100000000E-03 0.  1.
        -12    1    3    3    0    0  0.25368113224E+01  0.16252729795E+02  0.37401702466E+02  0.40859197066E+02  0.00000000000E+00 0.  1.
</event>
<event>
 7    1  0.8986500E-014  0.5052888E+02  0.7816164E-02  0.1300439E+00
        -11   -1    0    0    0    0  0.00000000000E+00  0.00000000000E+00  0.45593999997E+02  0.45594000000E+02  0.51100000000E-03 0. -1.
         11   -1    0    0    0    0 -0.00000000000E+00 -0.00000000000E+00 -0.45593999997E+02  0.45594000000E+02  0.51100000000E-03 0.  1.
    9900012    2    1    2    0    0 -0.28023192807E+01 -0.29880175331E+02  0.27431483368E+02  0.50528878626E+02  0.30000057071E+02 0.  0.
        -12    1    1    2    0    0  0.28023192807E+01  0.29880175331E+02 -0.27431483368E+02  0.40659121374E+02  0.00000000000E+00 0.  1.
         11    1    3    3    0    0  0.70468264170E+01  0.36238871883E+00  0.98853044318E+00  0.71250460232E+01  0.51100000000E-03 0. -1.
        -11    1    3    3    0    0  0.28876554420E+00 -0.71691664668E+01  0.43494043157E+00  0.71881504442E+01  0.51100000000E-03 0.  1.
         12    1    3    3    0    0 -0.10137911242E+02 -0.23073397583E+02  0.26008012493E+02  0.36215682158E+02  0.00000000000E+00 0. -1.
</event>
<event>
 7    1  0.8986500E-014  0.5052885E+02  0.7816164E-02  0.1300439E+00
        -11   -1    0    0    0    0  0.00000000000E+00  0.00000000000E+00  0.45593999997E+02  0.45594000000E+02  0.51100000000E-03 0. -1.
         11   -1    0    0    0    0 -0.00000000000E+00 -0.00000000000E+00 -0.45593999997E+02  0.45594000000E+02  0.51100000000E-03 0.  1.
    9900012    2    1    2    0    0 -0.36333723039E+02 -0.37059174586E+01  0.17868780872E+02  0.50528848706E+02  0.29999966127E+02 0.  0.
        -12    1    1    2    0    0  0.36333723039E+02  0.37059174586E+01 -0.17868780872E+02  0.40659151294E+02  0.00000000000E+00 0.  1.
         11    1    3    3    0    0 -0.30149653719E+02  0.39554328332E+01  0.99751811268E+01  0.32002364085E+02  0.51100000000E-03 0. -1.
        -11    1    3    3    0    0 -0.73850971601E+01 -0.47870896878E+01 -0.12293581635E+01  0.88863496160E+01  0.51100000000E-03 0.  1.
         12    1    3    3    0    0  0.12010278405E+01 -0.28742606040E+01  0.91229579092E+01  0.96401350046E+01  0.00000000000E+00 0. -1.
</event>
<event>
 7    1  0.8986500E-014  0.5052886E+02  0.7816164E-02  0.1300439E+00
        -11   -1    0    0    0    0  0.00000000000E+00  0.00000000000E+00  0.45593999997E+02  0.45594000000E+02  0.51100000000E-03 0. -1.
         11   -1    0    0    0    0 -0.00000000000E+00 -0.00000000000E+00 -0.45593999997E+02  0.45594000000E+02  0.51100000000E-03 0.  1.
    9900012    2    1    2    0    0 -0.83816531567E+01  0.19450701737E+02 -0.34707110651E+02  0.50528862805E+02  0.30000008982E+02 0.  0.
         12    1    1    2    0    0  0.83816531567E+01 -0.19450701737E+02  0.34707110651E+02  0.40659137195E+02  0.00000000000E+00 0. -1.
         11    1    3    3    0    0  0.51838298062E+01 -0.26255967331E+01 -0.15313258459E+02  0.16378697584E+02  0.51100000000E-03 0.  1.
        -11    1    3    3    0    0  0.26211643319E+00  0.92313827803E+01 -0.64869646661E+01  0.11285736303E+02  0.51100000000E-03 0. -1.
        -12    1    3    3    0    0 -0.13827599396E+02  0.12844915690E+02 -0.12906887526E+02  0.22864428918E+02  0.00000000000E+00 0.  1.
</event>
<event>
 7    1  0.8986500E-014  0.5052886E+02  0.7816164E-02  0.1300439E+00
        -11   -1    0    0    0    0  0.00000000000E+00  0.00000000000E+00  0.45593999997E+02  0.45594000000E+02  0.51100000000E-03 0. -1.
         11   -1    0    0    0    0 -0.00000000000E+00 -0.00000000000E+00 -0.45593999997E+02  0.45594000000E+02  0.51100000000E-03 0.  1.
    9900012    2    1    2    0    0  0.23312433522E+01  0.42576446724E+01  0.40368347478E+02  0.50528859431E+02  0.29999998725E+02 0.  0.
        -12    1    1    2    0    0 -0.23312433522E+01 -0.42576446724E+01 -0.40368347478E+02  0.40659140569E+02  0.00000000000E+00 0.  1.
         11    1    3    3    0    0 -0.18797950479E+01  0.89699183706E-01  0.36230078791E+01  0.40826292654E+01  0.51100000000E-03 0. -1.
        -11    1    3    3    0    0 -0.10461054052E+02  0.80446107805E+01  0.15926103882E+02  0.20683089702E+02  0.51100000000E-03 0.  1.
        -12    1    3    3    0    0  0.14672092452E+02 -0.38766652919E+01  0.20819235717E+02  0.25763140464E+02  0.00000000000E+00 0.  1.
</event>
<event>
 7    1  0.8986500E-014  0.5052887E+02  0.7816164E-02  0.1300439E+00
        -11   -1    0    0    0    0  0.00000000000E+00  0.00000000000E+00  0.45593999997E+02  0.45594000000E+02  0.51100000000E-03 0. -1.
         11   -1    0    0    0    0 -0.00000000000E+00 -0.00000000000E+00 -0.45593999997E+02  0.45594000000E+02  0.51100000000E-03 0.  1.
    9900012    2    1    2    0    0  0.11217634328E+02 -0.45959987663E+00 -0.39078365251E+02  0.50528865938E+02  0.30000018505E+02 0.  0.
         12    1    1    2    0    0 -0.11217634328E+02  0.45959987663E+00  0.39078365251E+02  0.40659134062E+02  0.00000000000E+00 0. -1.
         11    1    3    3    0    0  0.81587452667E+00 -0.47844086578E+01 -0.89993480457E+01  0.10224699651E+02  0.51100000000E-03 0. -1.
        -11    1    3    3    0    0  0.84098976325E+01  0.11658284373E+02 -0.29336093777E+02  0.32668767517E+02  0.51100000000E-03 0.  1.
         12    1    3    3    0    0  0.19918621683E+01 -0.73334755922E+01 -0.74292342881E+00  0.76353987702E+01  0.00000000000E+00 0. -1.
</event>
<event>
 7    1  0.8986500E-014  0.5052886E+02  0.7816164E-02  0.1300439E+00
        -11   -1    0    0    0    0  0.00000000000E+00  0.00000000000E+00  0.45593999997E+02  0.45594000000E+02  0.51100000000E-03 0. -1.
         11   -1    0    0    0    0 -0.00000000000E+00 -0.00000000000E+00 -0.45593999997E+02  0.45594000000E+02  0.51100000000E-03 0.  1.
    9900012    2    1    2    0    0  0.29364623208E+02 -0.11203115432E+02  0.25794856704E+02  0.50528861741E+02  0.30000005748E+02 0.  0.
        -12    1    1    2    0    0 -0.29364623208E+02  0.11203115432E+02 -0.25794856704E+02  0.40659138259E+02  0.00000000000E+00 0.  1.
         11    1    3    3    0    0  0.92470706729E+01  0.28246676424E+01  0.50527954447E+01  0.10909528193E+02  0.51100000000E-03 0. -1.
        -11    1    3    3    0    0  0.20585985479E+02 -0.71316187352E+01  0.48935644653E+01  0.22329123525E+02  0.51100000000E-03 0.  1.
        -12    1    3    3    0    0 -0.46843294378E+00 -0.68961643393E+01  0.15848496795E+02  0.17290210024E+02  0.00000000000E+00 0.  1.
</event>
<event>
 7    1  0.8986500E-014  0.5052896E+02  0.7816164E-02  0.1300438E+00
        -11   -1    0    0    0    0  0.00000000000E+00  0.00000000000E+00  0.45593999997E+02  0.45594000000E+02  0.51100000000E-03 0. -1.
         11   -1    0    0    0    0 -0.00000000000E+00 -0.00000000000E+00 -0.45593999997E+02  0.45594000000E+02  0.51100000000E-03 0.  1.
    9900012    2    1    2    0    0 -0.23594982547E+02  0.24376462493E+02 -0.22410326214E+02  0.50528956158E+02  0.30000292737E+02 0.  0.
         12    1    1    2    0    0  0.23594982547E+02 -0.24376462493E+02  0.22410326214E+02  0.40659043842E+02  0.00000000000E+00 0. -1.
         11    1    3    3    0    0 -0.90911638062E+01  0.15556134108E+02 -0.27394263732E+01  0.18224901230E+02  0.51100000000E-03 0. -1.
        -11    1    3    3    0    0 -0.12168695097E+02  0.74421524038E+01 -0.23572823755E+02  0.27552509737E+02  0.51100000000E-03 0.  1.
         12    1    3    3    0    0 -0.23351236445E+01  0.13781759815E+01  0.39019239140E+01  0.47515451909E+01  0.00000000000E+00 0. -1.
</event>
<event>
 7    1  0.8986500E-014  0.5052885E+02  0.7816164E-02  0.1300439E+00
        -11   -1    0    0    0    0  0.00000000000E+00  0.00000000000E+00  0.45593999997E+02  0.45594000000E+02  0.51100000000E-03 0. -1.
         11   -1    0    0    0    0 -0.00000000000E+00 -0.00000000000E+00 -0.45593999997E+02  0.45594000000E+02  0.51100000000E-03 0.  1.
    9900012    2    1    2    0    0  0.20998280174E+02  0.22841724434E+02 -0.26277264622E+02  0.50528846278E+02  0.29999958745E+02 0.  0.
         12    1    1    2    0    0 -0.20998280174E+02 -0.22841724434E+02  0.26277264622E+02  0.40659153722E+02  0.00000000000E+00 0. -1.
         11    1    3    3    0    0  0.15214877053E+02  0.13746143656E+02 -0.76987730834E+01  0.21902512559E+02  0.51100000000E-03 0. -1.
        -11    1    3    3    0    0  0.80264413342E+01  0.66173518167E+01 -0.68692596922E+00  0.10425208540E+02  0.51100000000E-03 0.  1.
         12    1    3    3    0    0 -0.22430382137E+01  0.24782289614E+01 -0.17891565570E+02  0.18201125178E+02  0.00000000000E+00 0. -1.
</event>
<event>
 7    1  0.8986500E-014  0.5052878E+02  0.7816164E-02  0.1300439E+00
        -11   -1    0    0    0    0  0.00000000000E+00  0.00000000000E+00  0.45593999997E+02  0.45594000000E+02  0.51100000000E-03 0. -1.
         11   -1    0    0    0    0 -0.00000000000E+00 -0.00000000000E+00 -0.45593999997E+02  0.45594000000E+02  0.51100000000E-03 0.  1.
    9900012    2    1    2    0    0 -0.59123959084E+01 -0.34492343184E+02  0.20700102967E+02  0.50528776858E+02  0.29999747735E+02 0.  0.
        -12    1    1    2    0    0  0.59123959084E+01  0.34492343184E+02 -0.20700102967E+02  0.40659223142E+02  0.00000000000E+00 0.  1.
         11    1    3    3    0    0 -0.11663036316E+02 -0.16282383540E+02  0.76417607170E+01  0.21436859307E+02  0.51100000000E-03 0. -1.
        -11    1    3    3    0    0  0.39915273610E+01 -0.46021265827E+01 -0.39337331192E+01  0.72516285255E+01  0.51100000000E-03 0.  1.
         12    1    3    3    0    0  0.17591130464E+01 -0.13607833062E+02  0.16992075369E+02  0.21840289025E+02  0.00000000000E+00 0. -1.
</event>
<event>
 7    1  0.8986500E-014  0.5052885E+02  0.7816164E-02  0.1300439E+00
        -11   -1    0    0    0    0  0.00000000000E+00  0.00000000000E+00  0.45593999997E+02  0.45594000000E+02  0.51100000000E-03 0. -1.
         11   -1    0    0    0    0 -0.00000000000E+00 -0.00000000000E+00 -0.45593999997E+02  0.45594000000E+02  0.51100000000E-03 0.  1.
    9900012    2    1    2    0    0  0.91354342274E+01  0.26685439217E+02  0.29284761901E+02  0.50528854604E+02  0.29999984054E+02 0.  0.
        -12    1    1    2    0    0 -0.91354342274E+01 -0.26685439217E+02 -0.29284761901E+02  0.40659145396E+02  0.00000000000E+00 0.  1.
         11    1    3    3    0    0  0.71688611296E+01  0.21215696636E+02  0.13660979568E+02  0.26232055136E+02  0.51100000000E-03 0. -1.
        -11    1    3    3    0    0  0.84613141969E+01  0.73502799760E+01  0.65527886603E+01  0.12983046374E+02  0.51100000000E-03 0.  1.
         12    1    3    3    0    0 -0.64947410991E+01 -0.18805373951E+01  0.90709936731E+01  0.11313753093E+02  0.00000000000E+00 0. -1.
</event>
<event>
 7    1  0.8986500E-014  0.5052887E+02  0.7816164E-02  0.1300439E+00
        -11   -1    0    0    0    0  0.00000000000E+00  0.00000000000E+00  0.45593999997E+02  0.45594000000E+02  0.51100000000E-03 0. -1.
         11   -1    0    0    0    0 -0.00000000000E+00 -0.00000000000E+00 -0.45593999997E+02  0.45594000000E+02  0.51100000000E-03 0.  1.
    9900012    2    1    2    0    0 -0.15482529551E+02 -0.44547956332E+01 -0.37331100881E+02  0.50528867958E+02  0.30000024645E+02 0.  0.
         12    1    1    2    0    0  0.15482529551E+02  0.44547956332E+01  0.37331100881E+02  0.40659132042E+02  0.00000000000E+00 0. -1.
         11    1    3    3    0    0 -0.23692217481E+01  0.49563950118E+01 -0.68363169690E+00  0.55359204982E+01  0.51100000000E-03 0. -1.
        -11    1    3    3    0    0 -0.99509939786E+01  0.37604376333E+01 -0.80196785618E+01  0.13322102569E+02  0.51100000000E-03 0.  1.
        -12    1    3    3    0    0 -0.31623138248E+01 -0.13171628278E+02 -0.28627790622E+02  0.31670844891E+02  0.00000000000E+00 0.  1.
</event>
<event>
 7    1  0.8986500E-014  0.5052886E+02  0.7816164E-02  0.1300439E+00
        -11   -1    0    0    0    0  0.00000000000E+00  0.00000000000E+00  0.45593999997E+02  0.45594000000E+02  0.51100000000E-03 0. -1.
         11   -1    0    0    0    0 -0.00000000000E+00 -0.00000000000E+00 -0.45593999997E+02  0.45594000000E+02  0.51100000000E-03 0.  1.
    9900012    2    1    2    0    0 -0.38039464432E+02  0.40173819239E+01  0.13784965451E+02  0.50528862229E+02  0.30000007230E+02 0.  0.
        -12    1    1    2    0    0  0.38039464432E+02 -0.40173819239E+01 -0.13784965451E+02  0.40659137771E+02  0.00000000000E+00 0.  1.
         11    1    3    3    0    0 -0.19335952055E+02  0.90496592239E+01  0.44376008643E+00  0.21353507843E+02  0.51100000000E-03 0. -1.
        -11    1    3    3    0    0 -0.50315127195E+01  0.10285623374E+01 -0.38286044084E+01  0.64056438166E+01  0.51100000000E-03 0.  1.
        -12    1    3    3    0    0 -0.13671999658E+02 -0.60608396375E+01  0.17169809773E+02  0.22769710569E+02  0.00000000000E+00 0.  1.
</event>
<event>
 7    1  0.8986500E-014  0.5052886E+02  0.7816164E-02  0.1300439E+00
        -11   -1    0    0    0    0  0.00000000000E+00  0.00000000000E+00  0.45593999997E+02  0.45594000000E+02  0.51100000000E-03 0. -1.
         11   -1    0    0    0    0 -0.00000000000E+00 -0.00000000000E+00 -0.45593999997E+02  0.45594000000E+02  0.51100000000E-03 0.  1.
    9900012    2    1    2    0    0 -0.31109683445E+01 -0.13801492161E+02  0.38118316159E+02  0.50528864043E+02  0.30000012746E+02 0.  0.
        -12    1    1    2    0    0  0.31109683445E+01  0.13801492161E+02 -0.38118316159E+02  0.40659135957E+02  0.00000000000E+00 0.  1.
         11    1    3    3    0    0  0.55983110829E+00 -0.17704684792E+02  0.14742695816E+02  0.23045961786E+02  0.51100000000E-03 0. -1.
        -11    1    3    3    0    0  0.91341118642E+00 -0.17552268256E+01 -0.87422354202E+00  0.21631939967E+01  0.51100000000E-03 0.  1.
        -12    1    3    3    0    0 -0.45842106392E+01  0.56584194566E+01  0.24249843885E+02  0.25319708260E+02  0.00000000000E+00 0.  1.
</event>
<event>
 7    1  0.8986500E-014  0.5052887E+02  0.7816164E-02  0.1300439E+00
        -11   -1    0    0    0    0  0.00000000000E+00  0.00000000000E+00  0.45593999997E+02  0.45594000000E+02  0.51100000000E-03 0. -1.
         11   -1    0    0    0    0 -0.00000000000E+00 -0.00000000000E+00 -0.45593999997E+02  0.45594000000E+02  0.51100000000E-03 0.  1.
    9900012    2    1    2    0    0  0.18740036048E+02  0.35955933952E+02 -0.30243310998E+01  0.50528871677E+02  0.30000035948E+02 0.  0.
        -12    1    1    2    0    0 -0.18740036048E+02 -0.35955933952E+02  0.30243310998E+01  0.40659128323E+02  0.00000000000E+00 0.  1.
         11    1    3    3    0    0  0.33493947968E+01  0.12870908623E+02 -0.51035122976E+01  0.14245159610E+02  0.51100000000E-03 0. -1.
        -11    1    3    3    0    0  0.13527095992E+02  0.13384864366E+02 -0.93290011717E+01  0.21193564665E+02  0.51100000000E-03 0.  1.
         12    1    3    3    0    0  0.18635452593E+01  0.97001609622E+01  0.11408182369E+02  0.15090147402E+02  0.00000000000E+00 0. -1.
</event>
<event>
 7    1  0.8986500E-014  0.5052885E+02  0.7816164E-02  0.1300439E+00
        -11   -1    0    0    0    0  0.00000000000E+00  0.00000000000E+00  0.45593999997E+02  0.45594000000E+02  0.51100000000E-03 0. -1.
         11   -1    0    0    0    0 -0.00000000000E+00 -0.00000000000E+00 -0.45593999997E+02  0.45594000000E+02  0.51100000000E-03 0.  1.
    9900012    2    1    2    0    0  0.31929488640E+02 -0.17488481025E+02  0.18105991855E+02  0.50528853988E+02  0.29999982182E+02 0.  0.
        -12    1    1    2    0    0 -0.31929488640E+02  0.17488481025E+02 -0.18105991855E+02  0.40659146012E+02  0.00000000000E+00 0.  1.
         11    1    3    3    0    0  0.11720669363E+02  0.13333333547E+01 -0.16444950395E+00  0.11797411244E+02  0.51100000000E-03 0. -1.
        -11    1    3    3    0    0  0.16571090971E+02 -0.17202313247E+01  0.85221739564E+01  0.18713302782E+02  0.51100000000E-03 0.  1.
        -12    1    3    3    0    0  0.36377283058E+01 -0.17101583055E+02  0.97482674021E+01  0.20018139962E+02  0.00000000000E+00 0.  1.
</event>
<event>
 7    1  0.8986500E-014  0.5052886E+02  0.7816164E-02  0.1300439E+00
        -11   -1    0    0    0    0  0.00000000000E+00  0.00000000000E+00  0.45593999997E+02  0.45594000000E+02  0.51100000000E-03 0. -1.
         11   -1    0    0    0    0 -0.00000000000E+00 -0.00000000000E+00 -0.45593999997E+02  0.45594000000E+02  0.51100000000E-03 0.  1.
    9900012    2    1    2    0    0 -0.25558397885E+02  0.20210321593E+02  0.24320301398E+02  0.50528857591E+02  0.29999993133E+02 0.  0.
        -12    1    1    2    0    0  0.25558397885E+02 -0.20210321593E+02 -0.24320301398E+02  0.40659142409E+02  0.00000000000E+00 0.  1.
         11    1    3    3    0    0 -0.85021717393E+01 -0.10718402504E+01  0.69623269717E+01  0.11041275421E+02  0.51100000000E-03 0. -1.
        -11    1    3    3    0    0 -0.20050454991E+02  0.24104157065E+02  0.15323230010E+02  0.34897457090E+02  0.51100000000E-03 0.  1.
         12    1    3    3    0    0  0.29942288452E+01 -0.28219952213E+01  0.20347444167E+01  0.45901250797E+01  0.00000000000E+00 0. -1.
</event>
<event>
 7    1  0.8986500E-014  0.5052894E+02  0.7816164E-02  0.1300439E+00
        -11   -1    0    0    0    0  0.00000000000E+00  0.00000000000E+00  0.45593999997E+02  0.45594000000E+02  0.51100000000E-03 0. -1.
         11   -1    0    0    0    0 -0.00000000000E+00 -0.00000000000E+00 -0.45593999997E+02  0.45594000000E+02  0.51100000000E-03 0.  1.
    9900012    2    1    2    0    0  0.14710439497E+02 -0.75743963945E+01 -0.37140148228E+02  0.50528940477E+02  0.30000245072E+02 0.  0.
         12    1    1    2    0    0 -0.14710439497E+02  0.75743963945E+01  0.37140148228E+02  0.40659059523E+02  0.00000000000E+00 0. -1.
         11    1    3    3    0    0  0.23944408541E+01  0.25729050418E+01 -0.14142346856E+01  0.37885679834E+01  0.51100000000E-03 0. -1.
        -11    1    3    3    0    0  0.99273238840E+01  0.35487432791E+01 -0.29831624465E+02  0.31639708545E+02  0.51100000000E-03 0.  1.
         12    1    3    3    0    0  0.23886747590E+01 -0.13696044715E+02 -0.58942890775E+01  0.15100663948E+02  0.00000000000E+00 0. -1.
</event>
<event>
 7    1  0.8986500E-014  0.5052884E+02  0.7816164E-02  0.1300439E+00
        -11   -1    0    0    0    0  0.00000000000E+00  0.00000000000E+00  0.45593999997E+02  0.45594000000E+02  0.51100000000E-03 0. -1.
         11   -1    0    0    0    0 -0.00000000000E+00 -0.00000000000E+00 -0.45593999997E+02  0.45594000000E+02  0.51100000000E-03 0.  1.
    9900012    2    1    2    0    0 -0.29762880810E+01  0.30993509444E+02  0.26147877783E+02  0.50528838290E+02  0.29999934467E+02 0.  0.
        -12    1    1    2    0    0  0.29762880810E+01 -0.30993509444E+02 -0.26147877783E+02  0.40659161710E+02  0.00000000000E+00 0.  1.
         11    1    3    3    0    0 -0.75811223997E+00  0.13431831341E+02  0.18442240218E+02  0.22827725508E+02  0.51100000000E-03 0. -1.
        -11    1    3    3    0    0 -0.10115615173E+00  0.20336866526E+02  0.10808476560E+02  0.23030882277E+02  0.51100000000E-03 0.  1.
        -12    1    3    3    0    0 -0.21170196893E+01 -0.27751884229E+01 -0.31028389949E+01  0.46702305056E+01  0.00000000000E+00 0.  1.
</event>
<event>
 7    1  0.8986500E-014  0.5052886E+02  0.7816164E-02  0.1300439E+00
        -11   -1    0    0    0    0  0.00000000000E+00  0.00000000000E+00  0.45593999997E+02  0.45594000000E+02  0.51100000000E-03 0. -1.
         11   -1    0    0    0    0 -0.00000000000E+00 -0.00000000000E+00 -0.45593999997E+02  0.45594000000E+02  0.51100000000E-03 0.  1.
    9900012    2    1    2    0    0  0.12859399275E+02 -0.48730969346E+01  0.38262962650E+02  0.50528861615E+02  0.30000005366E+02 0.  0.
        -12    1    1    2    0    0 -0.12859399275E+02  0.48730969346E+01 -0.38262962650E+02  0.40659138385E+02  0.00000000000E+00 0.  1.
         11    1    3    3    0    0  0.13511834092E+02 -0.12953839604E+02  0.30567612120E+02  0.35843416857E+02  0.51100000000E-03 0. -1.
        -11    1    3    3    0    0 -0.64650450641E-01 -0.19979282204E+01  0.12877614299E-01  0.19990154948E+01  0.51100000000E-03 0.  1.
         12    1    3    3    0    0 -0.58778436585E+00  0.10078670890E+02  0.76824729152E+01  0.12686429264E+02  0.00000000000E+00 0. -1.
</event>
<event>
 7    1  0.8986500E-014  0.5052886E+02  0.7816164E-02  0.1300439E+00
        -11   -1    0    0    0    0  0.00000000000E+00  0.00000000000E+00  0.45593999997E+02  0.45594000000E+02  0.51100000000E-03 0. -1.
         11   -1    0    0    0    0 -0.00000000000E+00 -0.00000000000E+00 -0.45593999997E+02  0.45594000000E+02  0.51100000000E-03 0.  1.
    9900012    2    1    2    0    0 -0.19101723218E+01 -0.32707414637E+02  0.24077834106E+02  0.50528858029E+02  0.29999994466E+02 0.  0.
        -12    1    1    2    0    0  0.19101723218E+01  0.32707414637E+02 -0.24077834106E+02  0.40659141971E+02  0.00000000000E+00 0.  1.
         11    1    3    3    0    0 -0.18669939482E+01 -0.88072036078E+00  0.16893910129E+01  0.26674664032E+01  0.51100000000E-03 0. -1.
        -11    1    3    3    0    0 -0.76713758987E+00 -0.35650805614E+02  0.24659662658E+02  0.43355131227E+02  0.51100000000E-03 0.  1.
        -12    1    3    3    0    0  0.72395921629E+00  0.38241113379E+01 -0.22712195650E+01  0.45062603990E+01  0.00000000000E+00 0.  1.
</event>
<event>
 7    1  0.8986500E-014  0.5052885E+02  0.7816164E-02  0.1300439E+00
        -11   -1    0    0    0    0  0.00000000000E+00  0.00000000000E+00  0.45593999997E+02  0.45594000000E+02  0.51100000000E-03 0. -1.
         11   -1    0    0    0    0 -0.00000000000E+00 -0.00000000000E+00 -0.45593999997E+02  0.45594000000E+02  0.51100000000E-03 0.  1.
    9900012    2    1    2    0    0  0.20629363829E+02 -0.27203278268E+02  0.22081163389E+02  0.50528846331E+02  0.29999958907E+02 0.  0.
        -12    1    1    2    0    0 -0.20629363829E+02  0.27203278268E+02 -0.22081163389E+02  0.40659153669E+02  0.00000000000E+00 0.  1.
         11    1    3    3    0    0 -0.90795946081E+00  0.25375755432E+00  0.25925979328E+01  0.27586858432E+01  0.51100000000E-03 0. -1.
        -11    1    3    3    0    0 -0.64438714012E+00  0.44912634562E+01  0.75392393429E+00  0.45994655971E+01  0.51100000000E-03 0.  1.
         12    1    3    3    0    0  0.22181710430E+02 -0.31948299278E+02  0.18734641522E+02  0.43170694890E+02  0.00000000000E+00 0. -1.
</event>
<event>
 7    1  0.8986500E-014  0.5052887E+02  0.7816164E-02  0.1300439E+00
        -11   -1    0    0    0    0  0.00000000000E+00  0.00000000000E+00  0.45593999997E+02  0.45594000000E+02  0.51100000000E-03 0. -1.
         11   -1    0    0    0    0 -0.00000000000E+00 -0.00000000000E+00 -0.45593999997E+02  0.45594000000E+02  0.51100000000E-03 0.  1.
    9900012    2    1    2    0    0  0.70046122240E+01  0.37248622566E+02  0.14718711108E+02  0.50528869019E+02  0.30000027870E+02 0.  0.
        -12    1    1    2    0    0 -0.70046122240E+01 -0.37248622566E+02 -0.14718711108E+02  0.40659130981E+02  0.00000000000E+00 0.  1.
         11    1    3    3    0    0 -0.34772032298E+01  0.92154602449E+01  0.44661132697E+01  0.10814888711E+02  0.51100000000E-03 0. -1.
        -11    1    3    3    0    0 -0.40369357504E+01 -0.23632730859E+01  0.10614553325E+01  0.47967278029E+01  0.51100000000E-03 0.  1.
        -12    1    3    3    0    0  0.14518751204E+02  0.30396435407E+02  0.91911425059E+01  0.34917252505E+02  0.00000000000E+00 0.  1.
</event>
<event>
 7    1  0.8986500E-014  0.5052885E+02  0.7816164E-02  0.1300439E+00
        -11   -1    0    0    0    0  0.00000000000E+00  0.00000000000E+00  0.45593999997E+02  0.45594000000E+02  0.51100000000E-03 0.  1.
         11   -1    0    0    0    0 -0.00000000000E+00 -0.00000000000E+00 -0.45593999997E+02  0.45594000000E+02  0.51100000000E-03 0. -1.
    9900012    2    1    2    0    0 -0.37171519386E+02  0.18709713163E+01 -0.16369009240E+02  0.50528845427E+02  0.29999956160E+02 0.  0.
         12    1    1    2    0    0  0.37171519386E+02 -0.18709713163E+01  0.16369009240E+02  0.40659154573E+02  0.00000000000E+00 0. -1.
         11    1    3    3    0    0 -0.69197201911E+01  0.59881345167E+01 -0.29423659681E+01  0.96123774512E+01  0.51100000000E-03 0. -1.
        -11    1    3    3    0    0 -0.30220538106E+02  0.32805844592E+01 -0.14058816142E+02  0.33491692543E+02  0.51100000000E-03 0.  1.
         12    1    3    3    0    0 -0.31261088441E-01 -0.73977476595E+01  0.63217287000E+00  0.74247754328E+01  0.00000000000E+00 0. -1.
</event>
<event>
 7    1  0.8986500E-014  0.5052893E+02  0.7816164E-02  0.1300439E+00
        -11   -1    0    0    0    0  0.00000000000E+00  0.00000000000E+00  0.45593999997E+02  0.45594000000E+02  0.51100000000E-03 0. -1.
         11   -1    0    0    0    0 -0.00000000000E+00 -0.00000000000E+00 -0.45593999997E+02  0.45594000000E+02  0.51100000000E-03 0.  1.
    9900012    2    1    2    0    0 -0.21759212788E+02  0.68933521333E+00  0.34339792607E+02  0.50528931141E+02  0.30000216696E+02 0.  0.
        -12    1    1    2    0    0  0.21759212788E+02 -0.68933521333E+00 -0.34339792607E+02  0.40659068859E+02  0.00000000000E+00 0.  1.
         11    1    3    3    0    0 -0.53251709411E+01 -0.28765223423E+00 -0.43542505164E+01  0.68847430729E+01  0.51100000000E-03 0. -1.
        -11    1    3    3    0    0  0.17390758232E+01  0.23936298856E+00  0.18209635973E+01  0.25293453784E+01  0.51100000000E-03 0.  1.
         12    1    3    3    0    0 -0.18173117670E+02  0.73762445901E+00  0.36873079526E+02  0.41114842690E+02  0.00000000000E+00 0. -1.
</event>
<event>
 7    1  0.8986500E-014  0.5052883E+02  0.7816164E-02  0.1300439E+00
        -11   -1    0    0    0    0  0.00000000000E+00  0.00000000000E+00  0.45593999997E+02  0.45594000000E+02  0.51100000000E-03 0. -1.
         11   -1    0    0    0    0 -0.00000000000E+00 -0.00000000000E+00 -0.45593999997E+02  0.45594000000E+02  0.51100000000E-03 0.  1.
    9900012    2    1    2    0    0 -0.16443679561E+02  0.98304717152E+01 -0.35862727234E+02  0.50528831584E+02  0.29999914082E+02 0.  0.
         12    1    1    2    0    0  0.16443679561E+02 -0.98304717152E+01  0.35862727234E+02  0.40659168416E+02  0.00000000000E+00 0. -1.
         11    1    3    3    0    0 -0.98811725261E+01  0.27554777214E+01  0.19486889313E+01  0.10441629029E+02  0.51100000000E-03 0. -1.
        -11    1    3    3    0    0 -0.30793346517E+01  0.87636779376E+01 -0.23725540809E+02  0.25479121646E+02  0.51100000000E-03 0.  1.
        -12    1    3    3    0    0 -0.34831723828E+01 -0.16886839437E+01 -0.14085875356E+02  0.14608080909E+02  0.00000000000E+00 0.  1.
</event>
<event>
 7    1  0.8986500E-014  0.5052886E+02  0.7816164E-02  0.1300439E+00
        -11   -1    0    0    0    0  0.00000000000E+00  0.00000000000E+00  0.45593999997E+02  0.45594000000E+02  0.51100000000E-03 0. -1.
         11   -1    0    0    0    0 -0.00000000000E+00 -0.00000000000E+00 -0.45593999997E+02  0.45594000000E+02  0.51100000000E-03 0.  1.
    9900012    2    1    2    0    0  0.32446892415E+01  0.12575857152E+02  0.38529020191E+02  0.50528860950E+02  0.30000003344E+02 0.  0.
        -12    1    1    2    0    0 -0.32446892415E+01 -0.12575857152E+02 -0.38529020191E+02  0.40659139050E+02  0.00000000000E+00 0.  1.
         11    1    3    3    0    0 -0.26480823846E+01 -0.97668454264E+00  0.11952071034E+02  0.12280808413E+02  0.51100000000E-03 0. -1.
        -11    1    3    3    0    0 -0.77824839811E+01  0.26823437328E+01  0.15536436063E+02  0.17582459174E+02  0.51100000000E-03 0.  1.
         12    1    3    3    0    0  0.13675255607E+02  0.10870197962E+02  0.11040513094E+02  0.20665593363E+02  0.00000000000E+00 0. -1.
</event>
<event>
 7    1  0.8986500E-014  0.5052898E+02  0.7816164E-02  0.1300438E+00
        -11   -1    0    0    0    0  0.00000000000E+00  0.00000000000E+00  0.45593999997E+02  0.45594000000E+02  0.51100000000E-03 0. -1.
         11   -1    0    0    0    0 -0.00000000000E+00 -0.00000000000E+00 -0.45593999997E+02  0.45594000000E+02  0.51100000000E-03 0.  1.
    9900012    2    1    2    0    0 -0.81252788663E+01 -0.19314921620E+02 -0.34843505836E+02  0.50528975752E+02  0.30000352294E+02 0.  0.
         12    1    1    2    0    0  0.81252788663E+01  0.19314921620E+02  0.34843505836E+02  0.40659024248E+02  0.00000000000E+00 0. -1.
         11    1    3    3    0    0 -0.11040094472E+01 -0.13304997096E+02 -0.15327574045E+02  0.20326738818E+02  0.51100000000E-03 0. -1.
        -11    1    3    3    0    0  0.21162765965E+01 -0.70253460895E+01 -0.19683905600E+02  0.21006909679E+02  0.51100000000E-03 0.  1.
         12    1    3    3    0    0 -0.91375460157E+01  0.10154215650E+01  0.16797380984E+00  0.91953272559E+01  0.00000000000E+00 0. -1.
</event>
<event>
 7    1  0.8986500E-014  0.5052886E+02  0.7816164E-02  0.1300439E+00
        -11   -1    0    0    0    0  0.00000000000E+00  0.00000000000E+00  0.45593999997E+02  0.45594000000E+02  0.51100000000E-03 0. -1.
         11   -1    0    0    0    0 -0.00000000000E+00 -0.00000000000E+00 -0.45593999997E+02  0.45594000000E+02  0.51100000000E-03 0.  1.
    9900012    2    1    2    0    0 -0.22061855740E+02  0.28792543008E+01  0.34031607913E+02  0.50528856856E+02  0.29999990901E+02 0.  0.
        -12    1    1    2    0    0  0.22061855740E+02 -0.28792543008E+01 -0.34031607913E+02  0.40659143144E+02  0.00000000000E+00 0.  1.
         11    1    3    3    0    0 -0.16713422863E+02  0.50051365648E+01  0.31372302808E+02  0.35897232199E+02  0.51100000000E-03 0.  1.
        -11    1    3    3    0    0 -0.27710459743E+01 -0.35738368295E+01  0.76176501913E+01  0.88588712697E+01  0.51100000000E-03 0. -1.
        -12    1    3    3    0    0 -0.25773869030E+01  0.14479545655E+01 -0.49583450866E+01  0.57727533872E+01  0.00000000000E+00 0.  1.
</event>
<event>
 7    1  0.8986500E-014  0.5052886E+02  0.7816164E-02  0.1300439E+00
        -11   -1    0    0    0    0  0.00000000000E+00  0.00000000000E+00  0.45593999997E+02  0.45594000000E+02  0.51100000000E-03 0. -1.
         11   -1    0    0    0    0 -0.00000000000E+00 -0.00000000000E+00 -0.45593999997E+02  0.45594000000E+02  0.51100000000E-03 0.  1.
    9900012    2    1    2    0    0 -0.63544456659E+01 -0.19853473025E+02  0.34908824113E+02  0.50528863612E+02  0.30000011434E+02 0.  0.
        -12    1    1    2    0    0  0.63544456659E+01  0.19853473025E+02 -0.34908824113E+02  0.40659136388E+02  0.00000000000E+00 0.  1.
         11    1    3    3    0    0 -0.35778337723E+01  0.45155649605E+00  0.89345995020E+00  0.37152481364E+01  0.51100000000E-03 0.  1.
        -11    1    3    3    0    0 -0.45168820746E+01  0.48072648567E+01  0.10287940543E+02  0.12221036779E+02  0.51100000000E-03 0. -1.
        -12    1    3    3    0    0  0.17402701810E+01 -0.25112294377E+02  0.23727423620E+02  0.34592578696E+02  0.00000000000E+00 0.  1.
</event>
<event>
 7    1  0.8986500E-014  0.5052883E+02  0.7816164E-02  0.1300439E+00
        -11   -1    0    0    0    0  0.00000000000E+00  0.00000000000E+00  0.45593999997E+02  0.45594000000E+02  0.51100000000E-03 0. -1.
         11   -1    0    0    0    0 -0.00000000000E+00 -0.00000000000E+00 -0.45593999997E+02  0.45594000000E+02  0.51100000000E-03 0.  1.
    9900012    2    1    2    0    0 -0.69055350755E+01 -0.11170295534E+01  0.40052885174E+02  0.50528833992E+02  0.29999921401E+02 0.  0.
        -12    1    1    2    0    0  0.69055350755E+01  0.11170295534E+01 -0.40052885174E+02  0.40659166008E+02  0.00000000000E+00 0.  1.
         11    1    3    3    0    0 -0.43848010479E+01  0.87089279481E+01  0.35662904801E+02  0.36971809332E+02  0.51100000000E-03 0. -1.
        -11    1    3    3    0    0  0.11479646241E+01 -0.74536218697E+01  0.51368023825E+01  0.91247488038E+01  0.51100000000E-03 0.  1.
        -12    1    3    3    0    0 -0.36686986517E+01 -0.23723356318E+01 -0.74682200879E+00  0.44322758556E+01  0.00000000000E+00 0.  1.
</event>
<event>
 7    1  0.8986500E-014  0.5052886E+02  0.7816164E-02  0.1300439E+00
        -11   -1    0    0    0    0  0.00000000000E+00  0.00000000000E+00  0.45593999997E+02  0.45594000000E+02  0.51100000000E-03 0. -1.
         11   -1    0    0    0    0 -0.00000000000E+00 -0.00000000000E+00 -0.45593999997E+02  0.45594000000E+02  0.51100000000E-03 0.  1.
    9900012    2    1    2    0    0  0.12326176470E+02 -0.25838012072E+02 -0.28872617942E+02  0.50528861285E+02  0.30000004363E+02 0.  0.
         12    1    1    2    0    0 -0.12326176470E+02  0.25838012072E+02  0.28872617942E+02  0.40659138715E+02  0.00000000000E+00 0. -1.
         11    1    3    3    0    0  0.69581986356E+01 -0.20821024922E+02 -0.10600564176E+02  0.24378342195E+02  0.51100000000E-03 0. -1.
        -11    1    3    3    0    0 -0.58695360183E+00 -0.10328515076E+02 -0.76563917398E+01  0.12870239817E+02  0.51100000000E-03 0.  1.
         12    1    3    3    0    0  0.59549314359E+01  0.53115279265E+01 -0.10615662027E+02  0.13280279274E+02  0.00000000000E+00 0. -1.
</event>
<event>
 7    1  0.8986500E-014  0.5052886E+02  0.7816164E-02  0.1300439E+00
        -11   -1    0    0    0    0  0.00000000000E+00  0.00000000000E+00  0.45593999997E+02  0.45594000000E+02  0.51100000000E-03 0. -1.
         11   -1    0    0    0    0 -0.00000000000E+00 -0.00000000000E+00 -0.45593999997E+02  0.45594000000E+02  0.51100000000E-03 0.  1.
    9900012    2    1    2    0    0 -0.22908745486E+02  0.97061071931E+01  0.32158145999E+02  0.50528862150E+02  0.30000006992E+02 0.  0.
        -12    1    1    2    0    0  0.22908745486E+02 -0.97061071931E+01 -0.32158145999E+02  0.40659137850E+02  0.00000000000E+00 0.  1.
         11    1    3    3    0    0 -0.25215849332E+02  0.24205614441E+01  0.33623317091E+02  0.42097810248E+02  0.51100000000E-03 0. -1.
        -11    1    3    3    0    0 -0.19664076502E+00  0.14804862228E+01  0.82601390176E+00  0.17066945460E+01  0.51100000000E-03 0.  1.
        -12    1    3    3    0    0  0.25037446114E+01  0.58050595262E+01 -0.22911849931E+01  0.67243573562E+01  0.00000000000E+00 0.  1.
</event>
<event>
 7    1  0.8986500E-014  0.5052886E+02  0.7816164E-02  0.1300439E+00
        -11   -1    0    0    0    0  0.00000000000E+00  0.00000000000E+00  0.45593999997E+02  0.45594000000E+02  0.51100000000E-03 0. -1.
         11   -1    0    0    0    0 -0.00000000000E+00 -0.00000000000E+00 -0.45593999997E+02  0.45594000000E+02  0.51100000000E-03 0.  1.
    9900012    2    1    2    0    0 -0.15936157994E+02 -0.31093866489E+02 -0.20793652237E+02  0.50528860336E+02  0.30000001478E+02 0.  0.
         12    1    1    2    0    0  0.15936157994E+02  0.31093866489E+02  0.20793652237E+02  0.40659139664E+02  0.00000000000E+00 0. -1.
         11    1    3    3    0    0  0.23932783643E+01 -0.28072378890E+01  0.24994250260E+01  0.44559501362E+01  0.51100000000E-03 0. -1.
        -11    1    3    3    0    0 -0.25475500867E+01 -0.13212068351E+01  0.37696998315E+01  0.47377458802E+01  0.51100000000E-03 0.  1.
        -12    1    3    3    0    0 -0.15781886271E+02 -0.26965421765E+02 -0.27062777095E+02  0.41335164320E+02  0.00000000000E+00 0.  1.
</event>
<event>
 7    1  0.8986500E-014  0.5052886E+02  0.7816164E-02  0.1300439E+00
        -11   -1    0    0    0    0  0.00000000000E+00  0.00000000000E+00  0.45593999997E+02  0.45594000000E+02  0.51100000000E-03 0. -1.
         11   -1    0    0    0    0 -0.00000000000E+00 -0.00000000000E+00 -0.45593999997E+02  0.45594000000E+02  0.51100000000E-03 0.  1.
    9900012    2    1    2    0    0 -0.26101997206E+02  0.20146656963E+02  0.23789990307E+02  0.50528859776E+02  0.29999999775E+02 0.  0.
        -12    1    1    2    0    0  0.26101997206E+02 -0.20146656963E+02 -0.23789990307E+02  0.40659140224E+02  0.00000000000E+00 0.  1.
         11    1    3    3    0    0 -0.72130120641E+01  0.11041588551E+02  0.70044840952E+01  0.14933419517E+02  0.51100000000E-03 0.  1.
        -11    1    3    3    0    0 -0.18530091509E+02  0.15043180492E+02  0.17511152504E+02  0.29602399107E+02  0.51100000000E-03 0. -1.
        -12    1    3    3    0    0 -0.35889363333E+00 -0.59381120796E+01 -0.72564629186E+00  0.59930411521E+01  0.00000000000E+00 0.  1.
</event>
<event>
 7    1  0.8986500E-014  0.5052881E+02  0.7816164E-02  0.1300439E+00
        -11   -1    0    0    0    0  0.00000000000E+00  0.00000000000E+00  0.45593999997E+02  0.45594000000E+02  0.51100000000E-03 0. -1.
         11   -1    0    0    0    0 -0.00000000000E+00 -0.00000000000E+00 -0.45593999997E+02  0.45594000000E+02  0.51100000000E-03 0.  1.
    9900012    2    1    2    0    0  0.14361402831E+02  0.22043116824E+02  0.31000331947E+02  0.50528813198E+02  0.29999858196E+02 0.  0.
        -12    1    1    2    0    0 -0.14361402831E+02 -0.22043116824E+02 -0.31000331947E+02  0.40659186802E+02  0.00000000000E+00 0.  1.
         11    1    3    3    0    0  0.17033828712E+02  0.11288937823E+02  0.15342298788E+02  0.25553425800E+02  0.51100000000E-03 0. -1.
        -11    1    3    3    0    0  0.49954151801E+01 -0.11470326930E+01  0.27488623366E+01  0.58160210820E+01  0.51100000000E-03 0.  1.
        -12    1    3    3    0    0 -0.76678410603E+01  0.11901211694E+02  0.12909170823E+02  0.19159366316E+02  0.00000000000E+00 0.  1.
</event>
<event>
 7    1  0.8986500E-014  0.5052886E+02  0.7816164E-02  0.1300439E+00
        -11   -1    0    0    0    0  0.00000000000E+00  0.00000000000E+00  0.45593999997E+02  0.45594000000E+02  0.51100000000E-03 0. -1.
         11   -1    0    0    0    0 -0.00000000000E+00 -0.00000000000E+00 -0.45593999997E+02  0.45594000000E+02  0.51100000000E-03 0.  1.
    9900012    2    1    2    0    0  0.28081114950E+01  0.93747197785E+01  0.39463837259E+02  0.50528864344E+02  0.30000013661E+02 0.  0.
        -12    1    1    2    0    0 -0.28081114950E+01 -0.93747197785E+01 -0.39463837259E+02  0.40659135656E+02  0.00000000000E+00 0.  1.
         11    1    3    3    0    0  0.65387683772E+01  0.78188089751E+01  0.86354679937E+01  0.13358913631E+02  0.51100000000E-03 0. -1.
        -11    1    3    3    0    0  0.81366587938E+01  0.17209104835E+01  0.17151290712E+02  0.19061309571E+02  0.51100000000E-03 0.  1.
         12    1    3    3    0    0 -0.11867315676E+02 -0.16499968017E+00  0.13677078553E+02  0.18108641141E+02  0.00000000000E+00 0. -1.
</event>
<event>
 7    1  0.8986500E-014  0.5052885E+02  0.7816164E-02  0.1300439E+00
        -11   -1    0    0    0    0  0.00000000000E+00  0.00000000000E+00  0.45593999997E+02  0.45594000000E+02  0.51100000000E-03 0. -1.
         11   -1    0    0    0    0 -0.00000000000E+00 -0.00000000000E+00 -0.45593999997E+02  0.45594000000E+02  0.51100000000E-03 0.  1.
    9900012    2    1    2    0    0 -0.12796103800E+02  0.49314914099E+01  0.38276711233E+02  0.50528849704E+02  0.29999969160E+02 0.  0.
        -12    1    1    2    0    0  0.12796103800E+02 -0.49314914099E+01 -0.38276711233E+02  0.40659150296E+02  0.00000000000E+00 0.  1.
         11    1    3    3    0    0 -0.10570330435E+01 -0.89000368952E+00 -0.14302226340E+00  0.13892015878E+01  0.51100000000E-03 0. -1.
        -11    1    3    3    0    0 -0.31000400036E+01 -0.10927746004E+02  0.18569126962E+02  0.21767828490E+02  0.51100000000E-03 0.  1.
         12    1    3    3    0    0 -0.86390307526E+01  0.16749241104E+02  0.19850606534E+02  0.27371819626E+02  0.00000000000E+00 0. -1.
</event>
<event>
 7    1  0.8986500E-014  0.5052885E+02  0.7816164E-02  0.1300439E+00
        -11   -1    0    0    0    0  0.00000000000E+00  0.00000000000E+00  0.45593999997E+02  0.45594000000E+02  0.51100000000E-03 0. -1.
         11   -1    0    0    0    0 -0.00000000000E+00 -0.00000000000E+00 -0.45593999997E+02  0.45594000000E+02  0.51100000000E-03 0.  1.
    9900012    2    1    2    0    0 -0.17073438459E+02 -0.28109609135E+02 -0.23906353758E+02  0.50528853716E+02  0.29999981356E+02 0.  0.
         12    1    1    2    0    0  0.17073438459E+02  0.28109609135E+02  0.23906353758E+02  0.40659146284E+02  0.00000000000E+00 0. -1.
         11    1    3    3    0    0 -0.50837809152E+01 -0.69915053388E+01 -0.17715440186E+02  0.19711996259E+02  0.51100000000E-03 0. -1.
        -11    1    3    3    0    0 -0.94440297317E+01 -0.54008297836E+01 -0.96282398180E+01  0.14527961391E+02  0.51100000000E-03 0.  1.
         12    1    3    3    0    0 -0.25456278121E+01 -0.15717274012E+02  0.34373262452E+01  0.16288896066E+02  0.00000000000E+00 0. -1.
</event>
<event>
 7    1  0.8986500E-014  0.5052886E+02  0.7816164E-02  0.1300439E+00
        -11   -1    0    0    0    0  0.00000000000E+00  0.00000000000E+00  0.45593999997E+02  0.45594000000E+02  0.51100000000E-03 0.  1.
         11   -1    0    0    0    0 -0.00000000000E+00 -0.00000000000E+00 -0.45593999997E+02  0.45594000000E+02  0.51100000000E-03 0. -1.
    9900012    2    1    2    0    0  0.73125960381E+01  0.38158124491E+02  0.11985382021E+02  0.50528857023E+02  0.29999991406E+02 0.  0.
        -12    1    1    2    0    0 -0.73125960381E+01 -0.38158124491E+02 -0.11985382021E+02  0.40659142977E+02  0.00000000000E+00 0.  1.
         11    1    3    3    0    0 -0.82473878560E+01  0.10486481753E+02  0.29845137590E+01  0.13670882512E+02  0.51100000000E-03 0. -1.
        -11    1    3    3    0    0 -0.63971152914E+00 -0.77844698557E+00 -0.20664389231E+01  0.22989955707E+01  0.51100000000E-03 0.  1.
         12    1    3    3    0    0  0.16199695423E+02  0.28450089723E+02  0.11067307185E+02  0.34558978940E+02  0.00000000000E+00 0. -1.
</event>
<event>
 7    1  0.8986500E-014  0.5052884E+02  0.7816164E-02  0.1300439E+00
        -11   -1    0    0    0    0  0.00000000000E+00  0.00000000000E+00  0.45593999997E+02  0.45594000000E+02  0.51100000000E-03 0. -1.
         11   -1    0    0    0    0 -0.00000000000E+00 -0.00000000000E+00 -0.45593999997E+02  0.45594000000E+02  0.51100000000E-03 0.  1.
    9900012    2    1    2    0    0 -0.64430296135E+01  0.20467388160E+02  0.34536076153E+02  0.50528841564E+02  0.29999944417E+02 0.  0.
        -12    1    1    2    0    0  0.64430296135E+01 -0.20467388160E+02 -0.34536076153E+02  0.40659158436E+02  0.00000000000E+00 0.  1.
         11    1    3    3    0    0  0.53513442287E+01  0.16471621377E+02  0.33868274542E+02  0.38039600636E+02  0.51100000000E-03 0. -1.
        -11    1    3    3    0    0 -0.10018042920E+01  0.49016401524E+00  0.19152401843E+00  0.11316157970E+01  0.51100000000E-03 0.  1.
         12    1    3    3    0    0 -0.10792569550E+02  0.35056027676E+01  0.47627759290E+00  0.11357625131E+02  0.00000000000E+00 0. -1.
</event>
<event>
 7    1  0.1031938E-013  0.5052886E+02  0.7816164E-02  0.1300439E+00
        -11   -1    0    0    0    0  0.00000000000E+00  0.00000000000E+00  0.45593999997E+02  0.45594000000E+02  0.51100000000E-03 0. -1.
         11   -1    0    0    0    0 -0.00000000000E+00 -0.00000000000E+00 -0.45593999997E+02  0.45594000000E+02  0.51100000000E-03 0.  1.
    9900012    2    1    2    0    0  0.30839200371E+02  0.19447133755E+02  0.17997732649E+02  0.50528859929E+02  0.30000000240E+02 0.  0.
        -12    1    1    2    0    0 -0.30839200371E+02 -0.19447133755E+02 -0.17997732649E+02  0.40659140071E+02  0.00000000000E+00 0.  1.
         11    1    3    3    0    0  0.49565816243E+00 -0.32298442597E+01 -0.75732816076E+00  0.33542684985E+01  0.51100000000E-03 0. -1.
        -11    1    3    3    0    0  0.80802219197E+00 -0.16981832260E+01  0.68026515043E+01  0.70578179264E+01  0.51100000000E-03 0.  1.
         12    1    3    3    0    0  0.29535520017E+02  0.24375161240E+02  0.11952409306E+02  0.40116773504E+02  0.00000000000E+00 0. -1.
</event>
<event>
 7    1  0.8986500E-014  0.5052886E+02  0.7816164E-02  0.1300439E+00
        -11   -1    0    0    0    0  0.00000000000E+00  0.00000000000E+00  0.45593999997E+02  0.45594000000E+02  0.51100000000E-03 0. -1.
         11   -1    0    0    0    0 -0.00000000000E+00 -0.00000000000E+00 -0.45593999997E+02  0.45594000000E+02  0.51100000000E-03 0.  1.
    9900012    2    1    2    0    0 -0.28751663116E+01  0.44899215059E+01  0.40308062838E+02  0.50528857041E+02  0.29999991462E+02 0.  0.
        -12    1    1    2    0    0  0.28751663116E+01 -0.44899215059E+01 -0.40308062838E+02  0.40659142959E+02  0.00000000000E+00 0.  1.
         11    1    3    3    0    0  0.71457082634E+01 -0.26914371533E+01  0.72921895580E+01  0.10558456769E+02  0.51100000000E-03 0. -1.
        -11    1    3    3    0    0 -0.72389876854E+01 -0.36215179038E+01  0.24879490557E+02  0.26163092043E+02  0.51100000000E-03 0.  1.
        -12    1    3    3    0    0 -0.27818868897E+01  0.10802876563E+02  0.81363827227E+01  0.13807308228E+02  0.00000000000E+00 0.  1.
</event>
<event>
 7    1  0.8986500E-014  0.5052887E+02  0.7816164E-02  0.1300439E+00
        -11   -1    0    0    0    0  0.00000000000E+00  0.00000000000E+00  0.45593999997E+02  0.45594000000E+02  0.51100000000E-03 0. -1.
         11   -1    0    0    0    0 -0.00000000000E+00 -0.00000000000E+00 -0.45593999997E+02  0.45594000000E+02  0.51100000000E-03 0.  1.
    9900012    2    1    2    0    0 -0.35564228463E+02 -0.17949301048E+01  0.19624699946E+02  0.50528868576E+02  0.30000026523E+02 0.  0.
        -12    1    1    2    0    0  0.35564228463E+02  0.17949301048E+01 -0.19624699946E+02  0.40659131424E+02  0.00000000000E+00 0.  1.
         11    1    3    3    0    0 -0.14165321679E+02 -0.28672760120E+01  0.81857504157E+00  0.14475761650E+02  0.51100000000E-03 0.  1.
        -11    1    3    3    0    0 -0.99264658050E+01  0.10410307424E+02  0.35769323175E+01  0.14822404296E+02  0.51100000000E-03 0. -1.
         12    1    3    3    0    0 -0.11472440979E+02 -0.93379615171E+01  0.15229192587E+02  0.21230702630E+02  0.00000000000E+00 0. -1.
</event>
<event>
 7    1  0.8986500E-014  0.5052886E+02  0.7816164E-02  0.1300439E+00
        -11   -1    0    0    0    0  0.00000000000E+00  0.00000000000E+00  0.45593999997E+02  0.45594000000E+02  0.51100000000E-03 0. -1.
         11   -1    0    0    0    0 -0.00000000000E+00 -0.00000000000E+00 -0.45593999997E+02  0.45594000000E+02  0.51100000000E-03 0.  1.
    9900012    2    1    2    0    0  0.28993726113E+02 -0.48547424549E+01  0.28088442588E+02  0.50528864677E+02  0.30000014672E+02 0.  0.
        -12    1    1    2    0    0 -0.28993726113E+02  0.48547424549E+01 -0.28088442588E+02  0.40659135323E+02  0.00000000000E+00 0.  1.
         11    1    3    3    0    0  0.50940805101E+00  0.68012848642E+00 -0.50932258618E+00  0.99069726879E+00  0.51100000000E-03 0. -1.
        -11    1    3    3    0    0  0.14806695683E+02 -0.12348191924E+02  0.26996017048E+01  0.19468023281E+02  0.51100000000E-03 0.  1.
         12    1    3    3    0    0  0.13677622379E+02  0.68133209830E+01  0.25898163469E+02  0.30070144127E+02  0.00000000000E+00 0. -1.
</event>
<event>
 7    1  0.8986500E-014  0.5052886E+02  0.7816164E-02  0.1300439E+00
        -11   -1    0    0    0    0  0.00000000000E+00  0.00000000000E+00  0.45593999997E+02  0.45594000000E+02  0.51100000000E-03 0. -1.
         11   -1    0    0    0    0 -0.00000000000E+00 -0.00000000000E+00 -0.45593999997E+02  0.45594000000E+02  0.51100000000E-03 0.  1.
    9900012    2    1    2    0    0 -0.22760689251E+02 -0.31786604701E+02 -0.11168187304E+02  0.50528860544E+02  0.30000002111E+02 0.  0.
         12    1    1    2    0    0  0.22760689251E+02  0.31786604701E+02  0.11168187304E+02  0.40659139456E+02  0.00000000000E+00 0. -1.
         11    1    3    3    0    0 -0.78609817010E+01 -0.16012316663E+02 -0.14536386253E+02  0.23010776688E+02  0.51100000000E-03 0.  1.
        -11    1    3    3    0    0 -0.12858431519E+01 -0.68734585387E+01 -0.55868918073E+01  0.89504851948E+01  0.51100000000E-03 0. -1.
         12    1    3    3    0    0 -0.13613864398E+02 -0.89008294999E+01  0.89550907560E+01  0.18567598662E+02  0.00000000000E+00 0. -1.
</event>
<event>
 7    1  0.9114466E-014  0.5052888E+02  0.7816164E-02  0.1300439E+00
        -11   -1    0    0    0    0  0.00000000000E+00  0.00000000000E+00  0.45593999997E+02  0.45594000000E+02  0.51100000000E-03 0. -1.
         11   -1    0    0    0    0 -0.00000000000E+00 -0.00000000000E+00 -0.45593999997E+02  0.45594000000E+02  0.51100000000E-03 0.  1.
    9900012    2    1    2    0    0  0.34088007426E+02  0.41972668383E+00  0.22158425193E+02  0.50528877681E+02  0.30000054198E+02 0.  0.
        -12    1    1    2    0    0 -0.34088007426E+02 -0.41972668383E+00 -0.22158425193E+02  0.40659122319E+02  0.00000000000E+00 0.  1.
         11    1    3    3    0    0  0.24178156926E+02 -0.39996527984E+01  0.45861088223E+01  0.24932165755E+02  0.51100000000E-03 0. -1.
        -11    1    3    3    0    0  0.61894201041E+01  0.32725363815E+01 -0.58593928759E+00  0.70257911087E+01  0.51100000000E-03 0.  1.
         12    1    3    3    0    0  0.37204303955E+01  0.11468431007E+01  0.18158255659E+02  0.18570920817E+02  0.00000000000E+00 0. -1.
</event>
<event>
 7    1  0.8986500E-014  0.5052885E+02  0.7816164E-02  0.1300439E+00
        -11   -1    0    0    0    0  0.00000000000E+00  0.00000000000E+00  0.45593999997E+02  0.45594000000E+02  0.51100000000E-03 0. -1.
         11   -1    0    0    0    0 -0.00000000000E+00 -0.00000000000E+00 -0.45593999997E+02  0.45594000000E+02  0.51100000000E-03 0.  1.
    9900012    2    1    2    0    0 -0.18352697767E+02  0.30736605391E+02 -0.19277093478E+02  0.50528846550E+02  0.29999959573E+02 0.  0.
         12    1    1    2    0    0  0.18352697767E+02 -0.30736605391E+02  0.19277093478E+02  0.40659153450E+02  0.00000000000E+00 0. -1.
         11    1    3    3    0    0 -0.93324049556E+01  0.16102537578E+01  0.32835387460E+01  0.10023388967E+02  0.51100000000E-03 0. -1.
        -11    1    3    3    0    0  0.32718744927E+01  0.70590251863E+01 -0.87788423039E+01  0.11730433570E+02  0.51100000000E-03 0.  1.
        -12    1    3    3    0    0 -0.12292167304E+02  0.22067326447E+02 -0.13781789920E+02  0.28775024013E+02  0.00000000000E+00 0.  1.
</event>
<event>
 7    1  0.8986500E-014  0.5052887E+02  0.7816164E-02  0.1300439E+00
        -11   -1    0    0    0    0  0.00000000000E+00  0.00000000000E+00  0.45593999997E+02  0.45594000000E+02  0.51100000000E-03 0. -1.
         11   -1    0    0    0    0 -0.00000000000E+00 -0.00000000000E+00 -0.45593999997E+02  0.45594000000E+02  0.51100000000E-03 0.  1.
    9900012    2    1    2    0    0  0.70666193091E+01 -0.10173941164E+02 -0.38726206098E+02  0.50528865405E+02  0.30000016885E+02 0.  0.
         12    1    1    2    0    0 -0.70666193091E+01  0.10173941164E+02  0.38726206098E+02  0.40659134595E+02  0.00000000000E+00 0. -1.
         11    1    3    3    0    0 -0.37609132905E+01 -0.70217596081E+01 -0.85430360323E+01  0.11680455543E+02  0.51100000000E-03 0. -1.
        -11    1    3    3    0    0  0.80503155780E+01  0.53710163162E+01 -0.27995609106E+02  0.29621099349E+02  0.51100000000E-03 0.  1.
         12    1    3    3    0    0  0.27772170216E+01 -0.85231978720E+01 -0.21875609597E+01  0.92273105130E+01  0.00000000000E+00 0. -1.
</event>
<event>
 7    1  0.8986500E-014  0.5052886E+02  0.7816164E-02  0.1300439E+00
        -11   -1    0    0    0    0  0.00000000000E+00  0.00000000000E+00  0.45593999997E+02  0.45594000000E+02  0.51100000000E-03 0. -1.
         11   -1    0    0    0    0 -0.00000000000E+00 -0.00000000000E+00 -0.45593999997E+02  0.45594000000E+02  0.51100000000E-03 0.  1.
    9900012    2    1    2    0    0 -0.15144097668E+01 -0.14813453896E+02  0.37834293124E+02  0.50528860936E+02  0.30000003300E+02 0.  0.
        -12    1    1    2    0    0  0.15144097668E+01  0.14813453896E+02 -0.37834293124E+02  0.40659139064E+02  0.00000000000E+00 0.  1.
         11    1    3    3    0    0  0.43638060236E+00 -0.45285235179E+00  0.28390234475E+02  0.28397199107E+02  0.51100000000E-03 0.  1.
        -11    1    3    3    0    0  0.31085023736E+01 -0.49907066220E+01  0.98544744552E+01  0.11475217063E+02  0.51100000000E-03 0. -1.
        -12    1    3    3    0    0 -0.50592927427E+01 -0.93698949226E+01 -0.41041580673E+00  0.10656444766E+02  0.00000000000E+00 0.  1.
</event>
<event>
 7    1  0.8986500E-014  0.5052886E+02  0.7816164E-02  0.1300439E+00
        -11   -1    0    0    0    0  0.00000000000E+00  0.00000000000E+00  0.45593999997E+02  0.45594000000E+02  0.51100000000E-03 0. -1.
         11   -1    0    0    0    0 -0.00000000000E+00 -0.00000000000E+00 -0.45593999997E+02  0.45594000000E+02  0.51100000000E-03 0.  1.
    9900012    2    1    2    0    0 -0.25426033787E+02  0.12363984090E+02 -0.29220107782E+02  0.50528855942E+02  0.29999988121E+02 0.  0.
         12    1    1    2    0    0  0.25426033787E+02 -0.12363984090E+02  0.29220107782E+02  0.40659144058E+02  0.00000000000E+00 0. -1.
         11    1    3    3    0    0 -0.17320105376E+02  0.13339778219E+01 -0.72153155120E+01  0.18810271802E+02  0.51100000000E-03 0.  1.
        -11    1    3    3    0    0 -0.68691710840E+01  0.10895419072E+00  0.27476164122E+00  0.68755273702E+01  0.51100000000E-03 0. -1.
        -12    1    3    3    0    0 -0.12367573266E+01  0.10921052078E+02 -0.22279553911E+02  0.24843056770E+02  0.00000000000E+00 0.  1.
</event>
<event>
 7    1  0.8986500E-014  0.5052884E+02  0.7816164E-02  0.1300439E+00
        -11   -1    0    0    0    0  0.00000000000E+00  0.00000000000E+00  0.45593999997E+02  0.45594000000E+02  0.51100000000E-03 0. -1.
         11   -1    0    0    0    0 -0.00000000000E+00 -0.00000000000E+00 -0.45593999997E+02  0.45594000000E+02  0.51100000000E-03 0.  1.
    9900012    2    1    2    0    0 -0.15813310400E+02  0.34701895086E+02  0.14102647498E+02  0.50528843899E+02  0.29999951516E+02 0.  0.
        -12    1    1    2    0    0  0.15813310400E+02 -0.34701895086E+02 -0.14102647498E+02  0.40659156101E+02  0.00000000000E+00 0.  1.
         11    1    3    3    0    0 -0.83166365498E+01  0.28455913590E+01  0.17988582639E+01  0.89721638972E+01  0.51100000000E-03 0. -1.
        -11    1    3    3    0    0 -0.30691860675E+01  0.25965968878E+02  0.18417333243E+02  0.31982020058E+02  0.51100000000E-03 0.  1.
         12    1    3    3    0    0 -0.44274877825E+01  0.58903348490E+01 -0.61135440090E+01  0.95746599442E+01  0.00000000000E+00 0. -1.
</event>
<event>
 7    1  0.8986500E-014  0.5052886E+02  0.7816164E-02  0.1300439E+00
        -11   -1    0    0    0    0  0.00000000000E+00  0.00000000000E+00  0.45593999997E+02  0.45594000000E+02  0.51100000000E-03 0. -1.
         11   -1    0    0    0    0 -0.00000000000E+00 -0.00000000000E+00 -0.45593999997E+02  0.45594000000E+02  0.51100000000E-03 0.  1.
    9900012    2    1    2    0    0  0.27356870966E+02 -0.25081356125E+02 -0.16603992649E+02  0.50528863437E+02  0.30000010904E+02 0.  0.
         12    1    1    2    0    0 -0.27356870966E+02  0.25081356125E+02  0.16603992649E+02  0.40659136563E+02  0.00000000000E+00 0. -1.
         11    1    3    3    0    0  0.11599238818E+01 -0.42082684353E+01 -0.55040822050E+01  0.70249461077E+01  0.51100000000E-03 0. -1.
        -11    1    3    3    0    0  0.30772955472E+02 -0.14099617874E+02 -0.81791693837E+01  0.34823452224E+02  0.51100000000E-03 0.  1.
         12    1    3    3    0    0 -0.45760083879E+01 -0.67734698161E+01 -0.29207410600E+01  0.86804651059E+01  0.00000000000E+00 0. -1.
</event>
<event>
 7    1  0.8986500E-014  0.5052886E+02  0.7816164E-02  0.1300439E+00
        -11   -1    0    0    0    0  0.00000000000E+00  0.00000000000E+00  0.45593999997E+02  0.45594000000E+02  0.51100000000E-03 0. -1.
         11   -1    0    0    0    0 -0.00000000000E+00 -0.00000000000E+00 -0.45593999997E+02  0.45594000000E+02  0.51100000000E-03 0.  1.
    9900012    2    1    2    0    0 -0.25375607834E+02 -0.18841132571E+02  0.25578431376E+02  0.50528857102E+02  0.29999991648E+02 0.  0.
        -12    1    1    2    0    0  0.25375607834E+02  0.18841132571E+02 -0.25578431376E+02  0.40659142898E+02  0.00000000000E+00 0.  1.
         11    1    3    3    0    0  0.36784676215E+01  0.86165312789E+00  0.25924227257E+01  0.45819456571E+01  0.51100000000E-03 0. -1.
        -11    1    3    3    0    0 -0.22912255386E+01 -0.83440117131E+01  0.12157286951E+02  0.14922193948E+02  0.51100000000E-03 0.  1.
         12    1    3    3    0    0 -0.26762849917E+02 -0.11358773986E+02  0.10828721699E+02  0.31024717497E+02  0.00000000000E+00 0. -1.
</event>
<event>
 7    1  0.8986500E-014  0.5052885E+02  0.7816164E-02  0.1300439E+00
        -11   -1    0    0    0    0  0.00000000000E+00  0.00000000000E+00  0.45593999997E+02  0.45594000000E+02  0.51100000000E-03 0. -1.
         11   -1    0    0    0    0 -0.00000000000E+00 -0.00000000000E+00 -0.45593999997E+02  0.45594000000E+02  0.51100000000E-03 0.  1.
    9900012    2    1    2    0    0 -0.13082128936E+02 -0.19553369634E+02 -0.33161571943E+02  0.50528853240E+02  0.29999979908E+02 0.  0.
         12    1    1    2    0    0  0.13082128936E+02  0.19553369634E+02  0.33161571943E+02  0.40659146760E+02  0.00000000000E+00 0. -1.
         11    1    3    3    0    0 -0.17974912026E+01  0.42617328029E+01 -0.39561435020E+01  0.60864121432E+01  0.51100000000E-03 0. -1.
        -11    1    3    3    0    0  0.51459197266E+01 -0.10491200183E+02 -0.14765525216E+02  0.18829936439E+02  0.51100000000E-03 0.  1.
        -12    1    3    3    0    0 -0.16430557461E+02 -0.13323902254E+02 -0.14439903224E+02  0.25612504658E+02  0.00000000000E+00 0.  1.
</event>
<event>
 7    1  0.8986500E-014  0.5052886E+02  0.7816164E-02  0.1300439E+00
        -11   -1    0    0    0    0  0.00000000000E+00  0.00000000000E+00  0.45593999997E+02  0.45594000000E+02  0.51100000000E-03 0. -1.
         11   -1    0    0    0    0 -0.00000000000E+00 -0.00000000000E+00 -0.45593999997E+02  0.45594000000E+02  0.51100000000E-03 0.  1.
    9900012    2    1    2    0    0 -0.79604092710E+01  0.24672834591E+02 -0.31321694521E+02  0.50528862894E+02  0.30000009253E+02 0.  0.
         12    1    1    2    0    0  0.79604092710E+01 -0.24672834591E+02  0.31321694521E+02  0.40659137106E+02  0.00000000000E+00 0. -1.
         11    1    3    3    0    0  0.43749758898E+00  0.75914896712E+00  0.99273244648E+00  0.13240956408E+01  0.51100000000E-03 0. -1.
        -11    1    3    3    0    0  0.72841212816E+01  0.19127435487E+02 -0.20711221187E+02  0.29118239894E+02  0.51100000000E-03 0.  1.
         12    1    3    3    0    0 -0.15682028142E+02  0.47862501364E+01 -0.11603205780E+02  0.20086527360E+02  0.00000000000E+00 0. -1.
</event>
<event>
 7    1  0.8986500E-014  0.5052881E+02  0.7816164E-02  0.1300439E+00
        -11   -1    0    0    0    0  0.00000000000E+00  0.00000000000E+00  0.45593999997E+02  0.45594000000E+02  0.51100000000E-03 0. -1.
         11   -1    0    0    0    0 -0.00000000000E+00 -0.00000000000E+00 -0.45593999997E+02  0.45594000000E+02  0.51100000000E-03 0.  1.
    9900012    2    1    2    0    0  0.19003929314E+01  0.16251712078E+02  0.37221504201E+02  0.50528806528E+02  0.29999837922E+02 0.  0.
        -12    1    1    2    0    0 -0.19003929314E+01 -0.16251712078E+02 -0.37221504201E+02  0.40659193472E+02  0.00000000000E+00 0.  1.
         11    1    3    3    0    0 -0.12784660350E+00  0.65910949541E+01  0.10873188181E+02  0.12715545561E+02  0.51100000000E-03 0. -1.
        -11    1    3    3    0    0  0.26746334821E+01  0.10155931880E+02  0.31186324493E+02  0.32907194536E+02  0.51100000000E-03 0.  1.
        -12    1    3    3    0    0 -0.64639394719E+00 -0.49531475581E+00 -0.48380084722E+01  0.49060664304E+01  0.00000000000E+00 0.  1.
</event>
<event>
 7    1  0.1019580E-013  0.5052887E+02  0.7816164E-02  0.1300439E+00
        -11   -1    0    0    0    0  0.00000000000E+00  0.00000000000E+00  0.45593999997E+02  0.45594000000E+02  0.51100000000E-03 0. -1.
         11   -1    0    0    0    0 -0.00000000000E+00 -0.00000000000E+00 -0.45593999997E+02  0.45594000000E+02  0.51100000000E-03 0.  1.
    9900012    2    1    2    0    0 -0.24869356468E+02 -0.76068316486E+01  0.31254062294E+02  0.50528865864E+02  0.30000018279E+02 0.  0.
        -12    1    1    2    0    0  0.24869356468E+02  0.76068316486E+01 -0.31254062294E+02  0.40659134136E+02  0.00000000000E+00 0.  1.
         11    1    3    3    0    0 -0.12510653884E+02  0.14723205362E+01  0.12058203035E+02  0.17438017349E+02  0.51100000000E-03 0. -1.
        -11    1    3    3    0    0 -0.39852827433E+01  0.37729933631E+01  0.16663557118E+02  0.17544004490E+02  0.51100000000E-03 0.  1.
         12    1    3    3    0    0 -0.83734198402E+01 -0.12852145548E+02  0.25323021413E+01  0.15546844025E+02  0.00000000000E+00 0. -1.
</event>
<event>
 7    1  0.8986500E-014  0.5052885E+02  0.7816164E-02  0.1300439E+00
        -11   -1    0    0    0    0  0.00000000000E+00  0.00000000000E+00  0.45593999997E+02  0.45594000000E+02  0.51100000000E-03 0. -1.
         11   -1    0    0    0    0 -0.00000000000E+00 -0.00000000000E+00 -0.45593999997E+02  0.45594000000E+02  0.51100000000E-03 0.  1.
    9900012    2    1    2    0    0  0.32553485051E+02  0.22387193773E+01 -0.24257470842E+02  0.50528854103E+02  0.29999982532E+02 0.  0.
         12    1    1    2    0    0 -0.32553485051E+02 -0.22387193773E+01  0.24257470842E+02  0.40659145897E+02  0.00000000000E+00 0. -1.
         11    1    3    3    0    0  0.65286815287E+01  0.10272516195E+02 -0.13531554056E+02  0.18200308430E+02  0.51100000000E-03 0. -1.
        -11    1    3    3    0    0  0.37555381433E+01  0.35436513016E+01 -0.36886378790E+00  0.51766390687E+01  0.51100000000E-03 0.  1.
         12    1    3    3    0    0  0.22269265379E+02 -0.11577448120E+02 -0.10357052997E+02  0.27151906605E+02  0.00000000000E+00 0. -1.
</event>
<event>
 7    1  0.8986500E-014  0.5052888E+02  0.7816164E-02  0.1300439E+00
        -11   -1    0    0    0    0  0.00000000000E+00  0.00000000000E+00  0.45593999997E+02  0.45594000000E+02  0.51100000000E-03 0. -1.
         11   -1    0    0    0    0 -0.00000000000E+00 -0.00000000000E+00 -0.45593999997E+02  0.45594000000E+02  0.51100000000E-03 0.  1.
    9900012    2    1    2    0    0  0.18610037304E+02 -0.95770378634E+01  0.34858439627E+02  0.50528881024E+02  0.30000064360E+02 0.  0.
        -12    1    1    2    0    0 -0.18610037304E+02  0.95770378634E+01 -0.34858439627E+02  0.40659118976E+02  0.00000000000E+00 0.  1.
         11    1    3    3    0    0  0.12997407565E+02  0.36978084713E+01  0.84841631643E+01  0.15955795680E+02  0.51100000000E-03 0. -1.
        -11    1    3    3    0    0 -0.50972436596E+01 -0.33839146583E+01  0.25203522687E+01  0.66170195072E+01  0.51100000000E-03 0.  1.
         12    1    3    3    0    0  0.10709873399E+02 -0.98909316764E+01  0.23853924194E+02  0.27956065837E+02  0.00000000000E+00 0. -1.
</event>
<event>
 7    1  0.8986500E-014  0.5052891E+02  0.7816164E-02  0.1300439E+00
        -11   -1    0    0    0    0  0.00000000000E+00  0.00000000000E+00  0.45593999997E+02  0.45594000000E+02  0.51100000000E-03 0. -1.
         11   -1    0    0    0    0 -0.00000000000E+00 -0.00000000000E+00 -0.45593999997E+02  0.45594000000E+02  0.51100000000E-03 0.  1.
    9900012    2    1    2    0    0 -0.14824482630E+01  0.69543385571E+01  0.40032503280E+02  0.50528907579E+02  0.30000145076E+02 0.  0.
        -12    1    1    2    0    0  0.14824482630E+01 -0.69543385571E+01 -0.40032503280E+02  0.40659092421E+02  0.00000000000E+00 0.  1.
         11    1    3    3    0    0 -0.70975575767E+01  0.83330780504E+01  0.56557642074E+01  0.12320843412E+02  0.51100000000E-03 0. -1.
        -11    1    3    3    0    0  0.42764565975E+01  0.57529770689E+01  0.26696360495E+02  0.27642005899E+02  0.51100000000E-03 0.  1.
         12    1    3    3    0    0  0.13386527162E+01 -0.71317165622E+01  0.76803785778E+01  0.10566058268E+02  0.00000000000E+00 0. -1.
</event>
<event>
 7    1  0.8986500E-014  0.5052886E+02  0.7816164E-02  0.1300439E+00
        -11   -1    0    0    0    0  0.00000000000E+00  0.00000000000E+00  0.45593999997E+02  0.45594000000E+02  0.51100000000E-03 0. -1.
         11   -1    0    0    0    0 -0.00000000000E+00 -0.00000000000E+00 -0.45593999997E+02  0.45594000000E+02  0.51100000000E-03 0.  1.
    9900012    2    1    2    0    0 -0.31474676178E+02  0.54919674616E+01 -0.25146548354E+02  0.50528857839E+02  0.29999993888E+02 0.  0.
         12    1    1    2    0    0  0.31474676178E+02 -0.54919674616E+01  0.25146548354E+02  0.40659142161E+02  0.00000000000E+00 0. -1.
         11    1    3    3    0    0 -0.24506268661E+02  0.11325820552E+02 -0.19209965179E+02  0.33133882617E+02  0.51100000000E-03 0. -1.
        -11    1    3    3    0    0 -0.30976746437E+01  0.43026035326E+01 -0.32443163797E+01  0.62155912341E+01  0.51100000000E-03 0.  1.
         12    1    3    3    0    0 -0.38707328730E+01 -0.10136456623E+02 -0.26922667960E+01  0.11179383988E+02  0.00000000000E+00 0. -1.
</event>
<event>
 7    1  0.8986500E-014  0.5052887E+02  0.7816164E-02  0.1300439E+00
        -11   -1    0    0    0    0  0.00000000000E+00  0.00000000000E+00  0.45593999997E+02  0.45594000000E+02  0.51100000000E-03 0. -1.
         11   -1    0    0    0    0 -0.00000000000E+00 -0.00000000000E+00 -0.45593999997E+02  0.45594000000E+02  0.51100000000E-03 0.  1.
    9900012    2    1    2    0    0  0.26151367935E+02  0.25565580055E+02  0.17767158364E+02  0.50528870093E+02  0.30000031135E+02 0.  0.
        -12    1    1    2    0    0 -0.26151367935E+02 -0.25565580055E+02 -0.17767158364E+02  0.40659129907E+02  0.00000000000E+00 0.  1.
         11    1    3    3    0    0  0.50633921874E+01  0.34378979941E+01  0.46919292165E+01  0.77117626451E+01  0.51100000000E-03 0. -1.
        -11    1    3    3    0    0  0.20848873949E+02  0.25103511890E+02  0.35379062618E+01  0.32823446424E+02  0.51100000000E-03 0.  1.
         12    1    3    3    0    0  0.23910179865E+00 -0.29758298285E+01  0.95373228857E+01  0.99936610241E+01  0.00000000000E+00 0. -1.
</event>
<event>
 7    1  0.8986500E-014  0.5052886E+02  0.7816164E-02  0.1300439E+00
        -11   -1    0    0    0    0  0.00000000000E+00  0.00000000000E+00  0.45593999997E+02  0.45594000000E+02  0.51100000000E-03 0. -1.
         11   -1    0    0    0    0 -0.00000000000E+00 -0.00000000000E+00 -0.45593999997E+02  0.45594000000E+02  0.51100000000E-03 0.  1.
    9900012    2    1    2    0    0  0.17880491043E+02  0.98056679304E+01 -0.35175313186E+02  0.50528859069E+02  0.29999997627E+02 0.  0.
         12    1    1    2    0    0 -0.17880491043E+02 -0.98056679304E+01  0.35175313186E+02  0.40659140931E+02  0.00000000000E+00 0. -1.
         11    1    3    3    0    0  0.10609777201E+02  0.93560908153E+01 -0.83987955349E+01  0.16451248412E+02  0.51100000000E-03 0. -1.
        -11    1    3    3    0    0  0.59757700896E+01  0.95677727320E+01 -0.18644589696E+02  0.21791577006E+02  0.51100000000E-03 0.  1.
        -12    1    3    3    0    0  0.12949437522E+01 -0.91181956168E+01 -0.81319279550E+01  0.12286033652E+02  0.00000000000E+00 0.  1.
</event>
<event>
 7    1  0.8986500E-014  0.5052884E+02  0.7816164E-02  0.1300439E+00
        -11   -1    0    0    0    0  0.00000000000E+00  0.00000000000E+00  0.45593999997E+02  0.45594000000E+02  0.51100000000E-03 0. -1.
         11   -1    0    0    0    0 -0.00000000000E+00 -0.00000000000E+00 -0.45593999997E+02  0.45594000000E+02  0.51100000000E-03 0.  1.
    9900012    2    1    2    0    0 -0.15729117458E+02 -0.13090828581E+02  0.35133919697E+02  0.50528840611E+02  0.29999941520E+02 0.  0.
        -12    1    1    2    0    0  0.15729117458E+02  0.13090828581E+02 -0.35133919697E+02  0.40659159389E+02  0.00000000000E+00 0.  1.
         11    1    3    3    0    0 -0.63402593431E+01 -0.23894120543E+01  0.24770595561E+02  0.25680548732E+02  0.51100000000E-03 0. -1.
        -11    1    3    3    0    0  0.26638995428E+01  0.20201166381E+01 -0.15222327057E+01  0.36734758304E+01  0.51100000000E-03 0.  1.
        -12    1    3    3    0    0 -0.12052757658E+02 -0.12721533164E+02  0.11885556842E+02  0.21174816048E+02  0.00000000000E+00 0.  1.
</event>
<event>
 7    1  0.8986500E-014  0.5052886E+02  0.7816164E-02  0.1300439E+00
        -11   -1    0    0    0    0  0.00000000000E+00  0.00000000000E+00  0.45593999997E+02  0.45594000000E+02  0.51100000000E-03 0. -1.
         11   -1    0    0    0    0 -0.00000000000E+00 -0.00000000000E+00 -0.45593999997E+02  0.45594000000E+02  0.51100000000E-03 0.  1.
    9900012    2    1    2    0    0  0.20123500602E+02 -0.25405973842E+02 -0.24550905422E+02  0.50528859080E+02  0.29999997658E+02 0.  0.
         12    1    1    2    0    0 -0.20123500602E+02  0.25405973842E+02  0.24550905422E+02  0.40659140920E+02  0.00000000000E+00 0. -1.
         11    1    3    3    0    0  0.10919207863E+02 -0.77570151468E+01 -0.16562515841E+02  0.21300641201E+02  0.51100000000E-03 0. -1.
        -11    1    3    3    0    0  0.74184383633E+01 -0.95782499413E+01 -0.14362679622E+02  0.18789961838E+02  0.51100000000E-03 0.  1.
         12    1    3    3    0    0  0.17858543759E+01 -0.80707087537E+01  0.63742900407E+01  0.10438256040E+02  0.00000000000E+00 0. -1.
</event>
<event>
 7    1  0.8986500E-014  0.5052885E+02  0.7816164E-02  0.1300439E+00
        -11   -1    0    0    0    0  0.00000000000E+00  0.00000000000E+00  0.45593999997E+02  0.45594000000E+02  0.51100000000E-03 0. -1.
         11   -1    0    0    0    0 -0.00000000000E+00 -0.00000000000E+00 -0.45593999997E+02  0.45594000000E+02  0.51100000000E-03 0.  1.
    9900012    2    1    2    0    0  0.16834593896E+02 -0.52654666483E+01 -0.36633831174E+02  0.50528852479E+02  0.29999977595E+02 0.  0.
         12    1    1    2    0    0 -0.16834593896E+02  0.52654666483E+01  0.36633831174E+02  0.40659147521E+02  0.00000000000E+00 0. -1.
         11    1    3    3    0    0  0.78097742537E+01 -0.16172595018E+01 -0.45762230186E+01  0.91951030210E+01  0.51100000000E-03 0. -1.
        -11    1    3    3    0    0  0.15291054452E+02 -0.81023933013E+01 -0.16171241287E+02  0.23684893255E+02  0.51100000000E-03 0.  1.
         12    1    3    3    0    0 -0.62662348101E+01  0.44541861549E+01 -0.15886366868E+02  0.17648856203E+02  0.00000000000E+00 0. -1.
</event>
<event>
 7    1  0.8986500E-014  0.5052886E+02  0.7816164E-02  0.1300439E+00
        -11   -1    0    0    0    0  0.00000000000E+00  0.00000000000E+00  0.45593999997E+02  0.45594000000E+02  0.51100000000E-03 0. -1.
         11   -1    0    0    0    0 -0.00000000000E+00 -0.00000000000E+00 -0.45593999997E+02  0.45594000000E+02  0.51100000000E-03 0.  1.
    9900012    2    1    2    0    0  0.71582945957E+01 -0.27024597670E+01 -0.39932709077E+02  0.50528859274E+02  0.29999998250E+02 0.  0.
         12    1    1    2    0    0 -0.71582945957E+01  0.27024597670E+01  0.39932709077E+02  0.40659140726E+02  0.00000000000E+00 0. -1.
         11    1    3    3    0    0  0.11215477764E+02  0.22242623300E+01 -0.30943225373E+01  0.11845214925E+02  0.51100000000E-03 0. -1.
        -11    1    3    3    0    0 -0.51727366210E+01  0.16023230055E-01 -0.89384501084E+01  0.10327310952E+02  0.51100000000E-03 0.  1.
        -12    1    3    3    0    0  0.11155534524E+01 -0.49427453271E+01 -0.27899936431E+02  0.28356333397E+02  0.00000000000E+00 0.  1.
</event>
<event>
 7    1  0.8986500E-014  0.5052886E+02  0.7816164E-02  0.1300439E+00
        -11   -1    0    0    0    0  0.00000000000E+00  0.00000000000E+00  0.45593999997E+02  0.45594000000E+02  0.51100000000E-03 0. -1.
         11   -1    0    0    0    0 -0.00000000000E+00 -0.00000000000E+00 -0.45593999997E+02  0.45594000000E+02  0.51100000000E-03 0.  1.
    9900012    2    1    2    0    0 -0.32557494251E+02 -0.13914508361E+02  0.19989032284E+02  0.50528863432E+02  0.30000010887E+02 0.  0.
        -12    1    1    2    0    0  0.32557494251E+02  0.13914508361E+02 -0.19989032284E+02  0.40659136568E+02  0.00000000000E+00 0.  1.
         11    1    3    3    0    0 -0.74381152720E+01  0.73947594791E+00 -0.31373840207E+01  0.81065135682E+01  0.51100000000E-03 0.  1.
        -11    1    3    3    0    0 -0.10840062457E+02 -0.56365047215E+00 -0.11663543609E+01  0.10917190054E+02  0.51100000000E-03 0. -1.
        -12    1    3    3    0    0 -0.14279316522E+02 -0.14090333837E+02  0.24292770666E+02  0.31505159809E+02  0.00000000000E+00 0.  1.
</event>
<event>
 7    1  0.8986500E-014  0.5052887E+02  0.7816164E-02  0.1300439E+00
        -11   -1    0    0    0    0  0.00000000000E+00  0.00000000000E+00  0.45593999997E+02  0.45594000000E+02  0.51100000000E-03 0.  1.
         11   -1    0    0    0    0 -0.00000000000E+00 -0.00000000000E+00 -0.45593999997E+02  0.45594000000E+02  0.51100000000E-03 0. -1.
    9900012    2    1    2    0    0  0.37733871864E+02  0.14501010916E+02  0.43635387780E+01  0.50528869733E+02  0.30000030040E+02 0.  0.
        -12    1    1    2    0    0 -0.37733871864E+02 -0.14501010916E+02 -0.43635387780E+01  0.40659130267E+02  0.00000000000E+00 0.  1.
         11    1    3    3    0    0  0.28709387784E+02  0.18441646553E+02 -0.70507767529E+01  0.34843029828E+02  0.51100000000E-03 0. -1.
        -11    1    3    3    0    0  0.26438946270E+01 -0.34774689213E+00  0.60405854275E+01  0.66030128932E+01  0.51100000000E-03 0.  1.
        -12    1    3    3    0    0  0.63805894528E+01 -0.35928887451E+01  0.53737301033E+01  0.90828270117E+01  0.00000000000E+00 0.  1.
</event>
<event>
 7    1  0.8986500E-014  0.5052886E+02  0.7816164E-02  0.1300439E+00
        -11   -1    0    0    0    0  0.00000000000E+00  0.00000000000E+00  0.45593999997E+02  0.45594000000E+02  0.51100000000E-03 0. -1.
         11   -1    0    0    0    0 -0.00000000000E+00 -0.00000000000E+00 -0.45593999997E+02  0.45594000000E+02  0.51100000000E-03 0.  1.
    9900012    2    1    2    0    0  0.32665522230E+02 -0.37953012351E+01  0.23910769536E+02  0.50528861374E+02  0.30000004631E+02 0.  0.
        -12    1    1    2    0    0 -0.32665522230E+02  0.37953012351E+01 -0.23910769536E+02  0.40659138626E+02  0.00000000000E+00 0.  1.
         11    1    3    3    0    0  0.32623469079E+01 -0.34536339168E+00  0.98958089080E+01  0.10425412099E+02  0.51100000000E-03 0. -1.
        -11    1    3    3    0    0  0.99562011722E+01  0.49412516670E+01  0.15269189990E+02  0.18886240309E+02  0.51100000000E-03 0.  1.
        -12    1    3    3    0    0  0.19446974150E+02 -0.83911895104E+01 -0.12542293619E+01  0.21217208966E+02  0.00000000000E+00 0.  1.
</event>
<event>
 7    1  0.8986500E-014  0.5052886E+02  0.7816164E-02  0.1300439E+00
        -11   -1    0    0    0    0  0.00000000000E+00  0.00000000000E+00  0.45593999997E+02  0.45594000000E+02  0.51100000000E-03 0. -1.
         11   -1    0    0    0    0 -0.00000000000E+00 -0.00000000000E+00 -0.45593999997E+02  0.45594000000E+02  0.51100000000E-03 0.  1.
    9900012    2    1    2    0    0  0.10796723977E+02  0.13646531992E+01 -0.39175683226E+02  0.50528859782E+02  0.29999999794E+02 0.  0.
         12    1    1    2    0    0 -0.10796723977E+02 -0.13646531992E+01  0.39175683226E+02  0.40659140218E+02  0.00000000000E+00 0. -1.
         11    1    3    3    0    0  0.75486394167E+01 -0.51342460215E+01 -0.53672950503E+01  0.10590103667E+02  0.51100000000E-03 0. -1.
        -11    1    3    3    0    0 -0.76882947070E+01 -0.71330171294E+00 -0.16630222834E+02  0.18335293470E+02  0.51100000000E-03 0.  1.
         12    1    3    3    0    0  0.10936379268E+02  0.72122009337E+01 -0.17178165341E+02  0.21603462646E+02  0.00000000000E+00 0. -1.
</event>
<event>
 7    1  0.8986500E-014  0.5052886E+02  0.7816164E-02  0.1300439E+00
        -11   -1    0    0    0    0  0.00000000000E+00  0.00000000000E+00  0.45593999997E+02  0.45594000000E+02  0.51100000000E-03 0. -1.
         11   -1    0    0    0    0 -0.00000000000E+00 -0.00000000000E+00 -0.45593999997E+02  0.45594000000E+02  0.51100000000E-03 0.  1.
    9900012    2    1    2    0    0 -0.30482951534E+02 -0.20425350531E+02  0.17514567611E+02  0.50528863793E+02  0.30000011984E+02 0.  0.
        -12    1    1    2    0    0  0.30482951534E+02  0.20425350531E+02 -0.17514567611E+02  0.40659136207E+02  0.00000000000E+00 0.  1.
         11    1    3    3    0    0 -0.16108169089E+02 -0.24188253281E+02  0.76392156624E+01  0.30048333138E+02  0.51100000000E-03 0. -1.
        -11    1    3    3    0    0 -0.12360561266E+02 -0.11126551743E+01  0.52898065738E+01  0.13490868401E+02  0.51100000000E-03 0.  1.
        -12    1    3    3    0    0 -0.20142211783E+01  0.48755579245E+01  0.45855453753E+01  0.69896622535E+01  0.00000000000E+00 0.  1.
</event>
<event>
 7    1  0.8986500E-014  0.5052884E+02  0.7816164E-02  0.1300439E+00
        -11   -1    0    0    0    0  0.00000000000E+00  0.00000000000E+00  0.45593999997E+02  0.45594000000E+02  0.51100000000E-03 0. -1.
         11   -1    0    0    0    0 -0.00000000000E+00 -0.00000000000E+00 -0.45593999997E+02  0.45594000000E+02  0.51100000000E-03 0.  1.
    9900012    2    1    2    0    0  0.23139290579E+02 -0.32942763956E+02 -0.57021781770E+01  0.50528839881E+02  0.29999939304E+02 0.  0.
        -12    1    1    2    0    0 -0.23139290579E+02  0.32942763956E+02  0.57021781770E+01  0.40659160119E+02  0.00000000000E+00 0.  1.
         11    1    3    3    0    0 -0.25261884837E+01 -0.59678166711E+01 -0.74569055643E+01  0.98793676382E+01  0.51100000000E-03 0. -1.
        -11    1    3    3    0    0  0.44014705888E+00 -0.69353254649E+01 -0.38569612138E+01  0.79478688214E+01  0.51100000000E-03 0.  1.
        -12    1    3    3    0    0  0.25225332004E+02 -0.20039621821E+02  0.56116886011E+01  0.32701603422E+02  0.00000000000E+00 0.  1.
</event>
<event>
 7    1  0.8986500E-014  0.5052886E+02  0.7816164E-02  0.1300439E+00
        -11   -1    0    0    0    0  0.00000000000E+00  0.00000000000E+00  0.45593999997E+02  0.45594000000E+02  0.51100000000E-03 0. -1.
         11   -1    0    0    0    0 -0.00000000000E+00 -0.00000000000E+00 -0.45593999997E+02  0.45594000000E+02  0.51100000000E-03 0.  1.
    9900012    2    1    2    0    0  0.28115018220E+02 -0.67917276443E+00  0.29364094772E+02  0.50528860967E+02  0.30000003394E+02 0.  0.
        -12    1    1    2    0    0 -0.28115018220E+02  0.67917276443E+00 -0.29364094772E+02  0.40659139033E+02  0.00000000000E+00 0.  1.
         11    1    3    3    0    0  0.28492460716E+00  0.69046914881E+00  0.15553054520E+02  0.15570980535E+02  0.51100000000E-03 0. -1.
        -11    1    3    3    0    0  0.35743058722E+01  0.10319230032E+01  0.95035804499E+01  0.10205810560E+02  0.51100000000E-03 0.  1.
        -12    1    3    3    0    0  0.24255787741E+02 -0.24015649164E+01  0.43074598023E+01  0.24752069871E+02  0.00000000000E+00 0.  1.
</event>
<event>
 7    1  0.8986500E-014  0.5052887E+02  0.7816164E-02  0.1300439E+00
        -11   -1    0    0    0    0  0.00000000000E+00  0.00000000000E+00  0.45593999997E+02  0.45594000000E+02  0.51100000000E-03 0. -1.
         11   -1    0    0    0    0 -0.00000000000E+00 -0.00000000000E+00 -0.45593999997E+02  0.45594000000E+02  0.51100000000E-03 0.  1.
    9900012    2    1    2    0    0  0.22104612975E+02 -0.15328708944E+02 -0.30489047106E+02  0.50528865404E+02  0.30000016882E+02 0.  0.
         12    1    1    2    0    0 -0.22104612975E+02  0.15328708944E+02  0.30489047106E+02  0.40659134596E+02  0.00000000000E+00 0. -1.
         11    1    3    3    0    0  0.13659105319E+02 -0.14209651900E+02 -0.14227678661E+02  0.24308685805E+02  0.51100000000E-03 0. -1.
        -11    1    3    3    0    0  0.97234478760E+01 -0.76189757107E+01 -0.53637772344E+01  0.13467157679E+02  0.51100000000E-03 0.  1.
         12    1    3    3    0    0 -0.12779402198E+01  0.64999186668E+01 -0.10897591211E+02  0.12753021920E+02  0.00000000000E+00 0. -1.
</event>
<event>
 7    1  0.8986500E-014  0.5052886E+02  0.7816164E-02  0.1300439E+00
        -11   -1    0    0    0    0  0.00000000000E+00  0.00000000000E+00  0.45593999997E+02  0.45594000000E+02  0.51100000000E-03 0. -1.
         11   -1    0    0    0    0 -0.00000000000E+00 -0.00000000000E+00 -0.45593999997E+02  0.45594000000E+02  0.51100000000E-03 0.  1.
    9900012    2    1    2    0    0 -0.25944264729E+02 -0.16581041096E+01  0.31261978711E+02  0.50528862103E+02  0.30000006849E+02 0.  0.
        -12    1    1    2    0    0  0.25944264729E+02  0.16581041096E+01 -0.31261978711E+02  0.40659137897E+02  0.00000000000E+00 0.  1.
         11    1    3    3    0    0 -0.23352687745E+02 -0.14767654083E+01  0.90480122529E+01  0.25087753725E+02  0.51100000000E-03 0. -1.
        -11    1    3    3    0    0 -0.51475257388E+01  0.21661212832E+01  0.39255741309E+01  0.68263632458E+01  0.51100000000E-03 0.  1.
        -12    1    3    3    0    0  0.25559487546E+01 -0.23474599845E+01  0.18288392327E+02  0.18614745132E+02  0.00000000000E+00 0.  1.
</event>
<event>
 7    1  0.8986500E-014  0.5052886E+02  0.7816164E-02  0.1300439E+00
        -11   -1    0    0    0    0  0.00000000000E+00  0.00000000000E+00  0.45593999997E+02  0.45594000000E+02  0.51100000000E-03 0.  1.
         11   -1    0    0    0    0 -0.00000000000E+00 -0.00000000000E+00 -0.45593999997E+02  0.45594000000E+02  0.51100000000E-03 0. -1.
    9900012    2    1    2    0    0 -0.22594284788E+01  0.40450183600E+02 -0.34413560433E+01  0.50528864474E+02  0.30000014054E+02 0.  0.
         12    1    1    2    0    0  0.22594284788E+01 -0.40450183600E+02  0.34413560433E+01  0.40659135526E+02  0.00000000000E+00 0. -1.
         11    1    3    3    0    0  0.42894551463E+01  0.77208498163E+01  0.81295633222E+01  0.12004197075E+02  0.51100000000E-03 0.  1.
        -11    1    3    3    0    0  0.49176826286E+01  0.10039435878E+02 -0.19808873561E+01  0.11353316263E+02  0.51100000000E-03 0. -1.
         12    1    3    3    0    0 -0.11466566254E+02  0.22689897905E+02 -0.95900320094E+01  0.27171351136E+02  0.00000000000E+00 0. -1.
</event>
<event>
 7    1  0.8986500E-014  0.5052886E+02  0.7816164E-02  0.1300439E+00
        -11   -1    0    0    0    0  0.00000000000E+00  0.00000000000E+00  0.45593999997E+02  0.45594000000E+02  0.51100000000E-03 0. -1.
         11   -1    0    0    0    0 -0.00000000000E+00 -0.00000000000E+00 -0.45593999997E+02  0.45594000000E+02  0.51100000000E-03 0.  1.
    9900012    2    1    2    0    0  0.31352011795E+02 -0.66565773676E+01 -0.25018133731E+02  0.50528859807E+02  0.29999999870E+02 0.  0.
         12    1    1    2    0    0 -0.31352011795E+02  0.66565773676E+01  0.25018133731E+02  0.40659140193E+02  0.00000000000E+00 0. -1.
         11    1    3    3    0    0  0.17897079083E+02 -0.83347416571E+01 -0.10654877855E+02  0.22434343774E+02  0.51100000000E-03 0. -1.
        -11    1    3    3    0    0  0.70057535491E+01 -0.90795145559E+01 -0.53845299584E+01  0.12669306630E+02  0.51100000000E-03 0.  1.
        -12    1    3    3    0    0  0.64491791629E+01  0.10757678845E+02 -0.89787259174E+01  0.15425209403E+02  0.00000000000E+00 0.  1.
</event>
<event>
 7    1  0.8986500E-014  0.5052889E+02  0.7816164E-02  0.1300439E+00
        -11   -1    0    0    0    0  0.00000000000E+00  0.00000000000E+00  0.45593999997E+02  0.45594000000E+02  0.51100000000E-03 0.  1.
         11   -1    0    0    0    0 -0.00000000000E+00 -0.00000000000E+00 -0.45593999997E+02  0.45594000000E+02  0.51100000000E-03 0. -1.
    9900012    2    1    2    0    0 -0.28386213664E+02  0.23885842064E+02  0.16638889553E+02  0.50528890038E+02  0.30000091760E+02 0.  0.
        -12    1    1    2    0    0  0.28386213664E+02 -0.23885842064E+02 -0.16638889553E+02  0.40659109962E+02  0.00000000000E+00 0.  1.
         11    1    3    3    0    0 -0.27122637469E+02  0.12436393413E+02  0.14197836068E+02  0.33043605943E+02  0.51100000000E-03 0. -1.
        -11    1    3    3    0    0 -0.14175977976E+01  0.42522393909E+01 -0.52819083756E+01  0.69274583869E+01  0.51100000000E-03 0.  1.
        -12    1    3    3    0    0  0.15402160255E+00  0.71972092600E+01  0.77229618613E+01  0.10557825709E+02  0.00000000000E+00 0.  1.
</event>
<event>
 7    1  0.8986500E-014  0.5052886E+02  0.7816164E-02  0.1300439E+00
        -11   -1    0    0    0    0  0.00000000000E+00  0.00000000000E+00  0.45593999997E+02  0.45594000000E+02  0.51100000000E-03 0. -1.
         11   -1    0    0    0    0 -0.00000000000E+00 -0.00000000000E+00 -0.45593999997E+02  0.45594000000E+02  0.51100000000E-03 0.  1.
    9900012    2    1    2    0    0 -0.38412068389E+02 -0.78440701431E+01 -0.10777262089E+02  0.50528858193E+02  0.29999994964E+02 0.  0.
         12    1    1    2    0    0  0.38412068389E+02  0.78440701431E+01  0.10777262089E+02  0.40659141807E+02  0.00000000000E+00 0. -1.
         11    1    3    3    0    0 -0.99409115945E+01 -0.66810116488E-01  0.11143144361E+00  0.99417606161E+01  0.51100000000E-03 0. -1.
        -11    1    3    3    0    0 -0.30432602404E+02 -0.11354801384E+02 -0.14084933468E+02  0.35404239218E+02  0.51100000000E-03 0.  1.
         12    1    3    3    0    0  0.19614456092E+01  0.35775413575E+01  0.31962399358E+01  0.51828583590E+01  0.00000000000E+00 0. -1.
</event>
<event>
 7    1  0.8986500E-014  0.5052887E+02  0.7816164E-02  0.1300439E+00
        -11   -1    0    0    0    0  0.00000000000E+00  0.00000000000E+00  0.45593999997E+02  0.45594000000E+02  0.51100000000E-03 0. -1.
         11   -1    0    0    0    0 -0.00000000000E+00 -0.00000000000E+00 -0.45593999997E+02  0.45594000000E+02  0.51100000000E-03 0.  1.
    9900012    2    1    2    0    0  0.21550127013E+02  0.18563992867E+02 -0.29054006442E+02  0.50528867006E+02  0.30000021753E+02 0.  0.
         12    1    1    2    0    0 -0.21550127013E+02 -0.18563992867E+02  0.29054006442E+02  0.40659132994E+02  0.00000000000E+00 0. -1.
         11    1    3    3    0    0 -0.48092052476E+01  0.30474280480E+01 -0.17966914356E+01  0.59702071318E+01  0.51100000000E-03 0. -1.
        -11    1    3    3    0    0  0.12409549112E+01 -0.20302568435E+01  0.12674229861E+01  0.26959735216E+01  0.51100000000E-03 0.  1.
        -12    1    3    3    0    0  0.25118377349E+02  0.17546821663E+02 -0.28524737993E+02  0.41862686353E+02  0.00000000000E+00 0.  1.
</event>
<event>
 7    1  0.8986500E-014  0.5052886E+02  0.7816164E-02  0.1300439E+00
        -11   -1    0    0    0    0  0.00000000000E+00  0.00000000000E+00  0.45593999997E+02  0.45594000000E+02  0.51100000000E-03 0.  1.
         11   -1    0    0    0    0 -0.00000000000E+00 -0.00000000000E+00 -0.45593999997E+02  0.45594000000E+02  0.51100000000E-03 0. -1.
    9900012    2    1    2    0    0 -0.38689566710E+02 -0.90925257260E+01  0.85795688278E+01  0.50528860836E+02  0.30000002998E+02 0.  0.
        -12    1    1    2    0    0  0.38689566710E+02  0.90925257260E+01 -0.85795688278E+01  0.40659139164E+02  0.00000000000E+00 0.  1.
         11    1    3    3    0    0 -0.33889397957E+01  0.20283083744E+01  0.56563668173E+01  0.68987994342E+01  0.51100000000E-03 0. -1.
        -11    1    3    3    0    0  0.20670769128E+01  0.22453867524E+01  0.24940966789E+01  0.39414574888E+01  0.51100000000E-03 0.  1.
         12    1    3    3    0    0 -0.37367703827E+02 -0.13366220853E+02  0.42910533150E+00  0.39688603913E+02  0.00000000000E+00 0. -1.
</event>
<event>
 7    1  0.8986500E-014  0.5052886E+02  0.7816164E-02  0.1300439E+00
        -11   -1    0    0    0    0  0.00000000000E+00  0.00000000000E+00  0.45593999997E+02  0.45594000000E+02  0.51100000000E-03 0. -1.
         11   -1    0    0    0    0 -0.00000000000E+00 -0.00000000000E+00 -0.45593999997E+02  0.45594000000E+02  0.51100000000E-03 0.  1.
    9900012    2    1    2    0    0 -0.84547254343E+01 -0.29622052088E+02 -0.26537097331E+02  0.50528857278E+02  0.29999992183E+02 0.  0.
         12    1    1    2    0    0  0.84547254343E+01  0.29622052088E+02  0.26537097331E+02  0.40659142722E+02  0.00000000000E+00 0. -1.
         11    1    3    3    0    0 -0.13553962074E+02 -0.13250036438E+02 -0.14803844898E+02  0.24050513041E+02  0.51100000000E-03 0. -1.
        -11    1    3    3    0    0 -0.57775103555E+01 -0.82214908400E+01 -0.38150631846E+01  0.10748360103E+02  0.51100000000E-03 0.  1.
         12    1    3    3    0    0  0.10876746995E+02 -0.81505248100E+01 -0.79181892491E+01  0.15729984134E+02  0.00000000000E+00 0. -1.
</event>
<event>
 7    1  0.8986500E-014  0.5052886E+02  0.7816164E-02  0.1300439E+00
        -11   -1    0    0    0    0  0.00000000000E+00  0.00000000000E+00  0.45593999997E+02  0.45594000000E+02  0.51100000000E-03 0. -1.
         11   -1    0    0    0    0 -0.00000000000E+00 -0.00000000000E+00 -0.45593999997E+02  0.45594000000E+02  0.51100000000E-03 0.  1.
    9900012    2    1    2    0    0 -0.31047910856E+02  0.21729910203E+02 -0.14731043020E+02  0.50528863334E+02  0.30000010591E+02 0.  0.
         12    1    1    2    0    0  0.31047910856E+02 -0.21729910203E+02  0.14731043020E+02  0.40659136666E+02  0.00000000000E+00 0. -1.
         11    1    3    3    0    0 -0.12310462781E+02  0.36938510218E+01 -0.11198306984E+02  0.17046821077E+02  0.51100000000E-03 0.  1.
        -11    1    3    3    0    0  0.38507064353E+00  0.10975644322E+01 -0.75354076519E+01  0.76246505379E+01  0.51100000000E-03 0. -1.
         12    1    3    3    0    0 -0.19122518718E+02  0.16938494749E+02  0.40026716160E+01  0.25857391720E+02  0.00000000000E+00 0. -1.
</event>
<event>
 7    1  0.8986500E-014  0.5052886E+02  0.7816164E-02  0.1300439E+00
        -11   -1    0    0    0    0  0.00000000000E+00  0.00000000000E+00  0.45593999997E+02  0.45594000000E+02  0.51100000000E-03 0. -1.
         11   -1    0    0    0    0 -0.00000000000E+00 -0.00000000000E+00 -0.45593999997E+02  0.45594000000E+02  0.51100000000E-03 0.  1.
    9900012    2    1    2    0    0  0.29381768180E+02  0.27925214153E+01 -0.27965678276E+02  0.50528860330E+02  0.30000001460E+02 0.  0.
         12    1    1    2    0    0 -0.29381768180E+02 -0.27925214153E+01  0.27965678276E+02  0.40659139670E+02  0.00000000000E+00 0. -1.
         11    1    3    3    0    0  0.24291968877E+01  0.93028075686E+01 -0.25192293490E+01  0.99393029409E+01  0.51100000000E-03 0. -1.
        -11    1    3    3    0    0  0.20041626206E+01  0.36343551027E+01 -0.11231378881E+01  0.42996097264E+01  0.51100000000E-03 0.  1.
         12    1    3    3    0    0  0.24948408672E+02 -0.10144641256E+02 -0.24323311039E+02  0.36289947663E+02  0.00000000000E+00 0. -1.
</event>
<event>
 7    1  0.8986500E-014  0.5052885E+02  0.7816164E-02  0.1300439E+00
        -11   -1    0    0    0    0  0.00000000000E+00  0.00000000000E+00  0.45593999997E+02  0.45594000000E+02  0.51100000000E-03 0. -1.
         11   -1    0    0    0    0 -0.00000000000E+00 -0.00000000000E+00 -0.45593999997E+02  0.45594000000E+02  0.51100000000E-03 0.  1.
    9900012    2    1    2    0    0  0.77239975552E+01 -0.15902276122E+02 -0.36614530707E+02  0.50528851177E+02  0.29999973639E+02 0.  0.
         12    1    1    2    0    0 -0.77239975552E+01  0.15902276122E+02  0.36614530707E+02  0.40659148823E+02  0.00000000000E+00 0. -1.
         11    1    3    3    0    0  0.62706968259E+01  0.31924691787E+01 -0.62415724748E+01  0.94058878028E+01  0.51100000000E-03 0.  1.
        -11    1    3    3    0    0  0.82931080751E+01 -0.49175546229E+01 -0.40606258602E+01  0.10461676140E+02  0.51100000000E-03 0. -1.
         12    1    3    3    0    0 -0.68398073459E+01 -0.14177190678E+02 -0.26312332372E+02  0.30661287235E+02  0.00000000000E+00 0. -1.
</event>
<event>
 7    1  0.8986500E-014  0.5052885E+02  0.7816164E-02  0.1300439E+00
        -11   -1    0    0    0    0  0.00000000000E+00  0.00000000000E+00  0.45593999997E+02  0.45594000000E+02  0.51100000000E-03 0. -1.
         11   -1    0    0    0    0 -0.00000000000E+00 -0.00000000000E+00 -0.45593999997E+02  0.45594000000E+02  0.51100000000E-03 0.  1.
    9900012    2    1    2    0    0  0.13263831184E+02  0.21874711980E+02 -0.31602758961E+02  0.50528848314E+02  0.29999964935E+02 0.  0.
         12    1    1    2    0    0 -0.13263831184E+02 -0.21874711980E+02  0.31602758961E+02  0.40659151686E+02  0.00000000000E+00 0. -1.
         11    1    3    3    0    0  0.25214904787E+00 -0.14881506366E+01  0.24218629417E+01  0.28536979218E+01  0.51100000000E-03 0. -1.
        -11    1    3    3    0    0 -0.10671926843E+01  0.58590947721E+01 -0.20739022513E+02  0.21577185795E+02  0.51100000000E-03 0.  1.
        -12    1    3    3    0    0  0.14078874820E+02  0.17503767844E+02 -0.13285599390E+02  0.26097964597E+02  0.00000000000E+00 0.  1.
</event>
<event>
 7    1  0.8986500E-014  0.5052887E+02  0.7816164E-02  0.1300439E+00
        -11   -1    0    0    0    0  0.00000000000E+00  0.00000000000E+00  0.45593999997E+02  0.45594000000E+02  0.51100000000E-03 0. -1.
         11   -1    0    0    0    0 -0.00000000000E+00 -0.00000000000E+00 -0.45593999997E+02  0.45594000000E+02  0.51100000000E-03 0.  1.
    9900012    2    1    2    0    0  0.16015138821E+02 -0.25022327113E+02 -0.27759025879E+02  0.50528867652E+02  0.30000023714E+02 0.  0.
         12    1    1    2    0    0 -0.16015138821E+02  0.25022327113E+02  0.27759025879E+02  0.40659132348E+02  0.00000000000E+00 0. -1.
         11    1    3    3    0    0 -0.40462853769E+01 -0.72213220990E+01  0.13264344402E+01  0.83832778073E+01  0.51100000000E-03 0. -1.
        -11    1    3    3    0    0  0.26759154020E+01 -0.10648211389E+02 -0.64971311297E+01  0.12757650340E+02  0.51100000000E-03 0.  1.
         12    1    3    3    0    0  0.17385508795E+02 -0.71527936242E+01 -0.22588329190E+02  0.29387939504E+02  0.00000000000E+00 0. -1.
</event>
<event>
 7    1  0.8986500E-014  0.5052886E+02  0.7816164E-02  0.1300439E+00
        -11   -1    0    0    0    0  0.00000000000E+00  0.00000000000E+00  0.45593999997E+02  0.45594000000E+02  0.51100000000E-03 0. -1.
         11   -1    0    0    0    0 -0.00000000000E+00 -0.00000000000E+00 -0.45593999997E+02  0.45594000000E+02  0.51100000000E-03 0.  1.
    9900012    2    1    2    0    0  0.15215011327E+02 -0.27457137024E+01 -0.37604921477E+02  0.50528860404E+02  0.30000001683E+02 0.  0.
         12    1    1    2    0    0 -0.15215011327E+02  0.27457137024E+01  0.37604921477E+02  0.40659139596E+02  0.00000000000E+00 0. -1.
         11    1    3    3    0    0  0.11128096203E+02  0.85613714814E+01 -0.15459037033E+02  0.20883329069E+02  0.51100000000E-03 0. -1.
        -11    1    3    3    0    0  0.54633786992E+01  0.22448386960E+01 -0.49383090584E+01  0.76990067021E+01  0.51100000000E-03 0.  1.
         12    1    3    3    0    0 -0.13764635751E+01 -0.13551923880E+02 -0.17207575385E+02  0.21946524633E+02  0.00000000000E+00 0. -1.
</event>
<event>
 7    1  0.8986500E-014  0.5052886E+02  0.7816164E-02  0.1300439E+00
        -11   -1    0    0    0    0  0.00000000000E+00  0.00000000000E+00  0.45593999997E+02  0.45594000000E+02  0.51100000000E-03 0. -1.
         11   -1    0    0    0    0 -0.00000000000E+00 -0.00000000000E+00 -0.45593999997E+02  0.45594000000E+02  0.51100000000E-03 0.  1.
    9900012    2    1    2    0    0 -0.13534983203E+02  0.27310341132E+01  0.38242793985E+02  0.50528860690E+02  0.30000002554E+02 0.  0.
        -12    1    1    2    0    0  0.13534983203E+02 -0.27310341132E+01 -0.38242793985E+02  0.40659139310E+02  0.00000000000E+00 0.  1.
         11    1    3    3    0    0 -0.20608818956E+02  0.16278728913E+01  0.23315907000E+02  0.31160951661E+02  0.51100000000E-03 0. -1.
        -11    1    3    3    0    0 -0.10201941148E+01 -0.18962153365E+01  0.80457718780E+01  0.83289179374E+01  0.51100000000E-03 0.  1.
        -12    1    3    3    0    0  0.80940298669E+01  0.29993765584E+01  0.68811151063E+01  0.11038991092E+02  0.00000000000E+00 0.  1.
</event>
<event>
 7    1  0.8986500E-014  0.5052886E+02  0.7816164E-02  0.1300439E+00
        -11   -1    0    0    0    0  0.00000000000E+00  0.00000000000E+00  0.45593999997E+02  0.45594000000E+02  0.51100000000E-03 0. -1.
         11   -1    0    0    0    0 -0.00000000000E+00 -0.00000000000E+00 -0.45593999997E+02  0.45594000000E+02  0.51100000000E-03 0.  1.
    9900012    2    1    2    0    0  0.55590222246E+01  0.71098013923E+01 -0.39644840461E+02  0.50528863522E+02  0.30000011163E+02 0.  0.
         12    1    1    2    0    0 -0.55590222246E+01 -0.71098013923E+01  0.39644840461E+02  0.40659136478E+02  0.00000000000E+00 0. -1.
         11    1    3    3    0    0  0.54250223016E+01  0.40303183984E+01 -0.10250385302E+02  0.12277814646E+02  0.51100000000E-03 0. -1.
        -11    1    3    3    0    0 -0.96531612874E+01  0.55204943509E+01 -0.24775810043E+02  0.27156953884E+02  0.51100000000E-03 0.  1.
         12    1    3    3    0    0  0.97871612104E+01 -0.24410113570E+01 -0.46186451157E+01  0.11094094993E+02  0.00000000000E+00 0. -1.
</event>
<event>
 7    1  0.8986500E-014  0.5052886E+02  0.7816164E-02  0.1300439E+00
        -11   -1    0    0    0    0  0.00000000000E+00  0.00000000000E+00  0.45593999997E+02  0.45594000000E+02  0.51100000000E-03 0. -1.
         11   -1    0    0    0    0 -0.00000000000E+00 -0.00000000000E+00 -0.45593999997E+02  0.45594000000E+02  0.51100000000E-03 0.  1.
    9900012    2    1    2    0    0 -0.15429406705E+02  0.11662974185E+02  0.35764145035E+02  0.50528860459E+02  0.30000001852E+02 0.  0.
        -12    1    1    2    0    0  0.15429406705E+02 -0.11662974185E+02 -0.35764145035E+02  0.40659139541E+02  0.00000000000E+00 0.  1.
         11    1    3    3    0    0 -0.88799721462E+01  0.12376161480E+02  0.29232817198E+02  0.32963326287E+02  0.51100000000E-03 0. -1.
        -11    1    3    3    0    0  0.73947104615E+00 -0.32804246101E+01  0.88745497339E+01  0.94902916863E+01  0.51100000000E-03 0.  1.
         12    1    3    3    0    0 -0.72889056047E+01  0.25672373151E+01 -0.23432218973E+01  0.80752424859E+01  0.00000000000E+00 0. -1.
</event>
<event>
 7    1  0.8986500E-014  0.5052883E+02  0.7816164E-02  0.1300439E+00
        -11   -1    0    0    0    0  0.00000000000E+00  0.00000000000E+00  0.45593999997E+02  0.45594000000E+02  0.51100000000E-03 0. -1.
         11   -1    0    0    0    0 -0.00000000000E+00 -0.00000000000E+00 -0.45593999997E+02  0.45594000000E+02  0.51100000000E-03 0.  1.
    9900012    2    1    2    0    0 -0.74198866382E+01 -0.13709596942E+01 -0.39952898031E+02  0.50528827489E+02  0.29999901636E+02 0.  0.
         12    1    1    2    0    0  0.74198866382E+01  0.13709596942E+01  0.39952898031E+02  0.40659172511E+02  0.00000000000E+00 0. -1.
         11    1    3    3    0    0 -0.53345427591E+01 -0.20515427580E+01 -0.57016863783E+01  0.80731283870E+01  0.51100000000E-03 0.  1.
        -11    1    3    3    0    0 -0.10281603524E+02 -0.78116551147E+01 -0.21509484056E+02  0.25087670901E+02  0.51100000000E-03 0. -1.
         12    1    3    3    0    0  0.81962596444E+01  0.84922381784E+01 -0.12741727597E+02  0.17368028201E+02  0.00000000000E+00 0. -1.
</event>
<event>
 7    1  0.8986500E-014  0.5052878E+02  0.7816164E-02  0.1300439E+00
        -11   -1    0    0    0    0  0.00000000000E+00  0.00000000000E+00  0.45593999997E+02  0.45594000000E+02  0.51100000000E-03 0. -1.
         11   -1    0    0    0    0 -0.00000000000E+00 -0.00000000000E+00 -0.45593999997E+02  0.45594000000E+02  0.51100000000E-03 0.  1.
    9900012    2    1    2    0    0 -0.18254594487E+01  0.18131900263E+02 -0.36346584566E+02  0.50528778181E+02  0.29999751757E+02 0.  0.
         12    1    1    2    0    0  0.18254594487E+01 -0.18131900263E+02  0.36346584566E+02  0.40659221819E+02  0.00000000000E+00 0. -1.
         11    1    3    3    0    0  0.74273837413E+01  0.36893049140E+01 -0.16383865848E+02  0.18363225762E+02  0.51100000000E-03 0. -1.
        -11    1    3    3    0    0 -0.47728561783E+01 -0.31582245232E+01 -0.98126961964E+01  0.11359733498E+02  0.51100000000E-03 0.  1.
         12    1    3    3    0    0 -0.44799870117E+01  0.17600819872E+02 -0.10150022521E+02  0.20805818921E+02  0.00000000000E+00 0. -1.
</event>
<event>
 7    1  0.8986500E-014  0.5052886E+02  0.7816164E-02  0.1300439E+00
        -11   -1    0    0    0    0  0.00000000000E+00  0.00000000000E+00  0.45593999997E+02  0.45594000000E+02  0.51100000000E-03 0. -1.
         11   -1    0    0    0    0 -0.00000000000E+00 -0.00000000000E+00 -0.45593999997E+02  0.45594000000E+02  0.51100000000E-03 0.  1.
    9900012    2    1    2    0    0  0.22843747085E+02 -0.21759729184E+02  0.25648446154E+02  0.50528863448E+02  0.30000010937E+02 0.  0.
        -12    1    1    2    0    0 -0.22843747085E+02  0.21759729184E+02 -0.25648446154E+02  0.40659136552E+02  0.00000000000E+00 0.  1.
         11    1    3    3    0    0 -0.78188165328E+00 -0.51710748252E+01  0.49813352025E+00  0.52535217743E+01  0.51100000000E-03 0. -1.
        -11    1    3    3    0    0  0.17308348873E+02 -0.11480006368E+02  0.29485913560E+02  0.36066446812E+02  0.51100000000E-03 0.  1.
         12    1    3    3    0    0  0.63172798652E+01 -0.51086479902E+01 -0.43356009260E+01  0.92088948617E+01  0.00000000000E+00 0. -1.
</event>
<event>
 7    1  0.8986500E-014  0.5052888E+02  0.7816164E-02  0.1300439E+00
        -11   -1    0    0    0    0  0.00000000000E+00  0.00000000000E+00  0.45593999997E+02  0.45594000000E+02  0.51100000000E-03 0. -1.
         11   -1    0    0    0    0 -0.00000000000E+00 -0.00000000000E+00 -0.45593999997E+02  0.45594000000E+02  0.51100000000E-03 0.  1.
    9900012    2    1    2    0    0 -0.39274376470E+02 -0.31416413763E+01  0.10040793991E+02  0.50528879232E+02  0.30000058913E+02 0.  0.
        -12    1    1    2    0    0  0.39274376470E+02  0.31416413763E+01 -0.10040793991E+02  0.40659120768E+02  0.00000000000E+00 0.  1.
         11    1    3    3    0    0 -0.13278650618E+02  0.12416361731E+01 -0.75497592931E+01  0.15325243498E+02  0.51100000000E-03 0. -1.
        -11    1    3    3    0    0 -0.36555156492E+01  0.24437117420E-01 -0.28256844999E+01  0.46203771478E+01  0.51100000000E-03 0.  1.
         12    1    3    3    0    0 -0.22340210203E+02 -0.44077146668E+01  0.20416237784E+02  0.30583258586E+02  0.00000000000E+00 0. -1.
</event>
<event>
 7    1  0.8986500E-014  0.5052886E+02  0.7816164E-02  0.1300439E+00
        -11   -1    0    0    0    0  0.00000000000E+00  0.00000000000E+00  0.45593999997E+02  0.45594000000E+02  0.51100000000E-03 0. -1.
         11   -1    0    0    0    0 -0.00000000000E+00 -0.00000000000E+00 -0.45593999997E+02  0.45594000000E+02  0.51100000000E-03 0.  1.
    9900012    2    1    2    0    0 -0.41406084103E+01 -0.40339090522E+02 -0.29628483005E+01  0.50528864099E+02  0.30000012916E+02 0.  0.
        -12    1    1    2    0    0  0.41406084103E+01  0.40339090522E+02  0.29628483005E+01  0.40659135901E+02  0.00000000000E+00 0.  1.
         11    1    3    3    0    0 -0.14944342776E+02 -0.17097456260E+02  0.52969722489E+00  0.22714245992E+02  0.51100000000E-03 0. -1.
        -11    1    3    3    0    0  0.10089996133E+00  0.10268800964E+01 -0.41780446545E+00  0.11132045486E+01  0.51100000000E-03 0.  1.
         12    1    3    3    0    0  0.10702834404E+02 -0.24268514358E+02 -0.30747410600E+01  0.26701413559E+02  0.00000000000E+00 0. -1.
</event>
<event>
 7    1  0.8986500E-014  0.5052886E+02  0.7816164E-02  0.1300439E+00
        -11   -1    0    0    0    0  0.00000000000E+00  0.00000000000E+00  0.45593999997E+02  0.45594000000E+02  0.51100000000E-03 0. -1.
         11   -1    0    0    0    0 -0.00000000000E+00 -0.00000000000E+00 -0.45593999997E+02  0.45594000000E+02  0.51100000000E-03 0.  1.
    9900012    2    1    2    0    0  0.34539013035E+02  0.19961496839E+02  0.78587877644E+01  0.50528864217E+02  0.30000013273E+02 0.  0.
        -12    1    1    2    0    0 -0.34539013035E+02 -0.19961496839E+02 -0.78587877644E+01  0.40659135783E+02  0.00000000000E+00 0.  1.
         11    1    3    3    0    0  0.45043558572E+01  0.17195104404E+01  0.70429752438E+00  0.48725735609E+01  0.51100000000E-03 0. -1.
        -11    1    3    3    0    0  0.74754138999E+00 -0.55457075257E+01  0.55655834169E+01  0.78923639755E+01  0.51100000000E-03 0.  1.
        -12    1    3    3    0    0  0.29287115788E+02  0.23787693925E+02  0.15889068232E+01  0.37763926680E+02  0.00000000000E+00 0.  1.
</event>
<event>
 7    1  0.8986500E-014  0.5052885E+02  0.7816164E-02  0.1300439E+00
        -11   -1    0    0    0    0  0.00000000000E+00  0.00000000000E+00  0.45593999997E+02  0.45594000000E+02  0.51100000000E-03 0. -1.
         11   -1    0    0    0    0 -0.00000000000E+00 -0.00000000000E+00 -0.45593999997E+02  0.45594000000E+02  0.51100000000E-03 0.  1.
    9900012    2    1    2    0    0 -0.90690267846E+01 -0.19090173398E+02 -0.34734481727E+02  0.50528853575E+02  0.29999980926E+02 0.  0.
         12    1    1    2    0    0  0.90690267846E+01  0.19090173398E+02  0.34734481727E+02  0.40659146425E+02  0.00000000000E+00 0. -1.
         11    1    3    3    0    0 -0.90996196362E+01 -0.10253856070E+02 -0.54265785128E+01  0.14744232650E+02  0.51100000000E-03 0. -1.
        -11    1    3    3    0    0 -0.12458396823E+01 -0.14356673670E+02 -0.24148870043E+02  0.28121773059E+02  0.51100000000E-03 0.  1.
         12    1    3    3    0    0  0.12764325340E+01  0.55203563415E+01 -0.51590331708E+01  0.76628478654E+01  0.00000000000E+00 0. -1.
</event>
<event>
 7    1  0.8986500E-014  0.5052886E+02  0.7816164E-02  0.1300439E+00
        -11   -1    0    0    0    0  0.00000000000E+00  0.00000000000E+00  0.45593999997E+02  0.45594000000E+02  0.51100000000E-03 0. -1.
         11   -1    0    0    0    0 -0.00000000000E+00 -0.00000000000E+00 -0.45593999997E+02  0.45594000000E+02  0.51100000000E-03 0.  1.
    9900012    2    1    2    0    0  0.28803584056E+02  0.27705622039E+02  0.74778408792E+01  0.50528855257E+02  0.29999986038E+02 0.  0.
        -12    1    1    2    0    0 -0.28803584056E+02 -0.27705622039E+02 -0.74778408792E+01  0.40659144743E+02  0.00000000000E+00 0.  1.
         11    1    3    3    0    0  0.24034532352E+01 -0.13937294548E+01  0.38075140864E+00  0.28042897752E+01  0.51100000000E-03 0.  1.
        -11    1    3    3    0    0 -0.12033368529E+01 -0.95134421289E+00 -0.49473581628E+01  0.51797131624E+01  0.51100000000E-03 0. -1.
         12    1    3    3    0    0  0.27603467674E+02  0.30050695706E+02  0.12044447633E+02  0.42544852319E+02  0.00000000000E+00 0. -1.
</event>
<event>
 7    1  0.8986500E-014  0.5052883E+02  0.7816164E-02  0.1300439E+00
        -11   -1    0    0    0    0  0.00000000000E+00  0.00000000000E+00  0.45593999997E+02  0.45594000000E+02  0.51100000000E-03 0. -1.
         11   -1    0    0    0    0 -0.00000000000E+00 -0.00000000000E+00 -0.45593999997E+02  0.45594000000E+02  0.51100000000E-03 0.  1.
    9900012    2    1    2    0    0  0.39118857163E+01  0.18031744800E+02 -0.36231495062E+02  0.50528832463E+02  0.29999916756E+02 0.  0.
         12    1    1    2    0    0 -0.39118857163E+01 -0.18031744800E+02  0.36231495062E+02  0.40659167537E+02  0.00000000000E+00 0. -1.
         11    1    3    3    0    0  0.57384662646E+01  0.35979686747E+01  0.23222428968E+01  0.71601805834E+01  0.51100000000E-03 0. -1.
        -11    1    3    3    0    0  0.18287745503E+01  0.12608995992E+01  0.24229455735E+00  0.22345001832E+01  0.51100000000E-03 0.  1.
        -12    1    3    3    0    0 -0.36553550986E+01  0.13172876526E+02 -0.38796032516E+02  0.41134151697E+02  0.00000000000E+00 0.  1.
</event>
<event>
 7    1  0.8986500E-014  0.5052885E+02  0.7816164E-02  0.1300439E+00
        -11   -1    0    0    0    0  0.00000000000E+00  0.00000000000E+00  0.45593999997E+02  0.45594000000E+02  0.51100000000E-03 0. -1.
         11   -1    0    0    0    0 -0.00000000000E+00 -0.00000000000E+00 -0.45593999997E+02  0.45594000000E+02  0.51100000000E-03 0.  1.
    9900012    2    1    2    0    0 -0.76766663849E+01 -0.59788359425E+01  0.39477699330E+02  0.50528850594E+02  0.29999971866E+02 0.  0.
        -12    1    1    2    0    0  0.76766663849E+01  0.59788359425E+01 -0.39477699330E+02  0.40659149406E+02  0.00000000000E+00 0.  1.
         11    1    3    3    0    0 -0.27458717356E+01 -0.37222203490E+01  0.13692083892E+02  0.14452262712E+02  0.51100000000E-03 0. -1.
        -11    1    3    3    0    0 -0.13071173469E+02 -0.83079040539E+00  0.24405398330E+02  0.27697820428E+02  0.51100000000E-03 0.  1.
        -12    1    3    3    0    0  0.81403788197E+01 -0.14258251881E+01  0.13802171078E+01  0.83787674547E+01  0.00000000000E+00 0.  1.
</event>
<event>
 7    1  0.8986500E-014  0.5052883E+02  0.7816164E-02  0.1300439E+00
        -11   -1    0    0    0    0  0.00000000000E+00  0.00000000000E+00  0.45593999997E+02  0.45594000000E+02  0.51100000000E-03 0.  1.
         11   -1    0    0    0    0 -0.00000000000E+00 -0.00000000000E+00 -0.45593999997E+02  0.45594000000E+02  0.51100000000E-03 0. -1.
    9900012    2    1    2    0    0  0.18981257835E+02 -0.29126186254E+02 -0.21084234897E+02  0.50528833310E+02  0.29999919329E+02 0.  0.
         12    1    1    2    0    0 -0.18981257835E+02  0.29126186254E+02  0.21084234897E+02  0.40659166690E+02  0.00000000000E+00 0. -1.
         11    1    3    3    0    0  0.16080709187E+02 -0.57584737703E+01 -0.10235989705E+02  0.19912928304E+02  0.51100000000E-03 0. -1.
        -11    1    3    3    0    0  0.69752227738E+01 -0.10276170393E+02  0.10472158866E+01  0.12463950901E+02  0.51100000000E-03 0.  1.
         12    1    3    3    0    0 -0.40746741257E+01 -0.13091542091E+02 -0.11895461078E+02  0.18151954104E+02  0.00000000000E+00 0. -1.
</event>
<event>
 7    1  0.8986500E-014  0.5052886E+02  0.7816164E-02  0.1300439E+00
        -11   -1    0    0    0    0  0.00000000000E+00  0.00000000000E+00  0.45593999997E+02  0.45594000000E+02  0.51100000000E-03 0. -1.
         11   -1    0    0    0    0 -0.00000000000E+00 -0.00000000000E+00 -0.45593999997E+02  0.45594000000E+02  0.51100000000E-03 0.  1.
    9900012    2    1    2    0    0 -0.13137268481E+02  0.16506251286E+02 -0.34758040436E+02  0.50528861672E+02  0.30000005537E+02 0.  0.
         12    1    1    2    0    0  0.13137268481E+02 -0.16506251286E+02  0.34758040436E+02  0.40659138328E+02  0.00000000000E+00 0. -1.
         11    1    3    3    0    0 -0.56861617053E+01  0.34864682241E+01 -0.26399238316E+01  0.71733600017E+01  0.51100000000E-03 0. -1.
        -11    1    3    3    0    0  0.63288241535E+01  0.13803792930E+02 -0.14736467409E+02  0.21160391924E+02  0.51100000000E-03 0.  1.
         12    1    3    3    0    0 -0.13779930929E+02 -0.78400986781E+00 -0.17381649195E+02  0.22195109746E+02  0.00000000000E+00 0. -1.
</event>
<event>
 7    1  0.8986500E-014  0.5052886E+02  0.7816164E-02  0.1300439E+00
        -11   -1    0    0    0    0  0.00000000000E+00  0.00000000000E+00  0.45593999997E+02  0.45594000000E+02  0.51100000000E-03 0. -1.
         11   -1    0    0    0    0 -0.00000000000E+00 -0.00000000000E+00 -0.45593999997E+02  0.45594000000E+02  0.51100000000E-03 0.  1.
    9900012    2    1    2    0    0  0.11848795274E+02 -0.86463770089E+01 -0.37921128461E+02  0.50528858733E+02  0.29999996605E+02 0.  0.
         12    1    1    2    0    0 -0.11848795274E+02  0.86463770089E+01  0.37921128461E+02  0.40659141267E+02  0.00000000000E+00 0. -1.
         11    1    3    3    0    0 -0.29285167592E+01 -0.89805445035E+01 -0.91588903600E+01  0.13157190539E+02  0.51100000000E-03 0. -1.
        -11    1    3    3    0    0  0.13964723731E+02  0.51856038802E+01 -0.28831218144E+02  0.32452166899E+02  0.51100000000E-03 0.  1.
         12    1    3    3    0    0  0.81258830177E+00 -0.48514363857E+01  0.68980043302E-01  0.49195012957E+01  0.00000000000E+00 0. -1.
</event>
<event>
 7    1  0.8986500E-014  0.5052884E+02  0.7816164E-02  0.1300439E+00
        -11   -1    0    0    0    0  0.00000000000E+00  0.00000000000E+00  0.45593999997E+02  0.45594000000E+02  0.51100000000E-03 0. -1.
         11   -1    0    0    0    0 -0.00000000000E+00 -0.00000000000E+00 -0.45593999997E+02  0.45594000000E+02  0.51100000000E-03 0.  1.
    9900012    2    1    2    0    0 -0.12939950739E+02  0.23191260192E+02  0.30787825467E+02  0.50528842712E+02  0.29999947906E+02 0.  0.
        -12    1    1    2    0    0  0.12939950739E+02 -0.23191260192E+02 -0.30787825467E+02  0.40659157288E+02  0.00000000000E+00 0.  1.
         11    1    3    3    0    0 -0.46750089835E+01  0.66917621600E+01  0.48031039871E+01  0.94712828050E+01  0.51100000000E-03 0. -1.
        -11    1    3    3    0    0 -0.14452621563E+02  0.21386935025E+01  0.18904762968E+02  0.23892307195E+02  0.51100000000E-03 0.  1.
        -12    1    3    3    0    0  0.61876798076E+01  0.14360804529E+02  0.70799585115E+01  0.17165252711E+02  0.00000000000E+00 0.  1.
</event>
<event>
 7    1  0.8986500E-014  0.5052886E+02  0.7816164E-02  0.1300439E+00
        -11   -1    0    0    0    0  0.00000000000E+00  0.00000000000E+00  0.45593999997E+02  0.45594000000E+02  0.51100000000E-03 0.  1.
         11   -1    0    0    0    0 -0.00000000000E+00 -0.00000000000E+00 -0.45593999997E+02  0.45594000000E+02  0.51100000000E-03 0. -1.
    9900012    2    1    2    0    0 -0.12637153224E+02  0.37587231038E+02 -0.89815589132E+01  0.50528856143E+02  0.29999988731E+02 0.  0.
         12    1    1    2    0    0  0.12637153224E+02 -0.37587231038E+02  0.89815589132E+01  0.40659143857E+02  0.00000000000E+00 0. -1.
         11    1    3    3    0    0 -0.18157417103E+01 -0.29657096200E+01 -0.40867368126E+00  0.35013377368E+01  0.51100000000E-03 0. -1.
        -11    1    3    3    0    0 -0.67689444004E+00  0.62150722275E+01 -0.93106566351E+01  0.11214884579E+02  0.51100000000E-03 0.  1.
        -12    1    3    3    0    0 -0.10144517074E+02  0.34337868430E+02  0.73777140320E+00  0.35812633827E+02  0.00000000000E+00 0.  1.
</event>
<event>
 7    1  0.8986500E-014  0.5052892E+02  0.7816164E-02  0.1300439E+00
        -11   -1    0    0    0    0  0.00000000000E+00  0.00000000000E+00  0.45593999997E+02  0.45594000000E+02  0.51100000000E-03 0. -1.
         11   -1    0    0    0    0 -0.00000000000E+00 -0.00000000000E+00 -0.45593999997E+02  0.45594000000E+02  0.51100000000E-03 0.  1.
    9900012    2    1    2    0    0  0.89139325284E+01  0.20496346071E+02 -0.33964721727E+02  0.50528920849E+02  0.30000185413E+02 0.  0.
         12    1    1    2    0    0 -0.89139325284E+01 -0.20496346071E+02  0.33964721727E+02  0.40659079151E+02  0.00000000000E+00 0. -1.
         11    1    3    3    0    0 -0.34931956573E+01  0.14153704753E+02 -0.57571128734E+01  0.15673995121E+02  0.51100000000E-03 0. -1.
        -11    1    3    3    0    0 -0.41523429963E+00  0.75020713255E+01 -0.11966838942E+02  0.14130064693E+02  0.51100000000E-03 0.  1.
         12    1    3    3    0    0  0.12822362485E+02 -0.11594300074E+01 -0.16240769912E+02  0.20724861036E+02  0.00000000000E+00 0. -1.
</event>
<event>
 7    1  0.8986500E-014  0.5052886E+02  0.7816164E-02  0.1300439E+00
        -11   -1    0    0    0    0  0.00000000000E+00  0.00000000000E+00  0.45593999997E+02  0.45594000000E+02  0.51100000000E-03 0. -1.
         11   -1    0    0    0    0 -0.00000000000E+00 -0.00000000000E+00 -0.45593999997E+02  0.45594000000E+02  0.51100000000E-03 0.  1.
    9900012    2    1    2    0    0  0.36698509638E+02 -0.41794723784E+01  0.16997553098E+02  0.50528863138E+02  0.30000009994E+02 0.  0.
        -12    1    1    2    0    0 -0.36698509638E+02  0.41794723784E+01 -0.16997553098E+02  0.40659136862E+02  0.00000000000E+00 0.  1.
         11    1    3    3    0    0  0.20882089095E+02 -0.67670685018E+01  0.95006020235E+01  0.23918952739E+02  0.51100000000E-03 0. -1.
        -11    1    3    3    0    0  0.18818066706E+02 -0.15603220571E+01  0.18277916254E+01  0.18970900399E+02  0.51100000000E-03 0.  1.
         12    1    3    3    0    0 -0.30016461620E+01  0.41479181805E+01  0.56691594493E+01  0.76390099997E+01  0.00000000000E+00 0. -1.
</event>
<event>
 7    1  0.8986500E-014  0.5052888E+02  0.7816164E-02  0.1300439E+00
        -11   -1    0    0    0    0  0.00000000000E+00  0.00000000000E+00  0.45593999997E+02  0.45594000000E+02  0.51100000000E-03 0. -1.
         11   -1    0    0    0    0 -0.00000000000E+00 -0.00000000000E+00 -0.45593999997E+02  0.45594000000E+02  0.51100000000E-03 0.  1.
    9900012    2    1    2    0    0  0.30356339300E+02 -0.10600588554E+02  0.24885417417E+02  0.50528882777E+02  0.30000069688E+02 0.  0.
        -12    1    1    2    0    0 -0.30356339300E+02  0.10600588554E+02 -0.24885417417E+02  0.40659117223E+02  0.00000000000E+00 0.  1.
         11    1    3    3    0    0  0.18640801595E+01  0.92918302826E+00  0.20804908663E+01  0.29439120991E+01  0.51100000000E-03 0. -1.
        -11    1    3    3    0    0  0.59222971578E+01 -0.13220224655E+02  0.20121022140E+02  0.24793214309E+02  0.51100000000E-03 0.  1.
        -12    1    3    3    0    0  0.22569961982E+02  0.16904530733E+01  0.26839044111E+01  0.22791756369E+02  0.00000000000E+00 0.  1.
</event>
<event>
 7    1  0.8986500E-014  0.5052886E+02  0.7816164E-02  0.1300439E+00
        -11   -1    0    0    0    0  0.00000000000E+00  0.00000000000E+00  0.45593999997E+02  0.45594000000E+02  0.51100000000E-03 0. -1.
         11   -1    0    0    0    0 -0.00000000000E+00 -0.00000000000E+00 -0.45593999997E+02  0.45594000000E+02  0.51100000000E-03 0.  1.
    9900012    2    1    2    0    0 -0.10555559570E+02  0.24613143804E+02  0.30593114084E+02  0.50528864309E+02  0.30000013555E+02 0.  0.
        -12    1    1    2    0    0  0.10555559570E+02 -0.24613143804E+02 -0.30593114084E+02  0.40659135691E+02  0.00000000000E+00 0.  1.
         11    1    3    3    0    0  0.42698680455E+01  0.30602714012E+01  0.10948919685E+01  0.53661739497E+01  0.51100000000E-03 0. -1.
        -11    1    3    3    0    0  0.52869012556E+01  0.33930773786E+01  0.98831132546E+01  0.11710688573E+02  0.51100000000E-03 0.  1.
         12    1    3    3    0    0 -0.20112328871E+02  0.18159795025E+02  0.19615108860E+02  0.33452001787E+02  0.00000000000E+00 0. -1.
</event>
<event>
 7    1  0.8986500E-014  0.5052886E+02  0.7816164E-02  0.1300439E+00
        -11   -1    0    0    0    0  0.00000000000E+00  0.00000000000E+00  0.45593999997E+02  0.45594000000E+02  0.51100000000E-03 0. -1.
         11   -1    0    0    0    0 -0.00000000000E+00 -0.00000000000E+00 -0.45593999997E+02  0.45594000000E+02  0.51100000000E-03 0.  1.
    9900012    2    1    2    0    0 -0.48116198870E+01 -0.23111922625E+02 -0.33103665028E+02  0.50528864598E+02  0.30000014432E+02 0.  0.
         12    1    1    2    0    0  0.48116198870E+01  0.23111922625E+02  0.33103665028E+02  0.40659135402E+02  0.00000000000E+00 0. -1.
         11    1    3    3    0    0  0.11872416317E+01 -0.30134776655E+00  0.16067067119E+01  0.20203613260E+01  0.51100000000E-03 0. -1.
        -11    1    3    3    0    0 -0.29118453165E+00  0.52209031327E+01 -0.44427791775E+01  0.68615526693E+01  0.51100000000E-03 0.  1.
        -12    1    3    3    0    0 -0.57076769870E+01 -0.28031477991E+02 -0.30267592562E+02  0.41646950602E+02  0.00000000000E+00 0.  1.
</event>
<event>
 7    1  0.8986500E-014  0.5052886E+02  0.7816164E-02  0.1300439E+00
        -11   -1    0    0    0    0  0.00000000000E+00  0.00000000000E+00  0.45593999997E+02  0.45594000000E+02  0.51100000000E-03 0. -1.
         11   -1    0    0    0    0 -0.00000000000E+00 -0.00000000000E+00 -0.45593999997E+02  0.45594000000E+02  0.51100000000E-03 0.  1.
    9900012    2    1    2    0    0  0.24951346965E+02 -0.21332851439E+02 -0.23989694384E+02  0.50528859545E+02  0.29999999073E+02 0.  0.
         12    1    1    2    0    0 -0.24951346965E+02  0.21332851439E+02  0.23989694384E+02  0.40659140455E+02  0.00000000000E+00 0. -1.
         11    1    3    3    0    0  0.69545617748E-01  0.17631066939E+01 -0.12839136254E+02  0.12959814883E+02  0.51100000000E-03 0. -1.
        -11    1    3    3    0    0  0.63314191503E+01 -0.18773116613E+01 -0.59910696315E+01  0.89165062172E+01  0.51100000000E-03 0.  1.
         12    1    3    3    0    0  0.18550382197E+02 -0.21218646471E+02 -0.51594884993E+01  0.28652538445E+02  0.00000000000E+00 0. -1.
</event>
<event>
 7    1  0.8986500E-014  0.5052886E+02  0.7816164E-02  0.1300439E+00
        -11   -1    0    0    0    0  0.00000000000E+00  0.00000000000E+00  0.45593999997E+02  0.45594000000E+02  0.51100000000E-03 0. -1.
         11   -1    0    0    0    0 -0.00000000000E+00 -0.00000000000E+00 -0.45593999997E+02  0.45594000000E+02  0.51100000000E-03 0.  1.
    9900012    2    1    2    0    0 -0.11053519931E+02 -0.46667647810E+01 -0.38848513503E+02  0.50528855914E+02  0.29999988037E+02 0.  0.
         12    1    1    2    0    0  0.11053519931E+02  0.46667647810E+01  0.38848513503E+02  0.40659144086E+02  0.00000000000E+00 0. -1.
         11    1    3    3    0    0 -0.36164138397E+01 -0.70706089253E+01 -0.26154696026E+01  0.83613779450E+01  0.51100000000E-03 0. -1.
        -11    1    3    3    0    0 -0.69460858395E+01 -0.55368908030E+01 -0.55600312566E+01  0.10479466403E+02  0.51100000000E-03 0.  1.
        -12    1    3    3    0    0 -0.49102025183E+00  0.79407349474E+01 -0.30673012644E+02  0.31688011566E+02  0.00000000000E+00 0.  1.
</event>
<event>
 7    1  0.8986500E-014  0.5052886E+02  0.7816164E-02  0.1300439E+00
        -11   -1    0    0    0    0  0.00000000000E+00  0.00000000000E+00  0.45593999997E+02  0.45594000000E+02  0.51100000000E-03 0. -1.
         11   -1    0    0    0    0 -0.00000000000E+00 -0.00000000000E+00 -0.45593999997E+02  0.45594000000E+02  0.51100000000E-03 0.  1.
    9900012    2    1    2    0    0 -0.32238105731E+02 -0.23752086331E+02  0.70504139704E+01  0.50528863224E+02  0.30000010255E+02 0.  0.
         12    1    1    2    0    0  0.32238105731E+02  0.23752086331E+02 -0.70504139704E+01  0.40659136776E+02  0.00000000000E+00 0. -1.
         11    1    3    3    0    0 -0.15804885299E+01 -0.14206526465E+01  0.90268654253E+01  0.92736453244E+01  0.51100000000E-03 0. -1.
        -11    1    3    3    0    0  0.11701940306E+01 -0.46468485398E+01 -0.43640014953E+00  0.48117565164E+01  0.51100000000E-03 0.  1.
        -12    1    3    3    0    0 -0.31827811232E+02 -0.17684585145E+02 -0.15400513054E+01  0.36443461383E+02  0.00000000000E+00 0.  1.
</event>
<event>
 7    1  0.1121011E-013  0.5052886E+02  0.7816164E-02  0.1300439E+00
        -11   -1    0    0    0    0  0.00000000000E+00  0.00000000000E+00  0.45593999997E+02  0.45594000000E+02  0.51100000000E-03 0. -1.
         11   -1    0    0    0    0 -0.00000000000E+00 -0.00000000000E+00 -0.45593999997E+02  0.45594000000E+02  0.51100000000E-03 0.  1.
    9900012    2    1    2    0    0 -0.15066422338E+02  0.15848265954E+02  0.34278289091E+02  0.50528859345E+02  0.29999998465E+02 0.  0.
        -12    1    1    2    0    0  0.15066422338E+02 -0.15848265954E+02 -0.34278289091E+02  0.40659140655E+02  0.00000000000E+00 0.  1.
         11    1    3    3    0    0 -0.39919732938E+01  0.67065107877E+01  0.46597209308E+01  0.90898920312E+01  0.51100000000E-03 0. -1.
        -11    1    3    3    0    0  0.42863689602E+01  0.62226785552E+01 -0.42731002136E+00  0.75681755648E+01  0.51100000000E-03 0.  1.
         12    1    3    3    0    0 -0.15360818005E+02  0.29190766107E+01  0.30045878181E+02  0.33870791749E+02  0.00000000000E+00 0. -1.
</event>
<event>
 7    1  0.8986500E-014  0.5052883E+02  0.7816164E-02  0.1300439E+00
        -11   -1    0    0    0    0  0.00000000000E+00  0.00000000000E+00  0.45593999997E+02  0.45594000000E+02  0.51100000000E-03 0. -1.
         11   -1    0    0    0    0 -0.00000000000E+00 -0.00000000000E+00 -0.45593999997E+02  0.45594000000E+02  0.51100000000E-03 0.  1.
    9900012    2    1    2    0    0  0.94302219572E+01 -0.26087380714E+02  0.29726889399E+02  0.50528825488E+02  0.29999895554E+02 0.  0.
        -12    1    1    2    0    0 -0.94302219572E+01  0.26087380714E+02 -0.29726889399E+02  0.40659174512E+02  0.00000000000E+00 0.  1.
         11    1    3    3    0    0 -0.55735664862E+01 -0.26220481152E+01 -0.83686675942E+00  0.62161182364E+01  0.51100000000E-03 0. -1.
        -11    1    3    3    0    0  0.37910549097E+01  0.13054566706E+01  0.97177479156E+00  0.41256103734E+01  0.51100000000E-03 0.  1.
        -12    1    3    3    0    0  0.11212733534E+02 -0.24770789269E+02  0.29591981366E+02  0.40187096878E+02  0.00000000000E+00 0.  1.
</event>
<event>
 7    1  0.8986500E-014  0.5052886E+02  0.7816164E-02  0.1300439E+00
        -11   -1    0    0    0    0  0.00000000000E+00  0.00000000000E+00  0.45593999997E+02  0.45594000000E+02  0.51100000000E-03 0. -1.
         11   -1    0    0    0    0 -0.00000000000E+00 -0.00000000000E+00 -0.45593999997E+02  0.45594000000E+02  0.51100000000E-03 0.  1.
    9900012    2    1    2    0    0  0.86115382849E+00 -0.24982603826E+02 -0.32067016017E+02  0.50528860854E+02  0.30000003052E+02 0.  0.
         12    1    1    2    0    0 -0.86115382849E+00  0.24982603826E+02  0.32067016017E+02  0.40659139146E+02  0.00000000000E+00 0. -1.
         11    1    3    3    0    0  0.12847875408E+01 -0.11377692971E+02  0.28463748021E+01  0.11798492536E+02  0.51100000000E-03 0. -1.
        -11    1    3    3    0    0  0.25421691963E+01 -0.91056932081E+00 -0.20952546852E+01  0.34178726084E+01  0.51100000000E-03 0.  1.
        -12    1    3    3    0    0 -0.29658029085E+01 -0.12694341534E+02 -0.32818136134E+02  0.35312495709E+02  0.00000000000E+00 0.  1.
</event>
<event>
 7    1  0.8986500E-014  0.5052887E+02  0.7816164E-02  0.1300439E+00
        -11   -1    0    0    0    0  0.00000000000E+00  0.00000000000E+00  0.45593999997E+02  0.45594000000E+02  0.51100000000E-03 0. -1.
         11   -1    0    0    0    0 -0.00000000000E+00 -0.00000000000E+00 -0.45593999997E+02  0.45594000000E+02  0.51100000000E-03 0.  1.
    9900012    2    1    2    0    0 -0.25073779186E+02 -0.15384251445E+02  0.28067684308E+02  0.50528874363E+02  0.30000044113E+02 0.  0.
        -12    1    1    2    0    0  0.25073779186E+02  0.15384251445E+02 -0.28067684308E+02  0.40659125637E+02  0.00000000000E+00 0.  1.
         11    1    3    3    0    0  0.20654367232E+01 -0.16193486144E+01  0.55780294246E+01  0.61646355380E+01  0.51100000000E-03 0. -1.
        -11    1    3    3    0    0  0.20421071794E+01  0.23686028534E+01 -0.13171954944E+01  0.33934474272E+01  0.51100000000E-03 0.  1.
         12    1    3    3    0    0 -0.29181323088E+02 -0.16133505684E+02  0.23806850378E+02  0.40970791398E+02  0.00000000000E+00 0. -1.
</event>
<event>
 7    1  0.8986500E-014  0.5052886E+02  0.7816164E-02  0.1300439E+00
        -11   -1    0    0    0    0  0.00000000000E+00  0.00000000000E+00  0.45593999997E+02  0.45594000000E+02  0.51100000000E-03 0. -1.
         11   -1    0    0    0    0 -0.00000000000E+00 -0.00000000000E+00 -0.45593999997E+02  0.45594000000E+02  0.51100000000E-03 0.  1.
    9900012    2    1    2    0    0  0.29593466939E+02  0.11236359186E+02 -0.25517371851E+02  0.50528864256E+02  0.30000013393E+02 0.  0.
         12    1    1    2    0    0 -0.29593466939E+02 -0.11236359186E+02  0.25517371851E+02  0.40659135744E+02  0.00000000000E+00 0. -1.
         11    1    3    3    0    0 -0.33922833051E+01  0.49439953814E+00 -0.22418339414E+01  0.40960757570E+01  0.51100000000E-03 0. -1.
        -11    1    3    3    0    0  0.36182278153E+01 -0.11686938454E+01  0.33300612331E+01  0.50543769057E+01  0.51100000000E-03 0.  1.
        -12    1    3    3    0    0  0.29367522429E+02  0.11910653493E+02 -0.26605599143E+02  0.41378411594E+02  0.00000000000E+00 0.  1.
</event>
<event>
 7    1  0.8986500E-014  0.5052886E+02  0.7816164E-02  0.1300439E+00
        -11   -1    0    0    0    0  0.00000000000E+00  0.00000000000E+00  0.45593999997E+02  0.45594000000E+02  0.51100000000E-03 0. -1.
         11   -1    0    0    0    0 -0.00000000000E+00 -0.00000000000E+00 -0.45593999997E+02  0.45594000000E+02  0.51100000000E-03 0.  1.
    9900012    2    1    2    0    0 -0.37435543464E+02 -0.21568351725E+01 -0.15719210093E+02  0.50528863040E+02  0.30000009696E+02 0.  0.
         12    1    1    2    0    0  0.37435543464E+02  0.21568351725E+01  0.15719210093E+02  0.40659136960E+02  0.00000000000E+00 0. -1.
         11    1    3    3    0    0 -0.15247168552E+02 -0.52718840576E+01  0.11853376317E+01  0.16176338768E+02  0.51100000000E-03 0. -1.
        -11    1    3    3    0    0 -0.25498983498E+02  0.27041267606E+01 -0.11734126480E+02  0.28199294060E+02  0.51100000000E-03 0.  1.
        -12    1    3    3    0    0  0.33106085859E+01  0.41092212455E+00 -0.51704212444E+01  0.61532302124E+01  0.00000000000E+00 0.  1.
</event>
<event>
 7    1  0.8986500E-014  0.5052885E+02  0.7816164E-02  0.1300439E+00
        -11   -1    0    0    0    0  0.00000000000E+00  0.00000000000E+00  0.45593999997E+02  0.45594000000E+02  0.51100000000E-03 0. -1.
         11   -1    0    0    0    0 -0.00000000000E+00 -0.00000000000E+00 -0.45593999997E+02  0.45594000000E+02  0.51100000000E-03 0.  1.
    9900012    2    1    2    0    0  0.12675640139E+02  0.35468092153E+02  0.15313690636E+02  0.50528849310E+02  0.29999967963E+02 0.  0.
        -12    1    1    2    0    0 -0.12675640139E+02 -0.35468092153E+02 -0.15313690636E+02  0.40659150690E+02  0.00000000000E+00 0.  1.
         11    1    3    3    0    0 -0.96813729174E+00  0.18827430449E+00 -0.56717137085E+01  0.57568284394E+01  0.51100000000E-03 0.  1.
        -11    1    3    3    0    0  0.54940739653E+01  0.71706648378E+01  0.49829495597E+00  0.90471863625E+01  0.51100000000E-03 0. -1.
        -12    1    3    3    0    0  0.81497034650E+01  0.28109153011E+02  0.20487109388E+02  0.35724834508E+02  0.00000000000E+00 0.  1.
</event>
<event>
 7    1  0.8986500E-014  0.5052885E+02  0.7816164E-02  0.1300439E+00
        -11   -1    0    0    0    0  0.00000000000E+00  0.00000000000E+00  0.45593999997E+02  0.45594000000E+02  0.51100000000E-03 0. -1.
         11   -1    0    0    0    0 -0.00000000000E+00 -0.00000000000E+00 -0.45593999997E+02  0.45594000000E+02  0.51100000000E-03 0.  1.
    9900012    2    1    2    0    0 -0.22499413571E+02 -0.56234421736E+01  0.33396402562E+02  0.50528850759E+02  0.29999972368E+02 0.  0.
        -12    1    1    2    0    0  0.22499413571E+02  0.56234421736E+01 -0.33396402562E+02  0.40659149241E+02  0.00000000000E+00 0.  1.
         11    1    3    3    0    0 -0.13050962159E+01 -0.50586825506E+01  0.11869175840E+02  0.12968071586E+02  0.51100000000E-03 0. -1.
        -11    1    3    3    0    0 -0.16187104107E+02 -0.93899043293E+01  0.19843075039E+02  0.27275268466E+02  0.51100000000E-03 0.  1.
        -12    1    3    3    0    0 -0.50072132484E+01  0.88251447063E+01  0.16841516830E+01  0.10285510707E+02  0.00000000000E+00 0.  1.
</event>
<event>
 7    1  0.8986500E-014  0.5052886E+02  0.7816164E-02  0.1300439E+00
        -11   -1    0    0    0    0  0.00000000000E+00  0.00000000000E+00  0.45593999997E+02  0.45594000000E+02  0.51100000000E-03 0. -1.
         11   -1    0    0    0    0 -0.00000000000E+00 -0.00000000000E+00 -0.45593999997E+02  0.45594000000E+02  0.51100000000E-03 0.  1.
    9900012    2    1    2    0    0 -0.29226126056E+02 -0.23442719899E+02  0.15793621528E+02  0.50528855377E+02  0.29999986404E+02 0.  0.
        -12    1    1    2    0    0  0.29226126056E+02  0.23442719899E+02 -0.15793621528E+02  0.40659144623E+02  0.00000000000E+00 0.  1.
         11    1    3    3    0    0 -0.93358926106E+01 -0.47271547658E+01  0.33893427711E+01  0.10999660345E+02  0.51100000000E-03 0. -1.
        -11    1    3    3    0    0 -0.10311929831E+02  0.35499669022E+01  0.10624515552E+02  0.15225586781E+02  0.51100000000E-03 0.  1.
        -12    1    3    3    0    0 -0.95783036139E+01 -0.22265532036E+02  0.17797632048E+01  0.24303608251E+02  0.00000000000E+00 0.  1.
</event>
<event>
 7    1  0.8986500E-014  0.5052884E+02  0.7816164E-02  0.1300439E+00
        -11   -1    0    0    0    0  0.00000000000E+00  0.00000000000E+00  0.45593999997E+02  0.45594000000E+02  0.51100000000E-03 0. -1.
         11   -1    0    0    0    0 -0.00000000000E+00 -0.00000000000E+00 -0.45593999997E+02  0.45594000000E+02  0.51100000000E-03 0.  1.
    9900012    2    1    2    0    0 -0.15633731290E+02 -0.28276118276E+02  0.24682284096E+02  0.50528836617E+02  0.29999929382E+02 0.  0.
        -12    1    1    2    0    0  0.15633731290E+02  0.28276118276E+02 -0.24682284096E+02  0.40659163383E+02  0.00000000000E+00 0.  1.
         11    1    3    3    0    0 -0.45308060332E+01 -0.63401614239E+01 -0.20163478987E+01  0.80493173189E+01  0.51100000000E-03 0. -1.
        -11    1    3    3    0    0 -0.51142242081E+01 -0.79667444197E+01 -0.22972095320E+01  0.97417389513E+01  0.51100000000E-03 0.  1.
        -12    1    3    3    0    0 -0.59887010483E+01 -0.13969212432E+02  0.28995841527E+02  0.32737780347E+02  0.00000000000E+00 0.  1.
</event>
<event>
 7    1  0.8986500E-014  0.5052886E+02  0.7816164E-02  0.1300439E+00
        -11   -1    0    0    0    0  0.00000000000E+00  0.00000000000E+00  0.45593999997E+02  0.45594000000E+02  0.51100000000E-03 0. -1.
         11   -1    0    0    0    0 -0.00000000000E+00 -0.00000000000E+00 -0.45593999997E+02  0.45594000000E+02  0.51100000000E-03 0.  1.
    9900012    2    1    2    0    0  0.39931881837E+02  0.97355143902E-01 -0.76551262128E+01  0.50528860530E+02  0.30000002067E+02 0.  0.
         12    1    1    2    0    0 -0.39931881837E+02 -0.97355143902E-01  0.76551262128E+01  0.40659139470E+02  0.00000000000E+00 0. -1.
         11    1    3    3    0    0  0.41391680315E+01  0.73966207544E+01 -0.23344227020E+01  0.87916005477E+01  0.51100000000E-03 0. -1.
        -11    1    3    3    0    0  0.13991873645E+02 -0.59436374483E+01 -0.11471820111E+02  0.19044737098E+02  0.51100000000E-03 0.  1.
        -12    1    3    3    0    0  0.21800840161E+02 -0.13556281622E+01  0.61511166000E+01  0.22692522884E+02  0.00000000000E+00 0.  1.
</event>
<event>
 7    1  0.8986500E-014  0.5052885E+02  0.7816164E-02  0.1300439E+00
        -11   -1    0    0    0    0  0.00000000000E+00  0.00000000000E+00  0.45593999997E+02  0.45594000000E+02  0.51100000000E-03 0. -1.
         11   -1    0    0    0    0 -0.00000000000E+00 -0.00000000000E+00 -0.45593999997E+02  0.45594000000E+02  0.51100000000E-03 0.  1.
    9900012    2    1    2    0    0 -0.11738691290E+02  0.22507406740E+02 -0.31761392972E+02  0.50528852015E+02  0.29999976184E+02 0.  0.
         12    1    1    2    0    0  0.11738691290E+02 -0.22507406740E+02  0.31761392972E+02  0.40659147985E+02  0.00000000000E+00 0. -1.
         11    1    3    3    0    0  0.28083758825E+01  0.39261104125E+01 -0.53131560322E+01  0.71785057883E+01  0.51100000000E-03 0. -1.
        -11    1    3    3    0    0 -0.73112162449E+01  0.12742527375E+02 -0.29994649768E+02  0.33399175167E+02  0.51100000000E-03 0.  1.
         12    1    3    3    0    0 -0.72358509271E+01  0.58387689518E+01  0.35464128276E+01  0.99511710596E+01  0.00000000000E+00 0. -1.
</event>
<event>
 7    1  0.8986500E-014  0.5052886E+02  0.7816164E-02  0.1300439E+00
        -11   -1    0    0    0    0  0.00000000000E+00  0.00000000000E+00  0.45593999997E+02  0.45594000000E+02  0.51100000000E-03 0. -1.
         11   -1    0    0    0    0 -0.00000000000E+00 -0.00000000000E+00 -0.45593999997E+02  0.45594000000E+02  0.51100000000E-03 0.  1.
    9900012    2    1    2    0    0 -0.40464632533E+02 -0.25684771854E+01 -0.30301530753E+01  0.50528863404E+02  0.30000010804E+02 0.  0.
         12    1    1    2    0    0  0.40464632533E+02  0.25684771854E+01  0.30301530753E+01  0.40659136596E+02  0.00000000000E+00 0. -1.
         11    1    3    3    0    0 -0.98863163780E+01 -0.64446108638E+01 -0.13410395612E+00  0.11802128827E+02  0.51100000000E-03 0. -1.
        -11    1    3    3    0    0  0.34742550945E+01  0.17436281535E+00 -0.28126289278E+01  0.44734475072E+01  0.51100000000E-03 0.  1.
        -12    1    3    3    0    0 -0.34052571249E+02  0.37017708631E+01 -0.83420191410E-01  0.34253287070E+02  0.00000000000E+00 0.  1.
</event>
<event>
 7    1  0.8986500E-014  0.5052886E+02  0.7816164E-02  0.1300439E+00
        -11   -1    0    0    0    0  0.00000000000E+00  0.00000000000E+00  0.45593999997E+02  0.45594000000E+02  0.51100000000E-03 0. -1.
         11   -1    0    0    0    0 -0.00000000000E+00 -0.00000000000E+00 -0.45593999997E+02  0.45594000000E+02  0.51100000000E-03 0.  1.
    9900012    2    1    2    0    0  0.13426936763E+01  0.20973672028E+02 -0.34806150676E+02  0.50528857492E+02  0.29999992831E+02 0.  0.
         12    1    1    2    0    0 -0.13426936763E+01 -0.20973672028E+02  0.34806150676E+02  0.40659142508E+02  0.00000000000E+00 0. -1.
         11    1    3    3    0    0 -0.28077979231E+01  0.54873883501E+01 -0.11122964415E+02  0.12716740845E+02  0.51100000000E-03 0. -1.
        -11    1    3    3    0    0 -0.67446919980E+01  0.51392036730E+01 -0.20868154862E+02  0.22525145330E+02  0.51100000000E-03 0.  1.
         12    1    3    3    0    0  0.10895183597E+02  0.10347080005E+02 -0.28150313988E+01  0.15286971316E+02  0.00000000000E+00 0. -1.
</event>
<event>
 7    1  0.8986500E-014  0.5052886E+02  0.7816164E-02  0.1300439E+00
        -11   -1    0    0    0    0  0.00000000000E+00  0.00000000000E+00  0.45593999997E+02  0.45594000000E+02  0.51100000000E-03 0. -1.
         11   -1    0    0    0    0 -0.00000000000E+00 -0.00000000000E+00 -0.45593999997E+02  0.45594000000E+02  0.51100000000E-03 0.  1.
    9900012    2    1    2    0    0  0.50965410558E+01  0.38907678222E+02 -0.10648164969E+02  0.50528861143E+02  0.30000003930E+02 0.  0.
         12    1    1    2    0    0 -0.50965410558E+01 -0.38907678222E+02  0.10648164969E+02  0.40659138857E+02  0.00000000000E+00 0. -1.
         11    1    3    3    0    0 -0.52290275038E+01  0.10600481915E+02 -0.77160740796E+01  0.14115620600E+02  0.51100000000E-03 0. -1.
        -11    1    3    3    0    0  0.30931352281E+01  0.17517286404E+02 -0.11195350424E+02  0.21018056044E+02  0.51100000000E-03 0.  1.
         12    1    3    3    0    0  0.72324333315E+01  0.10789909903E+02  0.82632595340E+01  0.15395184499E+02  0.00000000000E+00 0. -1.
</event>
<event>
 7    1  0.8986500E-014  0.5052886E+02  0.7816164E-02  0.1300439E+00
        -11   -1    0    0    0    0  0.00000000000E+00  0.00000000000E+00  0.45593999997E+02  0.45594000000E+02  0.51100000000E-03 0. -1.
         11   -1    0    0    0    0 -0.00000000000E+00 -0.00000000000E+00 -0.45593999997E+02  0.45594000000E+02  0.51100000000E-03 0.  1.
    9900012    2    1    2    0    0 -0.26258074515E+02 -0.87734384342E+01  0.29777607896E+02  0.50528860422E+02  0.30000001740E+02 0.  0.
        -12    1    1    2    0    0  0.26258074515E+02  0.87734384342E+01 -0.29777607896E+02  0.40659139578E+02  0.00000000000E+00 0.  1.
         11    1    3    3    0    0 -0.12360333940E+02 -0.14834018239E+02  0.27798195709E+02  0.33846205654E+02  0.51100000000E-03 0. -1.
        -11    1    3    3    0    0 -0.53003329492E+01  0.46968116486E+01  0.34114309320E+01  0.78607525276E+01  0.51100000000E-03 0.  1.
        -12    1    3    3    0    0 -0.85974076251E+01  0.13637681562E+01 -0.14320187452E+01  0.88219022406E+01  0.00000000000E+00 0.  1.
</event>
<event>
 7    1  0.8986500E-014  0.5052884E+02  0.7816164E-02  0.1300439E+00
        -11   -1    0    0    0    0  0.00000000000E+00  0.00000000000E+00  0.45593999997E+02  0.45594000000E+02  0.51100000000E-03 0. -1.
         11   -1    0    0    0    0 -0.00000000000E+00 -0.00000000000E+00 -0.45593999997E+02  0.45594000000E+02  0.51100000000E-03 0.  1.
    9900012    2    1    2    0    0  0.11512462643E+02 -0.24549334346E+01  0.38917914763E+02  0.50528836411E+02  0.29999928754E+02 0.  0.
        -12    1    1    2    0    0 -0.11512462643E+02  0.24549334346E+01 -0.38917914763E+02  0.40659163589E+02  0.00000000000E+00 0.  1.
         11    1    3    3    0    0 -0.32852789467E+01 -0.97725870765E+00 -0.10584228605E+01  0.35872484654E+01  0.51100000000E-03 0. -1.
        -11    1    3    3    0    0  0.10819424652E+01 -0.26988001552E+01 -0.14768348688E+01  0.32611598039E+01  0.51100000000E-03 0.  1.
         12    1    3    3    0    0  0.13715799124E+02  0.12211254282E+01  0.41453172493E+02  0.43680428141E+02  0.00000000000E+00 0. -1.
</event>
<event>
 7    1  0.8986500E-014  0.5052889E+02  0.7816164E-02  0.1300439E+00
        -11   -1    0    0    0    0  0.00000000000E+00  0.00000000000E+00  0.45593999997E+02  0.45594000000E+02  0.51100000000E-03 0. -1.
         11   -1    0    0    0    0 -0.00000000000E+00 -0.00000000000E+00 -0.45593999997E+02  0.45594000000E+02  0.51100000000E-03 0.  1.
    9900012    2    1    2    0    0 -0.20408368807E+02 -0.29267901018E+02 -0.19494906225E+02  0.50528893811E+02  0.30000103228E+02 0.  0.
         12    1    1    2    0    0  0.20408368807E+02  0.29267901018E+02  0.19494906225E+02  0.40659106189E+02  0.00000000000E+00 0. -1.
         11    1    3    3    0    0 -0.87637367105E-02 -0.54723314703E+01  0.33189185150E+01  0.64001335060E+01  0.51100000000E-03 0. -1.
        -11    1    3    3    0    0 -0.22680903181E+02 -0.24509688417E+02 -0.16239105880E+02  0.37132960499E+02  0.51100000000E-03 0.  1.
         12    1    3    3    0    0  0.22812981104E+01  0.71411886974E+00 -0.65747188605E+01  0.69957998059E+01  0.00000000000E+00 0. -1.
</event>
<event>
 7    1  0.8986500E-014  0.5052888E+02  0.7816164E-02  0.1300439E+00
        -11   -1    0    0    0    0  0.00000000000E+00  0.00000000000E+00  0.45593999997E+02  0.45594000000E+02  0.51100000000E-03 0. -1.
         11   -1    0    0    0    0 -0.00000000000E+00 -0.00000000000E+00 -0.45593999997E+02  0.45594000000E+02  0.51100000000E-03 0.  1.
    9900012    2    1    2    0    0  0.41709277498E+01 -0.29547304043E+02  0.27617456985E+02  0.50528883620E+02  0.30000072250E+02 0.  0.
        -12    1    1    2    0    0 -0.41709277498E+01  0.29547304043E+02 -0.27617456985E+02  0.40659116380E+02  0.00000000000E+00 0.  1.
         11    1    3    3    0    0  0.87579327859E+01 -0.22411332041E+02  0.21096805476E+02  0.32000693619E+02  0.51100000000E-03 0. -1.
        -11    1    3    3    0    0  0.51734305010E+01 -0.82983698349E-01  0.95214440190E+00  0.52609741176E+01  0.51100000000E-03 0.  1.
        -12    1    3    3    0    0 -0.97604355371E+01 -0.70529883035E+01  0.55685071072E+01  0.13267215883E+02  0.00000000000E+00 0.  1.
</event>
<event>
 7    1  0.8986500E-014  0.5052884E+02  0.7816164E-02  0.1300439E+00
        -11   -1    0    0    0    0  0.00000000000E+00  0.00000000000E+00  0.45593999997E+02  0.45594000000E+02  0.51100000000E-03 0. -1.
         11   -1    0    0    0    0 -0.00000000000E+00 -0.00000000000E+00 -0.45593999997E+02  0.45594000000E+02  0.51100000000E-03 0.  1.
    9900012    2    1    2    0    0  0.18868529266E+02  0.19862517746E+02 -0.30043734885E+02  0.50528843421E+02  0.29999950063E+02 0.  0.
         12    1    1    2    0    0 -0.18868529266E+02 -0.19862517746E+02  0.30043734885E+02  0.40659156579E+02  0.00000000000E+00 0. -1.
         11    1    3    3    0    0 -0.96310566378E+00 -0.16828770723E+01 -0.41750756289E+01  0.46033579622E+01  0.51100000000E-03 0. -1.
        -11    1    3    3    0    0 -0.14766222154E+01  0.10426181496E+02 -0.17596873264E+02  0.20506965224E+02  0.51100000000E-03 0.  1.
        -12    1    3    3    0    0  0.21308257145E+02  0.11119213322E+02 -0.82717859919E+01  0.25418520235E+02  0.00000000000E+00 0.  1.
</event>
<event>
 7    1  0.8986500E-014  0.5052885E+02  0.7816164E-02  0.1300439E+00
        -11   -1    0    0    0    0  0.00000000000E+00  0.00000000000E+00  0.45593999997E+02  0.45594000000E+02  0.51100000000E-03 0. -1.
         11   -1    0    0    0    0 -0.00000000000E+00 -0.00000000000E+00 -0.45593999997E+02  0.45594000000E+02  0.51100000000E-03 0.  1.
    9900012    2    1    2    0    0 -0.21892268973E+02  0.28919199888E+02  0.18373219635E+02  0.50528846508E+02  0.29999959444E+02 0.  0.
        -12    1    1    2    0    0  0.21892268973E+02 -0.28919199888E+02 -0.18373219635E+02  0.40659153492E+02  0.00000000000E+00 0.  1.
         11    1    3    3    0    0 -0.12242190618E+01  0.20998491975E+02  0.16629554549E+02  0.26813755094E+02  0.51100000000E-03 0. -1.
        -11    1    3    3    0    0 -0.32243308335E+01  0.20988115885E+01 -0.28170931470E+01  0.47683680088E+01  0.51100000000E-03 0.  1.
        -12    1    3    3    0    0 -0.17443719078E+02  0.58218963250E+01  0.45607582332E+01  0.18946723404E+02  0.00000000000E+00 0.  1.
</event>
<event>
 7    1  0.8986500E-014  0.5052887E+02  0.7816164E-02  0.1300439E+00
        -11   -1    0    0    0    0  0.00000000000E+00  0.00000000000E+00  0.45593999997E+02  0.45594000000E+02  0.51100000000E-03 0. -1.
         11   -1    0    0    0    0 -0.00000000000E+00 -0.00000000000E+00 -0.45593999997E+02  0.45594000000E+02  0.51100000000E-03 0.  1.
    9900012    2    1    2    0    0 -0.22657616465E+02 -0.68300645099E+01  0.33062780301E+02  0.50528870567E+02  0.30000032574E+02 0.  0.
        -12    1    1    2    0    0  0.22657616465E+02  0.68300645099E+01 -0.33062780301E+02  0.40659129433E+02  0.00000000000E+00 0.  1.
         11    1    3    3    0    0  0.15747714224E+00  0.53842572069E-02  0.31683742246E+01  0.31722899503E+01  0.51100000000E-03 0. -1.
        -11    1    3    3    0    0 -0.15187817810E+02  0.91984433398E+01  0.20991204661E+02  0.27493851005E+02  0.51100000000E-03 0.  1.
         12    1    3    3    0    0 -0.76272757970E+01 -0.16033892107E+02  0.89032014151E+01  0.19862729611E+02  0.00000000000E+00 0. -1.
</event>
<event>
 7    1  0.8986500E-014  0.5052886E+02  0.7816164E-02  0.1300439E+00
        -11   -1    0    0    0    0  0.00000000000E+00  0.00000000000E+00  0.45593999997E+02  0.45594000000E+02  0.51100000000E-03 0.  1.
         11   -1    0    0    0    0 -0.00000000000E+00 -0.00000000000E+00 -0.45593999997E+02  0.45594000000E+02  0.51100000000E-03 0. -1.
    9900012    2    1    2    0    0  0.29445628636E+02  0.53678485942E+01  0.27519209275E+02  0.50528859288E+02  0.29999998293E+02 0.  0.
        -12    1    1    2    0    0 -0.29445628636E+02 -0.53678485942E+01 -0.27519209275E+02  0.40659140712E+02  0.00000000000E+00 0.  1.
         11    1    3    3    0    0 -0.38731850104E+00  0.94917126106E+01  0.78987747590E+01  0.12354483674E+02  0.51100000000E-03 0. -1.
        -11    1    3    3    0    0  0.89730246728E+01 -0.66863924428E+01  0.10205648560E+02  0.15145239465E+02  0.51100000000E-03 0.  1.
         12    1    3    3    0    0  0.20859922464E+02  0.25625284264E+01  0.94147859563E+01  0.23029136149E+02  0.00000000000E+00 0. -1.
</event>
<event>
 7    1  0.8986500E-014  0.5052888E+02  0.7816164E-02  0.1300439E+00
        -11   -1    0    0    0    0  0.00000000000E+00  0.00000000000E+00  0.45593999997E+02  0.45594000000E+02  0.51100000000E-03 0.  1.
         11   -1    0    0    0    0 -0.00000000000E+00 -0.00000000000E+00 -0.45593999997E+02  0.45594000000E+02  0.51100000000E-03 0. -1.
    9900012    2    1    2    0    0  0.36288532390E+02  0.18013541602E+02 -0.34379002948E+01  0.50528875286E+02  0.30000046918E+02 0.  0.
         12    1    1    2    0    0 -0.36288532390E+02 -0.18013541602E+02  0.34379002948E+01  0.40659124714E+02  0.00000000000E+00 0. -1.
         11    1    3    3    0    0  0.98208255588E+00  0.36412853363E+01 -0.96090480752E+00  0.38918868633E+01  0.51100000000E-03 0.  1.
        -11    1    3    3    0    0  0.30464623900E+01  0.54786465750E+01  0.92535990151E+01  0.11177011961E+02  0.51100000000E-03 0. -1.
         12    1    3    3    0    0  0.32259987444E+02  0.88936096910E+01 -0.11730594502E+02  0.35459976461E+02  0.00000000000E+00 0. -1.
</event>
<event>
 7    1  0.8986500E-014  0.5052884E+02  0.7816164E-02  0.1300439E+00
        -11   -1    0    0    0    0  0.00000000000E+00  0.00000000000E+00  0.45593999997E+02  0.45594000000E+02  0.51100000000E-03 0. -1.
         11   -1    0    0    0    0 -0.00000000000E+00 -0.00000000000E+00 -0.45593999997E+02  0.45594000000E+02  0.51100000000E-03 0.  1.
    9900012    2    1    2    0    0  0.29192445120E+02  0.23359338268E+01  0.28204816444E+02  0.50528842242E+02  0.29999946479E+02 0.  0.
        -12    1    1    2    0    0 -0.29192445120E+02 -0.23359338268E+01 -0.28204816444E+02  0.40659157758E+02  0.00000000000E+00 0.  1.
         11    1    3    3    0    0  0.24317902773E+02  0.19784537865E+01  0.27886074817E+02  0.37052771065E+02  0.51100000000E-03 0. -1.
        -11    1    3    3    0    0  0.39988899118E+01  0.27633240972E+01  0.57154252026E+01  0.75028771882E+01  0.51100000000E-03 0.  1.
        -12    1    3    3    0    0  0.87565243595E+00 -0.24058440569E+01 -0.53966835754E+01  0.59731939888E+01  0.00000000000E+00 0.  1.
</event>
<event>
 7    1  0.8986500E-014  0.5052885E+02  0.7816164E-02  0.1300439E+00
        -11   -1    0    0    0    0  0.00000000000E+00  0.00000000000E+00  0.45593999997E+02  0.45594000000E+02  0.51100000000E-03 0. -1.
         11   -1    0    0    0    0 -0.00000000000E+00 -0.00000000000E+00 -0.45593999997E+02  0.45594000000E+02  0.51100000000E-03 0.  1.
    9900012    2    1    2    0    0  0.89500985624E+01  0.55003486357E+01 -0.39278595731E+02  0.50528853649E+02  0.29999981152E+02 0.  0.
         12    1    1    2    0    0 -0.89500985624E+01 -0.55003486357E+01  0.39278595731E+02  0.40659146351E+02  0.00000000000E+00 0. -1.
         11    1    3    3    0    0 -0.37906348934E+01 -0.33476012391E+01 -0.68342744424E+01  0.85019206280E+01  0.51100000000E-03 0. -1.
        -11    1    3    3    0    0  0.35256474886E+01 -0.62191443722E+01 -0.31321203955E+01  0.78050064299E+01  0.51100000000E-03 0.  1.
        -12    1    3    3    0    0  0.92150859671E+01  0.15067094247E+02 -0.29312200893E+02  0.34221926591E+02  0.00000000000E+00 0.  1.
</event>
<event>
 7    1  0.8986500E-014  0.5052888E+02  0.7816164E-02  0.1300439E+00
        -11   -1    0    0    0    0  0.00000000000E+00  0.00000000000E+00  0.45593999997E+02  0.45594000000E+02  0.51100000000E-03 0. -1.
         11   -1    0    0    0    0 -0.00000000000E+00 -0.00000000000E+00 -0.45593999997E+02  0.45594000000E+02  0.51100000000E-03 0.  1.
    9900012    2    1    2    0    0 -0.11280586231E+02 -0.48388419297E+01  0.38762073182E+02  0.50528876371E+02  0.30000050216E+02 0.  0.
        -12    1    1    2    0    0  0.11280586231E+02  0.48388419297E+01 -0.38762073182E+02  0.40659123629E+02  0.00000000000E+00 0.  1.
         11    1    3    3    0    0 -0.40112249131E+01 -0.38073045318E+01  0.36951070884E+01  0.66512637714E+01  0.51100000000E-03 0. -1.
        -11    1    3    3    0    0 -0.11315963518E+02 -0.21881239394E+01  0.35199473002E+01  0.12051097293E+02  0.51100000000E-03 0.  1.
        -12    1    3    3    0    0  0.40466021995E+01  0.11565865414E+01  0.31547018793E+02  0.31826515306E+02  0.00000000000E+00 0.  1.
</event>
<event>
 7    1  0.8986500E-014  0.5052885E+02  0.7816164E-02  0.1300439E+00
        -11   -1    0    0    0    0  0.00000000000E+00  0.00000000000E+00  0.45593999997E+02  0.45594000000E+02  0.51100000000E-03 0. -1.
         11   -1    0    0    0    0 -0.00000000000E+00 -0.00000000000E+00 -0.45593999997E+02  0.45594000000E+02  0.51100000000E-03 0.  1.
    9900012    2    1    2    0    0  0.15726238065E+02  0.16646933245E+02 -0.33596597361E+02  0.50528852144E+02  0.29999976576E+02 0.  0.
         12    1    1    2    0    0 -0.15726238065E+02 -0.16646933245E+02  0.33596597361E+02  0.40659147856E+02  0.00000000000E+00 0. -1.
         11    1    3    3    0    0 -0.25791924424E+00 -0.14883798373E+01 -0.25576299514E+01  0.29703986443E+01  0.51100000000E-03 0. -1.
        -11    1    3    3    0    0 -0.92434081698E+00 -0.53223711939E+01 -0.38170943996E+00  0.54155095263E+01  0.51100000000E-03 0.  1.
        -12    1    3    3    0    0  0.16908498126E+02  0.23457684277E+02 -0.30657257970E+02  0.42142943973E+02  0.00000000000E+00 0.  1.
</event>
<event>
 7    1  0.8986500E-014  0.5052886E+02  0.7816164E-02  0.1300439E+00
        -11   -1    0    0    0    0  0.00000000000E+00  0.00000000000E+00  0.45593999997E+02  0.45594000000E+02  0.51100000000E-03 0. -1.
         11   -1    0    0    0    0 -0.00000000000E+00 -0.00000000000E+00 -0.45593999997E+02  0.45594000000E+02  0.51100000000E-03 0.  1.
    9900012    2    1    2    0    0 -0.20376517973E+02  0.12132615592E+02 -0.33026700641E+02  0.50528858333E+02  0.29999995390E+02 0.  0.
         12    1    1    2    0    0  0.20376517973E+02 -0.12132615592E+02  0.33026700641E+02  0.40659141667E+02  0.00000000000E+00 0. -1.
         11    1    3    3    0    0 -0.16389677772E+01  0.24392106857E+00  0.95921781605E+00  0.19146310199E+01  0.51100000000E-03 0. -1.
        -11    1    3    3    0    0 -0.81472252407E+01  0.14476488891E+02 -0.45487323335E+01  0.17223152320E+02  0.51100000000E-03 0.  1.
        -12    1    3    3    0    0 -0.10590324955E+02 -0.25877943679E+01 -0.29437186124E+02  0.31391074993E+02  0.00000000000E+00 0.  1.
</event>
<event>
 7    1  0.1310578E-013  0.5052882E+02  0.7816164E-02  0.1300439E+00
        -11   -1    0    0    0    0  0.00000000000E+00  0.00000000000E+00  0.45593999997E+02  0.45594000000E+02  0.51100000000E-03 0. -1.
         11   -1    0    0    0    0 -0.00000000000E+00 -0.00000000000E+00 -0.45593999997E+02  0.45594000000E+02  0.51100000000E-03 0.  1.
    9900012    2    1    2    0    0 -0.58544420060E+01  0.23222999332E+02  0.32857062665E+02  0.50528821994E+02  0.29999884931E+02 0.  0.
        -12    1    1    2    0    0  0.58544420060E+01 -0.23222999332E+02 -0.32857062665E+02  0.40659178006E+02  0.00000000000E+00 0.  1.
         11    1    3    3    0    0 -0.32246683959E+00  0.63831851938E+01 -0.16527149359E+01  0.66015532264E+01  0.51100000000E-03 0. -1.
        -11    1    3    3    0    0  0.38534709892E+00 -0.27888109390E+01 -0.94691138181E+00  0.29702862263E+01  0.51100000000E-03 0.  1.
         12    1    3    3    0    0 -0.59173222653E+01  0.19628625077E+02  0.35456688983E+02  0.40956982541E+02  0.00000000000E+00 0. -1.
</event>
<event>
 7    1  0.8986500E-014  0.5052887E+02  0.7816164E-02  0.1300439E+00
        -11   -1    0    0    0    0  0.00000000000E+00  0.00000000000E+00  0.45593999997E+02  0.45594000000E+02  0.51100000000E-03 0. -1.
         11   -1    0    0    0    0 -0.00000000000E+00 -0.00000000000E+00 -0.45593999997E+02  0.45594000000E+02  0.51100000000E-03 0.  1.
    9900012    2    1    2    0    0  0.34633800991E+02 -0.43401593679E+01  0.20852532300E+02  0.50528865015E+02  0.30000015699E+02 0.  0.
        -12    1    1    2    0    0 -0.34633800991E+02  0.43401593679E+01 -0.20852532300E+02  0.40659134985E+02  0.00000000000E+00 0.  1.
         11    1    3    3    0    0  0.14779466168E+02  0.32764305639E+01  0.19855725950E+02  0.24968329354E+02  0.51100000000E-03 0. -1.
        -11    1    3    3    0    0  0.25753802545E+01 -0.43558272902E+01  0.54341541874E+01  0.74253516301E+01  0.51100000000E-03 0.  1.
         12    1    3    3    0    0  0.17278954569E+02 -0.32607626416E+01 -0.44373478380E+01  0.18135184031E+02  0.00000000000E+00 0. -1.
</event>
<event>
 7    1  0.8986500E-014  0.5052885E+02  0.7816164E-02  0.1300439E+00
        -11   -1    0    0    0    0  0.00000000000E+00  0.00000000000E+00  0.45593999997E+02  0.45594000000E+02  0.51100000000E-03 0. -1.
         11   -1    0    0    0    0 -0.00000000000E+00 -0.00000000000E+00 -0.45593999997E+02  0.45594000000E+02  0.51100000000E-03 0.  1.
    9900012    2    1    2    0    0 -0.25206179886E+02 -0.21506986222E+01 -0.31830639563E+02  0.50528848213E+02  0.29999964629E+02 0.  0.
         12    1    1    2    0    0  0.25206179886E+02  0.21506986222E+01  0.31830639563E+02  0.40659151787E+02  0.00000000000E+00 0. -1.
         11    1    3    3    0    0  0.19845038634E+01 -0.13356762779E+01 -0.65560147140E+01  0.69787975966E+01  0.51100000000E-03 0. -1.
        -11    1    3    3    0    0 -0.47449324896E+01 -0.31543013728E+01  0.37226163131E+01  0.68060174814E+01  0.51100000000E-03 0.  1.
        -12    1    3    3    0    0 -0.22445751260E+02  0.23392790285E+01 -0.28997241163E+02  0.36744033135E+02  0.00000000000E+00 0.  1.
</event>
<event>
 7    1  0.8986500E-014  0.5052881E+02  0.7816164E-02  0.1300439E+00
        -11   -1    0    0    0    0  0.00000000000E+00  0.00000000000E+00  0.45593999997E+02  0.45594000000E+02  0.51100000000E-03 0. -1.
         11   -1    0    0    0    0 -0.00000000000E+00 -0.00000000000E+00 -0.45593999997E+02  0.45594000000E+02  0.51100000000E-03 0.  1.
    9900012    2    1    2    0    0 -0.18147594988E+02  0.14545300536E+02  0.33350692105E+02  0.50528811181E+02  0.29999852065E+02 0.  0.
        -12    1    1    2    0    0  0.18147594988E+02 -0.14545300536E+02 -0.33350692105E+02  0.40659188819E+02  0.00000000000E+00 0.  1.
         11    1    3    3    0    0 -0.12587985602E+02  0.28992172495E+01  0.11994014518E+02  0.17627229695E+02  0.51100000000E-03 0. -1.
        -11    1    3    3    0    0 -0.13477328819E+02  0.10030479970E+02  0.12707963666E+02  0.21065167014E+02  0.51100000000E-03 0.  1.
        -12    1    3    3    0    0  0.79177194323E+01  0.16156033166E+01  0.86487139201E+01  0.11836414472E+02  0.00000000000E+00 0.  1.
</event>
<event>
 7    1  0.8986500E-014  0.5052889E+02  0.7816164E-02  0.1300439E+00
        -11   -1    0    0    0    0  0.00000000000E+00  0.00000000000E+00  0.45593999997E+02  0.45594000000E+02  0.51100000000E-03 0. -1.
         11   -1    0    0    0    0 -0.00000000000E+00 -0.00000000000E+00 -0.45593999997E+02  0.45594000000E+02  0.51100000000E-03 0.  1.
    9900012    2    1    2    0    0  0.18221496592E+02 -0.26707344228E+02 -0.24654780874E+02  0.50528887937E+02  0.30000085374E+02 0.  0.
         12    1    1    2    0    0 -0.18221496592E+02  0.26707344228E+02  0.24654780874E+02  0.40659112063E+02  0.00000000000E+00 0. -1.
         11    1    3    3    0    0 -0.82264384076E+00 -0.89426828137E+00 -0.98410407914E+01  0.99157724241E+01  0.51100000000E-03 0. -1.
        -11    1    3    3    0    0  0.16644991931E+02 -0.27012638295E+02 -0.17975210985E+02  0.36467061772E+02  0.51100000000E-03 0.  1.
         12    1    3    3    0    0  0.23991485011E+01  0.11995623482E+01  0.31614709024E+01  0.41460537411E+01  0.00000000000E+00 0. -1.
</event>
<event>
 7    1  0.8986500E-014  0.5052886E+02  0.7816164E-02  0.1300439E+00
        -11   -1    0    0    0    0  0.00000000000E+00  0.00000000000E+00  0.45593999997E+02  0.45594000000E+02  0.51100000000E-03 0. -1.
         11   -1    0    0    0    0 -0.00000000000E+00 -0.00000000000E+00 -0.45593999997E+02  0.45594000000E+02  0.51100000000E-03 0.  1.
    9900012    2    1    2    0    0 -0.13761848050E+02 -0.29466536513E+02 -0.24402878285E+02  0.50528859522E+02  0.29999999003E+02 0.  0.
         12    1    1    2    0    0  0.13761848050E+02  0.29466536513E+02  0.24402878285E+02  0.40659140478E+02  0.00000000000E+00 0. -1.
         11    1    3    3    0    0 -0.76445195214E+01 -0.16858044928E+01 -0.14768508898E+02  0.16714947527E+02  0.51100000000E-03 0. -1.
        -11    1    3    3    0    0  0.20079159113E+01  0.16180835415E+00 -0.35545185317E+01  0.40856468892E+01  0.51100000000E-03 0.  1.
        -12    1    3    3    0    0 -0.81252444403E+01 -0.27942540374E+02 -0.60798508552E+01  0.29728265105E+02  0.00000000000E+00 0.  1.
</event>
<event>
 7    1  0.8986500E-014  0.5052879E+02  0.7816164E-02  0.1300439E+00
        -11   -1    0    0    0    0  0.00000000000E+00  0.00000000000E+00  0.45593999997E+02  0.45594000000E+02  0.51100000000E-03 0. -1.
         11   -1    0    0    0    0 -0.00000000000E+00 -0.00000000000E+00 -0.45593999997E+02  0.45594000000E+02  0.51100000000E-03 0.  1.
    9900012    2    1    2    0    0  0.15387606943E+02 -0.85339598480E+01 -0.36654664069E+02  0.50528790513E+02  0.29999789243E+02 0.  0.
         12    1    1    2    0    0 -0.15387606943E+02  0.85339598480E+01  0.36654664069E+02  0.40659209487E+02  0.00000000000E+00 0. -1.
         11    1    3    3    0    0 -0.38395995674E+01 -0.76984561947E+01 -0.48484064680E+01  0.98750087676E+01  0.51100000000E-03 0. -1.
        -11    1    3    3    0    0 -0.27597148580E+01  0.46641312232E-01 -0.68315925817E+01  0.73680973781E+01  0.51100000000E-03 0.  1.
         12    1    3    3    0    0  0.21986921368E+02 -0.88214496555E+00 -0.24974665019E+02  0.33285684367E+02  0.00000000000E+00 0. -1.
</event>
<event>
 7    1  0.8986500E-014  0.5052886E+02  0.7816164E-02  0.1300439E+00
        -11   -1    0    0    0    0  0.00000000000E+00  0.00000000000E+00  0.45593999997E+02  0.45594000000E+02  0.51100000000E-03 0.  1.
         11   -1    0    0    0    0 -0.00000000000E+00 -0.00000000000E+00 -0.45593999997E+02  0.45594000000E+02  0.51100000000E-03 0. -1.
    9900012    2    1    2    0    0  0.37249160848E+02  0.13359828467E+02 -0.93370530023E+01  0.50528861307E+02  0.30000004427E+02 0.  0.
         12    1    1    2    0    0 -0.37249160848E+02 -0.13359828467E+02  0.93370530023E+01  0.40659138693E+02  0.00000000000E+00 0. -1.
         11    1    3    3    0    0  0.13965844586E+01  0.14756972295E+01 -0.54205981556E+00  0.21028455882E+01  0.51100000000E-03 0. -1.
        -11    1    3    3    0    0  0.10606288535E+02  0.18251362557E+02 -0.55590641866E+00  0.21116690647E+02  0.51100000000E-03 0.  1.
         12    1    3    3    0    0  0.25246287854E+02 -0.63672313193E+01 -0.82390867681E+01  0.27309325071E+02  0.00000000000E+00 0. -1.
</event>
<event>
 7    1  0.8986500E-014  0.5052887E+02  0.7816164E-02  0.1300439E+00
        -11   -1    0    0    0    0  0.00000000000E+00  0.00000000000E+00  0.45593999997E+02  0.45594000000E+02  0.51100000000E-03 0.  1.
         11   -1    0    0    0    0 -0.00000000000E+00 -0.00000000000E+00 -0.45593999997E+02  0.45594000000E+02  0.51100000000E-03 0. -1.
    9900012    2    1    2    0    0  0.20867878675E+02 -0.34799440751E+02  0.25875963757E+01  0.50528867053E+02  0.30000021895E+02 0.  0.
         12    1    1    2    0    0 -0.20867878675E+02  0.34799440751E+02 -0.25875963757E+01  0.40659132947E+02  0.00000000000E+00 0. -1.
         11    1    3    3    0    0 -0.14278095162E+01 -0.61352789881E+01 -0.47794787389E+01  0.79071932791E+01  0.51100000000E-03 0. -1.
        -11    1    3    3    0    0  0.29445503568E+01  0.22440411641E+01 -0.29391958474E+01  0.47270466510E+01  0.51100000000E-03 0.  1.
        -12    1    3    3    0    0  0.19351137835E+02 -0.30908202927E+02  0.10306270962E+02  0.37894627123E+02  0.00000000000E+00 0.  1.
</event>
<event>
 7    1  0.8986500E-014  0.5052886E+02  0.7816164E-02  0.1300439E+00
        -11   -1    0    0    0    0  0.00000000000E+00  0.00000000000E+00  0.45593999997E+02  0.45594000000E+02  0.51100000000E-03 0. -1.
         11   -1    0    0    0    0 -0.00000000000E+00 -0.00000000000E+00 -0.45593999997E+02  0.45594000000E+02  0.51100000000E-03 0.  1.
    9900012    2    1    2    0    0  0.30891641918E+02 -0.89952945752E+01 -0.24858739458E+02  0.50528858441E+02  0.29999995719E+02 0.  0.
         12    1    1    2    0    0 -0.30891641918E+02  0.89952945752E+01  0.24858739458E+02  0.40659141559E+02  0.00000000000E+00 0. -1.
         11    1    3    3    0    0  0.22381829142E+01 -0.39323950645E+01  0.23373696441E+01  0.50927881180E+01  0.51100000000E-03 0. -1.
        -11    1    3    3    0    0  0.30156665458E+02 -0.53552929473E+01 -0.16811094719E+02  0.34938754128E+02  0.51100000000E-03 0.  1.
         12    1    3    3    0    0 -0.15032064549E+01  0.29239343664E+00 -0.10385014383E+02  0.10497316195E+02  0.00000000000E+00 0. -1.
</event>
<event>
 7    1  0.8986500E-014  0.5052886E+02  0.7816164E-02  0.1300439E+00
        -11   -1    0    0    0    0  0.00000000000E+00  0.00000000000E+00  0.45593999997E+02  0.45594000000E+02  0.51100000000E-03 0. -1.
         11   -1    0    0    0    0 -0.00000000000E+00 -0.00000000000E+00 -0.45593999997E+02  0.45594000000E+02  0.51100000000E-03 0.  1.
    9900012    2    1    2    0    0  0.29095285638E+02  0.15281073931E+02 -0.23939902562E+02  0.50528858328E+02  0.29999995374E+02 0.  0.
         12    1    1    2    0    0 -0.29095285638E+02 -0.15281073931E+02  0.23939902562E+02  0.40659141672E+02  0.00000000000E+00 0. -1.
         11    1    3    3    0    0  0.90646170064E+01  0.62915554066E+01 -0.89530542537E+00  0.11070344302E+02  0.51100000000E-03 0. -1.
        -11    1    3    3    0    0  0.22654478058E+02  0.33762398503E+01 -0.99512149880E+01  0.24973006459E+02  0.51100000000E-03 0.  1.
         12    1    3    3    0    0 -0.26238094263E+01  0.56132786741E+01 -0.13093382148E+02  0.14485507567E+02  0.00000000000E+00 0. -1.
</event>
<event>
 7    1  0.8986500E-014  0.5052887E+02  0.7816164E-02  0.1300439E+00
        -11   -1    0    0    0    0  0.00000000000E+00  0.00000000000E+00  0.45593999997E+02  0.45594000000E+02  0.51100000000E-03 0.  1.
         11   -1    0    0    0    0 -0.00000000000E+00 -0.00000000000E+00 -0.45593999997E+02  0.45594000000E+02  0.51100000000E-03 0. -1.
    9900012    2    1    2    0    0  0.15527004295E+02 -0.37234450102E+02  0.50668480738E+01  0.50528867125E+02  0.30000022112E+02 0.  0.
        -12    1    1    2    0    0 -0.15527004295E+02  0.37234450102E+02 -0.50668480738E+01  0.40659132875E+02  0.00000000000E+00 0.  1.
         11    1    3    3    0    0 -0.17995105658E+01 -0.23552852281E+02  0.15165397132E+01  0.23670128470E+02  0.51100000000E-03 0. -1.
        -11    1    3    3    0    0 -0.13488021137E+00 -0.20809492878E+01  0.54244426739E+01  0.58114646341E+01  0.51100000000E-03 0.  1.
        -12    1    3    3    0    0  0.17461395072E+02 -0.11600648534E+02 -0.18741343134E+01  0.21047274020E+02  0.00000000000E+00 0.  1.
</event>
<event>
 7    1  0.9155898E-014  0.5052885E+02  0.7816164E-02  0.1300439E+00
        -11   -1    0    0    0    0  0.00000000000E+00  0.00000000000E+00  0.45593999997E+02  0.45594000000E+02  0.51100000000E-03 0. -1.
         11   -1    0    0    0    0 -0.00000000000E+00 -0.00000000000E+00 -0.45593999997E+02  0.45594000000E+02  0.51100000000E-03 0.  1.
    9900012    2    1    2    0    0  0.11485728406E+02  0.25933089552E+02  0.29132784277E+02  0.50528853299E+02  0.29999980087E+02 0.  0.
        -12    1    1    2    0    0 -0.11485728406E+02 -0.25933089552E+02 -0.29132784277E+02  0.40659146701E+02  0.00000000000E+00 0.  1.
         11    1    3    3    0    0  0.10779788274E+02  0.62895268882E+01 -0.23882960800E+00  0.12482749039E+02  0.51100000000E-03 0. -1.
        -11    1    3    3    0    0  0.29987710041E+01 -0.57105753507E+00  0.11632088257E+01  0.32667704659E+01  0.51100000000E-03 0.  1.
         12    1    3    3    0    0 -0.22928308722E+01  0.20214620199E+02  0.28208405059E+02  0.34779333794E+02  0.00000000000E+00 0. -1.
</event>
<event>
 7    1  0.8986500E-014  0.5052886E+02  0.7816164E-02  0.1300439E+00
        -11   -1    0    0    0    0  0.00000000000E+00  0.00000000000E+00  0.45593999997E+02  0.45594000000E+02  0.51100000000E-03 0. -1.
         11   -1    0    0    0    0 -0.00000000000E+00 -0.00000000000E+00 -0.45593999997E+02  0.45594000000E+02  0.51100000000E-03 0.  1.
    9900012    2    1    2    0    0 -0.56812216692E+01  0.24313643827E+01  0.40186790133E+02  0.50528856949E+02  0.29999991182E+02 0.  0.
        -12    1    1    2    0    0  0.56812216692E+01 -0.24313643827E+01 -0.40186790133E+02  0.40659143051E+02  0.00000000000E+00 0.  1.
         11    1    3    3    0    0 -0.11224057823E+02  0.71814512706E+01  0.31297467788E+02  0.34015940478E+02  0.51100000000E-03 0. -1.
        -11    1    3    3    0    0 -0.20893471842E+01 -0.45655109814E+01  0.31266153729E+00  0.50306082808E+01  0.51100000000E-03 0.  1.
        -12    1    3    3    0    0  0.76321833380E+01 -0.18457590655E+00  0.85766608078E+01  0.11482308191E+02  0.00000000000E+00 0.  1.
</event>
<event>
 7    1  0.8986500E-014  0.5052886E+02  0.7816164E-02  0.1300439E+00
        -11   -1    0    0    0    0  0.00000000000E+00  0.00000000000E+00  0.45593999997E+02  0.45594000000E+02  0.51100000000E-03 0. -1.
         11   -1    0    0    0    0 -0.00000000000E+00 -0.00000000000E+00 -0.45593999997E+02  0.45594000000E+02  0.51100000000E-03 0.  1.
    9900012    2    1    2    0    0  0.52738269250E+01  0.18538770932E+02  0.35800365052E+02  0.50528863069E+02  0.30000009785E+02 0.  0.
        -12    1    1    2    0    0 -0.52738269250E+01 -0.18538770932E+02 -0.35800365052E+02  0.40659136931E+02  0.00000000000E+00 0.  1.
         11    1    3    3    0    0  0.24352839780E+01  0.13520839139E+02  0.20069399305E+02  0.24321276443E+02  0.51100000000E-03 0. -1.
        -11    1    3    3    0    0 -0.71095577267E+01 -0.13157717319E+01  0.11682279557E+02  0.13738730735E+02  0.51100000000E-03 0.  1.
        -12    1    3    3    0    0  0.99481006737E+01  0.63337035253E+01  0.40486861902E+01  0.12468855891E+02  0.00000000000E+00 0.  1.
</event>
<event>
 7    1  0.8986500E-014  0.5052886E+02  0.7816164E-02  0.1300439E+00
        -11   -1    0    0    0    0  0.00000000000E+00  0.00000000000E+00  0.45593999997E+02  0.45594000000E+02  0.51100000000E-03 0. -1.
         11   -1    0    0    0    0 -0.00000000000E+00 -0.00000000000E+00 -0.45593999997E+02  0.45594000000E+02  0.51100000000E-03 0.  1.
    9900012    2    1    2    0    0 -0.32092274735E+02 -0.15037430991E+02 -0.19928052376E+02  0.50528859577E+02  0.29999999170E+02 0.  0.
         12    1    1    2    0    0  0.32092274735E+02  0.15037430991E+02  0.19928052376E+02  0.40659140423E+02  0.00000000000E+00 0. -1.
         11    1    3    3    0    0 -0.58259136756E+01 -0.89394380999E-02 -0.23342945451E+01  0.62761677283E+01  0.51100000000E-03 0. -1.
        -11    1    3    3    0    0 -0.23026847247E+02 -0.50076648448E+00 -0.26894231998E+01  0.23188778722E+02  0.51100000000E-03 0.  1.
        -12    1    3    3    0    0 -0.32395138118E+01 -0.14527725068E+02 -0.14904334631E+02  0.21063913126E+02  0.00000000000E+00 0.  1.
</event>
<event>
 7    1  0.8986500E-014  0.5052886E+02  0.7816164E-02  0.1300439E+00
        -11   -1    0    0    0    0  0.00000000000E+00  0.00000000000E+00  0.45593999997E+02  0.45594000000E+02  0.51100000000E-03 0.  1.
         11   -1    0    0    0    0 -0.00000000000E+00 -0.00000000000E+00 -0.45593999997E+02  0.45594000000E+02  0.51100000000E-03 0. -1.
    9900012    2    1    2    0    0  0.10412456999E+02  0.38830496666E+02  0.60777381992E+01  0.50528860392E+02  0.30000001646E+02 0.  0.
        -12    1    1    2    0    0 -0.10412456999E+02 -0.38830496666E+02 -0.60777381992E+01  0.40659139608E+02  0.00000000000E+00 0.  1.
         11    1    3    3    0    0  0.40146402207E+01 -0.56362554106E+00  0.22351978623E+01  0.46293757244E+01  0.51100000000E-03 0.  1.
        -11    1    3    3    0    0  0.11019855645E+02  0.36745551531E+02  0.79441383196E+01  0.39176295251E+02  0.51100000000E-03 0. -1.
         12    1    3    3    0    0 -0.46220388664E+01  0.26485706763E+01 -0.41015979828E+01  0.67231894159E+01  0.00000000000E+00 0. -1.
</event>
<event>
 7    1  0.8986500E-014  0.5052885E+02  0.7816164E-02  0.1300439E+00
        -11   -1    0    0    0    0  0.00000000000E+00  0.00000000000E+00  0.45593999997E+02  0.45594000000E+02  0.51100000000E-03 0. -1.
         11   -1    0    0    0    0 -0.00000000000E+00 -0.00000000000E+00 -0.45593999997E+02  0.45594000000E+02  0.51100000000E-03 0.  1.
    9900012    2    1    2    0    0  0.39088649042E+02  0.81199363961E+01 -0.77013411121E+01  0.50528849666E+02  0.29999969044E+02 0.  0.
         12    1    1    2    0    0 -0.39088649042E+02 -0.81199363961E+01  0.77013411121E+01  0.40659150334E+02  0.00000000000E+00 0. -1.
         11    1    3    3    0    0  0.45437327045E+00  0.60709202182E+01 -0.55019925324E+01  0.82057570920E+01  0.51100000000E-03 0. -1.
        -11    1    3    3    0    0  0.23077986694E+02  0.47154119488E+01 -0.88950961371E+01  0.25178389846E+02  0.51100000000E-03 0.  1.
         12    1    3    3    0    0  0.15556289077E+02 -0.26663957709E+01  0.66957475574E+01  0.17144702727E+02  0.00000000000E+00 0. -1.
</event>
<event>
 7    1  0.8986500E-014  0.5052885E+02  0.7816164E-02  0.1300439E+00
        -11   -1    0    0    0    0  0.00000000000E+00  0.00000000000E+00  0.45593999997E+02  0.45594000000E+02  0.51100000000E-03 0. -1.
         11   -1    0    0    0    0 -0.00000000000E+00 -0.00000000000E+00 -0.45593999997E+02  0.45594000000E+02  0.51100000000E-03 0.  1.
    9900012    2    1    2    0    0 -0.19194418590E+02  0.19647930880E+02 -0.29978316310E+02  0.50528851685E+02  0.29999975183E+02 0.  0.
         12    1    1    2    0    0  0.19194418590E+02 -0.19647930880E+02  0.29978316310E+02  0.40659148315E+02  0.00000000000E+00 0. -1.
         11    1    3    3    0    0 -0.15170450095E+00 -0.36606789472E+01 -0.22305153304E+01  0.42893803177E+01  0.51100000000E-03 0. -1.
        -11    1    3    3    0    0 -0.11478318465E+02  0.19434794411E+02 -0.29909211960E+02  0.37470308097E+02  0.51100000000E-03 0.  1.
         12    1    3    3    0    0 -0.75643956237E+01  0.38738154164E+01  0.21614109801E+01  0.87691632701E+01  0.00000000000E+00 0. -1.
</event>
<event>
 7    1  0.8986500E-014  0.5052886E+02  0.7816164E-02  0.1300439E+00
        -11   -1    0    0    0    0  0.00000000000E+00  0.00000000000E+00  0.45593999997E+02  0.45594000000E+02  0.51100000000E-03 0.  1.
         11   -1    0    0    0    0 -0.00000000000E+00 -0.00000000000E+00 -0.45593999997E+02  0.45594000000E+02  0.51100000000E-03 0. -1.
    9900012    2    1    2    0    0 -0.27744424191E+02 -0.21946977030E+02  0.20043522434E+02  0.50528859994E+02  0.30000000439E+02 0.  0.
        -12    1    1    2    0    0  0.27744424191E+02  0.21946977030E+02 -0.20043522434E+02  0.40659140006E+02  0.00000000000E+00 0.  1.
         11    1    3    3    0    0 -0.84570391890E+01 -0.19150439544E+02  0.20328241841E+02  0.29180443163E+02  0.51100000000E-03 0. -1.
        -11    1    3    3    0    0 -0.32572655563E+00 -0.62223581875E+00  0.20061229767E+01  0.21255128468E+01  0.51100000000E-03 0.  1.
        -12    1    3    3    0    0 -0.18961658446E+02 -0.21743016671E+01 -0.22908423838E+01  0.19222903984E+02  0.00000000000E+00 0.  1.
</event>
<event>
 7    1  0.8986500E-014  0.5052887E+02  0.7816164E-02  0.1300439E+00
        -11   -1    0    0    0    0  0.00000000000E+00  0.00000000000E+00  0.45593999997E+02  0.45594000000E+02  0.51100000000E-03 0. -1.
         11   -1    0    0    0    0 -0.00000000000E+00 -0.00000000000E+00 -0.45593999997E+02  0.45594000000E+02  0.51100000000E-03 0.  1.
    9900012    2    1    2    0    0 -0.39199412119E+02 -0.46278266263E+01  0.97547155841E+01  0.50528866144E+02  0.30000019132E+02 0.  0.
        -12    1    1    2    0    0  0.39199412119E+02  0.46278266263E+01 -0.97547155841E+01  0.40659133856E+02  0.00000000000E+00 0.  1.
         11    1    3    3    0    0 -0.27232656643E+02  0.19235324700E+01  0.17226514979E+01  0.27354800190E+02  0.51100000000E-03 0. -1.
        -11    1    3    3    0    0 -0.89297766465E+01 -0.16614106190E+01 -0.39317614210E+01  0.98974716132E+01  0.51100000000E-03 0.  1.
         12    1    3    3    0    0 -0.30369788298E+01 -0.48899484773E+01  0.11963825507E+02  0.13276594341E+02  0.00000000000E+00 0. -1.
</event>
<event>
 7    1  0.8986500E-014  0.5052891E+02  0.7816164E-02  0.1300439E+00
        -11   -1    0    0    0    0  0.00000000000E+00  0.00000000000E+00  0.45593999997E+02  0.45594000000E+02  0.51100000000E-03 0. -1.
         11   -1    0    0    0    0 -0.00000000000E+00 -0.00000000000E+00 -0.45593999997E+02  0.45594000000E+02  0.51100000000E-03 0.  1.
    9900012    2    1    2    0    0 -0.19045274801E+02 -0.34134320054E+02  0.11193175802E+02  0.50528911443E+02  0.30000156822E+02 0.  0.
        -12    1    1    2    0    0  0.19045274801E+02  0.34134320054E+02 -0.11193175802E+02  0.40659088557E+02  0.00000000000E+00 0.  1.
         11    1    3    3    0    0 -0.36040053995E+01 -0.17534469203E+02 -0.47684932544E+01  0.18525252855E+02  0.51100000000E-03 0. -1.
        -11    1    3    3    0    0 -0.36912001180E+01 -0.14225755158E+02  0.13080492138E+02  0.19674764115E+02  0.51100000000E-03 0.  1.
        -12    1    3    3    0    0 -0.11750069283E+02 -0.23740956924E+01  0.28811769180E+01  0.12328894474E+02  0.00000000000E+00 0.  1.
</event>
<event>
 7    1  0.8986500E-014  0.5052887E+02  0.7816164E-02  0.1300439E+00
        -11   -1    0    0    0    0  0.00000000000E+00  0.00000000000E+00  0.45593999997E+02  0.45594000000E+02  0.51100000000E-03 0. -1.
         11   -1    0    0    0    0 -0.00000000000E+00 -0.00000000000E+00 -0.45593999997E+02  0.45594000000E+02  0.51100000000E-03 0.  1.
    9900012    2    1    2    0    0  0.10521249391E+02  0.18775216305E+01  0.39229363440E+02  0.50528871478E+02  0.30000035345E+02 0.  0.
        -12    1    1    2    0    0 -0.10521249391E+02 -0.18775216305E+01 -0.39229363440E+02  0.40659128522E+02  0.00000000000E+00 0.  1.
         11    1    3    3    0    0  0.19730904162E+01  0.22341903123E+01  0.10472618206E+02  0.10888545564E+02  0.51100000000E-03 0. -1.
        -11    1    3    3    0    0  0.16274462085E+02  0.36285534021E+01  0.25266239659E+02  0.30272221305E+02  0.51100000000E-03 0.  1.
        -12    1    3    3    0    0 -0.77263031098E+01 -0.39852220839E+01  0.34905055744E+01  0.93681046091E+01  0.00000000000E+00 0.  1.
</event>
<event>
 7    1  0.8986500E-014  0.5052886E+02  0.7816164E-02  0.1300439E+00
        -11   -1    0    0    0    0  0.00000000000E+00  0.00000000000E+00  0.45593999997E+02  0.45594000000E+02  0.51100000000E-03 0. -1.
         11   -1    0    0    0    0 -0.00000000000E+00 -0.00000000000E+00 -0.45593999997E+02  0.45594000000E+02  0.51100000000E-03 0.  1.
    9900012    2    1    2    0    0 -0.27534307721E+01 -0.20679700949E+02  0.34898917602E+02  0.50528857582E+02  0.29999993107E+02 0.  0.
        -12    1    1    2    0    0  0.27534307721E+01  0.20679700949E+02 -0.34898917602E+02  0.40659142418E+02  0.00000000000E+00 0.  1.
         11    1    3    3    0    0  0.25816780248E+01 -0.52346748435E+01  0.22172804217E+02  0.22928151457E+02  0.51100000000E-03 0. -1.
        -11    1    3    3    0    0  0.62173126315E+01 -0.91413689665E+01  0.37636445407E+01  0.11678382740E+02  0.51100000000E-03 0.  1.
        -12    1    3    3    0    0 -0.11552421428E+02 -0.63036571395E+01  0.89624688446E+01  0.15922323385E+02  0.00000000000E+00 0.  1.
</event>
<event>
 7    1  0.8986500E-014  0.5052890E+02  0.7816164E-02  0.1300439E+00
        -11   -1    0    0    0    0  0.00000000000E+00  0.00000000000E+00  0.45593999997E+02  0.45594000000E+02  0.51100000000E-03 0. -1.
         11   -1    0    0    0    0 -0.00000000000E+00 -0.00000000000E+00 -0.45593999997E+02  0.45594000000E+02  0.51100000000E-03 0.  1.
    9900012    2    1    2    0    0  0.14591538051E+02  0.19493921155E+01 -0.37900513366E+02  0.50528904760E+02  0.30000136508E+02 0.  0.
         12    1    1    2    0    0 -0.14591538051E+02 -0.19493921155E+01  0.37900513366E+02  0.40659095240E+02  0.00000000000E+00 0. -1.
         11    1    3    3    0    0  0.58646135101E+01 -0.90009361823E+01 -0.47594353737E+01  0.11750011452E+02  0.51100000000E-03 0.  1.
        -11    1    3    3    0    0  0.25951904787E+00  0.87356311493E+01 -0.69559097646E+01  0.11169748548E+02  0.51100000000E-03 0. -1.
         12    1    3    3    0    0  0.84674054932E+01  0.22146971486E+01 -0.26185168228E+02  0.27609144760E+02  0.00000000000E+00 0. -1.
</event>
<event>
 7    1  0.8986500E-014  0.5052886E+02  0.7816164E-02  0.1300439E+00
        -11   -1    0    0    0    0  0.00000000000E+00  0.00000000000E+00  0.45593999997E+02  0.45594000000E+02  0.51100000000E-03 0. -1.
         11   -1    0    0    0    0 -0.00000000000E+00 -0.00000000000E+00 -0.45593999997E+02  0.45594000000E+02  0.51100000000E-03 0.  1.
    9900012    2    1    2    0    0  0.62031293272E+01  0.29822734644E+01 -0.40072345921E+02  0.50528859871E+02  0.30000000064E+02 0.  0.
         12    1    1    2    0    0 -0.62031293272E+01 -0.29822734644E+01  0.40072345921E+02  0.40659140129E+02  0.00000000000E+00 0. -1.
         11    1    3    3    0    0 -0.18496745920E+01  0.29826742457E+01 -0.77025637574E+01  0.84644627975E+01  0.51100000000E-03 0. -1.
        -11    1    3    3    0    0 -0.76764416258E+01  0.61159055824E+01 -0.14245781357E+02  0.17299547504E+02  0.51100000000E-03 0.  1.
        -12    1    3    3    0    0  0.15729245545E+02 -0.61163063637E+01 -0.18124000806E+02  0.24764849569E+02  0.00000000000E+00 0.  1.
</event>
<event>
 7    1  0.8986500E-014  0.5052887E+02  0.7816164E-02  0.1300439E+00
        -11   -1    0    0    0    0  0.00000000000E+00  0.00000000000E+00  0.45593999997E+02  0.45594000000E+02  0.51100000000E-03 0. -1.
         11   -1    0    0    0    0 -0.00000000000E+00 -0.00000000000E+00 -0.45593999997E+02  0.45594000000E+02  0.51100000000E-03 0.  1.
    9900012    2    1    2    0    0  0.22239626445E+02  0.10316024640E+02  0.32436765781E+02  0.50528866671E+02  0.30000020733E+02 0.  0.
        -12    1    1    2    0    0 -0.22239626445E+02 -0.10316024640E+02 -0.32436765781E+02  0.40659133329E+02  0.00000000000E+00 0.  1.
         11    1    3    3    0    0  0.14033965472E+02  0.95736579346E+01  0.22899134905E+02  0.28512760174E+02  0.51100000000E-03 0. -1.
        -11    1    3    3    0    0  0.59207141345E+01  0.76871946843E+01  0.10885057610E+02  0.14581916795E+02  0.51100000000E-03 0.  1.
         12    1    3    3    0    0  0.22849468384E+01 -0.69448279789E+01 -0.13474267347E+01  0.74341897014E+01  0.00000000000E+00 0. -1.
</event>
<event>
 7    1  0.8986500E-014  0.5052886E+02  0.7816164E-02  0.1300439E+00
        -11   -1    0    0    0    0  0.00000000000E+00  0.00000000000E+00  0.45593999997E+02  0.45594000000E+02  0.51100000000E-03 0. -1.
         11   -1    0    0    0    0 -0.00000000000E+00 -0.00000000000E+00 -0.45593999997E+02  0.45594000000E+02  0.51100000000E-03 0.  1.
    9900012    2    1    2    0    0  0.22143003613E+01  0.88222277047E+01  0.39628663019E+02  0.50528858833E+02  0.29999996910E+02 0.  0.
        -12    1    1    2    0    0 -0.22143003613E+01 -0.88222277047E+01 -0.39628663019E+02  0.40659141167E+02  0.00000000000E+00 0.  1.
         11    1    3    3    0    0  0.81001339659E+01 -0.82196974024E+00  0.16464447765E+02  0.18367521471E+02  0.51100000000E-03 0. -1.
        -11    1    3    3    0    0  0.23170013962E+01  0.55236228806E+01  0.22126855667E+02  0.22923277409E+02  0.51100000000E-03 0.  1.
        -12    1    3    3    0    0 -0.82028350009E+01  0.41205745643E+01  0.10373595868E+01  0.92380599535E+01  0.00000000000E+00 0.  1.
</event>
<event>
 7    1  0.8986500E-014  0.5052884E+02  0.7816164E-02  0.1300439E+00
        -11   -1    0    0    0    0  0.00000000000E+00  0.00000000000E+00  0.45593999997E+02  0.45594000000E+02  0.51100000000E-03 0. -1.
         11   -1    0    0    0    0 -0.00000000000E+00 -0.00000000000E+00 -0.45593999997E+02  0.45594000000E+02  0.51100000000E-03 0.  1.
    9900012    2    1    2    0    0 -0.12399071755E+02 -0.22363315379E+01 -0.38657844408E+02  0.50528842441E+02  0.29999947083E+02 0.  0.
         12    1    1    2    0    0  0.12399071755E+02  0.22363315379E+01  0.38657844408E+02  0.40659157559E+02  0.00000000000E+00 0. -1.
         11    1    3    3    0    0 -0.11625872120E+02  0.62587753201E+01 -0.28770914395E+02  0.31655942356E+02  0.51100000000E-03 0. -1.
        -11    1    3    3    0    0 -0.15339615179E+01 -0.20475442131E+01 -0.11824136343E+02  0.12097754989E+02  0.51100000000E-03 0.  1.
         12    1    3    3    0    0  0.76076188295E+00 -0.64475626449E+01  0.19372063304E+01  0.67751450958E+01  0.00000000000E+00 0. -1.
</event>
<event>
 7    1  0.8986500E-014  0.5052886E+02  0.7816164E-02  0.1300439E+00
        -11   -1    0    0    0    0  0.00000000000E+00  0.00000000000E+00  0.45593999997E+02  0.45594000000E+02  0.51100000000E-03 0. -1.
         11   -1    0    0    0    0 -0.00000000000E+00 -0.00000000000E+00 -0.45593999997E+02  0.45594000000E+02  0.51100000000E-03 0.  1.
    9900012    2    1    2    0    0 -0.11161850391E+02  0.39077199739E+02  0.12454966670E+01  0.50528859508E+02  0.29999998960E+02 0.  0.
        -12    1    1    2    0    0  0.11161850391E+02 -0.39077199739E+02 -0.12454966670E+01  0.40659140492E+02  0.00000000000E+00 0.  1.
         11    1    3    3    0    0 -0.16635065340E+02  0.37723891045E+02 -0.32138092697E+01  0.41353910634E+02  0.51100000000E-03 0. -1.
        -11    1    3    3    0    0 -0.80336900147E+00 -0.88893463533E+00  0.81953269381E-01  0.12009675840E+01  0.51100000000E-03 0.  1.
         12    1    3    3    0    0  0.62765839502E+01  0.22422433295E+01  0.43773526673E+01  0.79739812896E+01  0.00000000000E+00 0. -1.
</event>
<event>
 7    1  0.8986500E-014  0.5052887E+02  0.7816164E-02  0.1300439E+00
        -11   -1    0    0    0    0  0.00000000000E+00  0.00000000000E+00  0.45593999997E+02  0.45594000000E+02  0.51100000000E-03 0. -1.
         11   -1    0    0    0    0 -0.00000000000E+00 -0.00000000000E+00 -0.45593999997E+02  0.45594000000E+02  0.51100000000E-03 0.  1.
    9900012    2    1    2    0    0  0.10361286268E+02  0.82813704311E+01 -0.38434720018E+02  0.50528867542E+02  0.30000023382E+02 0.  0.
         12    1    1    2    0    0 -0.10361286268E+02 -0.82813704311E+01  0.38434720018E+02  0.40659132458E+02  0.00000000000E+00 0. -1.
         11    1    3    3    0    0  0.71840290701E+01  0.17982997892E+01  0.48858870917E+00  0.74217838152E+01  0.51100000000E-03 0. -1.
        -11    1    3    3    0    0 -0.16853993816E+01  0.87782137898E+01 -0.89277575929E+01  0.12633386890E+02  0.51100000000E-03 0.  1.
        -12    1    3    3    0    0  0.48626565793E+01 -0.22951431479E+01 -0.29995551134E+02  0.30473696837E+02  0.00000000000E+00 0.  1.
</event>
<event>
 7    1  0.8986500E-014  0.5052887E+02  0.7816164E-02  0.1300439E+00
        -11   -1    0    0    0    0  0.00000000000E+00  0.00000000000E+00  0.45593999997E+02  0.45594000000E+02  0.51100000000E-03 0. -1.
         11   -1    0    0    0    0 -0.00000000000E+00 -0.00000000000E+00 -0.45593999997E+02  0.45594000000E+02  0.51100000000E-03 0.  1.
    9900012    2    1    2    0    0  0.10197184255E+01 -0.88046191181E+01  0.39681281247E+02  0.50528865419E+02  0.30000016928E+02 0.  0.
        -12    1    1    2    0    0 -0.10197184255E+01  0.88046191181E+01 -0.39681281247E+02  0.40659134581E+02  0.00000000000E+00 0.  1.
         11    1    3    3    0    0 -0.23338647320E+01 -0.11898761635E+01  0.41864897677E+01  0.49385652479E+01  0.51100000000E-03 0. -1.
        -11    1    3    3    0    0 -0.31717126175E+01 -0.13464816711E+02  0.33991544327E+02  0.36698584931E+02  0.51100000000E-03 0.  1.
        -12    1    3    3    0    0  0.65252957750E+01  0.58500737565E+01  0.15032471522E+01  0.88917152400E+01  0.00000000000E+00 0.  1.
</event>
<event>
 7    1  0.8986500E-014  0.5052886E+02  0.7816164E-02  0.1300439E+00
        -11   -1    0    0    0    0  0.00000000000E+00  0.00000000000E+00  0.45593999997E+02  0.45594000000E+02  0.51100000000E-03 0. -1.
         11   -1    0    0    0    0 -0.00000000000E+00 -0.00000000000E+00 -0.45593999997E+02  0.45594000000E+02  0.51100000000E-03 0.  1.
    9900012    2    1    2    0    0 -0.43568181623E+01  0.99035815815E+01 -0.39193146829E+02  0.50528861409E+02  0.30000004738E+02 0.  0.
         12    1    1    2    0    0  0.43568181623E+01 -0.99035815815E+01  0.39193146829E+02  0.40659138591E+02  0.00000000000E+00 0. -1.
         11    1    3    3    0    0  0.10893436830E+01  0.12523145095E+01 -0.43661389020E+01  0.46709881677E+01  0.51100000000E-03 0.  1.
        -11    1    3    3    0    0 -0.13117026453E+02  0.13351601848E+02 -0.14658306425E+02  0.23773674566E+02  0.51100000000E-03 0. -1.
         12    1    3    3    0    0  0.76708646080E+01 -0.47003347757E+01 -0.20168701502E+02  0.22084198675E+02  0.00000000000E+00 0. -1.
</event>
<event>
 7    1  0.8986500E-014  0.5052886E+02  0.7816164E-02  0.1300439E+00
        -11   -1    0    0    0    0  0.00000000000E+00  0.00000000000E+00  0.45593999997E+02  0.45594000000E+02  0.51100000000E-03 0.  1.
         11   -1    0    0    0    0 -0.00000000000E+00 -0.00000000000E+00 -0.45593999997E+02  0.45594000000E+02  0.51100000000E-03 0. -1.
    9900012    2    1    2    0    0 -0.86601420461E+01  0.28871702139E+02 -0.27287217970E+02  0.50528861922E+02  0.30000006298E+02 0.  0.
         12    1    1    2    0    0  0.86601420461E+01 -0.28871702139E+02  0.27287217970E+02  0.40659138078E+02  0.00000000000E+00 0. -1.
         11    1    3    3    0    0  0.57151777862E+01  0.69677003968E+01 -0.12164323417E+02  0.15138786953E+02  0.51100000000E-03 0. -1.
        -11    1    3    3    0    0 -0.22235835418E+01  0.14837060865E+02 -0.15165876537E+02  0.21332756743E+02  0.51100000000E-03 0.  1.
        -12    1    3    3    0    0 -0.12151736291E+02  0.70669408780E+01  0.42981984129E-01  0.14057318226E+02  0.00000000000E+00 0.  1.
</event>
<event>
 7    1  0.8986500E-014  0.5052887E+02  0.7816164E-02  0.1300439E+00
        -11   -1    0    0    0    0  0.00000000000E+00  0.00000000000E+00  0.45593999997E+02  0.45594000000E+02  0.51100000000E-03 0. -1.
         11   -1    0    0    0    0 -0.00000000000E+00 -0.00000000000E+00 -0.45593999997E+02  0.45594000000E+02  0.51100000000E-03 0.  1.
    9900012    2    1    2    0    0  0.28122929313E+02 -0.12013093994E+02  0.26794610371E+02  0.50528871561E+02  0.30000035597E+02 0.  0.
        -12    1    1    2    0    0 -0.28122929313E+02  0.12013093994E+02 -0.26794610371E+02  0.40659128439E+02  0.00000000000E+00 0.  1.
         11    1    3    3    0    0 -0.97368652470E+00 -0.79237065888E+01  0.64154858226E+00  0.80090434134E+01  0.51100000000E-03 0. -1.
        -11    1    3    3    0    0  0.22368869638E-01 -0.41105860145E+01  0.54558212953E+01  0.68310617049E+01  0.51100000000E-03 0.  1.
         12    1    3    3    0    0  0.29074246968E+02  0.21198609661E-01  0.20697240494E+02  0.35688766443E+02  0.00000000000E+00 0. -1.
</event>
<event>
 7    1  0.8986500E-014  0.5052887E+02  0.7816164E-02  0.1300439E+00
        -11   -1    0    0    0    0  0.00000000000E+00  0.00000000000E+00  0.45593999997E+02  0.45594000000E+02  0.51100000000E-03 0. -1.
         11   -1    0    0    0    0 -0.00000000000E+00 -0.00000000000E+00 -0.45593999997E+02  0.45594000000E+02  0.51100000000E-03 0.  1.
    9900012    2    1    2    0    0 -0.36397000165E+01  0.31435152441E+02 -0.25529372672E+02  0.50528867026E+02  0.30000021812E+02 0.  0.
         12    1    1    2    0    0  0.36397000165E+01 -0.31435152441E+02  0.25529372672E+02  0.40659132974E+02  0.00000000000E+00 0. -1.
         11    1    3    3    0    0 -0.10132317673E+02  0.71321598655E+01 -0.33244027921E+01  0.12828999180E+02  0.51100000000E-03 0.  1.
        -11    1    3    3    0    0  0.58480078455E+01  0.56696810170E+01  0.68918532773E+00  0.81743168077E+01  0.51100000000E-03 0. -1.
        -12    1    3    3    0    0  0.64460981105E+00  0.18633311558E+02 -0.22894155208E+02  0.29525551038E+02  0.00000000000E+00 0.  1.
</event>
<event>
 7    1  0.8986500E-014  0.5052886E+02  0.7816164E-02  0.1300439E+00
        -11   -1    0    0    0    0  0.00000000000E+00  0.00000000000E+00  0.45593999997E+02  0.45594000000E+02  0.51100000000E-03 0. -1.
         11   -1    0    0    0    0 -0.00000000000E+00 -0.00000000000E+00 -0.45593999997E+02  0.45594000000E+02  0.51100000000E-03 0.  1.
    9900012    2    1    2    0    0 -0.31307348096E+02  0.18193308042E+02 -0.18493763401E+02  0.50528858505E+02  0.29999995913E+02 0.  0.
         12    1    1    2    0    0  0.31307348096E+02 -0.18193308042E+02  0.18493763401E+02  0.40659141495E+02  0.00000000000E+00 0. -1.
         11    1    3    3    0    0 -0.16356808149E+01 -0.41750889964E+01 -0.20463481161E+00  0.44887298340E+01  0.51100000000E-03 0. -1.
        -11    1    3    3    0    0 -0.20972853529E+02  0.62586232892E+01 -0.16950338793E+02  0.27682935829E+02  0.51100000000E-03 0.  1.
         12    1    3    3    0    0 -0.86988137520E+01  0.16109773749E+02 -0.13387897969E+01  0.18357192843E+02  0.00000000000E+00 0. -1.
</event>
<event>
 7    1  0.8986500E-014  0.5052887E+02  0.7816164E-02  0.1300439E+00
        -11   -1    0    0    0    0  0.00000000000E+00  0.00000000000E+00  0.45593999997E+02  0.45594000000E+02  0.51100000000E-03 0. -1.
         11   -1    0    0    0    0 -0.00000000000E+00 -0.00000000000E+00 -0.45593999997E+02  0.45594000000E+02  0.51100000000E-03 0.  1.
    9900012    2    1    2    0    0 -0.37026386460E+02  0.15435514451E+02 -0.66299846022E+01  0.50528866998E+02  0.30000021727E+02 0.  0.
        -12    1    1    2    0    0  0.37026386460E+02 -0.15435514451E+02  0.66299846022E+01  0.40659133002E+02  0.00000000000E+00 0.  1.
         11    1    3    3    0    0 -0.12716341959E+02  0.17683825812E+01 -0.11631082649E+02  0.17323816370E+02  0.51100000000E-03 0.  1.
        -11    1    3    3    0    0 -0.22538688489E+02  0.80573920071E+01 -0.20487613841E+01  0.24023144429E+02  0.51100000000E-03 0. -1.
         12    1    3    3    0    0 -0.17713560115E+01  0.56097398628E+01  0.70498594311E+01  0.91819061990E+01  0.00000000000E+00 0. -1.
</event>
<event>
 7    1  0.8986500E-014  0.5052889E+02  0.7816164E-02  0.1300439E+00
        -11   -1    0    0    0    0  0.00000000000E+00  0.00000000000E+00  0.45593999997E+02  0.45594000000E+02  0.51100000000E-03 0. -1.
         11   -1    0    0    0    0 -0.00000000000E+00 -0.00000000000E+00 -0.45593999997E+02  0.45594000000E+02  0.51100000000E-03 0.  1.
    9900012    2    1    2    0    0 -0.95930462092E+01 -0.17050680047E+02 -0.35642828941E+02  0.50528886870E+02  0.30000082129E+02 0.  0.
         12    1    1    2    0    0  0.95930462092E+01  0.17050680047E+02  0.35642828941E+02  0.40659113130E+02  0.00000000000E+00 0. -1.
         11    1    3    3    0    0 -0.25464075151E+01  0.42010060538E+01 -0.10138051414E+01  0.50160187622E+01  0.51100000000E-03 0. -1.
        -11    1    3    3    0    0 -0.23037731117E+01 -0.94028754642E+01 -0.30652480727E+02  0.32144922034E+02  0.51100000000E-03 0.  1.
        -12    1    3    3    0    0 -0.47428655824E+01 -0.11848810637E+02 -0.39765430720E+01  0.13367946074E+02  0.00000000000E+00 0.  1.
</event>
<event>
 7    1  0.8986500E-014  0.5052886E+02  0.7816164E-02  0.1300439E+00
        -11   -1    0    0    0    0  0.00000000000E+00  0.00000000000E+00  0.45593999997E+02  0.45594000000E+02  0.51100000000E-03 0. -1.
         11   -1    0    0    0    0 -0.00000000000E+00 -0.00000000000E+00 -0.45593999997E+02  0.45594000000E+02  0.51100000000E-03 0.  1.
    9900012    2    1    2    0    0 -0.15061599610E+02 -0.32339201260E+02  0.19506157374E+02  0.50528857160E+02  0.29999991824E+02 0.  0.
        -12    1    1    2    0    0  0.15061599610E+02  0.32339201260E+02 -0.19506157374E+02  0.40659142840E+02  0.00000000000E+00 0.  1.
         11    1    3    3    0    0  0.34419693139E+01 -0.66622157160E+01  0.26628710913E-01  0.74988652710E+01  0.51100000000E-03 0. -1.
        -11    1    3    3    0    0  0.21048977609E+01 -0.21182185398E+01 -0.31997487503E+01  0.43767381339E+01  0.51100000000E-03 0.  1.
         12    1    3    3    0    0 -0.20608466685E+02 -0.23558767004E+02  0.22679277414E+02  0.38653253755E+02  0.00000000000E+00 0. -1.
</event>
<event>
 7    1  0.8986500E-014  0.5052886E+02  0.7816164E-02  0.1300439E+00
        -11   -1    0    0    0    0  0.00000000000E+00  0.00000000000E+00  0.45593999997E+02  0.45594000000E+02  0.51100000000E-03 0. -1.
         11   -1    0    0    0    0 -0.00000000000E+00 -0.00000000000E+00 -0.45593999997E+02  0.45594000000E+02  0.51100000000E-03 0.  1.
    9900012    2    1    2    0    0 -0.23424079841E+02  0.44961522280E+01  0.32928143317E+02  0.50528861746E+02  0.30000005763E+02 0.  0.
        -12    1    1    2    0    0  0.23424079841E+02 -0.44961522280E+01 -0.32928143317E+02  0.40659138254E+02  0.00000000000E+00 0.  1.
         11    1    3    3    0    0 -0.15673707078E+01  0.75459981039E+01  0.70621431804E+01  0.10453353762E+02  0.51100000000E-03 0.  1.
        -11    1    3    3    0    0  0.11323083331E+01  0.44104877946E+01  0.10474723695E+02  0.11421661941E+02  0.51100000000E-03 0. -1.
        -12    1    3    3    0    0 -0.22989017466E+02 -0.74603336704E+01  0.15391276442E+02  0.28653846043E+02  0.00000000000E+00 0.  1.
</event>
<event>
 7    1  0.8986500E-014  0.5052885E+02  0.7816164E-02  0.1300439E+00
        -11   -1    0    0    0    0  0.00000000000E+00  0.00000000000E+00  0.45593999997E+02  0.45594000000E+02  0.51100000000E-03 0. -1.
         11   -1    0    0    0    0 -0.00000000000E+00 -0.00000000000E+00 -0.45593999997E+02  0.45594000000E+02  0.51100000000E-03 0.  1.
    9900012    2    1    2    0    0 -0.45407822700E+01 -0.58527773394E+01 -0.39978650021E+02  0.50528853874E+02  0.29999981834E+02 0.  0.
         12    1    1    2    0    0  0.45407822700E+01  0.58527773394E+01  0.39978650021E+02  0.40659146126E+02  0.00000000000E+00 0. -1.
         11    1    3    3    0    0  0.10311060869E+02  0.79393786718E+00 -0.22445596487E+02  0.24713419745E+02  0.51100000000E-03 0.  1.
        -11    1    3    3    0    0 -0.83627967631E+00 -0.22037904385E+01  0.63711757853E+00  0.24417155985E+01  0.51100000000E-03 0. -1.
        -12    1    3    3    0    0 -0.14015563462E+02 -0.44429247681E+01 -0.18170171113E+02  0.23373718530E+02  0.00000000000E+00 0.  1.
</event>
<event>
 7    1  0.8986500E-014  0.5052885E+02  0.7816164E-02  0.1300439E+00
        -11   -1    0    0    0    0  0.00000000000E+00  0.00000000000E+00  0.45593999997E+02  0.45594000000E+02  0.51100000000E-03 0. -1.
         11   -1    0    0    0    0 -0.00000000000E+00 -0.00000000000E+00 -0.45593999997E+02  0.45594000000E+02  0.51100000000E-03 0.  1.
    9900012    2    1    2    0    0  0.59761595982E+01 -0.29115675494E+02  0.27743994678E+02  0.50528852398E+02  0.29999977348E+02 0.  0.
        -12    1    1    2    0    0 -0.59761595982E+01  0.29115675494E+02 -0.27743994678E+02  0.40659147602E+02  0.00000000000E+00 0.  1.
         11    1    3    3    0    0 -0.51593926390E+01  0.53696348420E+00  0.79006544603E+01  0.94513492872E+01  0.51100000000E-03 0. -1.
        -11    1    3    3    0    0 -0.31841453176E+01 -0.13689003189E+02  0.11138563415E+02  0.17933075166E+02  0.51100000000E-03 0.  1.
        -12    1    3    3    0    0  0.14319697555E+02 -0.15963635789E+02  0.87047768035E+01  0.23144427944E+02  0.00000000000E+00 0.  1.
</event>
<event>
 7    1  0.8986500E-014  0.5052886E+02  0.7816164E-02  0.1300439E+00
        -11   -1    0    0    0    0  0.00000000000E+00  0.00000000000E+00  0.45593999997E+02  0.45594000000E+02  0.51100000000E-03 0. -1.
         11   -1    0    0    0    0 -0.00000000000E+00 -0.00000000000E+00 -0.45593999997E+02  0.45594000000E+02  0.51100000000E-03 0.  1.
    9900012    2    1    2    0    0  0.58593483308E+01 -0.97327679122E+01  0.39039807970E+02  0.50528863998E+02  0.30000012608E+02 0.  0.
        -12    1    1    2    0    0 -0.58593483308E+01  0.97327679122E+01 -0.39039807970E+02  0.40659136002E+02  0.00000000000E+00 0.  1.
         11    1    3    3    0    0  0.24944204870E+01  0.46045919662E+01  0.20961754605E+02  0.21606007431E+02  0.51100000000E-03 0. -1.
        -11    1    3    3    0    0 -0.60664316639E+01 -0.16513739373E+01  0.80036297834E+01  0.10177756088E+02  0.51100000000E-03 0.  1.
         12    1    3    3    0    0  0.94313595077E+01 -0.12685985941E+02  0.10074423582E+02  0.18745100479E+02  0.00000000000E+00 0. -1.
</event>
<event>
 7    1  0.8986500E-014  0.5052886E+02  0.7816164E-02  0.1300439E+00
        -11   -1    0    0    0    0  0.00000000000E+00  0.00000000000E+00  0.45593999997E+02  0.45594000000E+02  0.51100000000E-03 0. -1.
         11   -1    0    0    0    0 -0.00000000000E+00 -0.00000000000E+00 -0.45593999997E+02  0.45594000000E+02  0.51100000000E-03 0.  1.
    9900012    2    1    2    0    0 -0.18491654327E+02  0.33826180499E+02  0.12923387294E+02  0.50528859502E+02  0.29999998942E+02 0.  0.
        -12    1    1    2    0    0  0.18491654327E+02 -0.33826180499E+02 -0.12923387294E+02  0.40659140498E+02  0.00000000000E+00 0.  1.
         11    1    3    3    0    0 -0.18071509546E+01 -0.27141028609E+01 -0.22913112680E+00  0.32687383264E+01  0.51100000000E-03 0. -1.
        -11    1    3    3    0    0  0.22556007933E+01 -0.16271354076E+01  0.94513108257E+00  0.29374440587E+01  0.51100000000E-03 0.  1.
         12    1    3    3    0    0 -0.18940104166E+02  0.38167418767E+02  0.12207387338E+02  0.44322677117E+02  0.00000000000E+00 0. -1.
</event>
<event>
 7    1  0.8986500E-014  0.5052887E+02  0.7816164E-02  0.1300439E+00
        -11   -1    0    0    0    0  0.00000000000E+00  0.00000000000E+00  0.45593999997E+02  0.45594000000E+02  0.51100000000E-03 0. -1.
         11   -1    0    0    0    0 -0.00000000000E+00 -0.00000000000E+00 -0.45593999997E+02  0.45594000000E+02  0.51100000000E-03 0.  1.
    9900012    2    1    2    0    0 -0.30518617432E+02 -0.96156550292E+01 -0.25086216559E+02  0.50528867043E+02  0.30000021864E+02 0.  0.
         12    1    1    2    0    0  0.30518617432E+02  0.96156550292E+01  0.25086216559E+02  0.40659132957E+02  0.00000000000E+00 0. -1.
         11    1    3    3    0    0 -0.16871599490E+01 -0.52360372891E+01 -0.57213543965E+01  0.79370329203E+01  0.51100000000E-03 0. -1.
        -11    1    3    3    0    0 -0.21444495400E+02 -0.12960722189E+02 -0.18670421452E+02  0.31247901371E+02  0.51100000000E-03 0.  1.
        -12    1    3    3    0    0 -0.73869620826E+01  0.85811044491E+01 -0.69444071062E+00  0.11343932752E+02  0.00000000000E+00 0.  1.
</event>
<event>
 7    1  0.8986500E-014  0.5052880E+02  0.7816164E-02  0.1300439E+00
        -11   -1    0    0    0    0  0.00000000000E+00  0.00000000000E+00  0.45593999997E+02  0.45594000000E+02  0.51100000000E-03 0. -1.
         11   -1    0    0    0    0 -0.00000000000E+00 -0.00000000000E+00 -0.45593999997E+02  0.45594000000E+02  0.51100000000E-03 0.  1.
    9900012    2    1    2    0    0 -0.12455569174E+00  0.20625461515E+02 -0.35039191886E+02  0.50528804916E+02  0.29999833024E+02 0.  0.
         12    1    1    2    0    0  0.12455569174E+00 -0.20625461515E+02  0.35039191886E+02  0.40659195084E+02  0.00000000000E+00 0. -1.
         11    1    3    3    0    0 -0.25367655744E+01  0.17292161128E+01 -0.16905594113E+02  0.17182097675E+02  0.51100000000E-03 0. -1.
        -11    1    3    3    0    0 -0.39973106270E+00  0.11711708655E+02 -0.21841610831E+02  0.24786687324E+02  0.51100000000E-03 0.  1.
         12    1    3    3    0    0  0.28119409453E+01  0.71845367471E+01  0.37080130579E+01  0.85600199175E+01  0.00000000000E+00 0. -1.
</event>
<event>
 7    1  0.8986500E-014  0.5052886E+02  0.7816164E-02  0.1300439E+00
        -11   -1    0    0    0    0  0.00000000000E+00  0.00000000000E+00  0.45593999997E+02  0.45594000000E+02  0.51100000000E-03 0. -1.
         11   -1    0    0    0    0 -0.00000000000E+00 -0.00000000000E+00 -0.45593999997E+02  0.45594000000E+02  0.51100000000E-03 0.  1.
    9900012    2    1    2    0    0  0.14721426820E+02 -0.14715714988E+02 -0.34926967502E+02  0.50528859156E+02  0.29999997892E+02 0.  0.
         12    1    1    2    0    0 -0.14721426820E+02  0.14715714988E+02  0.34926967502E+02  0.40659140844E+02  0.00000000000E+00 0. -1.
         11    1    3    3    0    0 -0.17398492009E+01 -0.79234250199E+01 -0.60324890816E+01  0.10109335491E+02  0.51100000000E-03 0. -1.
        -11    1    3    3    0    0 -0.52560872777E+01 -0.59234822176E+00 -0.30838268087E+01  0.61226887830E+01  0.51100000000E-03 0.  1.
        -12    1    3    3    0    0  0.21717363299E+02 -0.61999417461E+01 -0.25810651612E+02  0.34296834882E+02  0.00000000000E+00 0.  1.
</event>
<event>
 7    1  0.8986500E-014  0.5052887E+02  0.7816164E-02  0.1300439E+00
        -11   -1    0    0    0    0  0.00000000000E+00  0.00000000000E+00  0.45593999997E+02  0.45594000000E+02  0.51100000000E-03 0. -1.
         11   -1    0    0    0    0 -0.00000000000E+00 -0.00000000000E+00 -0.45593999997E+02  0.45594000000E+02  0.51100000000E-03 0.  1.
    9900012    2    1    2    0    0 -0.84418338073E+01 -0.19221863236E+02 -0.34819829557E+02  0.50528866774E+02  0.30000021047E+02 0.  0.
         12    1    1    2    0    0  0.84418338073E+01  0.19221863236E+02  0.34819829557E+02  0.40659133226E+02  0.00000000000E+00 0. -1.
         11    1    3    3    0    0 -0.16861225662E+01  0.26781308904E-01 -0.62122996275E+01  0.64371106461E+01  0.51100000000E-03 0. -1.
        -11    1    3    3    0    0 -0.15720713856E+02 -0.14833044892E+02 -0.25908337474E+02  0.33740213630E+02  0.51100000000E-03 0.  1.
         12    1    3    3    0    0  0.89650026144E+01 -0.44155996534E+01 -0.26991924550E+01  0.10351542498E+02  0.00000000000E+00 0. -1.
</event>
<event>
 7    1  0.8986500E-014  0.5052887E+02  0.7816164E-02  0.1300439E+00
        -11   -1    0    0    0    0  0.00000000000E+00  0.00000000000E+00  0.45593999997E+02  0.45594000000E+02  0.51100000000E-03 0. -1.
         11   -1    0    0    0    0 -0.00000000000E+00 -0.00000000000E+00 -0.45593999997E+02  0.45594000000E+02  0.51100000000E-03 0.  1.
    9900012    2    1    2    0    0  0.80139918767E+01  0.75388056779E+01 -0.39142142213E+02  0.50528868752E+02  0.30000027057E+02 0.  0.
         12    1    1    2    0    0 -0.80139918767E+01 -0.75388056779E+01  0.39142142213E+02  0.40659131248E+02  0.00000000000E+00 0. -1.
         11    1    3    3    0    0  0.49020617550E+01 -0.68814445628E+01 -0.10041515811E+02  0.13123129534E+02  0.51100000000E-03 0. -1.
        -11    1    3    3    0    0  0.35574302110E+01 -0.22984526743E+01 -0.48758433389E+00  0.42633241897E+01  0.51100000000E-03 0.  1.
        -12    1    3    3    0    0 -0.44550008931E+00  0.16718702915E+02 -0.28613042068E+02  0.33142415028E+02  0.00000000000E+00 0.  1.
</event>
<event>
 7    1  0.8986500E-014  0.5052887E+02  0.7816164E-02  0.1300439E+00
        -11   -1    0    0    0    0  0.00000000000E+00  0.00000000000E+00  0.45593999997E+02  0.45594000000E+02  0.51100000000E-03 0.  1.
         11   -1    0    0    0    0 -0.00000000000E+00 -0.00000000000E+00 -0.45593999997E+02  0.45594000000E+02  0.51100000000E-03 0. -1.
    9900012    2    1    2    0    0  0.10347240165E+02  0.38793175602E+02  0.64178687294E+01  0.50528869521E+02  0.30000029395E+02 0.  0.
        -12    1    1    2    0    0 -0.10347240165E+02 -0.38793175602E+02 -0.64178687294E+01  0.40659130479E+02  0.00000000000E+00 0.  1.
         11    1    3    3    0    0  0.61302129487E+01  0.11148302812E+02  0.84228381503E+01  0.15258059154E+02  0.51100000000E-03 0. -1.
        -11    1    3    3    0    0  0.52140814437E+01  0.28906365971E+02  0.34583828677E+01  0.29575751068E+02  0.51100000000E-03 0.  1.
        -12    1    3    3    0    0 -0.99705422735E+00 -0.12614931809E+01 -0.54633522886E+01  0.56950592980E+01  0.00000000000E+00 0.  1.
</event>
<event>
 7    1  0.8986500E-014  0.5052882E+02  0.7816164E-02  0.1300439E+00
        -11   -1    0    0    0    0  0.00000000000E+00  0.00000000000E+00  0.45593999997E+02  0.45594000000E+02  0.51100000000E-03 0.  1.
         11   -1    0    0    0    0 -0.00000000000E+00 -0.00000000000E+00 -0.45593999997E+02  0.45594000000E+02  0.51100000000E-03 0. -1.
    9900012    2    1    2    0    0  0.29178426010E+01  0.38603329466E+02  0.12427307178E+02  0.50528821270E+02  0.29999882732E+02 0.  0.
         12    1    1    2    0    0 -0.29178426010E+01 -0.38603329466E+02 -0.12427307178E+02  0.40659178730E+02  0.00000000000E+00 0. -1.
         11    1    3    3    0    0  0.10966995460E+01  0.14471665789E+02  0.95656901282E+01  0.17382010485E+02  0.51100000000E-03 0. -1.
        -11    1    3    3    0    0 -0.72138185773E+01  0.21843765924E+02  0.50977316580E+01  0.23562176396E+02  0.51100000000E-03 0.  1.
         12    1    3    3    0    0  0.90349616323E+01  0.22878977526E+01 -0.22361146078E+01  0.95846343886E+01  0.00000000000E+00 0. -1.
</event>
<event>
 7    1  0.8986500E-014  0.5052881E+02  0.7816164E-02  0.1300439E+00
        -11   -1    0    0    0    0  0.00000000000E+00  0.00000000000E+00  0.45593999997E+02  0.45594000000E+02  0.51100000000E-03 0. -1.
         11   -1    0    0    0    0 -0.00000000000E+00 -0.00000000000E+00 -0.45593999997E+02  0.45594000000E+02  0.51100000000E-03 0.  1.
    9900012    2    1    2    0    0 -0.26387496377E+02 -0.35801441818E+01  0.30725436703E+02  0.50528808444E+02  0.29999843745E+02 0.  0.
        -12    1    1    2    0    0  0.26387496377E+02  0.35801441818E+01 -0.30725436703E+02  0.40659191556E+02  0.00000000000E+00 0.  1.
         11    1    3    3    0    0 -0.64392062425E+01  0.18545849455E+01  0.81280885674E+01  0.10534167569E+02  0.51100000000E-03 0. -1.
        -11    1    3    3    0    0  0.97387725681E+00  0.69714718635E+00  0.17582316947E+02  0.17623062180E+02  0.51100000000E-03 0.  1.
        -12    1    3    3    0    0 -0.20922167392E+02 -0.61318763136E+01  0.50150311886E+01  0.22371578695E+02  0.00000000000E+00 0.  1.
</event>
<event>
 7    1  0.8986500E-014  0.5052885E+02  0.7816164E-02  0.1300439E+00
        -11   -1    0    0    0    0  0.00000000000E+00  0.00000000000E+00  0.45593999997E+02  0.45594000000E+02  0.51100000000E-03 0. -1.
         11   -1    0    0    0    0 -0.00000000000E+00 -0.00000000000E+00 -0.45593999997E+02  0.45594000000E+02  0.51100000000E-03 0.  1.
    9900012    2    1    2    0    0 -0.25823517823E+02 -0.31181406764E+02 -0.37459323065E+01  0.50528853313E+02  0.29999980129E+02 0.  0.
        -12    1    1    2    0    0  0.25823517823E+02  0.31181406764E+02  0.37459323065E+01  0.40659146687E+02  0.00000000000E+00 0.  1.
         11    1    3    3    0    0 -0.30947840224E+01 -0.10588462347E+02 -0.13437992621E-01  0.11031473332E+02  0.51100000000E-03 0. -1.
        -11    1    3    3    0    0 -0.44678660452E+01 -0.19815815257E+02 -0.57436616478E+01  0.21109666286E+02  0.51100000000E-03 0.  1.
        -12    1    3    3    0    0 -0.18260867755E+02 -0.77712915914E+00  0.20111673340E+01  0.18387713695E+02  0.00000000000E+00 0.  1.
</event>
<event>
 7    1  0.8986500E-014  0.5052886E+02  0.7816164E-02  0.1300439E+00
        -11   -1    0    0    0    0  0.00000000000E+00  0.00000000000E+00  0.45593999997E+02  0.45594000000E+02  0.51100000000E-03 0. -1.
         11   -1    0    0    0    0 -0.00000000000E+00 -0.00000000000E+00 -0.45593999997E+02  0.45594000000E+02  0.51100000000E-03 0.  1.
    9900012    2    1    2    0    0  0.29180201383E+02  0.63988328678E+01 -0.27581455530E+02  0.50528857068E+02  0.29999991543E+02 0.  0.
         12    1    1    2    0    0 -0.29180201383E+02 -0.63988328678E+01  0.27581455530E+02  0.40659142932E+02  0.00000000000E+00 0. -1.
         11    1    3    3    0    0  0.19500496558E+02  0.35768195758E+01 -0.79987306719E+01  0.21378556942E+02  0.51100000000E-03 0. -1.
        -11    1    3    3    0    0  0.11565764080E+02  0.66272182970E+01 -0.54634377668E+01  0.14406112369E+02  0.51100000000E-03 0.  1.
         12    1    3    3    0    0 -0.18860592545E+01 -0.38052050051E+01 -0.14119287091E+02  0.14744187757E+02  0.00000000000E+00 0. -1.
</event>
<event>
 7    1  0.1003447E-013  0.5052886E+02  0.7816164E-02  0.1300439E+00
        -11   -1    0    0    0    0  0.00000000000E+00  0.00000000000E+00  0.45593999997E+02  0.45594000000E+02  0.51100000000E-03 0.  1.
         11   -1    0    0    0    0 -0.00000000000E+00 -0.00000000000E+00 -0.45593999997E+02  0.45594000000E+02  0.51100000000E-03 0. -1.
    9900012    2    1    2    0    0  0.22590246550E+02 -0.10893186644E+02  0.32002888979E+02  0.50528860100E+02  0.30000000760E+02 0.  0.
        -12    1    1    2    0    0 -0.22590246550E+02  0.10893186644E+02 -0.32002888979E+02  0.40659139900E+02  0.00000000000E+00 0.  1.
         11    1    3    3    0    0  0.14491279101E+02 -0.97833774188E+01  0.33746244666E+01  0.17807294411E+02  0.51100000000E-03 0. -1.
        -11    1    3    3    0    0 -0.13277039779E+01 -0.33104078480E+01  0.14137275634E+01  0.38366943920E+01  0.51100000000E-03 0.  1.
         12    1    3    3    0    0  0.94266714265E+01  0.22005986226E+01  0.27214536949E+02  0.28884871296E+02  0.00000000000E+00 0. -1.
</event>
<event>
 7    1  0.8986500E-014  0.5052884E+02  0.7816164E-02  0.1300439E+00
        -11   -1    0    0    0    0  0.00000000000E+00  0.00000000000E+00  0.45593999997E+02  0.45594000000E+02  0.51100000000E-03 0. -1.
         11   -1    0    0    0    0 -0.00000000000E+00 -0.00000000000E+00 -0.45593999997E+02  0.45594000000E+02  0.51100000000E-03 0.  1.
    9900012    2    1    2    0    0  0.40870899028E+01  0.29577772927E+02  0.27597429707E+02  0.50528842586E+02  0.29999947525E+02 0.  0.
        -12    1    1    2    0    0 -0.40870899028E+01 -0.29577772927E+02 -0.27597429707E+02  0.40659157414E+02  0.00000000000E+00 0.  1.
         11    1    3    3    0    0  0.18321315476E+01  0.22196962735E+02  0.18581068081E+02  0.29005481412E+02  0.51100000000E-03 0. -1.
        -11    1    3    3    0    0  0.29224725008E+01  0.12915757684E+02  0.35371775565E+01  0.13706541045E+02  0.51100000000E-03 0.  1.
         12    1    3    3    0    0 -0.66751414551E+00 -0.55349474920E+01  0.54791840693E+01  0.78168201296E+01  0.00000000000E+00 0. -1.
</event>
<event>
 7    1  0.8986500E-014  0.5052886E+02  0.7816164E-02  0.1300439E+00
        -11   -1    0    0    0    0  0.00000000000E+00  0.00000000000E+00  0.45593999997E+02  0.45594000000E+02  0.51100000000E-03 0. -1.
         11   -1    0    0    0    0 -0.00000000000E+00 -0.00000000000E+00 -0.45593999997E+02  0.45594000000E+02  0.51100000000E-03 0.  1.
    9900012    2    1    2    0    0  0.36424017009E+02  0.17676786654E+02 -0.37399982523E+01  0.50528863409E+02  0.30000010817E+02 0.  0.
         12    1    1    2    0    0 -0.36424017009E+02 -0.17676786654E+02  0.37399982523E+01  0.40659136591E+02  0.00000000000E+00 0. -1.
         11    1    3    3    0    0  0.27945337160E+01  0.18849631985E+01  0.23531445365E+01  0.41109359544E+01  0.51100000000E-03 0. -1.
        -11    1    3    3    0    0  0.23921032940E+02  0.23470141074E+02 -0.59684529641E+01  0.34039473703E+02  0.51100000000E-03 0.  1.
        -12    1    3    3    0    0  0.97084503526E+01 -0.76783176191E+01 -0.12468982469E+00  0.12378453751E+02  0.00000000000E+00 0.  1.
</event>
<event>
 7    1  0.8986500E-014  0.5052885E+02  0.7816164E-02  0.1300439E+00
        -11   -1    0    0    0    0  0.00000000000E+00  0.00000000000E+00  0.45593999997E+02  0.45594000000E+02  0.51100000000E-03 0.  1.
         11   -1    0    0    0    0 -0.00000000000E+00 -0.00000000000E+00 -0.45593999997E+02  0.45594000000E+02  0.51100000000E-03 0. -1.
    9900012    2    1    2    0    0  0.37178355608E+02 -0.10873826045E+02  0.12357020265E+02  0.50528853817E+02  0.29999981661E+02 0.  0.
         12    1    1    2    0    0 -0.37178355608E+02  0.10873826045E+02 -0.12357020265E+02  0.40659146183E+02  0.00000000000E+00 0. -1.
         11    1    3    3    0    0  0.94293686598E+01 -0.20995391619E+00 -0.33540067364E+01  0.10010316449E+02  0.51100000000E-03 0. -1.
        -11    1    3    3    0    0  0.29432379607E+02 -0.36716471917E+01  0.98897476394E+01  0.31265845120E+02  0.51100000000E-03 0.  1.
        -12    1    3    3    0    0 -0.16833926596E+01 -0.69922249368E+01  0.58212793615E+01  0.92526922470E+01  0.00000000000E+00 0.  1.
</event>
<event>
 7    1  0.8986500E-014  0.5052886E+02  0.7816164E-02  0.1300439E+00
        -11   -1    0    0    0    0  0.00000000000E+00  0.00000000000E+00  0.45593999997E+02  0.45594000000E+02  0.51100000000E-03 0. -1.
         11   -1    0    0    0    0 -0.00000000000E+00 -0.00000000000E+00 -0.45593999997E+02  0.45594000000E+02  0.51100000000E-03 0.  1.
    9900012    2    1    2    0    0 -0.40107721001E+02 -0.48277626130E+01 -0.46074901398E+01  0.50528861530E+02  0.30000005106E+02 0.  0.
        -12    1    1    2    0    0  0.40107721001E+02  0.48277626130E+01  0.46074901398E+01  0.40659138470E+02  0.00000000000E+00 0.  1.
         11    1    3    3    0    0 -0.64021963140E+01  0.35326013531E+01  0.36477312541E+01  0.81714951831E+01  0.51100000000E-03 0. -1.
        -11    1    3    3    0    0 -0.14439387669E+00  0.52819935517E+01 -0.16207745185E+01  0.55269535707E+01  0.51100000000E-03 0.  1.
         12    1    3    3    0    0 -0.33561130810E+02 -0.13642357518E+02 -0.66344468754E+01  0.36830412776E+02  0.00000000000E+00 0. -1.
</event>
<event>
 7    1  0.1045580E-013  0.5052882E+02  0.7816164E-02  0.1300439E+00
        -11   -1    0    0    0    0  0.00000000000E+00  0.00000000000E+00  0.45593999997E+02  0.45594000000E+02  0.51100000000E-03 0. -1.
         11   -1    0    0    0    0 -0.00000000000E+00 -0.00000000000E+00 -0.45593999997E+02  0.45594000000E+02  0.51100000000E-03 0.  1.
    9900012    2    1    2    0    0  0.17880504784E+02  0.11720319613E+01  0.36497714393E+02  0.50528815722E+02  0.29999865867E+02 0.  0.
        -12    1    1    2    0    0 -0.17880504784E+02 -0.11720319613E+01 -0.36497714393E+02  0.40659184278E+02  0.00000000000E+00 0.  1.
         11    1    3    3    0    0 -0.17912124658E+01  0.25134034673E-01  0.77328604361E+01  0.79376447768E+01  0.51100000000E-03 0. -1.
        -11    1    3    3    0    0 -0.56591520451E+01 -0.10078729676E+01  0.33963956951E+01  0.66766244291E+01  0.51100000000E-03 0.  1.
         12    1    3    3    0    0  0.25330869295E+02  0.21547708942E+01  0.25368458262E+02  0.35914546516E+02  0.00000000000E+00 0. -1.
</event>
<event>
 7    1  0.8986500E-014  0.5052886E+02  0.7816164E-02  0.1300439E+00
        -11   -1    0    0    0    0  0.00000000000E+00  0.00000000000E+00  0.45593999997E+02  0.45594000000E+02  0.51100000000E-03 0. -1.
         11   -1    0    0    0    0 -0.00000000000E+00 -0.00000000000E+00 -0.45593999997E+02  0.45594000000E+02  0.51100000000E-03 0.  1.
    9900012    2    1    2    0    0 -0.14173100167E+02 -0.30834013250E+02 -0.22395375235E+02  0.50528856214E+02  0.29999988948E+02 0.  0.
         12    1    1    2    0    0  0.14173100167E+02  0.30834013250E+02  0.22395375235E+02  0.40659143786E+02  0.00000000000E+00 0. -1.
         11    1    3    3    0    0 -0.11258159778E+02 -0.38135951254E+01 -0.52486486238E+01  0.12993767044E+02  0.51100000000E-03 0. -1.
        -11    1    3    3    0    0 -0.95270661583E+01 -0.63728712041E+01 -0.81392694801E+01  0.14057958063E+02  0.51100000000E-03 0.  1.
        -12    1    3    3    0    0  0.66121257688E+01 -0.20647546921E+02 -0.90074571315E+01  0.23477131107E+02  0.00000000000E+00 0.  1.
</event>
<event>
 7    1  0.8986500E-014  0.5052887E+02  0.7816164E-02  0.1300439E+00
        -11   -1    0    0    0    0  0.00000000000E+00  0.00000000000E+00  0.45593999997E+02  0.45594000000E+02  0.51100000000E-03 0. -1.
         11   -1    0    0    0    0 -0.00000000000E+00 -0.00000000000E+00 -0.45593999997E+02  0.45594000000E+02  0.51100000000E-03 0.  1.
    9900012    2    1    2    0    0 -0.16639411011E+02 -0.73984741645E+00 -0.37091074615E+02  0.50528865859E+02  0.30000018266E+02 0.  0.
         12    1    1    2    0    0  0.16639411011E+02  0.73984741645E+00  0.37091074615E+02  0.40659134141E+02  0.00000000000E+00 0. -1.
         11    1    3    3    0    0  0.19840609652E+01 -0.28216735637E+01 -0.59225405481E+01  0.68538183823E+01  0.51100000000E-03 0. -1.
        -11    1    3    3    0    0 -0.36536062311E+01 -0.41095374498E+01 -0.26141092486E+02  0.26713177519E+02  0.51100000000E-03 0.  1.
        -12    1    3    3    0    0 -0.14969865745E+02  0.61913635970E+01 -0.50274415806E+01  0.16961869957E+02  0.00000000000E+00 0.  1.
</event>
<event>
 7    1  0.8986500E-014  0.5052886E+02  0.7816164E-02  0.1300439E+00
        -11   -1    0    0    0    0  0.00000000000E+00  0.00000000000E+00  0.45593999997E+02  0.45594000000E+02  0.51100000000E-03 0. -1.
         11   -1    0    0    0    0 -0.00000000000E+00 -0.00000000000E+00 -0.45593999997E+02  0.45594000000E+02  0.51100000000E-03 0.  1.
    9900012    2    1    2    0    0  0.16002452205E+02  0.37335958349E+02 -0.17645948061E+01  0.50528855183E+02  0.29999985814E+02 0.  0.
         12    1    1    2    0    0 -0.16002452205E+02 -0.37335958349E+02  0.17645948061E+01  0.40659144817E+02  0.00000000000E+00 0. -1.
         11    1    3    3    0    0  0.26672936288E+01  0.31749051658E+01  0.65345006912E+01  0.77391328751E+01  0.51100000000E-03 0. -1.
        -11    1    3    3    0    0  0.28015061119E+01  0.13021235221E+02  0.65994669408E+01  0.14864520421E+02  0.51100000000E-03 0.  1.
        -12    1    3    3    0    0  0.10533652464E+02  0.21139817962E+02 -0.14898562438E+02  0.27925201887E+02  0.00000000000E+00 0.  1.
</event>
<event>
 7    1  0.8986500E-014  0.5052885E+02  0.7816164E-02  0.1300439E+00
        -11   -1    0    0    0    0  0.00000000000E+00  0.00000000000E+00  0.45593999997E+02  0.45594000000E+02  0.51100000000E-03 0. -1.
         11   -1    0    0    0    0 -0.00000000000E+00 -0.00000000000E+00 -0.45593999997E+02  0.45594000000E+02  0.51100000000E-03 0.  1.
    9900012    2    1    2    0    0  0.25250357753E+02 -0.23396928267E+02 -0.21637219923E+02  0.50528854596E+02  0.29999984030E+02 0.  0.
         12    1    1    2    0    0 -0.25250357753E+02  0.23396928267E+02  0.21637219923E+02  0.40659145404E+02  0.00000000000E+00 0. -1.
         11    1    3    3    0    0  0.16860854926E+02 -0.13961555476E+02 -0.11266713205E+02  0.24620160171E+02  0.51100000000E-03 0. -1.
        -11    1    3    3    0    0  0.11704782525E+02  0.15282124253E+01 -0.26564240040E+01  0.12099337003E+02  0.51100000000E-03 0.  1.
         12    1    3    3    0    0 -0.33152796984E+01 -0.10963585216E+02 -0.77140827143E+01  0.13809357422E+02  0.00000000000E+00 0. -1.
</event>
<event>
 7    1  0.8986500E-014  0.5052886E+02  0.7816164E-02  0.1300439E+00
        -11   -1    0    0    0    0  0.00000000000E+00  0.00000000000E+00  0.45593999997E+02  0.45594000000E+02  0.51100000000E-03 0.  1.
         11   -1    0    0    0    0 -0.00000000000E+00 -0.00000000000E+00 -0.45593999997E+02  0.45594000000E+02  0.51100000000E-03 0. -1.
    9900012    2    1    2    0    0 -0.39660129442E+02  0.45259105238E+01  0.77302109804E+01  0.50528857175E+02  0.29999991870E+02 0.  0.
         12    1    1    2    0    0  0.39660129442E+02 -0.45259105238E+01 -0.77302109804E+01  0.40659142825E+02  0.00000000000E+00 0. -1.
         11    1    3    3    0    0 -0.12197902712E+02  0.25921324276E+01  0.11264181723E+02  0.16804456886E+02  0.51100000000E-03 0. -1.
        -11    1    3    3    0    0 -0.12944625546E+02  0.38698939025E+01  0.74393777304E+01  0.15423480496E+02  0.51100000000E-03 0.  1.
        -12    1    3    3    0    0 -0.14517601185E+02 -0.19361158063E+01 -0.10973348473E+02  0.18300919793E+02  0.00000000000E+00 0.  1.
</event>
<event>
 7    1  0.8986500E-014  0.5052886E+02  0.7816164E-02  0.1300439E+00
        -11   -1    0    0    0    0  0.00000000000E+00  0.00000000000E+00  0.45593999997E+02  0.45594000000E+02  0.51100000000E-03 0. -1.
         11   -1    0    0    0    0 -0.00000000000E+00 -0.00000000000E+00 -0.45593999997E+02  0.45594000000E+02  0.51100000000E-03 0.  1.
    9900012    2    1    2    0    0 -0.24345153205E+02 -0.15948191685E+02  0.28392499592E+02  0.50528864056E+02  0.30000012785E+02 0.  0.
        -12    1    1    2    0    0  0.24345153205E+02  0.15948191685E+02 -0.28392499592E+02  0.40659135944E+02  0.00000000000E+00 0.  1.
         11    1    3    3    0    0 -0.16748006276E+02 -0.19133304963E+02  0.26893963442E+02  0.37011678467E+02  0.51100000000E-03 0. -1.
        -11    1    3    3    0    0 -0.40271754602E+01 -0.22435219131E+01  0.44261283028E+01  0.63907859279E+01  0.51100000000E-03 0.  1.
        -12    1    3    3    0    0 -0.35699714687E+01  0.54286351905E+01 -0.29275921532E+01  0.71263996614E+01  0.00000000000E+00 0.  1.
</event>
<event>
 7    1  0.8986500E-014  0.5052886E+02  0.7816164E-02  0.1300439E+00
        -11   -1    0    0    0    0  0.00000000000E+00  0.00000000000E+00  0.45593999997E+02  0.45594000000E+02  0.51100000000E-03 0. -1.
         11   -1    0    0    0    0 -0.00000000000E+00 -0.00000000000E+00 -0.45593999997E+02  0.45594000000E+02  0.51100000000E-03 0.  1.
    9900012    2    1    2    0    0 -0.17307246108E+02 -0.34524893696E+02  0.12714413232E+02  0.50528863801E+02  0.30000012010E+02 0.  0.
         12    1    1    2    0    0  0.17307246108E+02  0.34524893696E+02 -0.12714413232E+02  0.40659136199E+02  0.00000000000E+00 0. -1.
         11    1    3    3    0    0 -0.49901434879E+00 -0.69700469959E+01  0.14617051430E+02  0.16201504967E+02  0.51100000000E-03 0. -1.
        -11    1    3    3    0    0 -0.11304551558E+02 -0.96732194571E+01  0.25503213253E+01  0.15095303896E+02  0.51100000000E-03 0.  1.
        -12    1    3    3    0    0 -0.55036802015E+01 -0.17881627243E+02 -0.44529595225E+01  0.19232054938E+02  0.00000000000E+00 0.  1.
</event>
<event>
 7    1  0.8986500E-014  0.5052886E+02  0.7816164E-02  0.1300439E+00
        -11   -1    0    0    0    0  0.00000000000E+00  0.00000000000E+00  0.45593999997E+02  0.45594000000E+02  0.51100000000E-03 0. -1.
         11   -1    0    0    0    0 -0.00000000000E+00 -0.00000000000E+00 -0.45593999997E+02  0.45594000000E+02  0.51100000000E-03 0.  1.
    9900012    2    1    2    0    0 -0.16853608607E+02  0.17370295567E+02  0.32670999535E+02  0.50528862014E+02  0.30000006577E+02 0.  0.
        -12    1    1    2    0    0  0.16853608607E+02 -0.17370295567E+02 -0.32670999535E+02  0.40659137986E+02  0.00000000000E+00 0.  1.
         11    1    3    3    0    0 -0.12927131923E+02 -0.20519542892E+01  0.30554150337E+01  0.13440863716E+02  0.51100000000E-03 0. -1.
        -11    1    3    3    0    0  0.18780702387E+01  0.85980481115E-03  0.13834340966E+01  0.23326034214E+01  0.51100000000E-03 0.  1.
         12    1    3    3    0    0 -0.58045469224E+01  0.19421390052E+02  0.28232150405E+02  0.34755394876E+02  0.00000000000E+00 0. -1.
</event>
<event>
 7    1  0.8986500E-014  0.5052886E+02  0.7816164E-02  0.1300439E+00
        -11   -1    0    0    0    0  0.00000000000E+00  0.00000000000E+00  0.45593999997E+02  0.45594000000E+02  0.51100000000E-03 0. -1.
         11   -1    0    0    0    0 -0.00000000000E+00 -0.00000000000E+00 -0.45593999997E+02  0.45594000000E+02  0.51100000000E-03 0.  1.
    9900012    2    1    2    0    0 -0.29458161520E+01  0.13885779518E+02 -0.38100830216E+02  0.50528856271E+02  0.29999989122E+02 0.  0.
         12    1    1    2    0    0  0.29458161520E+01 -0.13885779518E+02  0.38100830216E+02  0.40659143729E+02  0.00000000000E+00 0. -1.
         11    1    3    3    0    0  0.95361082695E+01  0.15118402816E+01 -0.23891102780E+02  0.25768349079E+02  0.51100000000E-03 0. -1.
        -11    1    3    3    0    0 -0.83688220759E+00  0.45017307872E+01 -0.83676569287E+01  0.95385341981E+01  0.51100000000E-03 0.  1.
         12    1    3    3    0    0 -0.11645042214E+02  0.78722084488E+01 -0.58420705073E+01  0.15221972994E+02  0.00000000000E+00 0. -1.
</event>
<event>
 7    1  0.8986500E-014  0.5052886E+02  0.7816164E-02  0.1300439E+00
        -11   -1    0    0    0    0  0.00000000000E+00  0.00000000000E+00  0.45593999997E+02  0.45594000000E+02  0.51100000000E-03 0. -1.
         11   -1    0    0    0    0 -0.00000000000E+00 -0.00000000000E+00 -0.45593999997E+02  0.45594000000E+02  0.51100000000E-03 0.  1.
    9900012    2    1    2    0    0  0.37299698759E+02  0.10816600987E+02 -0.12037398573E+02  0.50528863895E+02  0.30000012296E+02 0.  0.
         12    1    1    2    0    0 -0.37299698759E+02 -0.10816600987E+02  0.12037398573E+02  0.40659136105E+02  0.00000000000E+00 0. -1.
         11    1    3    3    0    0  0.21426514115E+01  0.33640498908E+01  0.33751923772E+01  0.52249124952E+01  0.51100000000E-03 0. -1.
        -11    1    3    3    0    0 -0.66593681906E+00  0.29669834697E+01  0.34267522678E+01  0.45813856116E+01  0.51100000000E-03 0.  1.
        -12    1    3    3    0    0  0.35822984166E+02  0.44855676264E+01 -0.18839343218E+02  0.40722565788E+02  0.00000000000E+00 0.  1.
</event>
<event>
 7    1  0.8986500E-014  0.5052887E+02  0.7816164E-02  0.1300439E+00
        -11   -1    0    0    0    0  0.00000000000E+00  0.00000000000E+00  0.45593999997E+02  0.45594000000E+02  0.51100000000E-03 0. -1.
         11   -1    0    0    0    0 -0.00000000000E+00 -0.00000000000E+00 -0.45593999997E+02  0.45594000000E+02  0.51100000000E-03 0.  1.
    9900012    2    1    2    0    0  0.78213945532E+01 -0.25087373332E+02  0.31026021617E+02  0.50528873954E+02  0.30000042870E+02 0.  0.
        -12    1    1    2    0    0 -0.78213945532E+01  0.25087373332E+02 -0.31026021617E+02  0.40659126046E+02  0.00000000000E+00 0.  1.
         11    1    3    3    0    0 -0.52022707080E-01  0.18639971719E+01  0.27778550168E+01  0.33456943337E+01  0.51100000000E-03 0.  1.
        -11    1    3    3    0    0  0.55654732902E+01 -0.28350376102E+02  0.12971295311E+02  0.31669746137E+02  0.51100000000E-03 0. -1.
         12    1    3    3    0    0  0.23079439700E+01  0.13990055986E+01  0.15276871290E+02  0.15513433483E+02  0.00000000000E+00 0. -1.
</event>
<event>
 7    1  0.8986500E-014  0.5052887E+02  0.7816164E-02  0.1300439E+00
        -11   -1    0    0    0    0  0.00000000000E+00  0.00000000000E+00  0.45593999997E+02  0.45594000000E+02  0.51100000000E-03 0.  1.
         11   -1    0    0    0    0 -0.00000000000E+00 -0.00000000000E+00 -0.45593999997E+02  0.45594000000E+02  0.51100000000E-03 0. -1.
    9900012    2    1    2    0    0 -0.36758777151E+02 -0.16158817947E+02  0.63914104625E+01  0.50528865445E+02  0.30000017007E+02 0.  0.
         12    1    1    2    0    0  0.36758777151E+02  0.16158817947E+02 -0.63914104625E+01  0.40659134555E+02  0.00000000000E+00 0. -1.
         11    1    3    3    0    0 -0.71545559576E+01 -0.11953214288E+02 -0.46316739272E+01  0.14680579225E+02  0.51100000000E-03 0. -1.
        -11    1    3    3    0    0 -0.50445094542E+01  0.26397721110E+01  0.84962828730E+01  0.10227526355E+02  0.51100000000E-03 0.  1.
        -12    1    3    3    0    0 -0.24559711739E+02 -0.68453757695E+01  0.25268015167E+01  0.25620759864E+02  0.00000000000E+00 0.  1.
</event>
<event>
 7    1  0.8986500E-014  0.5052886E+02  0.7816164E-02  0.1300439E+00
        -11   -1    0    0    0    0  0.00000000000E+00  0.00000000000E+00  0.45593999997E+02  0.45594000000E+02  0.51100000000E-03 0. -1.
         11   -1    0    0    0    0 -0.00000000000E+00 -0.00000000000E+00 -0.45593999997E+02  0.45594000000E+02  0.51100000000E-03 0.  1.
    9900012    2    1    2    0    0 -0.53563895968E+01 -0.28569192295E+02  0.28430200472E+02  0.50528856418E+02  0.29999989569E+02 0.  0.
        -12    1    1    2    0    0  0.53563895968E+01  0.28569192295E+02 -0.28430200472E+02  0.40659143582E+02  0.00000000000E+00 0.  1.
         11    1    3    3    0    0  0.10120077146E+01 -0.53546375105E+01 -0.24069855847E+01  0.59573385290E+01  0.51100000000E-03 0. -1.
        -11    1    3    3    0    0 -0.46503037276E+00 -0.61559438421E+01 -0.25003512449E+01  0.66606046605E+01  0.51100000000E-03 0.  1.
         12    1    3    3    0    0 -0.59033669386E+01 -0.17058610943E+02  0.33337537301E+02  0.37910913229E+02  0.00000000000E+00 0. -1.
</event>
<event>
 7    1  0.8986500E-014  0.5052887E+02  0.7816164E-02  0.1300439E+00
        -11   -1    0    0    0    0  0.00000000000E+00  0.00000000000E+00  0.45593999997E+02  0.45594000000E+02  0.51100000000E-03 0. -1.
         11   -1    0    0    0    0 -0.00000000000E+00 -0.00000000000E+00 -0.45593999997E+02  0.45594000000E+02  0.51100000000E-03 0.  1.
    9900012    2    1    2    0    0 -0.22371621421E+02  0.19068159997E+02 -0.28090586874E+02  0.50528865213E+02  0.30000016301E+02 0.  0.
         12    1    1    2    0    0  0.22371621421E+02 -0.19068159997E+02  0.28090586874E+02  0.40659134787E+02  0.00000000000E+00 0. -1.
         11    1    3    3    0    0  0.15149054947E+01  0.32936466033E+01  0.18403503704E+01  0.40657024426E+01  0.51100000000E-03 0. -1.
        -11    1    3    3    0    0 -0.23373572173E+02  0.57484514036E+01 -0.14644748216E+02  0.28175117040E+02  0.51100000000E-03 0.  1.
         12    1    3    3    0    0 -0.51295474327E+00  0.10026061990E+02 -0.15286189028E+02  0.18288045730E+02  0.00000000000E+00 0. -1.
</event>
<event>
 7    1  0.8986500E-014  0.5052886E+02  0.7816164E-02  0.1300439E+00
        -11   -1    0    0    0    0  0.00000000000E+00  0.00000000000E+00  0.45593999997E+02  0.45594000000E+02  0.51100000000E-03 0. -1.
         11   -1    0    0    0    0 -0.00000000000E+00 -0.00000000000E+00 -0.45593999997E+02  0.45594000000E+02  0.51100000000E-03 0.  1.
    9900012    2    1    2    0    0  0.87090808374E+01  0.16982699098E+01 -0.39679131640E+02  0.50528859608E+02  0.29999999265E+02 0.  0.
         12    1    1    2    0    0 -0.87090808374E+01 -0.16982699098E+01  0.39679131640E+02  0.40659140392E+02  0.00000000000E+00 0. -1.
         11    1    3    3    0    0  0.13768349382E+02 -0.66872376309E+00 -0.16203293360E+02  0.21273489421E+02  0.51100000000E-03 0. -1.
        -11    1    3    3    0    0  0.54742987316E+01 -0.63958408369E+00 -0.36686471637E+01  0.66208750687E+01  0.51100000000E-03 0.  1.
         12    1    3    3    0    0 -0.10533567276E+02  0.30065777565E+01 -0.19807191116E+02  0.22634495119E+02  0.00000000000E+00 0. -1.
</event>
<event>
 7    1  0.8986500E-014  0.5052886E+02  0.7816164E-02  0.1300439E+00
        -11   -1    0    0    0    0  0.00000000000E+00  0.00000000000E+00  0.45593999997E+02  0.45594000000E+02  0.51100000000E-03 0. -1.
         11   -1    0    0    0    0 -0.00000000000E+00 -0.00000000000E+00 -0.45593999997E+02  0.45594000000E+02  0.51100000000E-03 0.  1.
    9900012    2    1    2    0    0  0.16218084519E+02 -0.36680113198E+02  0.66864525052E+01  0.50528860599E+02  0.30000002278E+02 0.  0.
        -12    1    1    2    0    0 -0.16218084519E+02  0.36680113198E+02 -0.66864525052E+01  0.40659139401E+02  0.00000000000E+00 0.  1.
         11    1    3    3    0    0  0.15619598490E+02 -0.27757268677E+02  0.24152892171E+01  0.31941688178E+02  0.51100000000E-03 0. -1.
        -11    1    3    3    0    0  0.44474059144E+01  0.30342558886E+01  0.23714792683E+01  0.58830300311E+01  0.51100000000E-03 0.  1.
         12    1    3    3    0    0 -0.38489198854E+01 -0.11957100410E+02  0.18996840197E+01  0.12704142390E+02  0.00000000000E+00 0. -1.
</event>
<event>
 7    1  0.8986500E-014  0.5052886E+02  0.7816164E-02  0.1300439E+00
        -11   -1    0    0    0    0  0.00000000000E+00  0.00000000000E+00  0.45593999997E+02  0.45594000000E+02  0.51100000000E-03 0. -1.
         11   -1    0    0    0    0 -0.00000000000E+00 -0.00000000000E+00 -0.45593999997E+02  0.45594000000E+02  0.51100000000E-03 0.  1.
    9900012    2    1    2    0    0 -0.31267552609E+02  0.55908409050E+00 -0.25984480184E+02  0.50528860418E+02  0.30000001725E+02 0.  0.
         12    1    1    2    0    0  0.31267552609E+02 -0.55908409050E+00  0.25984480184E+02  0.40659139582E+02  0.00000000000E+00 0. -1.
         11    1    3    3    0    0 -0.80316777330E+01  0.81679405799E+01 -0.80718606924E+01  0.14013494775E+02  0.51100000000E-03 0. -1.
        -11    1    3    3    0    0 -0.21275826928E+02 -0.64723744703E+01 -0.22352544609E+02  0.31530757896E+02  0.51100000000E-03 0.  1.
        -12    1    3    3    0    0 -0.19600479477E+01 -0.11364820191E+01  0.44399251172E+01  0.49846077462E+01  0.00000000000E+00 0.  1.
</event>
<event>
 7    1  0.8986500E-014  0.5052887E+02  0.7816164E-02  0.1300439E+00
        -11   -1    0    0    0    0  0.00000000000E+00  0.00000000000E+00  0.45593999997E+02  0.45594000000E+02  0.51100000000E-03 0. -1.
         11   -1    0    0    0    0 -0.00000000000E+00 -0.00000000000E+00 -0.45593999997E+02  0.45594000000E+02  0.51100000000E-03 0.  1.
    9900012    2    1    2    0    0 -0.20706418920E+02  0.10522821510E+02  0.33371838652E+02  0.50528866069E+02  0.30000018904E+02 0.  0.
        -12    1    1    2    0    0  0.20706418920E+02 -0.10522821510E+02 -0.33371838652E+02  0.40659133931E+02  0.00000000000E+00 0.  1.
         11    1    3    3    0    0 -0.10732457646E+02  0.91570108655E+01  0.26336711630E+02  0.29877397391E+02  0.51100000000E-03 0. -1.
        -11    1    3    3    0    0 -0.60413969924E+01  0.28762878206E+01  0.12243554434E+02  0.13952638987E+02  0.51100000000E-03 0.  1.
        -12    1    3    3    0    0 -0.39325642818E+01 -0.15104771759E+01 -0.52084274124E+01  0.66988296918E+01  0.00000000000E+00 0.  1.
</event>
<event>
 7    1  0.8986500E-014  0.5052886E+02  0.7816164E-02  0.1300439E+00
        -11   -1    0    0    0    0  0.00000000000E+00  0.00000000000E+00  0.45593999997E+02  0.45594000000E+02  0.51100000000E-03 0. -1.
         11   -1    0    0    0    0 -0.00000000000E+00 -0.00000000000E+00 -0.45593999997E+02  0.45594000000E+02  0.51100000000E-03 0.  1.
    9900012    2    1    2    0    0 -0.89246324457E+01  0.18094445673E+02 -0.35300248412E+02  0.50528861218E+02  0.30000004159E+02 0.  0.
         12    1    1    2    0    0  0.89246324457E+01 -0.18094445673E+02  0.35300248412E+02  0.40659138782E+02  0.00000000000E+00 0. -1.
         11    1    3    3    0    0 -0.80188309727E+01  0.35242099205E+01 -0.18351340811E+02  0.20334537506E+02  0.51100000000E-03 0.  1.
        -11    1    3    3    0    0 -0.10530519906E+02  0.84255245835E+01 -0.10400928717E+02  0.17031166503E+02  0.51100000000E-03 0. -1.
         12    1    3    3    0    0  0.96247184333E+01  0.61447111690E+01 -0.65479788839E+01  0.13163157210E+02  0.00000000000E+00 0. -1.
</event>
<event>
 7    1  0.8986500E-014  0.5052886E+02  0.7816164E-02  0.1300439E+00
        -11   -1    0    0    0    0  0.00000000000E+00  0.00000000000E+00  0.45593999997E+02  0.45594000000E+02  0.51100000000E-03 0. -1.
         11   -1    0    0    0    0 -0.00000000000E+00 -0.00000000000E+00 -0.45593999997E+02  0.45594000000E+02  0.51100000000E-03 0.  1.
    9900012    2    1    2    0    0 -0.29647872263E+02 -0.21861377351E+02 -0.17211900297E+02  0.50528860053E+02  0.30000000617E+02 0.  0.
         12    1    1    2    0    0  0.29647872263E+02  0.21861377351E+02  0.17211900297E+02  0.40659139947E+02  0.00000000000E+00 0. -1.
         11    1    3    3    0    0 -0.10216423630E+02 -0.12035508876E+01 -0.52311788417E+00  0.10300364028E+02  0.51100000000E-03 0. -1.
        -11    1    3    3    0    0 -0.20019019504E+02 -0.65342838721E+01 -0.15289636573E+02  0.26023662202E+02  0.51100000000E-03 0.  1.
         12    1    3    3    0    0  0.58757087116E+00 -0.14123542591E+02 -0.13991458397E+01  0.14204833822E+02  0.00000000000E+00 0. -1.
</event>
<event>
 7    1  0.8986500E-014  0.5052887E+02  0.7816164E-02  0.1300439E+00
        -11   -1    0    0    0    0  0.00000000000E+00  0.00000000000E+00  0.45593999997E+02  0.45594000000E+02  0.51100000000E-03 0.  1.
         11   -1    0    0    0    0 -0.00000000000E+00 -0.00000000000E+00 -0.45593999997E+02  0.45594000000E+02  0.51100000000E-03 0. -1.
    9900012    2    1    2    0    0 -0.17837594516E+02  0.36413235973E+02  0.30101917365E+01  0.50528870811E+02  0.30000033317E+02 0.  0.
         12    1    1    2    0    0  0.17837594516E+02 -0.36413235973E+02 -0.30101917365E+01  0.40659129189E+02  0.00000000000E+00 0. -1.
         11    1    3    3    0    0  0.50991013095E+01  0.29985540149E+01 -0.39828400463E+01  0.71312814726E+01  0.51100000000E-03 0. -1.
        -11    1    3    3    0    0  0.20400094527E+00  0.92555307147E+01  0.19361915818E+00  0.92598031208E+01  0.51100000000E-03 0.  1.
        -12    1    3    3    0    0 -0.23140696771E+02  0.24159151243E+02  0.67994126246E+01  0.34137786218E+02  0.00000000000E+00 0.  1.
</event>
<event>
 7    1  0.8986500E-014  0.5052887E+02  0.7816164E-02  0.1300439E+00
        -11   -1    0    0    0    0  0.00000000000E+00  0.00000000000E+00  0.45593999997E+02  0.45594000000E+02  0.51100000000E-03 0. -1.
         11   -1    0    0    0    0 -0.00000000000E+00 -0.00000000000E+00 -0.45593999997E+02  0.45594000000E+02  0.51100000000E-03 0.  1.
    9900012    2    1    2    0    0  0.36464711983E+02 -0.85798766091E+01  0.15807457076E+02  0.50528865702E+02  0.30000017789E+02 0.  0.
        -12    1    1    2    0    0 -0.36464711983E+02  0.85798766091E+01 -0.15807457076E+02  0.40659134298E+02  0.00000000000E+00 0.  1.
         11    1    3    3    0    0  0.11418889815E+02 -0.65790647037E+01  0.52778990740E+01  0.14196173987E+02  0.51100000000E-03 0. -1.
        -11    1    3    3    0    0  0.29852910588E+02 -0.17211154914E+01  0.83449197663E+01  0.31045067165E+02  0.51100000000E-03 0.  1.
         12    1    3    3    0    0 -0.48070884199E+01 -0.27969641410E+00  0.21846382355E+01  0.52876245499E+01  0.00000000000E+00 0. -1.
</event>
<event>
 7    1  0.8986500E-014  0.5052884E+02  0.7816164E-02  0.1300439E+00
        -11   -1    0    0    0    0  0.00000000000E+00  0.00000000000E+00  0.45593999997E+02  0.45594000000E+02  0.51100000000E-03 0. -1.
         11   -1    0    0    0    0 -0.00000000000E+00 -0.00000000000E+00 -0.45593999997E+02  0.45594000000E+02  0.51100000000E-03 0.  1.
    9900012    2    1    2    0    0  0.20766184561E+02 -0.34298312564E+02  0.67497102778E+01  0.50528840456E+02  0.29999941051E+02 0.  0.
         12    1    1    2    0    0 -0.20766184561E+02  0.34298312564E+02 -0.67497102778E+01  0.40659159544E+02  0.00000000000E+00 0. -1.
         11    1    3    3    0    0 -0.43388300887E+01 -0.65297504042E+01  0.97605073707E+00  0.79003646867E+01  0.51100000000E-03 0. -1.
        -11    1    3    3    0    0  0.19004415520E+02 -0.29981653618E+02  0.65363465653E+01  0.36094198836E+02  0.51100000000E-03 0.  1.
         12    1    3    3    0    0  0.61005991302E+01  0.22130914585E+01 -0.76268702454E+00  0.65342769339E+01  0.00000000000E+00 0. -1.
</event>
<event>
 7    1  0.8986500E-014  0.5052886E+02  0.7816164E-02  0.1300439E+00
        -11   -1    0    0    0    0  0.00000000000E+00  0.00000000000E+00  0.45593999997E+02  0.45594000000E+02  0.51100000000E-03 0. -1.
         11   -1    0    0    0    0 -0.00000000000E+00 -0.00000000000E+00 -0.45593999997E+02  0.45594000000E+02  0.51100000000E-03 0.  1.
    9900012    2    1    2    0    0 -0.15160540392E+02  0.13492058455E+02  0.35231918848E+02  0.50528859182E+02  0.29999997969E+02 0.  0.
        -12    1    1    2    0    0  0.15160540392E+02 -0.13492058455E+02 -0.35231918848E+02  0.40659140818E+02  0.00000000000E+00 0.  1.
         11    1    3    3    0    0 -0.10927521370E+02  0.16877252025E+02  0.35055058594E+02  0.40411749436E+02  0.51100000000E-03 0. -1.
        -11    1    3    3    0    0 -0.28413730865E+01  0.21364484992E+01 -0.19305408771E+01  0.40453431926E+01  0.51100000000E-03 0.  1.
        -12    1    3    3    0    0 -0.13916459348E+01 -0.55216420687E+01  0.21074011315E+01  0.60717665528E+01  0.00000000000E+00 0.  1.
</event>
<event>
 7    1  0.8986500E-014  0.5052886E+02  0.7816164E-02  0.1300439E+00
        -11   -1    0    0    0    0  0.00000000000E+00  0.00000000000E+00  0.45593999997E+02  0.45594000000E+02  0.51100000000E-03 0. -1.
         11   -1    0    0    0    0 -0.00000000000E+00 -0.00000000000E+00 -0.45593999997E+02  0.45594000000E+02  0.51100000000E-03 0.  1.
    9900012    2    1    2    0    0  0.37078964878E+02  0.11457710974E+02  0.12125864638E+02  0.50528863630E+02  0.30000011489E+02 0.  0.
        -12    1    1    2    0    0 -0.37078964878E+02 -0.11457710974E+02 -0.12125864638E+02  0.40659136370E+02  0.00000000000E+00 0.  1.
         11    1    3    3    0    0 -0.16482896624E+01  0.16080386588E+01 -0.28069880870E+00  0.23197929265E+01  0.51100000000E-03 0.  1.
        -11    1    3    3    0    0  0.30948342656E+02  0.17352272302E+02  0.11772506925E+02  0.37383060158E+02  0.51100000000E-03 0. -1.
         12    1    3    3    0    0  0.77789118839E+01 -0.75025999864E+01  0.63405652102E+00  0.10826010545E+02  0.00000000000E+00 0. -1.
</event>
<event>
 7    1  0.8986500E-014  0.5052884E+02  0.7816164E-02  0.1300439E+00
        -11   -1    0    0    0    0  0.00000000000E+00  0.00000000000E+00  0.45593999997E+02  0.45594000000E+02  0.51100000000E-03 0. -1.
         11   -1    0    0    0    0 -0.00000000000E+00 -0.00000000000E+00 -0.45593999997E+02  0.45594000000E+02  0.51100000000E-03 0.  1.
    9900012    2    1    2    0    0 -0.23683741868E+02 -0.21316490437E+02 -0.25255785565E+02  0.50528842385E+02  0.29999946915E+02 0.  0.
         12    1    1    2    0    0  0.23683741868E+02  0.21316490437E+02  0.25255785565E+02  0.40659157615E+02  0.00000000000E+00 0. -1.
         11    1    3    3    0    0 -0.12219721649E+02 -0.50987401280E+00 -0.62031219242E+00  0.12246075134E+02  0.51100000000E-03 0. -1.
        -11    1    3    3    0    0 -0.52667042007E+01 -0.12894454926E+02 -0.27465327715E+01  0.14196780745E+02  0.51100000000E-03 0.  1.
        -12    1    3    3    0    0 -0.61973160180E+01 -0.79121614981E+01 -0.21888940601E+02  0.24085986507E+02  0.00000000000E+00 0.  1.
</event>
<event>
 7    1  0.8986500E-014  0.5052886E+02  0.7816164E-02  0.1300439E+00
        -11   -1    0    0    0    0  0.00000000000E+00  0.00000000000E+00  0.45593999997E+02  0.45594000000E+02  0.51100000000E-03 0. -1.
         11   -1    0    0    0    0 -0.00000000000E+00 -0.00000000000E+00 -0.45593999997E+02  0.45594000000E+02  0.51100000000E-03 0.  1.
    9900012    2    1    2    0    0  0.98167841782E+01 -0.25558444751E+01  0.39373392488E+02  0.50528860454E+02  0.30000001837E+02 0.  0.
        -12    1    1    2    0    0 -0.98167841782E+01  0.25558444751E+01 -0.39373392488E+02  0.40659139546E+02  0.00000000000E+00 0.  1.
         11    1    3    3    0    0  0.15855558062E+02 -0.32871298439E+01  0.10912674886E+02  0.19526659149E+02  0.51100000000E-03 0. -1.
        -11    1    3    3    0    0  0.23452798396E+01 -0.22983532732E+01  0.60537209372E+01  0.68869661493E+01  0.51100000000E-03 0.  1.
        -12    1    3    3    0    0 -0.83840537234E+01  0.30296386420E+01  0.22406996664E+02  0.24115235157E+02  0.00000000000E+00 0.  1.
</event>
<event>
 7    1  0.8986500E-014  0.5052885E+02  0.7816164E-02  0.1300439E+00
        -11   -1    0    0    0    0  0.00000000000E+00  0.00000000000E+00  0.45593999997E+02  0.45594000000E+02  0.51100000000E-03 0. -1.
         11   -1    0    0    0    0 -0.00000000000E+00 -0.00000000000E+00 -0.45593999997E+02  0.45594000000E+02  0.51100000000E-03 0.  1.
    9900012    2    1    2    0    0 -0.15100339104E+02  0.36775193009E+02  0.85282859682E+01  0.50528846990E+02  0.29999960911E+02 0.  0.
        -12    1    1    2    0    0  0.15100339104E+02 -0.36775193009E+02 -0.85282859682E+01  0.40659153010E+02  0.00000000000E+00 0.  1.
         11    1    3    3    0    0 -0.19026168510E+02  0.24901866845E+02  0.59820692049E+01  0.31904282044E+02  0.51100000000E-03 0. -1.
        -11    1    3    3    0    0 -0.11745640807E+01  0.71296868607E+01 -0.46633199593E+01  0.85999179540E+01  0.51100000000E-03 0.  1.
        -12    1    3    3    0    0  0.51003934862E+01  0.47436393035E+01  0.72095367225E+01  0.10024646992E+02  0.00000000000E+00 0.  1.
</event>
<event>
 7    1  0.8986500E-014  0.5052884E+02  0.7816164E-02  0.1300439E+00
        -11   -1    0    0    0    0  0.00000000000E+00  0.00000000000E+00  0.45593999997E+02  0.45594000000E+02  0.51100000000E-03 0. -1.
         11   -1    0    0    0    0 -0.00000000000E+00 -0.00000000000E+00 -0.45593999997E+02  0.45594000000E+02  0.51100000000E-03 0.  1.
    9900012    2    1    2    0    0 -0.16053506701E+02  0.28188415553E+02  0.24512548679E+02  0.50528844924E+02  0.29999954630E+02 0.  0.
        -12    1    1    2    0    0  0.16053506701E+02 -0.28188415553E+02 -0.24512548679E+02  0.40659155076E+02  0.00000000000E+00 0.  1.
         11    1    3    3    0    0  0.18397519808E+01  0.55821301920E+01  0.84724192281E+01  0.10311486443E+02  0.51100000000E-03 0. -1.
        -11    1    3    3    0    0  0.34749715957E+01  0.82829576024E+01 -0.14658073912E+01  0.91011760671E+01  0.51100000000E-03 0.  1.
        -12    1    3    3    0    0 -0.21368230277E+02  0.14323327758E+02  0.17505936842E+02  0.31116182413E+02  0.00000000000E+00 0.  1.
</event>
<event>
 7    1  0.8986500E-014  0.5052884E+02  0.7816164E-02  0.1300439E+00
        -11   -1    0    0    0    0  0.00000000000E+00  0.00000000000E+00  0.45593999997E+02  0.45594000000E+02  0.51100000000E-03 0. -1.
         11   -1    0    0    0    0 -0.00000000000E+00 -0.00000000000E+00 -0.45593999997E+02  0.45594000000E+02  0.51100000000E-03 0.  1.
    9900012    2    1    2    0    0 -0.10799735798E+02 -0.79152049166E+01 -0.38391176282E+02  0.50528841395E+02  0.29999943903E+02 0.  0.
         12    1    1    2    0    0  0.10799735798E+02  0.79152049166E+01  0.38391176282E+02  0.40659158605E+02  0.00000000000E+00 0. -1.
         11    1    3    3    0    0 -0.17295645615E+00 -0.10535192766E+02 -0.78379306932E+01  0.13132149800E+02  0.51100000000E-03 0. -1.
        -11    1    3    3    0    0 -0.77307462482E+01 -0.72708551822E+01 -0.10947726583E+02  0.15247376503E+02  0.51100000000E-03 0.  1.
        -12    1    3    3    0    0 -0.28960330935E+01  0.98908430313E+01 -0.19605519006E+02  0.22149315092E+02  0.00000000000E+00 0.  1.
</event>
<event>
 7    1  0.8986500E-014  0.5052887E+02  0.7816164E-02  0.1300439E+00
        -11   -1    0    0    0    0  0.00000000000E+00  0.00000000000E+00  0.45593999997E+02  0.45594000000E+02  0.51100000000E-03 0. -1.
         11   -1    0    0    0    0 -0.00000000000E+00 -0.00000000000E+00 -0.45593999997E+02  0.45594000000E+02  0.51100000000E-03 0.  1.
    9900012    2    1    2    0    0 -0.34973709493E+02 -0.55886406294E+01 -0.19969270203E+02  0.50528868034E+02  0.30000024876E+02 0.  0.
         12    1    1    2    0    0  0.34973709493E+02  0.55886406294E+01  0.19969270203E+02  0.40659131966E+02  0.00000000000E+00 0. -1.
         11    1    3    3    0    0  0.32270030755E+01 -0.28134474588E+01 -0.11178913782E+00  0.42827015452E+01  0.51100000000E-03 0. -1.
        -11    1    3    3    0    0 -0.75613945816E+00  0.49370603464E+00 -0.61836227852E+01  0.62492146338E+01  0.51100000000E-03 0.  1.
         12    1    3    3    0    0 -0.37444573110E+02 -0.32688992052E+01 -0.13673858280E+02  0.39996951855E+02  0.00000000000E+00 0. -1.
</event>
<event>
 7    1  0.8986500E-014  0.5052886E+02  0.7816164E-02  0.1300439E+00
        -11   -1    0    0    0    0  0.00000000000E+00  0.00000000000E+00  0.45593999997E+02  0.45594000000E+02  0.51100000000E-03 0. -1.
         11   -1    0    0    0    0 -0.00000000000E+00 -0.00000000000E+00 -0.45593999997E+02  0.45594000000E+02  0.51100000000E-03 0.  1.
    9900012    2    1    2    0    0  0.19982590158E+02 -0.26153005334E+02 -0.23872200520E+02  0.50528861358E+02  0.30000004584E+02 0.  0.
         12    1    1    2    0    0 -0.19982590158E+02  0.26153005334E+02  0.23872200520E+02  0.40659138642E+02  0.00000000000E+00 0. -1.
         11    1    3    3    0    0  0.10639871217E+01  0.27508292968E+01  0.22303838417E+00  0.29578500295E+01  0.51100000000E-03 0. -1.
        -11    1    3    3    0    0  0.92046476082E+01  0.76007403021E+00 -0.90104972906E+01  0.12903189986E+02  0.51100000000E-03 0.  1.
         12    1    3    3    0    0  0.97139554286E+01 -0.29663908661E+02 -0.15084741614E+02  0.34667821343E+02  0.00000000000E+00 0. -1.
</event>
<event>
 7    1  0.1063710E-013  0.5052886E+02  0.7816164E-02  0.1300439E+00
        -11   -1    0    0    0    0  0.00000000000E+00  0.00000000000E+00  0.45593999997E+02  0.45594000000E+02  0.51100000000E-03 0. -1.
         11   -1    0    0    0    0 -0.00000000000E+00 -0.00000000000E+00 -0.45593999997E+02  0.45594000000E+02  0.51100000000E-03 0.  1.
    9900012    2    1    2    0    0 -0.29404110136E+02 -0.12013634869E+02  0.25381813151E+02  0.50528861366E+02  0.30000004607E+02 0.  0.
        -12    1    1    2    0    0  0.29404110136E+02  0.12013634869E+02 -0.25381813151E+02  0.40659138634E+02  0.00000000000E+00 0.  1.
         11    1    3    3    0    0 -0.24434792066E+01  0.48264872419E+01 -0.15956489339E+01  0.56401831096E+01  0.51100000000E-03 0. -1.
        -11    1    3    3    0    0 -0.16804768559E+00 -0.39600154028E+01 -0.97667798282E+00  0.40821394095E+01  0.51100000000E-03 0.  1.
         12    1    3    3    0    0 -0.26792583244E+02 -0.12880106708E+02  0.27954140068E+02  0.40806538846E+02  0.00000000000E+00 0. -1.
</event>
<event>
 7    1  0.8986500E-014  0.5052886E+02  0.7816164E-02  0.1300439E+00
        -11   -1    0    0    0    0  0.00000000000E+00  0.00000000000E+00  0.45593999997E+02  0.45594000000E+02  0.51100000000E-03 0. -1.
         11   -1    0    0    0    0 -0.00000000000E+00 -0.00000000000E+00 -0.45593999997E+02  0.45594000000E+02  0.51100000000E-03 0.  1.
    9900012    2    1    2    0    0  0.25784488618E+02 -0.20275790766E+02 -0.24025359952E+02  0.50528862462E+02  0.30000007940E+02 0.  0.
         12    1    1    2    0    0 -0.25784488618E+02  0.20275790766E+02  0.24025359952E+02  0.40659137538E+02  0.00000000000E+00 0. -1.
         11    1    3    3    0    0  0.15617966874E+02 -0.10179171106E+02 -0.52708889431E+01  0.19373143375E+02  0.51100000000E-03 0. -1.
        -11    1    3    3    0    0  0.87264703359E+01 -0.98672339732E+01 -0.85846212932E+00  0.13200399551E+02  0.51100000000E-03 0.  1.
         12    1    3    3    0    0  0.14400514078E+01 -0.22938568630E+00 -0.17896008880E+02  0.17955319537E+02  0.00000000000E+00 0. -1.
</event>
<event>
 7    1  0.8986500E-014  0.5052886E+02  0.7816164E-02  0.1300439E+00
        -11   -1    0    0    0    0  0.00000000000E+00  0.00000000000E+00  0.45593999997E+02  0.45594000000E+02  0.51100000000E-03 0.  1.
         11   -1    0    0    0    0 -0.00000000000E+00 -0.00000000000E+00 -0.45593999997E+02  0.45594000000E+02  0.51100000000E-03 0. -1.
    9900012    2    1    2    0    0  0.44893502795E+01 -0.37483952602E+02 -0.15098505448E+02  0.50528857912E+02  0.29999994109E+02 0.  0.
         12    1    1    2    0    0 -0.44893502795E+01  0.37483952602E+02  0.15098505448E+02  0.40659142088E+02  0.00000000000E+00 0. -1.
         11    1    3    3    0    0  0.19906247951E+01 -0.15223667317E+02 -0.42269931707E+01  0.15924512714E+02  0.51100000000E-03 0. -1.
        -11    1    3    3    0    0 -0.86446961164E+01 -0.19098086358E+02 -0.47177417302E+01  0.21487781663E+02  0.51100000000E-03 0.  1.
         12    1    3    3    0    0  0.11143421601E+02 -0.31621989264E+01 -0.61537705468E+01  0.13116563535E+02  0.00000000000E+00 0. -1.
</event>
<event>
 7    1  0.8986500E-014  0.5052886E+02  0.7816164E-02  0.1300439E+00
        -11   -1    0    0    0    0  0.00000000000E+00  0.00000000000E+00  0.45593999997E+02  0.45594000000E+02  0.51100000000E-03 0. -1.
         11   -1    0    0    0    0 -0.00000000000E+00 -0.00000000000E+00 -0.45593999997E+02  0.45594000000E+02  0.51100000000E-03 0.  1.
    9900012    2    1    2    0    0  0.24982892119E+02 -0.14050650843E+02  0.28837475093E+02  0.50528860099E+02  0.30000000757E+02 0.  0.
        -12    1    1    2    0    0 -0.24982892119E+02  0.14050650843E+02 -0.28837475093E+02  0.40659139901E+02  0.00000000000E+00 0.  1.
         11    1    3    3    0    0  0.84907525832E+01  0.42189877571E+01  0.17131176508E+02  0.19579835187E+02  0.51100000000E-03 0. -1.
        -11    1    3    3    0    0  0.91087281040E+01 -0.89785480144E+00  0.69242642311E+01  0.11476955446E+02  0.51100000000E-03 0.  1.
         12    1    3    3    0    0  0.73834114316E+01 -0.17371783799E+02  0.47820343537E+01  0.19472069466E+02  0.00000000000E+00 0. -1.
</event>
<event>
 7    1  0.8986500E-014  0.5052883E+02  0.7816164E-02  0.1300439E+00
        -11   -1    0    0    0    0  0.00000000000E+00  0.00000000000E+00  0.45593999997E+02  0.45594000000E+02  0.51100000000E-03 0.  1.
         11   -1    0    0    0    0 -0.00000000000E+00 -0.00000000000E+00 -0.45593999997E+02  0.45594000000E+02  0.51100000000E-03 0. -1.
    9900012    2    1    2    0    0 -0.32286879495E+02  0.73458343050E+01  0.23595858024E+02  0.50528826557E+02  0.29999898803E+02 0.  0.
        -12    1    1    2    0    0  0.32286879495E+02 -0.73458343050E+01 -0.23595858024E+02  0.40659173443E+02  0.00000000000E+00 0.  1.
         11    1    3    3    0    0 -0.94290432047E+01  0.12873489501E+02  0.90648779023E+01  0.18352264147E+02  0.51100000000E-03 0. -1.
        -11    1    3    3    0    0  0.68098898968E+00 -0.19011207861E+01  0.68662425977E+01  0.71570450549E+01  0.51100000000E-03 0.  1.
        -12    1    3    3    0    0 -0.23538825280E+02 -0.36265344095E+01  0.76647375243E+01  0.25019517355E+02  0.00000000000E+00 0.  1.
</event>
<event>
 7    1  0.8986500E-014  0.5052886E+02  0.7816164E-02  0.1300439E+00
        -11   -1    0    0    0    0  0.00000000000E+00  0.00000000000E+00  0.45593999997E+02  0.45594000000E+02  0.51100000000E-03 0. -1.
         11   -1    0    0    0    0 -0.00000000000E+00 -0.00000000000E+00 -0.45593999997E+02  0.45594000000E+02  0.51100000000E-03 0.  1.
    9900012    2    1    2    0    0  0.93198951585E+00  0.59576786141E+01 -0.40209491547E+02  0.50528858969E+02  0.29999997322E+02 0.  0.
         12    1    1    2    0    0 -0.93198951585E+00 -0.59576786141E+01  0.40209491547E+02  0.40659141031E+02  0.00000000000E+00 0. -1.
         11    1    3    3    0    0  0.16688335384E+01  0.13280566989E+02 -0.26509909126E+02  0.29697369362E+02  0.51100000000E-03 0. -1.
        -11    1    3    3    0    0 -0.38545318099E+01  0.88715742403E-01  0.10820152574E+01  0.40045028698E+01  0.51100000000E-03 0.  1.
        -12    1    3    3    0    0  0.31176877873E+01 -0.74116041169E+01 -0.14781597678E+02  0.16826986737E+02  0.00000000000E+00 0.  1.
</event>
<event>
 7    1  0.8986500E-014  0.5052886E+02  0.7816164E-02  0.1300439E+00
        -11   -1    0    0    0    0  0.00000000000E+00  0.00000000000E+00  0.45593999997E+02  0.45594000000E+02  0.51100000000E-03 0. -1.
         11   -1    0    0    0    0 -0.00000000000E+00 -0.00000000000E+00 -0.45593999997E+02  0.45594000000E+02  0.51100000000E-03 0.  1.
    9900012    2    1    2    0    0 -0.33714110545E+02 -0.58494152803E+01  0.21961522230E+02  0.50528863664E+02  0.30000011592E+02 0.  0.
        -12    1    1    2    0    0  0.33714110545E+02  0.58494152803E+01 -0.21961522230E+02  0.40659136336E+02  0.00000000000E+00 0.  1.
         11    1    3    3    0    0 -0.10612200596E+02 -0.86043072851E+01  0.13567390705E+02  0.19254272153E+02  0.51100000000E-03 0. -1.
        -11    1    3    3    0    0 -0.10349382404E+02 -0.82419411283E+01  0.46551315472E+01  0.14025318523E+02  0.51100000000E-03 0.  1.
         12    1    3    3    0    0 -0.12752527545E+02  0.10996833133E+02  0.37389999776E+01  0.17249272987E+02  0.00000000000E+00 0. -1.
</event>
<event>
 7    1  0.8986500E-014  0.5052887E+02  0.7816164E-02  0.1300439E+00
        -11   -1    0    0    0    0  0.00000000000E+00  0.00000000000E+00  0.45593999997E+02  0.45594000000E+02  0.51100000000E-03 0. -1.
         11   -1    0    0    0    0 -0.00000000000E+00 -0.00000000000E+00 -0.45593999997E+02  0.45594000000E+02  0.51100000000E-03 0.  1.
    9900012    2    1    2    0    0 -0.57182946249E+01 -0.42019731945E+01  0.40035101129E+02  0.50528870710E+02  0.30000033011E+02 0.  0.
        -12    1    1    2    0    0  0.57182946249E+01  0.42019731945E+01 -0.40035101129E+02  0.40659129290E+02  0.00000000000E+00 0.  1.
         11    1    3    3    0    0 -0.73901458202E+01 -0.65395348120E+01  0.24572444295E+02  0.26479894065E+02  0.51100000000E-03 0. -1.
        -11    1    3    3    0    0 -0.35621955367E+01 -0.63276861336E+01  0.10521819529E+02  0.12784269056E+02  0.51100000000E-03 0.  1.
         12    1    3    3    0    0  0.52340467320E+01  0.86652477512E+01  0.49408373055E+01  0.11264707589E+02  0.00000000000E+00 0. -1.
</event>
<event>
 7    1  0.8986500E-014  0.5052887E+02  0.7816164E-02  0.1300439E+00
        -11   -1    0    0    0    0  0.00000000000E+00  0.00000000000E+00  0.45593999997E+02  0.45594000000E+02  0.51100000000E-03 0. -1.
         11   -1    0    0    0    0 -0.00000000000E+00 -0.00000000000E+00 -0.45593999997E+02  0.45594000000E+02  0.51100000000E-03 0.  1.
    9900012    2    1    2    0    0  0.13726013649E+02 -0.11122141790E+02  0.36620481023E+02  0.50528866721E+02  0.30000020884E+02 0.  0.
        -12    1    1    2    0    0 -0.13726013649E+02  0.11122141790E+02 -0.36620481023E+02  0.40659133279E+02  0.00000000000E+00 0.  1.
         11    1    3    3    0    0  0.18889745973E+01 -0.70589626587E+01 -0.89447454697E+00  0.73618790959E+01  0.51100000000E-03 0.  1.
        -11    1    3    3    0    0 -0.14016677177E+01 -0.71352148073E+01  0.17737383320E+02  0.19170047732E+02  0.51100000000E-03 0. -1.
         12    1    3    3    0    0  0.13238706770E+02  0.30720356762E+01  0.19777572250E+02  0.23996939893E+02  0.00000000000E+00 0. -1.
</event>
<event>
 7    1  0.8986500E-014  0.5052886E+02  0.7816164E-02  0.1300439E+00
        -11   -1    0    0    0    0  0.00000000000E+00  0.00000000000E+00  0.45593999997E+02  0.45594000000E+02  0.51100000000E-03 0. -1.
         11   -1    0    0    0    0 -0.00000000000E+00 -0.00000000000E+00 -0.45593999997E+02  0.45594000000E+02  0.51100000000E-03 0.  1.
    9900012    2    1    2    0    0 -0.26146404722E+02 -0.49112880387E+00  0.31133420454E+02  0.50528861340E+02  0.30000004530E+02 0.  0.
        -12    1    1    2    0    0  0.26146404722E+02  0.49112880387E+00 -0.31133420454E+02  0.40659138660E+02  0.00000000000E+00 0.  1.
         11    1    3    3    0    0  0.71620356457E+00  0.15552355442E+01  0.47031032087E+01  0.50050859330E+01  0.51100000000E-03 0.  1.
        -11    1    3    3    0    0 -0.21906566420E+02 -0.87368295899E+01  0.73457486344E+01  0.24702021513E+02  0.51100000000E-03 0. -1.
         12    1    3    3    0    0 -0.49560418663E+01  0.66904652419E+01  0.19084568611E+02  0.20821753894E+02  0.00000000000E+00 0. -1.
</event>
<event>
 7    1  0.8986500E-014  0.5052886E+02  0.7816164E-02  0.1300439E+00
        -11   -1    0    0    0    0  0.00000000000E+00  0.00000000000E+00  0.45593999997E+02  0.45594000000E+02  0.51100000000E-03 0. -1.
         11   -1    0    0    0    0 -0.00000000000E+00 -0.00000000000E+00 -0.45593999997E+02  0.45594000000E+02  0.51100000000E-03 0.  1.
    9900012    2    1    2    0    0  0.33598901240E+01  0.14021611088E+02 -0.38016723175E+02  0.50528859820E+02  0.29999999909E+02 0.  0.
         12    1    1    2    0    0 -0.33598901240E+01 -0.14021611088E+02  0.38016723175E+02  0.40659140180E+02  0.00000000000E+00 0. -1.
         11    1    3    3    0    0 -0.33706368741E+00 -0.63374750124E+01 -0.12832763463E+02  0.14316320051E+02  0.51100000000E-03 0. -1.
        -11    1    3    3    0    0  0.22577073095E+01 -0.23459309180E+01 -0.35710358300E+01  0.48324870747E+01  0.51100000000E-03 0.  1.
         12    1    3    3    0    0  0.14392465020E+01  0.22705017019E+02 -0.21612923883E+02  0.31380052694E+02  0.00000000000E+00 0. -1.
</event>
<event>
 7    1  0.8986500E-014  0.5052885E+02  0.7816164E-02  0.1300439E+00
        -11   -1    0    0    0    0  0.00000000000E+00  0.00000000000E+00  0.45593999997E+02  0.45594000000E+02  0.51100000000E-03 0. -1.
         11   -1    0    0    0    0 -0.00000000000E+00 -0.00000000000E+00 -0.45593999997E+02  0.45594000000E+02  0.51100000000E-03 0.  1.
    9900012    2    1    2    0    0  0.95555501821E+01  0.11375381919E+02 -0.37847836694E+02  0.50528848564E+02  0.29999965695E+02 0.  0.
         12    1    1    2    0    0 -0.95555501821E+01 -0.11375381919E+02  0.37847836694E+02  0.40659151436E+02  0.00000000000E+00 0. -1.
         11    1    3    3    0    0  0.49012437276E+00  0.68535747226E+01 -0.96144515400E+01  0.11817334177E+02  0.51100000000E-03 0.  1.
        -11    1    3    3    0    0  0.35489017933E+01  0.16218332256E+01 -0.31454779143E+02  0.31695870048E+02  0.51100000000E-03 0. -1.
         12    1    3    3    0    0  0.55165240160E+01  0.28999739713E+01  0.32213939887E+01  0.70156443385E+01  0.00000000000E+00 0. -1.
</event>
<event>
 7    1  0.8986500E-014  0.5052886E+02  0.7816164E-02  0.1300439E+00
        -11   -1    0    0    0    0  0.00000000000E+00  0.00000000000E+00  0.45593999997E+02  0.45594000000E+02  0.51100000000E-03 0. -1.
         11   -1    0    0    0    0 -0.00000000000E+00 -0.00000000000E+00 -0.45593999997E+02  0.45594000000E+02  0.51100000000E-03 0.  1.
    9900012    2    1    2    0    0  0.57966137131E+01 -0.26578529264E+02 -0.30218312205E+02  0.50528863992E+02  0.30000012591E+02 0.  0.
         12    1    1    2    0    0 -0.57966137131E+01  0.26578529264E+02  0.30218312205E+02  0.40659136008E+02  0.00000000000E+00 0. -1.
         11    1    3    3    0    0  0.44361066766E+01  0.16237310287E+00 -0.85289353373E+01  0.96149958773E+01  0.51100000000E-03 0. -1.
        -11    1    3    3    0    0  0.52518846148E+00 -0.58249412455E+01 -0.18914536505E+02  0.19798117459E+02  0.51100000000E-03 0.  1.
         12    1    3    3    0    0  0.83531857499E+00 -0.20915961121E+02 -0.27748403622E+01  0.21115750656E+02  0.00000000000E+00 0. -1.
</event>
<event>
 7    1  0.8986500E-014  0.5052886E+02  0.7816164E-02  0.1300439E+00
        -11   -1    0    0    0    0  0.00000000000E+00  0.00000000000E+00  0.45593999997E+02  0.45594000000E+02  0.51100000000E-03 0. -1.
         11   -1    0    0    0    0 -0.00000000000E+00 -0.00000000000E+00 -0.45593999997E+02  0.45594000000E+02  0.51100000000E-03 0.  1.
    9900012    2    1    2    0    0  0.75513886109E+01  0.35546333658E+02  0.18237341642E+02  0.50528856666E+02  0.29999990322E+02 0.  0.
        -12    1    1    2    0    0 -0.75513886109E+01 -0.35546333658E+02 -0.18237341642E+02  0.40659143334E+02  0.00000000000E+00 0.  1.
         11    1    3    3    0    0 -0.86821310982E+00 -0.12709448529E+01 -0.86276770130E+00  0.17645008333E+01  0.51100000000E-03 0.  1.
        -11    1    3    3    0    0  0.83951789098E+01  0.25590617406E+01  0.10026040158E+02  0.13324762941E+02  0.51100000000E-03 0. -1.
         12    1    3    3    0    0  0.24422810975E-01  0.34258216770E+02  0.90740691857E+01  0.35439592892E+02  0.00000000000E+00 0. -1.
</event>
<event>
 7    1  0.8986500E-014  0.5052886E+02  0.7816164E-02  0.1300439E+00
        -11   -1    0    0    0    0  0.00000000000E+00  0.00000000000E+00  0.45593999997E+02  0.45594000000E+02  0.51100000000E-03 0. -1.
         11   -1    0    0    0    0 -0.00000000000E+00 -0.00000000000E+00 -0.45593999997E+02  0.45594000000E+02  0.51100000000E-03 0.  1.
    9900012    2    1    2    0    0  0.20323337104E+02 -0.34717633296E+02 -0.59002735865E+01  0.50528864235E+02  0.30000013329E+02 0.  0.
         12    1    1    2    0    0 -0.20323337104E+02  0.34717633296E+02  0.59002735865E+01  0.40659135765E+02  0.00000000000E+00 0. -1.
         11    1    3    3    0    0  0.81746259526E-01 -0.72763822883E+01  0.35790563262E+01  0.81093813638E+01  0.51100000000E-03 0. -1.
        -11    1    3    3    0    0  0.50476229317E+01 -0.21831887747E+02  0.21053744935E+01  0.22506497326E+02  0.51100000000E-03 0.  1.
        -12    1    3    3    0    0  0.15193967913E+02 -0.56093632606E+01 -0.11584704406E+02  0.19912985545E+02  0.00000000000E+00 0.  1.
</event>
<event>
 7    1  0.8986500E-014  0.5052886E+02  0.7816164E-02  0.1300439E+00
        -11   -1    0    0    0    0  0.00000000000E+00  0.00000000000E+00  0.45593999997E+02  0.45594000000E+02  0.51100000000E-03 0. -1.
         11   -1    0    0    0    0 -0.00000000000E+00 -0.00000000000E+00 -0.45593999997E+02  0.45594000000E+02  0.51100000000E-03 0.  1.
    9900012    2    1    2    0    0 -0.47198319694E+01 -0.17908033128E+02 -0.36196565041E+02  0.50528858530E+02  0.29999995987E+02 0.  0.
         12    1    1    2    0    0  0.47198319694E+01  0.17908033128E+02  0.36196565041E+02  0.40659141470E+02  0.00000000000E+00 0. -1.
         11    1    3    3    0    0 -0.68475310595E+01 -0.54600409352E+01 -0.20413543131E+02  0.22212912282E+02  0.51100000000E-03 0. -1.
        -11    1    3    3    0    0 -0.36851528639E+01  0.43690279463E+01 -0.37680367607E+01  0.68459373439E+01  0.51100000000E-03 0.  1.
        -12    1    3    3    0    0  0.58128519540E+01 -0.16817020139E+02 -0.12014985149E+02  0.21470008904E+02  0.00000000000E+00 0.  1.
</event>
<event>
 7    1  0.8986500E-014  0.5052885E+02  0.7816164E-02  0.1300439E+00
        -11   -1    0    0    0    0  0.00000000000E+00  0.00000000000E+00  0.45593999997E+02  0.45594000000E+02  0.51100000000E-03 0. -1.
         11   -1    0    0    0    0 -0.00000000000E+00 -0.00000000000E+00 -0.45593999997E+02  0.45594000000E+02  0.51100000000E-03 0.  1.
    9900012    2    1    2    0    0 -0.16363657060E+00 -0.33430043692E+02  0.23142424390E+02  0.50528850909E+02  0.29999972823E+02 0.  0.
        -12    1    1    2    0    0  0.16363657060E+00  0.33430043692E+02 -0.23142424390E+02  0.40659149091E+02  0.00000000000E+00 0.  1.
         11    1    3    3    0    0 -0.41276144737E+01 -0.12113148874E+02  0.11030651217E+02  0.16894994626E+02  0.51100000000E-03 0.  1.
        -11    1    3    3    0    0 -0.62608095582E+01 -0.18620131156E+02  0.12075875934E+02  0.23059353860E+02  0.51100000000E-03 0. -1.
        -12    1    3    3    0    0  0.10224787461E+02 -0.26967636618E+01  0.35897238380E-01  0.10574502423E+02  0.00000000000E+00 0.  1.
</event>
<event>
 7    1  0.8986500E-014  0.5052884E+02  0.7816164E-02  0.1300439E+00
        -11   -1    0    0    0    0  0.00000000000E+00  0.00000000000E+00  0.45593999997E+02  0.45594000000E+02  0.51100000000E-03 0. -1.
         11   -1    0    0    0    0 -0.00000000000E+00 -0.00000000000E+00 -0.45593999997E+02  0.45594000000E+02  0.51100000000E-03 0.  1.
    9900012    2    1    2    0    0 -0.98246918542E+01 -0.26120694537E+02  0.29569442598E+02  0.50528841269E+02  0.29999943522E+02 0.  0.
        -12    1    1    2    0    0  0.98246918542E+01  0.26120694537E+02 -0.29569442598E+02  0.40659158731E+02  0.00000000000E+00 0.  1.
         11    1    3    3    0    0 -0.12300050033E+02 -0.23899182602E+02  0.28331060045E+02  0.39052671143E+02  0.51100000000E-03 0. -1.
        -11    1    3    3    0    0 -0.43468988515E+00 -0.46632124696E+01  0.44809088272E+01  0.64817474504E+01  0.51100000000E-03 0.  1.
        -12    1    3    3    0    0  0.29100480639E+01  0.24417005341E+01 -0.32425262739E+01  0.49944226763E+01  0.00000000000E+00 0.  1.
</event>
<event>
 7    1  0.8986500E-014  0.5052886E+02  0.7816164E-02  0.1300439E+00
        -11   -1    0    0    0    0  0.00000000000E+00  0.00000000000E+00  0.45593999997E+02  0.45594000000E+02  0.51100000000E-03 0. -1.
         11   -1    0    0    0    0 -0.00000000000E+00 -0.00000000000E+00 -0.45593999997E+02  0.45594000000E+02  0.51100000000E-03 0.  1.
    9900012    2    1    2    0    0  0.41872230352E+01 -0.54165555373E+01  0.40078589969E+02  0.50528864685E+02  0.30000014698E+02 0.  0.
        -12    1    1    2    0    0 -0.41872230352E+01  0.54165555373E+01 -0.40078589969E+02  0.40659135315E+02  0.00000000000E+00 0.  1.
         11    1    3    3    0    0  0.30300768213E+01 -0.12160589611E+02  0.18736906068E+02  0.22541804597E+02  0.51100000000E-03 0. -1.
        -11    1    3    3    0    0  0.65147841911E+01 -0.26282684532E+01  0.10902123591E+02  0.12969445137E+02  0.51100000000E-03 0.  1.
         12    1    3    3    0    0 -0.53576379772E+01  0.93723025269E+01  0.10439560311E+02  0.15017614952E+02  0.00000000000E+00 0. -1.
</event>
<event>
 7    1  0.8986500E-014  0.5052885E+02  0.7816164E-02  0.1300439E+00
        -11   -1    0    0    0    0  0.00000000000E+00  0.00000000000E+00  0.45593999997E+02  0.45594000000E+02  0.51100000000E-03 0. -1.
         11   -1    0    0    0    0 -0.00000000000E+00 -0.00000000000E+00 -0.45593999997E+02  0.45594000000E+02  0.51100000000E-03 0.  1.
    9900012    2    1    2    0    0  0.11159349188E+02  0.10108052886E+02  0.37768541413E+02  0.50528849395E+02  0.29999968221E+02 0.  0.
        -12    1    1    2    0    0 -0.11159349188E+02 -0.10108052886E+02 -0.37768541413E+02  0.40659150605E+02  0.00000000000E+00 0.  1.
         11    1    3    3    0    0  0.11036979140E+02 -0.22682641766E+01  0.20593963850E+02  0.23474907417E+02  0.51100000000E-03 0. -1.
        -11    1    3    3    0    0  0.22421157915E+01  0.10059741917E+02  0.20210173133E+02  0.22686484721E+02  0.51100000000E-03 0.  1.
        -12    1    3    3    0    0 -0.21197457437E+01  0.23165751453E+01 -0.30355955702E+01  0.43674572565E+01  0.00000000000E+00 0.  1.
</event>
<event>
 7    1  0.8986500E-014  0.5052886E+02  0.7816164E-02  0.1300439E+00
        -11   -1    0    0    0    0  0.00000000000E+00  0.00000000000E+00  0.45593999997E+02  0.45594000000E+02  0.51100000000E-03 0.  1.
         11   -1    0    0    0    0 -0.00000000000E+00 -0.00000000000E+00 -0.45593999997E+02  0.45594000000E+02  0.51100000000E-03 0. -1.
    9900012    2    1    2    0    0  0.38493435861E+02 -0.13453845795E+01 -0.13023477251E+02  0.50528860513E+02  0.30000002017E+02 0.  0.
         12    1    1    2    0    0 -0.38493435861E+02  0.13453845795E+01  0.13023477251E+02  0.40659139487E+02  0.00000000000E+00 0. -1.
         11    1    3    3    0    0  0.88364513670E+01 -0.24293103236E+00 -0.65621384300E+01  0.11009248352E+02  0.51100000000E-03 0. -1.
        -11    1    3    3    0    0  0.31914765351E+02 -0.32152065340E+01 -0.11101905777E+02  0.33943218949E+02  0.51100000000E-03 0.  1.
        -12    1    3    3    0    0 -0.22577808570E+01  0.21127529869E+01  0.46405669560E+01  0.55763932120E+01  0.00000000000E+00 0.  1.
</event>
<event>
 7    1  0.8986500E-014  0.5052886E+02  0.7816164E-02  0.1300439E+00
        -11   -1    0    0    0    0  0.00000000000E+00  0.00000000000E+00  0.45593999997E+02  0.45594000000E+02  0.51100000000E-03 0.  1.
         11   -1    0    0    0    0 -0.00000000000E+00 -0.00000000000E+00 -0.45593999997E+02  0.45594000000E+02  0.51100000000E-03 0. -1.
    9900012    2    1    2    0    0  0.24706614229E+02 -0.36372521014E+01 -0.32086124869E+02  0.50528858363E+02  0.29999995481E+02 0.  0.
         12    1    1    2    0    0 -0.24706614229E+02  0.36372521014E+01  0.32086124869E+02  0.40659141637E+02  0.00000000000E+00 0. -1.
         11    1    3    3    0    0  0.78294154466E+01 -0.24971492930E+01 -0.91296338354E+01  0.12283554659E+02  0.51100000000E-03 0. -1.
        -11    1    3    3    0    0  0.22867088331E+02 -0.50725734100E+01 -0.17454532505E+02  0.29211221045E+02  0.51100000000E-03 0.  1.
         12    1    3    3    0    0 -0.59898895485E+01  0.39324706016E+01 -0.55019585289E+01  0.90340826590E+01  0.00000000000E+00 0. -1.
</event>
<event>
 7    1  0.8986500E-014  0.5052885E+02  0.7816164E-02  0.1300439E+00
        -11   -1    0    0    0    0  0.00000000000E+00  0.00000000000E+00  0.45593999997E+02  0.45594000000E+02  0.51100000000E-03 0.  1.
         11   -1    0    0    0    0 -0.00000000000E+00 -0.00000000000E+00 -0.45593999997E+02  0.45594000000E+02  0.51100000000E-03 0. -1.
    9900012    2    1    2    0    0 -0.30730454404E+02  0.28834898419E+01  0.26466788010E+02  0.50528853316E+02  0.29999980138E+02 0.  0.
        -12    1    1    2    0    0  0.30730454404E+02 -0.28834898419E+01 -0.26466788010E+02  0.40659146684E+02  0.00000000000E+00 0.  1.
         11    1    3    3    0    0  0.30564320287E+01 -0.66578900852E+00  0.37595413362E+01  0.48907262313E+01  0.51100000000E-03 0. -1.
        -11    1    3    3    0    0 -0.26548646536E+02 -0.63635394315E+00  0.25505760635E+02  0.36820909889E+02  0.51100000000E-03 0.  1.
         12    1    3    3    0    0 -0.72382398960E+01  0.41856327936E+01 -0.27985139607E+01  0.88172171949E+01  0.00000000000E+00 0. -1.
</event>
<event>
 7    1  0.8986500E-014  0.5052888E+02  0.7816164E-02  0.1300439E+00
        -11   -1    0    0    0    0  0.00000000000E+00  0.00000000000E+00  0.45593999997E+02  0.45594000000E+02  0.51100000000E-03 0. -1.
         11   -1    0    0    0    0 -0.00000000000E+00 -0.00000000000E+00 -0.45593999997E+02  0.45594000000E+02  0.51100000000E-03 0.  1.
    9900012    2    1    2    0    0  0.32518875779E+01 -0.86266405054E+01  0.39600126131E+02  0.50528884309E+02  0.30000074345E+02 0.  0.
        -12    1    1    2    0    0 -0.32518875779E+01  0.86266405054E+01 -0.39600126131E+02  0.40659115691E+02  0.00000000000E+00 0.  1.
         11    1    3    3    0    0  0.50865265819E+00  0.28483761569E+01  0.22909351034E+02  0.23091347715E+02  0.51100000000E-03 0. -1.
        -11    1    3    3    0    0  0.10004047635E+02 -0.80048900098E+01  0.13938328077E+02  0.18932411970E+02  0.51100000000E-03 0.  1.
        -12    1    3    3    0    0 -0.72608127151E+01 -0.34701266525E+01  0.27524470196E+01  0.85051246236E+01  0.00000000000E+00 0.  1.
</event>
<event>
 7    1  0.8986500E-014  0.5052885E+02  0.7816164E-02  0.1300439E+00
        -11   -1    0    0    0    0  0.00000000000E+00  0.00000000000E+00  0.45593999997E+02  0.45594000000E+02  0.51100000000E-03 0. -1.
         11   -1    0    0    0    0 -0.00000000000E+00 -0.00000000000E+00 -0.45593999997E+02  0.45594000000E+02  0.51100000000E-03 0.  1.
    9900012    2    1    2    0    0  0.99436507591E+00 -0.96066018899E+01 -0.39495453446E+02  0.50528850911E+02  0.29999972829E+02 0.  0.
         12    1    1    2    0    0 -0.99436507591E+00  0.96066018899E+01  0.39495453446E+02  0.40659149089E+02  0.00000000000E+00 0. -1.
         11    1    3    3    0    0 -0.53059761196E+01 -0.94112195118E+01 -0.43436761627E+00  0.10812636624E+02  0.51100000000E-03 0. -1.
        -11    1    3    3    0    0  0.99760380358E-01 -0.59200438128E+00 -0.11296022007E+01  0.12792273895E+01  0.51100000000E-03 0.  1.
         12    1    3    3    0    0  0.62005808151E+01  0.39662200320E+00 -0.37931483629E+02  0.38436986897E+02  0.00000000000E+00 0. -1.
</event>
<event>
 7    1  0.8986500E-014  0.5052882E+02  0.7816164E-02  0.1300439E+00
        -11   -1    0    0    0    0  0.00000000000E+00  0.00000000000E+00  0.45593999997E+02  0.45594000000E+02  0.51100000000E-03 0. -1.
         11   -1    0    0    0    0 -0.00000000000E+00 -0.00000000000E+00 -0.45593999997E+02  0.45594000000E+02  0.51100000000E-03 0.  1.
    9900012    2    1    2    0    0 -0.33832861951E+01 -0.30338685968E+02  0.26856776506E+02  0.50528819782E+02  0.29999878208E+02 0.  0.
        -12    1    1    2    0    0  0.33832861951E+01  0.30338685968E+02 -0.26856776506E+02  0.40659180218E+02  0.00000000000E+00 0.  1.
         11    1    3    3    0    0 -0.33096887294E+01 -0.10214117160E+02 -0.30450737556E+01  0.11160407846E+02  0.51100000000E-03 0. -1.
        -11    1    3    3    0    0 -0.38544691812E+01 -0.13488992829E+01  0.27888213603E+00  0.40931940402E+01  0.51100000000E-03 0.  1.
         12    1    3    3    0    0  0.37808717155E+01 -0.18775669525E+02  0.29622968125E+02  0.35275217896E+02  0.00000000000E+00 0. -1.
</event>
<event>
 7    1  0.8986500E-014  0.5052890E+02  0.7816164E-02  0.1300439E+00
        -11   -1    0    0    0    0  0.00000000000E+00  0.00000000000E+00  0.45593999997E+02  0.45594000000E+02  0.51100000000E-03 0. -1.
         11   -1    0    0    0    0 -0.00000000000E+00 -0.00000000000E+00 -0.45593999997E+02  0.45594000000E+02  0.51100000000E-03 0.  1.
    9900012    2    1    2    0    0  0.27706392831E+02  0.84042429559E-01 -0.29757537384E+02  0.50528901412E+02  0.30000126330E+02 0.  0.
         12    1    1    2    0    0 -0.27706392831E+02 -0.84042429559E-01  0.29757537384E+02  0.40659098588E+02  0.00000000000E+00 0. -1.
         11    1    3    3    0    0  0.45620789894E+01 -0.62186577271E+01 -0.10914460981E+02  0.13364495030E+02  0.51100000000E-03 0. -1.
        -11    1    3    3    0    0  0.27655571428E+00  0.82274814264E+01 -0.89908895273E+01  0.12190325198E+02  0.51100000000E-03 0.  1.
         12    1    3    3    0    0  0.22867758128E+02 -0.19247812698E+01 -0.98521868757E+01  0.24974081183E+02  0.00000000000E+00 0. -1.
</event>
<event>
 7    1  0.8986500E-014  0.5052886E+02  0.7816164E-02  0.1300439E+00
        -11   -1    0    0    0    0  0.00000000000E+00  0.00000000000E+00  0.45593999997E+02  0.45594000000E+02  0.51100000000E-03 0. -1.
         11   -1    0    0    0    0 -0.00000000000E+00 -0.00000000000E+00 -0.45593999997E+02  0.45594000000E+02  0.51100000000E-03 0.  1.
    9900012    2    1    2    0    0  0.19685953292E+02 -0.29936446480E+02  0.19220776415E+02  0.50528857967E+02  0.29999994276E+02 0.  0.
        -12    1    1    2    0    0 -0.19685953292E+02  0.29936446480E+02 -0.19220776415E+02  0.40659142033E+02  0.00000000000E+00 0.  1.
         11    1    3    3    0    0  0.54510191059E+01 -0.21525867308E+02  0.49132838645E+01  0.22742403814E+02  0.51100000000E-03 0. -1.
        -11    1    3    3    0    0  0.49599505343E+01 -0.98622655447E+01  0.45005662923E+00  0.11048436188E+02  0.51100000000E-03 0.  1.
         12    1    3    3    0    0  0.92749836522E+01  0.14516863725E+01  0.13857435921E+02  0.16738017964E+02  0.00000000000E+00 0. -1.
</event>
<event>
 7    1  0.8986500E-014  0.5052887E+02  0.7816164E-02  0.1300439E+00
        -11   -1    0    0    0    0  0.00000000000E+00  0.00000000000E+00  0.45593999997E+02  0.45594000000E+02  0.51100000000E-03 0. -1.
         11   -1    0    0    0    0 -0.00000000000E+00 -0.00000000000E+00 -0.45593999997E+02  0.45594000000E+02  0.51100000000E-03 0.  1.
    9900012    2    1    2    0    0 -0.42663739371E+01  0.25391304579E+02  0.31468146972E+02  0.50528873489E+02  0.30000041458E+02 0.  0.
        -12    1    1    2    0    0  0.42663739371E+01 -0.25391304579E+02 -0.31468146972E+02  0.40659126511E+02  0.00000000000E+00 0.  1.
         11    1    3    3    0    0  0.86584490422E+00  0.22591371838E+01  0.15940695226E+02  0.16123248828E+02  0.51100000000E-03 0. -1.
        -11    1    3    3    0    0 -0.38321208186E+01 -0.11503117473E+01  0.80086927665E+01  0.89525151311E+01  0.51100000000E-03 0.  1.
         12    1    3    3    0    0 -0.13000980227E+01  0.24282479143E+02  0.75187589792E+01  0.25453109530E+02  0.00000000000E+00 0. -1.
</event>
<event>
 7    1  0.8986500E-014  0.5052873E+02  0.7816164E-02  0.1300439E+00
        -11   -1    0    0    0    0  0.00000000000E+00  0.00000000000E+00  0.45593999997E+02  0.45594000000E+02  0.51100000000E-03 0. -1.
         11   -1    0    0    0    0 -0.00000000000E+00 -0.00000000000E+00 -0.45593999997E+02  0.45594000000E+02  0.51100000000E-03 0.  1.
    9900012    2    1    2    0    0 -0.35490824118E+02  0.19715262669E+02  0.22105241567E+01  0.50528725588E+02  0.29999591893E+02 0.  0.
        -12    1    1    2    0    0  0.35490824118E+02 -0.19715262669E+02 -0.22105241567E+01  0.40659274412E+02  0.00000000000E+00 0.  1.
         11    1    3    3    0    0 -0.18218173399E+02  0.65781153378E+01 -0.14662739978E+01  0.19424814107E+02  0.51100000000E-03 0. -1.
        -11    1    3    3    0    0 -0.17150650558E+02 -0.22362994246E+00  0.44508227180E+01  0.17720176298E+02  0.51100000000E-03 0.  1.
        -12    1    3    3    0    0 -0.12200016076E+00  0.13360777273E+02 -0.77402456355E+00  0.13383735182E+02  0.00000000000E+00 0.  1.
</event>
<event>
 7    1  0.8986500E-014  0.5052887E+02  0.7816164E-02  0.1300439E+00
        -11   -1    0    0    0    0  0.00000000000E+00  0.00000000000E+00  0.45593999997E+02  0.45594000000E+02  0.51100000000E-03 0. -1.
         11   -1    0    0    0    0 -0.00000000000E+00 -0.00000000000E+00 -0.45593999997E+02  0.45594000000E+02  0.51100000000E-03 0.  1.
    9900012    2    1    2    0    0 -0.11095049449E+02  0.34496124364E+02  0.18441324595E+02  0.50528866079E+02  0.30000018932E+02 0.  0.
        -12    1    1    2    0    0  0.11095049449E+02 -0.34496124364E+02 -0.18441324595E+02  0.40659133921E+02  0.00000000000E+00 0.  1.
         11    1    3    3    0    0  0.45315146005E+00  0.81970814075E+01  0.95119694323E+01  0.12564833966E+02  0.51100000000E-03 0. -1.
        -11    1    3    3    0    0  0.71136365692E+01  0.58855241936E+01  0.18921916383E+01  0.94246278298E+01  0.51100000000E-03 0.  1.
         12    1    3    3    0    0 -0.18661837478E+02  0.20413518763E+02  0.70371635241E+01  0.28539404283E+02  0.00000000000E+00 0. -1.
</event>
<event>
 7    1  0.8986500E-014  0.5052884E+02  0.7816164E-02  0.1300439E+00
        -11   -1    0    0    0    0  0.00000000000E+00  0.00000000000E+00  0.45593999997E+02  0.45594000000E+02  0.51100000000E-03 0. -1.
         11   -1    0    0    0    0 -0.00000000000E+00 -0.00000000000E+00 -0.45593999997E+02  0.45594000000E+02  0.51100000000E-03 0.  1.
    9900012    2    1    2    0    0  0.61620480567E+01  0.22475831787E+02 -0.33317162519E+02  0.50528841510E+02  0.29999944255E+02 0.  0.
         12    1    1    2    0    0 -0.61620480567E+01 -0.22475831787E+02  0.33317162519E+02  0.40659158490E+02  0.00000000000E+00 0. -1.
         11    1    3    3    0    0 -0.37578947531E+01  0.76050327954E+01 -0.31029373765E+02  0.32168001699E+02  0.51100000000E-03 0.  1.
        -11    1    3    3    0    0  0.37049761591E+01  0.74007845542E+01 -0.24853030310E+01  0.86414808786E+01  0.51100000000E-03 0. -1.
        -12    1    3    3    0    0  0.62149666507E+01  0.74700144377E+01  0.19751427783E+00  0.97193589325E+01  0.00000000000E+00 0.  1.
</event>
<event>
 7    1  0.8986500E-014  0.5052886E+02  0.7816164E-02  0.1300439E+00
        -11   -1    0    0    0    0  0.00000000000E+00  0.00000000000E+00  0.45593999997E+02  0.45594000000E+02  0.51100000000E-03 0. -1.
         11   -1    0    0    0    0 -0.00000000000E+00 -0.00000000000E+00 -0.45593999997E+02  0.45594000000E+02  0.51100000000E-03 0.  1.
    9900012    2    1    2    0    0 -0.27780384164E+02 -0.13463949896E+02  0.26460124734E+02  0.50528857214E+02  0.29999991989E+02 0.  0.
        -12    1    1    2    0    0  0.27780384164E+02  0.13463949896E+02 -0.26460124734E+02  0.40659142786E+02  0.00000000000E+00 0.  1.
         11    1    3    3    0    0 -0.14854676873E+02 -0.11309410018E+02  0.16419451963E+02  0.24862875598E+02  0.51100000000E-03 0. -1.
        -11    1    3    3    0    0 -0.22410579643E+01 -0.45606549182E+01  0.13301127944E+02  0.14238747098E+02  0.51100000000E-03 0.  1.
        -12    1    3    3    0    0 -0.10684649327E+02  0.24061150397E+01 -0.32604551727E+01  0.11427234519E+02  0.00000000000E+00 0.  1.
</event>
<event>
 7    1  0.8986500E-014  0.5052884E+02  0.7816164E-02  0.1300439E+00
        -11   -1    0    0    0    0  0.00000000000E+00  0.00000000000E+00  0.45593999997E+02  0.45594000000E+02  0.51100000000E-03 0. -1.
         11   -1    0    0    0    0 -0.00000000000E+00 -0.00000000000E+00 -0.45593999997E+02  0.45594000000E+02  0.51100000000E-03 0.  1.
    9900012    2    1    2    0    0 -0.15140084739E+02  0.20924953309E+02 -0.31402089066E+02  0.50528843164E+02  0.29999949280E+02 0.  0.
         12    1    1    2    0    0  0.15140084739E+02 -0.20924953309E+02  0.31402089066E+02  0.40659156836E+02  0.00000000000E+00 0. -1.
         11    1    3    3    0    0 -0.19509654597E-01 -0.39870500770E+01  0.42230052714E+00  0.40093998229E+01  0.51100000000E-03 0. -1.
        -11    1    3    3    0    0 -0.31504397122E+01  0.59525414033E+01 -0.20138795807E+02  0.21235091625E+02  0.51100000000E-03 0.  1.
         12    1    3    3    0    0 -0.11970135373E+02  0.18959461983E+02 -0.11685593787E+02  0.25284351716E+02  0.00000000000E+00 0. -1.
</event>
<event>
 7    1  0.8986500E-014  0.5052886E+02  0.7816164E-02  0.1300439E+00
        -11   -1    0    0    0    0  0.00000000000E+00  0.00000000000E+00  0.45593999997E+02  0.45594000000E+02  0.51100000000E-03 0. -1.
         11   -1    0    0    0    0 -0.00000000000E+00 -0.00000000000E+00 -0.45593999997E+02  0.45594000000E+02  0.51100000000E-03 0.  1.
    9900012    2    1    2    0    0 -0.20072047455E+02 -0.15074900832E+02 -0.31984771876E+02  0.50528863805E+02  0.30000012021E+02 0.  0.
         12    1    1    2    0    0  0.20072047455E+02  0.15074900832E+02  0.31984771876E+02  0.40659136195E+02  0.00000000000E+00 0. -1.
         11    1    3    3    0    0 -0.17562770387E+02 -0.21117849858E+01 -0.11292098550E+02  0.20986234284E+02  0.51100000000E-03 0. -1.
        -11    1    3    3    0    0 -0.71876157570E+01  0.64908346265E-01 -0.60812669219E+01  0.94152982428E+01  0.51100000000E-03 0.  1.
         12    1    3    3    0    0  0.46783386888E+01 -0.13028024193E+02 -0.14611406405E+02  0.20127331278E+02  0.00000000000E+00 0. -1.
</event>
<event>
 7    1  0.8986500E-014  0.5052886E+02  0.7816164E-02  0.1300439E+00
        -11   -1    0    0    0    0  0.00000000000E+00  0.00000000000E+00  0.45593999997E+02  0.45594000000E+02  0.51100000000E-03 0. -1.
         11   -1    0    0    0    0 -0.00000000000E+00 -0.00000000000E+00 -0.45593999997E+02  0.45594000000E+02  0.51100000000E-03 0.  1.
    9900012    2    1    2    0    0 -0.26102938880E+02 -0.18887888087E+02 -0.24800201294E+02  0.50528859345E+02  0.29999998466E+02 0.  0.
         12    1    1    2    0    0  0.26102938880E+02  0.18887888087E+02  0.24800201294E+02  0.40659140655E+02  0.00000000000E+00 0. -1.
         11    1    3    3    0    0 -0.96312988602E+01 -0.91593697457E+00 -0.16847538460E+02  0.19427825681E+02  0.51100000000E-03 0. -1.
        -11    1    3    3    0    0 -0.44274991816E+01  0.11365010913E+01 -0.71661205837E+01  0.84998628350E+01  0.51100000000E-03 0.  1.
        -12    1    3    3    0    0 -0.12044140838E+02 -0.19108452204E+02 -0.78654225101E+00  0.22601170829E+02  0.00000000000E+00 0.  1.
</event>
<event>
 7    1  0.8986500E-014  0.5052885E+02  0.7816164E-02  0.1300439E+00
        -11   -1    0    0    0    0  0.00000000000E+00  0.00000000000E+00  0.45593999997E+02  0.45594000000E+02  0.51100000000E-03 0. -1.
         11   -1    0    0    0    0 -0.00000000000E+00 -0.00000000000E+00 -0.45593999997E+02  0.45594000000E+02  0.51100000000E-03 0.  1.
    9900012    2    1    2    0    0  0.64499117557E+01 -0.36582157507E+02  0.16532127187E+02  0.50528845571E+02  0.29999956599E+02 0.  0.
        -12    1    1    2    0    0 -0.64499117557E+01  0.36582157507E+02 -0.16532127187E+02  0.40659154429E+02  0.00000000000E+00 0.  1.
         11    1    3    3    0    0  0.31879564288E+01 -0.64797565655E+01  0.25130346591E+01  0.76462837248E+01  0.51100000000E-03 0. -1.
        -11    1    3    3    0    0  0.10001443713E+02 -0.31469087316E+02  0.14337431143E+02  0.35998531427E+02  0.51100000000E-03 0.  1.
        -12    1    3    3    0    0 -0.67394883860E+01  0.13666863743E+01 -0.31833861522E+00  0.68840304201E+01  0.00000000000E+00 0.  1.
</event>
<event>
 7    1  0.8986500E-014  0.5052887E+02  0.7816164E-02  0.1300439E+00
        -11   -1    0    0    0    0  0.00000000000E+00  0.00000000000E+00  0.45593999997E+02  0.45594000000E+02  0.51100000000E-03 0. -1.
         11   -1    0    0    0    0 -0.00000000000E+00 -0.00000000000E+00 -0.45593999997E+02  0.45594000000E+02  0.51100000000E-03 0.  1.
    9900012    2    1    2    0    0 -0.38923784717E+02 -0.93440355319E+00  0.11714556624E+02  0.50528868632E+02  0.30000026694E+02 0.  0.
        -12    1    1    2    0    0  0.38923784717E+02  0.93440355319E+00 -0.11714556624E+02  0.40659131368E+02  0.00000000000E+00 0.  1.
         11    1    3    3    0    0 -0.23322157435E+02 -0.74149001672E+01  0.15383052756E+02  0.28905744832E+02  0.51100000000E-03 0. -1.
        -11    1    3    3    0    0 -0.49042121669E+01 -0.36159626928E+01  0.10336793301E+01  0.61802084425E+01  0.51100000000E-03 0.  1.
         12    1    3    3    0    0 -0.10697415115E+02  0.10096459307E+02 -0.47021754623E+01  0.15442915358E+02  0.00000000000E+00 0. -1.
</event>
<event>
 7    1  0.8986500E-014  0.5052886E+02  0.7816164E-02  0.1300439E+00
        -11   -1    0    0    0    0  0.00000000000E+00  0.00000000000E+00  0.45593999997E+02  0.45594000000E+02  0.51100000000E-03 0. -1.
         11   -1    0    0    0    0 -0.00000000000E+00 -0.00000000000E+00 -0.45593999997E+02  0.45594000000E+02  0.51100000000E-03 0.  1.
    9900012    2    1    2    0    0  0.14419660939E+01  0.10140659735E+02 -0.39347852836E+02  0.50528858729E+02  0.29999996593E+02 0.  0.
         12    1    1    2    0    0 -0.14419660939E+01 -0.10140659735E+02  0.39347852836E+02  0.40659141271E+02  0.00000000000E+00 0. -1.
         11    1    3    3    0    0  0.90994082113E+01 -0.41840513962E+01 -0.12496711755E+02  0.16014784446E+02  0.51100000000E-03 0. -1.
        -11    1    3    3    0    0  0.34222944609E+01  0.72252635170E-01 -0.26897109014E+01  0.43533739576E+01  0.51100000000E-03 0.  1.
        -12    1    3    3    0    0 -0.11079736578E+02  0.14252458496E+02 -0.24161430179E+02  0.30160700326E+02  0.00000000000E+00 0.  1.
</event>
<event>
 7    1  0.1050704E-013  0.5052886E+02  0.7816164E-02  0.1300439E+00
        -11   -1    0    0    0    0  0.00000000000E+00  0.00000000000E+00  0.45593999997E+02  0.45594000000E+02  0.51100000000E-03 0. -1.
         11   -1    0    0    0    0 -0.00000000000E+00 -0.00000000000E+00 -0.45593999997E+02  0.45594000000E+02  0.51100000000E-03 0.  1.
    9900012    2    1    2    0    0  0.18639216589E+01 -0.92513080142E+01  0.39548762945E+02  0.50528861366E+02  0.30000004609E+02 0.  0.
        -12    1    1    2    0    0 -0.18639216589E+01  0.92513080142E+01 -0.39548762945E+02  0.40659138634E+02  0.00000000000E+00 0.  1.
         11    1    3    3    0    0  0.52517279837E+00 -0.67112316750E+01  0.48212493278E+01  0.82801499024E+01  0.51100000000E-03 0. -1.
        -11    1    3    3    0    0 -0.19383470603E+01 -0.98125253124E+00 -0.33531884383E+01  0.39954873070E+01  0.51100000000E-03 0.  1.
         12    1    3    3    0    0  0.32770959208E+01 -0.15588238080E+01  0.38080702056E+02  0.38253224157E+02  0.00000000000E+00 0. -1.
</event>
<event>
 7    1  0.8986500E-014  0.5052887E+02  0.7816164E-02  0.1300439E+00
        -11   -1    0    0    0    0  0.00000000000E+00  0.00000000000E+00  0.45593999997E+02  0.45594000000E+02  0.51100000000E-03 0.  1.
         11   -1    0    0    0    0 -0.00000000000E+00 -0.00000000000E+00 -0.45593999997E+02  0.45594000000E+02  0.51100000000E-03 0. -1.
    9900012    2    1    2    0    0  0.10170739608E+01  0.37799375690E+02  0.14944496886E+02  0.50528865366E+02  0.30000016767E+02 0.  0.
        -12    1    1    2    0    0 -0.10170739608E+01 -0.37799375690E+02 -0.14944496886E+02  0.40659134634E+02  0.00000000000E+00 0.  1.
         11    1    3    3    0    0  0.47618252042E+01  0.21503731650E+00  0.10503529566E+01  0.48810308253E+01  0.51100000000E-03 0. -1.
        -11    1    3    3    0    0  0.34545132865E+01  0.28372956496E+02  0.17375579153E+02  0.33449500348E+02  0.51100000000E-03 0.  1.
         12    1    3    3    0    0 -0.71992645299E+01  0.92113818780E+01 -0.34814352238E+01  0.12198334193E+02  0.00000000000E+00 0. -1.
</event>
<event>
 7    1  0.8986500E-014  0.5052886E+02  0.7816164E-02  0.1300439E+00
        -11   -1    0    0    0    0  0.00000000000E+00  0.00000000000E+00  0.45593999997E+02  0.45594000000E+02  0.51100000000E-03 0. -1.
         11   -1    0    0    0    0 -0.00000000000E+00 -0.00000000000E+00 -0.45593999997E+02  0.45594000000E+02  0.51100000000E-03 0.  1.
    9900012    2    1    2    0    0  0.91045344662E+00  0.29667317659E+02 -0.27788248482E+02  0.50528863066E+02  0.30000009775E+02 0.  0.
         12    1    1    2    0    0 -0.91045344662E+00 -0.29667317659E+02  0.27788248482E+02  0.40659136934E+02  0.00000000000E+00 0. -1.
         11    1    3    3    0    0 -0.18987677473E+01  0.25574809350E+01  0.15079222374E+01  0.35241818095E+01  0.51100000000E-03 0. -1.
        -11    1    3    3    0    0 -0.79335648120E+01  0.38175486889E+00 -0.58993199306E+01  0.98938952547E+01  0.51100000000E-03 0.  1.
        -12    1    3    3    0    0  0.10742786006E+02  0.26728081855E+02 -0.23396850789E+02  0.37110786001E+02  0.00000000000E+00 0.  1.
</event>
<event>
 7    1  0.8986500E-014  0.5052887E+02  0.7816164E-02  0.1300439E+00
        -11   -1    0    0    0    0  0.00000000000E+00  0.00000000000E+00  0.45593999997E+02  0.45594000000E+02  0.51100000000E-03 0. -1.
         11   -1    0    0    0    0 -0.00000000000E+00 -0.00000000000E+00 -0.45593999997E+02  0.45594000000E+02  0.51100000000E-03 0.  1.
    9900012    2    1    2    0    0 -0.16062429170E+02  0.49860072612E+01 -0.37017608370E+02  0.50528865373E+02  0.30000016786E+02 0.  0.
         12    1    1    2    0    0  0.16062429170E+02 -0.49860072612E+01  0.37017608370E+02  0.40659134627E+02  0.00000000000E+00 0. -1.
         11    1    3    3    0    0 -0.28389268483E+01  0.29603708126E+01  0.14810315392E+00  0.41042947998E+01  0.51100000000E-03 0. -1.
        -11    1    3    3    0    0 -0.13417285956E+02  0.80199462359E+00 -0.51643089628E+01  0.14399195988E+02  0.51100000000E-03 0.  1.
        -12    1    3    3    0    0  0.19378363375E+00  0.12236418250E+01 -0.32001402561E+02  0.32025374584E+02  0.00000000000E+00 0.  1.
</event>
<event>
 7    1  0.8986500E-014  0.5052886E+02  0.7816164E-02  0.1300439E+00
        -11   -1    0    0    0    0  0.00000000000E+00  0.00000000000E+00  0.45593999997E+02  0.45594000000E+02  0.51100000000E-03 0. -1.
         11   -1    0    0    0    0 -0.00000000000E+00 -0.00000000000E+00 -0.45593999997E+02  0.45594000000E+02  0.51100000000E-03 0.  1.
    9900012    2    1    2    0    0  0.62502062346E+01 -0.12917669391E+02 -0.38042539314E+02  0.50528855175E+02  0.29999985788E+02 0.  0.
         12    1    1    2    0    0 -0.62502062346E+01  0.12917669391E+02  0.38042539314E+02  0.40659144825E+02  0.00000000000E+00 0. -1.
         11    1    3    3    0    0  0.10553778081E+01 -0.10592344784E+02 -0.27370026959E+02  0.29367157955E+02  0.51100000000E-03 0.  1.
        -11    1    3    3    0    0 -0.51113638513E+01 -0.15935710029E+01 -0.93105268263E+01  0.10740177792E+02  0.51100000000E-03 0. -1.
         12    1    3    3    0    0  0.10306192278E+02 -0.73175360427E+00 -0.13619855290E+01  0.10421519428E+02  0.00000000000E+00 0. -1.
</event>
<event>
 7    1  0.8986500E-014  0.5052885E+02  0.7816164E-02  0.1300439E+00
        -11   -1    0    0    0    0  0.00000000000E+00  0.00000000000E+00  0.45593999997E+02  0.45594000000E+02  0.51100000000E-03 0. -1.
         11   -1    0    0    0    0 -0.00000000000E+00 -0.00000000000E+00 -0.45593999997E+02  0.45594000000E+02  0.51100000000E-03 0.  1.
    9900012    2    1    2    0    0 -0.23961553857E+02  0.22887290694E+02 -0.23562315417E+02  0.50528845479E+02  0.29999956318E+02 0.  0.
         12    1    1    2    0    0  0.23961553857E+02 -0.22887290694E+02  0.23562315417E+02  0.40659154521E+02  0.00000000000E+00 0. -1.
         11    1    3    3    0    0 -0.41505914396E+01 -0.54845884896E+01 -0.34581489286E+00  0.68867777951E+01  0.51100000000E-03 0. -1.
        -11    1    3    3    0    0 -0.15442883389E+01 -0.34879913492E+00 -0.45598458595E+01  0.48268708117E+01  0.51100000000E-03 0.  1.
        -12    1    3    3    0    0 -0.18266674079E+02  0.28720678318E+02 -0.18656654664E+02  0.38815196872E+02  0.00000000000E+00 0.  1.
</event>
<event>
 7    1  0.8986500E-014  0.5052887E+02  0.7816164E-02  0.1300439E+00
        -11   -1    0    0    0    0  0.00000000000E+00  0.00000000000E+00  0.45593999997E+02  0.45594000000E+02  0.51100000000E-03 0. -1.
         11   -1    0    0    0    0 -0.00000000000E+00 -0.00000000000E+00 -0.45593999997E+02  0.45594000000E+02  0.51100000000E-03 0.  1.
    9900012    2    1    2    0    0 -0.24819950004E+02  0.23392747497E+02 -0.22134005089E+02  0.50528871444E+02  0.30000035242E+02 0.  0.
         12    1    1    2    0    0  0.24819950004E+02 -0.23392747497E+02  0.22134005089E+02  0.40659128556E+02  0.00000000000E+00 0. -1.
         11    1    3    3    0    0 -0.71585336206E-01  0.17376178687E+01 -0.50813731352E+01  0.53707349142E+01  0.51100000000E-03 0. -1.
        -11    1    3    3    0    0  0.17610911706E+01  0.10077672575E+02 -0.12040501384E+02  0.15799829128E+02  0.51100000000E-03 0.  1.
         12    1    3    3    0    0 -0.26509455838E+02  0.11577457053E+02 -0.50121305695E+01  0.29358307402E+02  0.00000000000E+00 0. -1.
</event>
<event>
 7    1  0.8986500E-014  0.5052886E+02  0.7816164E-02  0.1300439E+00
        -11   -1    0    0    0    0  0.00000000000E+00  0.00000000000E+00  0.45593999997E+02  0.45594000000E+02  0.51100000000E-03 0. -1.
         11   -1    0    0    0    0 -0.00000000000E+00 -0.00000000000E+00 -0.45593999997E+02  0.45594000000E+02  0.51100000000E-03 0.  1.
    9900012    2    1    2    0    0 -0.73601103016E+01 -0.10586570086E+02 -0.38560583706E+02  0.50528864427E+02  0.30000013912E+02 0.  0.
         12    1    1    2    0    0  0.73601103016E+01  0.10586570086E+02  0.38560583706E+02  0.40659135573E+02  0.00000000000E+00 0. -1.
         11    1    3    3    0    0  0.60684881945E+01  0.36011793716E+00 -0.10495954756E+02  0.12129356965E+02  0.51100000000E-03 0. -1.
        -11    1    3    3    0    0  0.16212230619E+01 -0.48302075780E+01 -0.19258291583E+02  0.19920870072E+02  0.51100000000E-03 0.  1.
         12    1    3    3    0    0 -0.15049821558E+02 -0.61164804450E+01 -0.88063373663E+01  0.18478637389E+02  0.00000000000E+00 0. -1.
</event>
<event>
 7    1  0.8986500E-014  0.5052886E+02  0.7816164E-02  0.1300439E+00
        -11   -1    0    0    0    0  0.00000000000E+00  0.00000000000E+00  0.45593999997E+02  0.45594000000E+02  0.51100000000E-03 0. -1.
         11   -1    0    0    0    0 -0.00000000000E+00 -0.00000000000E+00 -0.45593999997E+02  0.45594000000E+02  0.51100000000E-03 0.  1.
    9900012    2    1    2    0    0  0.26637542942E+02  0.93104139752E+01  0.29273246579E+02  0.50528862434E+02  0.30000007854E+02 0.  0.
        -12    1    1    2    0    0 -0.26637542942E+02 -0.93104139752E+01 -0.29273246579E+02  0.40659137566E+02  0.00000000000E+00 0.  1.
         11    1    3    3    0    0  0.13510259464E+02 -0.65622255863E+01  0.42197943528E+01  0.15601172394E+02  0.51100000000E-03 0.  1.
        -11    1    3    3    0    0  0.39871205039E+01 -0.13756317836E+01  0.78365305461E+01  0.88994777362E+01  0.51100000000E-03 0. -1.
         12    1    3    3    0    0  0.91401629738E+01  0.17248271345E+02  0.17216921680E+02  0.26028212303E+02  0.00000000000E+00 0. -1.
</event>
<event>
 7    1  0.8986500E-014  0.5052887E+02  0.7816164E-02  0.1300439E+00
        -11   -1    0    0    0    0  0.00000000000E+00  0.00000000000E+00  0.45593999997E+02  0.45594000000E+02  0.51100000000E-03 0. -1.
         11   -1    0    0    0    0 -0.00000000000E+00 -0.00000000000E+00 -0.45593999997E+02  0.45594000000E+02  0.51100000000E-03 0.  1.
    9900012    2    1    2    0    0  0.59153665614E+01 -0.19597919352E+02  0.35129690187E+02  0.50528866499E+02  0.30000020210E+02 0.  0.
        -12    1    1    2    0    0 -0.59153665614E+01  0.19597919352E+02 -0.35129690187E+02  0.40659133501E+02  0.00000000000E+00 0.  1.
         11    1    3    3    0    0 -0.30732864201E+01 -0.30342990894E+00  0.16805584506E+01  0.35158834020E+01  0.51100000000E-03 0. -1.
        -11    1    3    3    0    0 -0.20912071344E+01  0.44296737382E+01  0.12676144678E+02  0.13589694657E+02  0.51100000000E-03 0.  1.
         12    1    3    3    0    0  0.11079860116E+02 -0.23724163181E+02  0.20772987058E+02  0.33423288440E+02  0.00000000000E+00 0. -1.
</event>
<event>
 7    1  0.8986500E-014  0.5052886E+02  0.7816164E-02  0.1300439E+00
        -11   -1    0    0    0    0  0.00000000000E+00  0.00000000000E+00  0.45593999997E+02  0.45594000000E+02  0.51100000000E-03 0. -1.
         11   -1    0    0    0    0 -0.00000000000E+00 -0.00000000000E+00 -0.45593999997E+02  0.45594000000E+02  0.51100000000E-03 0.  1.
    9900012    2    1    2    0    0  0.13847816723E+02  0.19018687645E+02 -0.33161625117E+02  0.50528857263E+02  0.29999992135E+02 0.  0.
         12    1    1    2    0    0 -0.13847816723E+02 -0.19018687645E+02  0.33161625117E+02  0.40659142737E+02  0.00000000000E+00 0. -1.
         11    1    3    3    0    0 -0.41775220851E+00  0.59993559337E+01 -0.32544905475E+01  0.68380185369E+01  0.51100000000E-03 0. -1.
        -11    1    3    3    0    0  0.16566250290E+02  0.17127109130E+02 -0.15236008280E+02  0.28282759136E+02  0.51100000000E-03 0.  1.
        -12    1    3    3    0    0 -0.23006813580E+01 -0.41077774180E+01 -0.14671126289E+02  0.15408079589E+02  0.00000000000E+00 0.  1.
</event>
<event>
 7    1  0.8986500E-014  0.5052886E+02  0.7816164E-02  0.1300439E+00
        -11   -1    0    0    0    0  0.00000000000E+00  0.00000000000E+00  0.45593999997E+02  0.45594000000E+02  0.51100000000E-03 0. -1.
         11   -1    0    0    0    0 -0.00000000000E+00 -0.00000000000E+00 -0.45593999997E+02  0.45594000000E+02  0.51100000000E-03 0.  1.
    9900012    2    1    2    0    0  0.64060216730E+01 -0.34180493604E+02 -0.21067090662E+02  0.50528861229E+02  0.30000004191E+02 0.  0.
         12    1    1    2    0    0 -0.64060216730E+01  0.34180493604E+02  0.21067090662E+02  0.40659138771E+02  0.00000000000E+00 0. -1.
         11    1    3    3    0    0  0.81141658533E+01 -0.21088030653E+01 -0.90774082615E+01  0.12356620852E+02  0.51100000000E-03 0. -1.
        -11    1    3    3    0    0  0.67940390381E+01 -0.99824254090E+01 -0.70856750217E+01  0.14000520500E+02  0.51100000000E-03 0.  1.
         12    1    3    3    0    0 -0.85021832184E+01 -0.22089265130E+02 -0.49040073785E+01  0.24171719877E+02  0.00000000000E+00 0. -1.
</event>
<event>
 7    1  0.8986500E-014  0.5052885E+02  0.7816164E-02  0.1300439E+00
        -11   -1    0    0    0    0  0.00000000000E+00  0.00000000000E+00  0.45593999997E+02  0.45594000000E+02  0.51100000000E-03 0. -1.
         11   -1    0    0    0    0 -0.00000000000E+00 -0.00000000000E+00 -0.45593999997E+02  0.45594000000E+02  0.51100000000E-03 0.  1.
    9900012    2    1    2    0    0  0.60230203619E+01 -0.11026268004E+02  0.38669249722E+02  0.50528853004E+02  0.29999979190E+02 0.  0.
        -12    1    1    2    0    0 -0.60230203619E+01  0.11026268004E+02 -0.38669249722E+02  0.40659146996E+02  0.00000000000E+00 0.  1.
         11    1    3    3    0    0  0.55903625408E+01 -0.65966919349E+01  0.25810934863E+02  0.27220816604E+02  0.51100000000E-03 0. -1.
        -11    1    3    3    0    0 -0.11012505877E+01 -0.82690215809E+01  0.16047636787E+02  0.18086351690E+02  0.51100000000E-03 0.  1.
        -12    1    3    3    0    0  0.15339084088E+01  0.38394455115E+01 -0.31893219277E+01  0.52216847091E+01  0.00000000000E+00 0.  1.
</event>
<event>
 7    1  0.8986500E-014  0.5052887E+02  0.7816164E-02  0.1300439E+00
        -11   -1    0    0    0    0  0.00000000000E+00  0.00000000000E+00  0.45593999997E+02  0.45594000000E+02  0.51100000000E-03 0. -1.
         11   -1    0    0    0    0 -0.00000000000E+00 -0.00000000000E+00 -0.45593999997E+02  0.45594000000E+02  0.51100000000E-03 0.  1.
    9900012    2    1    2    0    0 -0.49184122591E+01 -0.46973285071E+01  0.40086276160E+02  0.50528865595E+02  0.30000017461E+02 0.  0.
        -12    1    1    2    0    0  0.49184122591E+01  0.46973285071E+01 -0.40086276160E+02  0.40659134405E+02  0.00000000000E+00 0.  1.
         11    1    3    3    0    0 -0.26108505295E+01  0.35760320346E+01  0.36822317080E+01  0.57587651638E+01  0.51100000000E-03 0. -1.
        -11    1    3    3    0    0 -0.18717735060E+01  0.47866648612E+01  0.29589703054E+02  0.30032752515E+02  0.51100000000E-03 0.  1.
        -12    1    3    3    0    0 -0.43578822352E+00 -0.13060025403E+02  0.68143413975E+01  0.14737347915E+02  0.00000000000E+00 0.  1.
</event>
<event>
 7    1  0.8986500E-014  0.5052887E+02  0.7816164E-02  0.1300439E+00
        -11   -1    0    0    0    0  0.00000000000E+00  0.00000000000E+00  0.45593999997E+02  0.45594000000E+02  0.51100000000E-03 0. -1.
         11   -1    0    0    0    0 -0.00000000000E+00 -0.00000000000E+00 -0.45593999997E+02  0.45594000000E+02  0.51100000000E-03 0.  1.
    9900012    2    1    2    0    0 -0.18578703189E+02 -0.32173954524E+02 -0.16517664852E+02  0.50528870471E+02  0.30000032284E+02 0.  0.
         12    1    1    2    0    0  0.18578703189E+02  0.32173954524E+02  0.16517664852E+02  0.40659129529E+02  0.00000000000E+00 0. -1.
         11    1    3    3    0    0 -0.43695406141E+01 -0.11502372965E+02 -0.61178028403E+01  0.13741360226E+02  0.51100000000E-03 0. -1.
        -11    1    3    3    0    0 -0.46037254694E+01 -0.23386854776E+02 -0.11987303401E+02  0.26680230651E+02  0.51100000000E-03 0.  1.
         12    1    3    3    0    0 -0.96054371054E+01  0.27152732172E+01  0.15874413895E+01  0.10107279594E+02  0.00000000000E+00 0. -1.
</event>
<event>
 7    1  0.8986500E-014  0.5052886E+02  0.7816164E-02  0.1300439E+00
        -11   -1    0    0    0    0  0.00000000000E+00  0.00000000000E+00  0.45593999997E+02  0.45594000000E+02  0.51100000000E-03 0. -1.
         11   -1    0    0    0    0 -0.00000000000E+00 -0.00000000000E+00 -0.45593999997E+02  0.45594000000E+02  0.51100000000E-03 0.  1.
    9900012    2    1    2    0    0  0.32899420234E+00 -0.13958713114E+02  0.38186535030E+02  0.50528863676E+02  0.30000011630E+02 0.  0.
        -12    1    1    2    0    0 -0.32899420234E+00  0.13958713114E+02 -0.38186535030E+02  0.40659136324E+02  0.00000000000E+00 0.  1.
         11    1    3    3    0    0 -0.53883231859E+01 -0.16637114518E+02  0.17103536254E+02  0.24461368704E+02  0.51100000000E-03 0. -1.
        -11    1    3    3    0    0  0.15620650899E+01 -0.67616973348E-01 -0.19515474849E+01  0.25006313697E+01  0.51100000000E-03 0.  1.
        -12    1    3    3    0    0  0.41552522984E+01  0.27460183775E+01  0.23034546261E+02  0.23566863602E+02  0.00000000000E+00 0.  1.
</event>
<event>
 7    1  0.8986500E-014  0.5052885E+02  0.7816164E-02  0.1300439E+00
        -11   -1    0    0    0    0  0.00000000000E+00  0.00000000000E+00  0.45593999997E+02  0.45594000000E+02  0.51100000000E-03 0. -1.
         11   -1    0    0    0    0 -0.00000000000E+00 -0.00000000000E+00 -0.45593999997E+02  0.45594000000E+02  0.51100000000E-03 0.  1.
    9900012    2    1    2    0    0  0.21919582996E+02  0.26987897461E+02  0.21079642942E+02  0.50528854969E+02  0.29999985164E+02 0.  0.
        -12    1    1    2    0    0 -0.21919582996E+02 -0.26987897461E+02 -0.21079642942E+02  0.40659145031E+02  0.00000000000E+00 0.  1.
         11    1    3    3    0    0  0.82058979630E+01  0.46997792709E+01  0.13386697311E+02  0.16389885653E+02  0.51100000000E-03 0. -1.
        -11    1    3    3    0    0 -0.15124124126E+01 -0.12245941003E+01 -0.34748695706E+01  0.39826801039E+01  0.51100000000E-03 0.  1.
         12    1    3    3    0    0  0.15226097446E+02  0.23512712290E+02  0.11167815202E+02  0.30156289212E+02  0.00000000000E+00 0. -1.
</event>
<event>
 7    1  0.8986500E-014  0.5052888E+02  0.7816164E-02  0.1300439E+00
        -11   -1    0    0    0    0  0.00000000000E+00  0.00000000000E+00  0.45593999997E+02  0.45594000000E+02  0.51100000000E-03 0. -1.
         11   -1    0    0    0    0 -0.00000000000E+00 -0.00000000000E+00 -0.45593999997E+02  0.45594000000E+02  0.51100000000E-03 0.  1.
    9900012    2    1    2    0    0  0.28920042123E+01  0.26286053243E+01  0.40470865812E+02  0.50528877606E+02  0.30000053970E+02 0.  0.
        -12    1    1    2    0    0 -0.28920042123E+01 -0.26286053243E+01 -0.40470865812E+02  0.40659122394E+02  0.00000000000E+00 0.  1.
         11    1    3    3    0    0 -0.45160691980E+01  0.29353032138E+01  0.22472865292E+01  0.58361959326E+01  0.51100000000E-03 0. -1.
        -11    1    3    3    0    0 -0.71964119124E+01  0.35741054409E+01  0.14009977357E+02  0.16150604940E+02  0.51100000000E-03 0.  1.
         12    1    3    3    0    0  0.14604485323E+02 -0.38808033304E+01  0.24213601926E+02  0.28542076733E+02  0.00000000000E+00 0. -1.
</event>
<event>
 7    1  0.8986500E-014  0.5052884E+02  0.7816164E-02  0.1300439E+00
        -11   -1    0    0    0    0  0.00000000000E+00  0.00000000000E+00  0.45593999997E+02  0.45594000000E+02  0.51100000000E-03 0. -1.
         11   -1    0    0    0    0 -0.00000000000E+00 -0.00000000000E+00 -0.45593999997E+02  0.45594000000E+02  0.51100000000E-03 0.  1.
    9900012    2    1    2    0    0  0.58096509314E+01 -0.37793309835E+02 -0.13823192680E+02  0.50528843981E+02  0.29999951766E+02 0.  0.
         12    1    1    2    0    0 -0.58096509314E+01  0.37793309835E+02  0.13823192680E+02  0.40659156019E+02  0.00000000000E+00 0. -1.
         11    1    3    3    0    0 -0.28246168695E+01  0.26861304169E+01  0.67045551886E+00  0.39551571321E+01  0.51100000000E-03 0. -1.
        -11    1    3    3    0    0  0.42182662077E+01 -0.18138680659E+02 -0.14817439008E+02  0.23798361390E+02  0.51100000000E-03 0.  1.
         12    1    3    3    0    0  0.44160015931E+01 -0.22340759593E+02  0.32379080881E+00  0.22775325459E+02  0.00000000000E+00 0. -1.
</event>
<event>
 7    1  0.8986500E-014  0.5052886E+02  0.7816164E-02  0.1300439E+00
        -11   -1    0    0    0    0  0.00000000000E+00  0.00000000000E+00  0.45593999997E+02  0.45594000000E+02  0.51100000000E-03 0.  1.
         11   -1    0    0    0    0 -0.00000000000E+00 -0.00000000000E+00 -0.45593999997E+02  0.45594000000E+02  0.51100000000E-03 0. -1.
    9900012    2    1    2    0    0  0.11200593862E+01 -0.39813067749E+02  0.81749891975E+01  0.50528863942E+02  0.30000012437E+02 0.  0.
        -12    1    1    2    0    0 -0.11200593862E+01  0.39813067749E+02 -0.81749891975E+01  0.40659136058E+02  0.00000000000E+00 0.  1.
         11    1    3    3    0    0 -0.20246342116E+01 -0.32296167552E+01  0.58085931950E+01  0.69476127729E+01  0.51100000000E-03 0. -1.
        -11    1    3    3    0    0  0.20959474170E+01 -0.27004112985E+02  0.12294780258E+02  0.29745196848E+02  0.51100000000E-03 0.  1.
         12    1    3    3    0    0  0.10487461807E+01 -0.95793380093E+01 -0.99283842552E+01  0.13836054321E+02  0.00000000000E+00 0. -1.
</event>
<event>
 7    1  0.8986500E-014  0.5052885E+02  0.7816164E-02  0.1300439E+00
        -11   -1    0    0    0    0  0.00000000000E+00  0.00000000000E+00  0.45593999997E+02  0.45594000000E+02  0.51100000000E-03 0.  1.
         11   -1    0    0    0    0 -0.00000000000E+00 -0.00000000000E+00 -0.45593999997E+02  0.45594000000E+02  0.51100000000E-03 0. -1.
    9900012    2    1    2    0    0 -0.34039097216E+02  0.20692235032E+02  0.81447791608E+01  0.50528853950E+02  0.29999982067E+02 0.  0.
        -12    1    1    2    0    0  0.34039097216E+02 -0.20692235032E+02 -0.81447791608E+01  0.40659146050E+02  0.00000000000E+00 0.  1.
         11    1    3    3    0    0 -0.69584217733E+01 -0.35028732608E+01  0.79549974260E+01  0.11134259695E+02  0.51100000000E-03 0. -1.
        -11    1    3    3    0    0 -0.26463318623E+01 -0.20593022499E+01 -0.10318073132E+01  0.35083364540E+01  0.51100000000E-03 0.  1.
         12    1    3    3    0    0 -0.24434343581E+02  0.26254410542E+02  0.12215890481E+01  0.35886257801E+02  0.00000000000E+00 0. -1.
</event>
